Generated by trjconv : CNT in water t= 357.00000
33518
    1C        C    1   2.842   2.769   4.749
    1C        C    2   2.898   2.722   4.869
    1C        C    3   2.837   2.769   4.987
    1C        C    4   2.855   2.782   4.261
    1C        C    5   2.904   2.731   4.383
    1C        C    6   2.845   2.772   4.505
    1C        C    7   3.012   2.642   4.627
    1C        C    8   2.895   2.721   4.627
    1C        C    9   3.078   2.607   4.747
    1C        C   10   3.009   2.635   4.867
    1C        C   11   3.185   2.492   4.979
    1C        C   12   3.063   2.560   4.973
    1C        C   13   2.852   2.770   3.776
    1C        C   14   2.900   2.719   3.899
    1C        C   15   2.847   2.772   4.019
    1C        C   16   3.017   2.643   4.141
    1C        C   17   2.905   2.728   4.140
    1C        C   18   3.079   2.610   4.263
    1C        C   19   3.018   2.647   4.385
    1C        C   20   3.211   2.564   4.506
    1C        C   21   3.077   2.608   4.507
    1C        C   22   3.280   2.538   4.626
    1C        C   23   3.208   2.548   4.747
    1C        C   24   3.414   2.490   4.868
    1C        C   25   3.272   2.504   4.866
    1C        C   26   3.491   2.480   4.985
    1C        C   27   2.852   2.769   3.284
    1C        C   28   2.906   2.724   3.406
    1C        C   29   2.855   2.769   3.530
    1C        C   30   3.019   2.639   3.653
    1C        C   31   2.904   2.721   3.654
    1C        C   32   3.080   2.604   3.775
    1C        C   33   3.017   2.640   3.897
    1C        C   34   3.210   2.557   4.020
    1C        C   35   3.076   2.600   4.019
    1C        C   36   3.281   2.541   4.141
    1C        C   37   3.212   2.560   4.262
    1C        C   38   3.417   2.506   4.383
    1C        C   39   3.280   2.542   4.384
    1C        C   40   3.488   2.501   4.505
    1C        C   41   3.419   2.510   4.628
    1C        C   42   3.632   2.495   4.747
    1C        C   43   3.490   2.491   4.748
    1C        C   44   3.706   2.497   4.867
    1C        C   45   3.630   2.476   4.983
    1C        C   46   2.842   2.756   2.796
    1C        C   47   2.898   2.713   2.918
    1C        C   48   2.846   2.763   3.039
    1C        C   49   3.021   2.644   3.161
    1C        C   50   2.902   2.720   3.161
    1C        C   51   3.084   2.609   3.283
    1C        C   52   3.022   2.643   3.405
    1C        C   53   3.207   2.547   3.531
    1C        C   54   3.079   2.606   3.529
    1C        C   55   3.276   2.527   3.653
    1C        C   56   3.210   2.551   3.776
    1C        C   57   3.419   2.515   3.898
    1C        C   58   3.280   2.539   3.898
    1C        C   59   3.491   2.504   4.020
    1C        C   60   3.419   2.509   4.141
    1C        C   61   3.631   2.496   4.260
    1C        C   62   3.490   2.494   4.262
    1C        C   63   3.701   2.508   4.382
    1C        C   64   3.629   2.507   4.503
    1C        C   65   3.836   2.554   4.626
    1C        C   66   3.701   2.511   4.624
    1C        C   67   3.907   2.570   4.747
    1C        C   68   3.842   2.532   4.867
    1C        C   69   4.055   2.590   4.983
    1C        C   70   3.927   2.536   4.978
    1C        C   71   2.826   2.738   2.311
    1C        C   72   2.883   2.691   2.431
    1C        C   73   2.834   2.745   2.552
    1C        C   74   3.013   2.631   2.676
    1C        C   75   2.892   2.704   2.674
    1C        C   76   3.075   2.596   2.798
    1C        C   77   3.014   2.631   2.920
    1C        C   78   3.208   2.542   3.042
    1C        C   79   3.079   2.598   3.040
    1C        C   80   3.278   2.524   3.164
    1C        C   81   3.211   2.547   3.286
    1C        C   82   3.415   2.501   3.408
    1C        C   83   3.277   2.528   3.410
    1C        C   84   3.487   2.502   3.529
    1C        C   85   3.416   2.509   3.652
    1C        C   86   3.627   2.504   3.773
    1C        C   87   3.486   2.504   3.774
    1C        C   88   3.698   2.516   3.894
    1C        C   89   3.632   2.507   4.019
    1C        C   90   3.838   2.558   4.140
    1C        C   91   3.704   2.513   4.140
    1C        C   92   3.903   2.583   4.262
    1C        C   93   3.836   2.550   4.382
    1C        C   94   4.025   2.646   4.503
    1C        C   95   3.904   2.575   4.504
    1C        C   96   4.091   2.681   4.624
    1C        C   97   4.035   2.632   4.744
    1C        C   98   4.195   2.768   4.870
    1C        C   99   4.099   2.662   4.867
    1C        C  100   4.219   2.847   4.983
    1C        C  101   2.830   2.737   2.074
    1C        C  102   2.989   2.588   2.197
    1C        C  103   2.880   2.681   2.192
    1C        C  104   3.065   2.569   2.316
    1C        C  105   3.002   2.615   2.434
    1C        C  106   3.201   2.534   2.554
    1C        C  107   3.071   2.589   2.554
    1C        C  108   3.274   2.525   2.675
    1C        C  109   3.206   2.543   2.797
    1C        C  110   3.414   2.499   2.919
    1C        C  111   3.274   2.521   2.919
    1C        C  112   3.486   2.490   3.040
    1C        C  113   3.417   2.499   3.163
    1C        C  114   3.628   2.500   3.282
    1C        C  115   3.487   2.494   3.286
    1C        C  116   3.697   2.513   3.404
    1C        C  117   3.628   2.509   3.528
    1C        C  118   3.836   2.542   3.648
    1C        C  119   3.698   2.514   3.651
    1C        C  120   3.903   2.567   3.770
    1C        C  121   3.836   2.546   3.892
    1C        C  122   4.026   2.642   4.015
    1C        C  123   3.900   2.578   4.014
    1C        C  124   4.092   2.674   4.136
    1C        C  125   4.032   2.641   4.259
    1C        C  126   4.200   2.768   4.381
    1C        C  127   4.089   2.681   4.382
    1C        C  128   4.254   2.818   4.502
    1C        C  129   4.200   2.771   4.624
    1C        C  130   4.332   2.934   4.743
    1C        C  131   4.247   2.820   4.748
    1C        C  132   4.365   3.001   4.863
    1C        C  133   4.297   2.962   4.979
    1C        C  134   3.174   2.472   2.083
    1C        C  135   3.041   2.516   2.085
    1C        C  136   3.262   2.480   2.191
    1C        C  137   3.196   2.516   2.311
    1C        C  138   3.407   2.485   2.434
    1C        C  139   3.266   2.502   2.433
    1C        C  140   3.485   2.488   2.552
    1C        C  141   3.413   2.500   2.673
    1C        C  142   3.624   2.497   2.793
    1C        C  143   3.483   2.491   2.796
    1C        C  144   3.696   2.510   2.914
    1C        C  145   3.627   2.499   3.036
    1C        C  146   3.833   2.539   3.160
    1C        C  147   3.697   2.502   3.159
    1C        C  148   3.901   2.563   3.281
    1C        C  149   3.835   2.543   3.404
    1C        C  150   4.032   2.624   3.525
    1C        C  151   3.904   2.564   3.526
    1C        C  152   4.088   2.669   3.647
    1C        C  153   4.026   2.637   3.770
    1C        C  154   4.195   2.767   3.887
    1C        C  155   4.085   2.679   3.892
    1C        C  156   4.243   2.814   4.012
    1C        C  157   4.200   2.765   4.137
    1C        C  158   4.345   2.920   4.255
    1C        C  159   4.253   2.813   4.259
    1C        C  160   4.379   2.986   4.375
    1C        C  161   4.333   2.934   4.498
    1C        C  162   4.438   3.117   4.618
    1C        C  163   4.369   2.994   4.621
    1C        C  164   4.471   3.185   4.738
    1C        C  165   4.441   3.120   4.859
    1C        C  166   4.522   3.320   4.969
    1C        C  167   4.481   3.187   4.975
    1C        C  168   3.479   2.441   2.078
    1C        C  169   3.402   2.462   2.194
    1C        C  170   3.620   2.469   2.309
    1C        C  171   3.477   2.465   2.314
    1C        C  172   3.695   2.496   2.426
    1C        C  173   3.626   2.493   2.549
    1C        C  174   3.832   2.542   2.671
    1C        C  175   3.695   2.505   2.671
    1C        C  176   3.899   2.567   2.793
    1C        C  177   3.833   2.544   2.916
    1C        C  178   4.027   2.629   3.038
    1C        C  179   3.901   2.565   3.038
    1C        C  180   4.090   2.665   3.158
    1C        C  181   4.028   2.626   3.279
    1C        C  182   4.197   2.753   3.401
    1C        C  183   4.091   2.660   3.401
    1C        C  184   4.245   2.808   3.522
    1C        C  185   4.196   2.760   3.645
    1C        C  186   4.340   2.920   3.768
    1C        C  187   4.249   2.812   3.765
    1C        C  188   4.377   2.979   3.890
    1C        C  189   4.336   2.920   4.012
    1C        C  190   4.447   3.106   4.133
    1C        C  191   4.380   2.981   4.132
    1C        C  192   4.474   3.175   4.253
    1C        C  193   4.441   3.114   4.376
    1C        C  194   4.512   3.316   4.492
    1C        C  195   4.469   3.182   4.496
    1C        C  196   4.528   3.389   4.613
    1C        C  197   4.515   3.321   4.735
    1C        C  198   4.562   3.538   4.852
    1C        C  199   4.540   3.396   4.853
    1C        C  200   4.581   3.620   4.968
    1C        C  201   3.618   2.427   2.073
    1C        C  202   3.829   2.512   2.185
    1C        C  203   3.695   2.461   2.189
    1C        C  204   3.899   2.542   2.305
    1C        C  205   3.833   2.526   2.429
    1C        C  206   4.027   2.619   2.546
    1C        C  207   3.901   2.554   2.549
    1C        C  208   4.087   2.659   2.668
    1C        C  209   4.025   2.630   2.791
    1C        C  210   4.200   2.748   2.912
    1C        C  211   4.087   2.663   2.914
    1C        C  212   4.252   2.800   3.032
    1C        C  213   4.203   2.751   3.155
    1C        C  214   4.337   2.912   3.277
    1C        C  215   4.250   2.800   3.279
    1C        C  216   4.374   2.973   3.399
    1C        C  217   4.333   2.919   3.523
    1C        C  218   4.431   3.108   3.641
    1C        C  219   4.376   2.978   3.644
    1C        C  220   4.453   3.174   3.764
    1C        C  221   4.436   3.107   3.887
    1C        C  222   4.503   3.308   4.007
    1C        C  223   4.467   3.171   4.010
    1C        C  224   4.515   3.381   4.128
    1C        C  225   4.511   3.311   4.250
    1C        C  226   4.520   3.527   4.367
    1C        C  227   4.519   3.386   4.370
    1C        C  228   4.521   3.599   4.489
    1C        C  229   4.532   3.530   4.612
    1C        C  230   4.511   3.745   4.728
    1C        C  231   4.546   3.607   4.729
    1C        C  232   4.500   3.819   4.848
    1C        C  233   4.542   3.754   4.964
    1C        C  234   4.020   2.609   2.068
    1C        C  235   3.896   2.547   2.067
    1C        C  236   4.087   2.650   2.184
    1C        C  237   4.026   2.607   2.304
    1C        C  238   4.200   2.737   2.424
    1C        C  239   4.089   2.649   2.423
    1C        C  240   4.254   2.787   2.545
    1C        C  241   4.201   2.742   2.668
    1C        C  242   4.339   2.905   2.788
    1C        C  243   4.254   2.792   2.789
    1C        C  244   4.384   2.963   2.909
    1C        C  245   4.344   2.908   3.032
    1C        C  246   4.445   3.094   3.152
    1C        C  247   4.381   2.968   3.155
    1C        C  248   4.458   3.165   3.274
    1C        C  249   4.431   3.102   3.397
    1C        C  250   4.489   3.309   3.518
    1C        C  251   4.458   3.172   3.518
    1C        C  252   4.498   3.379   3.641
    1C        C  253   4.491   3.310   3.765
    1C        C  254   4.526   3.520   3.877
    1C        C  255   4.511   3.380   3.886
    1C        C  256   4.517   3.591   3.999
    1C        C  257   4.520   3.522   4.122
    1C        C  258   4.497   3.735   4.243
    1C        C  259   4.513   3.595   4.243
    1C        C  260   4.482   3.806   4.364
    1C        C  261   4.498   3.738   4.487
    1C        C  262   4.429   3.942   4.606
    1C        C  263   4.485   3.812   4.606
    1C        C  264   4.407   4.011   4.727
    1C        C  265   4.437   3.946   4.848
    1C        C  266   4.321   4.128   4.958
    1C        C  267   4.393   4.010   4.965
    1C        C  268   4.258   2.783   2.064
    1C        C  269   4.198   2.737   2.182
    1C        C  270   4.346   2.893   2.302
    1C        C  271   4.255   2.784   2.303
    1C        C  272   4.388   2.954   2.422
    1C        C  273   4.349   2.892   2.543
    1C        C  274   4.447   3.083   2.664
    1C        C  275   4.382   2.958   2.664
    1C        C  276   4.470   3.154   2.784
    1C        C  277   4.446   3.090   2.907
    1C        C  278   4.501   3.295   3.030
    1C        C  279   4.470   3.157   3.029
    1C        C  280   4.512   3.368   3.150
    1C        C  281   4.498   3.300   3.274
    1C        C  282   4.515   3.515   3.393
    1C        C  283   4.503   3.374   3.394
    1C        C  284   4.514   3.589   3.514
    1C        C  285   4.510   3.519   3.637
    1C        C  286   4.494   3.733   3.754
    1C        C  287   4.520   3.594   3.756
    1C        C  288   4.476   3.798   3.878
    1C        C  289   4.495   3.731   4.001
    1C        C  290   4.431   3.936   4.119
    1C        C  291   4.479   3.803   4.121
    1C        C  292   4.403   4.003   4.240
    1C        C  293   4.430   3.938   4.363
    1C        C  294   4.331   4.128   4.481
    1C        C  295   4.402   4.006   4.483
    1C        C  296   4.290   4.189   4.602
    1C        C  297   4.333   4.133   4.724
    1C        C  298   4.204   4.315   4.837
    1C        C  299   4.289   4.200   4.842
    1C        C  300   4.174   4.401   4.947
    1C        C  301   4.350   2.887   2.064
    1C        C  302   4.473   3.067   2.180
    1C        C  303   4.403   2.942   2.182
    1C        C  304   4.475   3.147   2.298
    1C        C  305   4.452   3.080   2.420
    1C        C  306   4.511   3.284   2.538
    1C        C  307   4.478   3.147   2.541
    1C        C  308   4.517   3.357   2.659
    1C        C  309   4.497   3.293   2.784
    1C        C  310   4.516   3.504   2.902
    1C        C  311   4.510   3.363   2.906
    1C        C  312   4.514   3.576   3.024
    1C        C  313   4.515   3.509   3.148
    1C        C  314   4.491   3.722   3.264
    1C        C  315   4.510   3.583   3.269
    1C        C  316   4.479   3.794   3.385
    1C        C  317   4.496   3.729   3.509
    1C        C  318   4.432   3.933   3.628
    1C        C  319   4.481   3.800   3.631
    1C        C  320   4.399   3.993   3.751
    1C        C  321   4.426   3.930   3.874
    1C        C  322   4.324   4.117   3.993
    1C        C  323   4.399   3.997   3.996
    1C        C  324   4.284   4.174   4.116
    1C        C  325   4.332   4.125   4.239
    1C        C  326   4.187   4.284   4.357
    1C        C  327   4.285   4.182   4.359
    1C        C  328   4.132   4.334   4.477
    1C        C  329   4.192   4.291   4.598
    1C        C  330   4.029   4.438   4.715
    1C        C  331   4.145   4.356   4.714
    1C        C  332   3.972   4.488   4.834
    1C        C  333   4.056   4.477   4.946
    1C        C  334   4.557   3.268   2.069
    1C        C  335   4.537   3.129   2.068
    1C        C  336   4.536   3.354   2.177
    1C        C  337   4.508   3.285   2.297
    1C        C  338   4.522   3.499   2.412
    1C        C  339   4.515   3.358   2.418
    1C        C  340   4.516   3.569   2.535
    1C        C  341   4.523   3.498   2.657
    1C        C  342   4.502   3.711   2.775
    1C        C  343   4.515   3.571   2.778
    1C        C  344   4.485   3.784   2.895
    1C        C  345   4.496   3.716   3.019
    1C        C  346   4.435   3.922   3.139
    1C        C  347   4.477   3.787   3.139
    1C        C  348   4.403   3.991   3.259
    1C        C  349   4.432   3.927   3.381
    1C        C  350   4.325   4.110   3.504
    1C        C  351   4.402   3.992   3.503
    1C        C  352   4.282   4.167   3.625
    1C        C  353   4.327   4.115   3.749
    1C        C  354   4.181   4.271   3.868
    1C        C  355   4.285   4.175   3.870
    1C        C  356   4.124   4.314   3.990
    1C        C  357   4.176   4.266   4.112
    1C        C  358   4.015   4.405   4.232
    1C        C  359   4.128   4.320   4.234
    1C        C  360   3.953   4.445   4.352
    1C        C  361   4.020   4.419   4.474
    1C        C  362   3.831   4.519   4.596
    1C        C  363   3.962   4.466   4.594
    1C        C  364   3.766   4.553   4.717
    1C        C  365   3.841   4.542   4.836
    1C        C  366   3.634   4.601   4.954
    1C        C  367   3.770   4.572   4.953
    1C        C  368   4.512   3.569   2.052
    1C        C  369   4.521   3.495   2.170
    1C        C  370   4.501   3.710   2.288
    1C        C  371   4.518   3.570   2.290
    1C        C  372   4.488   3.778   2.411
    1C        C  373   4.507   3.710   2.533
    1C        C  374   4.435   3.913   2.650
    1C        C  375   4.482   3.780   2.653
    1C        C  376   4.404   3.978   2.772
    1C        C  377   4.435   3.916   2.895
    1C        C  378   4.336   4.106   3.011
    1C        C  379   4.409   3.985   3.015
    1C        C  380   4.288   4.164   3.131
    1C        C  381   4.327   4.110   3.255
    1C        C  382   4.186   4.265   3.378
    1C        C  383   4.283   4.162   3.379
    1C        C  384   4.126   4.309   3.499
    1C        C  385   4.180   4.266   3.622
    1C        C  386   4.007   4.387   3.746
    1C        C  387   4.127   4.313   3.744
    1C        C  388   3.946   4.430   3.866
    1C        C  389   4.011   4.398   3.987
    1C        C  390   3.821   4.490   4.110
    1C        C  391   3.951   4.435   4.110
    1C        C  392   3.754   4.516   4.232
    1C        C  393   3.825   4.505   4.353
    1C        C  394   3.622   4.560   4.477
    1C        C  395   3.760   4.534   4.475
    1C        C  396   3.551   4.574   4.599
    1C        C  397   3.626   4.569   4.719
    1C        C  398   3.415   4.560   4.842
    1C        C  399   3.555   4.581   4.840
    1C        C  400   3.348   4.520   4.958
    1C        C  401   4.504   3.707   2.050
    1C        C  402   4.460   3.919   2.169
    1C        C  403   4.500   3.783   2.167
    1C        C  404   4.422   3.981   2.289
    1C        C  405   4.437   3.910   2.410
    1C        C  406   4.336   4.101   2.528
    1C        C  407   4.409   3.980   2.529
    1C        C  408   4.288   4.158   2.648
    1C        C  409   4.325   4.095   2.769
    1C        C  410   4.186   4.258   2.889
    1C        C  411   4.283   4.155   2.890
    1C        C  412   4.133   4.306   3.011
    1C        C  413   4.186   4.262   3.134
    1C        C  414   4.011   4.383   3.254
    1C        C  415   4.131   4.309   3.256
    1C        C  416   3.945   4.410   3.376
    1C        C  417   4.004   4.379   3.501
    1C        C  418   3.816   4.478   3.620
    1C        C  419   3.945   4.418   3.623
    1C        C  420   3.749   4.503   3.742
    1C        C  421   3.818   4.489   3.864
    1C        C  422   3.615   4.538   3.989
    1C        C  423   3.755   4.515   3.988
    1C        C  424   3.545   4.543   4.111
    1C        C  425   3.615   4.544   4.234
    1C        C  426   3.406   4.555   4.358
    1C        C  427   3.547   4.552   4.357
    1C        C  428   3.337   4.555   4.482
    1C        C  429   3.410   4.564   4.603
    1C        C  430   3.199   4.527   4.725
    1C        C  431   3.338   4.556   4.724
    1C        C  432   3.129   4.502   4.846
    1C        C  433   3.212   4.490   4.959
    1C        C  434   4.386   4.123   2.052
    1C        C  435   4.446   3.997   2.053
    1C        C  436   4.307   4.164   2.164
    1C        C  437   4.346   4.102   2.286
    1C        C  438   4.189   4.252   2.405
    1C        C  439   4.291   4.154   2.405
    1C        C  440   4.131   4.297   2.525
    1C        C  441   4.187   4.257   2.648
    1C        C  442   4.009   4.378   2.767
    1C        C  443   4.129   4.303   2.768
    1C        C  444   3.947   4.415   2.888
    1C        C  445   4.013   4.381   3.009
    1C        C  446   3.817   4.464   3.133
    1C        C  447   3.948   4.410   3.130
    1C        C  448   3.749   4.488   3.254
    1C        C  449   3.815   4.465   3.377
    1C        C  450   3.609   4.524   3.500
    1C        C  451   3.748   4.496   3.498
    1C        C  452   3.541   4.541   3.623
    1C        C  453   3.612   4.536   3.745
    1C        C  454   3.401   4.545   3.869
    1C        C  455   3.542   4.543   3.868
    1C        C  456   3.333   4.539   3.993
    1C        C  457   3.404   4.547   4.115
    1C        C  458   3.198   4.504   4.239
    1C        C  459   3.334   4.543   4.237
    1C        C  460   3.136   4.483   4.364
    1C        C  461   3.202   4.515   4.485
    1C        C  462   3.003   4.436   4.607
    1C        C  463   3.130   4.498   4.605
    1C        C  464   2.932   4.407   4.725
    1C        C  465   2.994   4.453   4.844
    1C        C  466   2.809   4.340   4.963
    1C        C  467   2.913   4.434   4.960
    1C        C  468   4.128   4.287   2.045
    1C        C  469   4.191   4.248   2.164
    1C        C  470   4.011   4.373   2.282
    1C        C  471   4.129   4.293   2.283
    1C        C  472   3.946   4.407   2.402
    1C        C  473   4.011   4.372   2.522
    1C        C  474   3.817   4.460   2.646
    1C        C  475   3.949   4.410   2.643
    1C        C  476   3.748   4.485   2.766
    1C        C  477   3.816   4.468   2.889
    1C        C  478   3.610   4.516   3.012
    1C        C  479   3.748   4.487   3.011
    1C        C  480   3.539   4.527   3.133
    1C        C  481   3.611   4.518   3.254
    1C        C  482   3.400   4.529   3.379
    1C        C  483   3.541   4.531   3.377
    1C        C  484   3.329   4.536   3.501
    1C        C  485   3.400   4.545   3.623
    1C        C  486   3.194   4.509   3.748
    1C        C  487   3.331   4.543   3.746
    1C        C  488   3.128   4.486   3.871
    1C        C  489   3.196   4.507   3.993
    1C        C  490   3.004   4.423   4.117
    1C        C  491   3.131   4.485   4.116
    1C        C  492   2.948   4.388   4.242
    1C        C  493   3.008   4.423   4.365
    1C        C  494   2.835   4.301   4.487
    1C        C  495   2.946   4.389   4.487
    1C        C  496   2.779   4.259   4.610
    1C        C  497   2.825   4.313   4.732
    1C        C  498   2.668   4.166   4.846
    1C        C  499   2.761   4.272   4.851
    1C        C  500   2.604   4.120   4.962
    1C        C  501   4.009   4.360   2.045
    1C        C  502   3.814   4.459   2.159
    1C        C  503   3.943   4.401   2.161
    1C        C  504   3.746   4.484   2.280
    1C        C  505   3.814   4.458   2.401
    1C        C  506   3.608   4.504   2.524
    1C        C  507   3.747   4.478   2.524
    1C        C  508   3.538   4.513   2.646
    1C        C  509   3.609   4.514   2.768
    1C        C  510   3.398   4.529   2.889
    1C        C  511   3.540   4.525   2.890
    1C        C  512   3.325   4.524   3.010
    1C        C  513   3.397   4.532   3.131
    1C        C  514   3.192   4.499   3.260
    1C        C  515   3.331   4.526   3.255
    1C        C  516   3.125   4.477   3.382
    1C        C  517   3.191   4.508   3.503
    1C        C  518   3.002   4.416   3.631
    1C        C  519   3.126   4.485   3.626
    1C        C  520   2.944   4.377   3.753
    1C        C  521   3.005   4.416   3.874
    1C        C  522   2.841   4.283   4.000
    1C        C  523   2.946   4.378   3.997
    1C        C  524   2.793   4.239   4.125
    1C        C  525   2.836   4.302   4.243
    1C        C  526   2.701   4.138   4.365
    1C        C  527   2.785   4.251   4.365
    1C        C  528   2.663   4.078   4.488
    1C        C  529   2.693   4.147   4.607
    1C        C  530   2.591   3.961   4.733
    1C        C  531   2.644   4.092   4.728
    1C        C  532   2.547   3.904   4.856
    1C        C  533   2.534   3.999   4.963
    1C        C  534   3.619   4.558   2.046
    1C        C  535   3.753   4.517   2.048
    1C        C  536   3.536   4.534   2.160
    1C        C  537   3.607   4.515   2.282
    1C        C  538   3.396   4.519   2.401
    1C        C  539   3.537   4.525   2.404
    1C        C  540   3.327   4.509   2.525
    1C        C  541   3.397   4.515   2.648
    1C        C  542   3.186   4.490   2.771
    1C        C  543   3.325   4.514   2.769
    1C        C  544   3.117   4.475   2.893
    1C        C  545   3.187   4.493   3.015
    1C        C  546   2.997   4.411   3.139
    1C        C  547   3.124   4.473   3.139
    1C        C  548   2.941   4.371   3.263
    1C        C  549   3.000   4.410   3.385
    1C        C  550   2.835   4.284   3.509
    1C        C  551   2.941   4.377   3.509
    1C        C  552   2.786   4.234   3.631
    1C        C  553   2.833   4.289   3.753
    1C        C  554   2.706   4.122   3.879
    1C        C  555   2.791   4.235   3.877
    1C        C  556   2.668   4.064   4.002
    1C        C  557   2.706   4.127   4.123
    1C        C  558   2.607   3.944   4.250
    1C        C  559   2.661   4.075   4.246
    1C        C  560   2.583   3.877   4.372
    1C        C  561   2.603   3.950   4.491
    1C        C  562   2.536   3.751   4.617
    1C        C  563   2.567   3.889   4.613
    1C        C  564   2.522   3.684   4.741
    1C        C  565   2.520   3.764   4.859
    1C        C  566   2.541   3.547   4.980
    1C        C  567   2.530   3.686   4.975
    1C        C  568   3.325   4.480   2.044
    1C        C  569   3.395   4.518   2.159
    1C        C  570   3.185   4.477   2.283
    1C        C  571   3.322   4.513   2.281
    1C        C  572   3.116   4.464   2.405
    1C        C  573   3.188   4.487   2.525
    1C        C  574   2.991   4.412   2.651
    1C        C  575   3.120   4.468   2.647
    1C        C  576   2.932   4.369   2.772
    1C        C  577   2.994   4.406   2.894
    1C        C  578   2.828   4.281   3.020
    1C        C  579   2.937   4.371   3.018
    1C        C  580   2.779   4.230   3.143
    1C        C  581   2.834   4.280   3.263
    1C        C  582   2.705   4.116   3.390
    1C        C  583   2.788   4.230   3.387
    1C        C  584   2.669   4.056   3.512
    1C        C  585   2.703   4.119   3.634
    1C        C  586   2.600   3.937   3.761
    1C        C  587   2.666   4.062   3.757
    1C        C  588   2.574   3.872   3.883
    1C        C  589   2.608   3.937   4.004
    1C        C  590   2.546   3.739   4.131
    1C        C  591   2.580   3.876   4.129
    1C        C  592   2.533   3.671   4.254
    1C        C  593   2.537   3.743   4.375
    1C        C  594   2.513   3.536   4.499
    1C        C  595   2.519   3.677   4.499
    1C        C  596   2.519   3.469   4.623
    1C        C  597   2.522   3.542   4.744
    1C        C  598   2.529   3.328   4.863
    1C        C  599   2.527   3.469   4.865
    1C        C  600   2.533   3.253   4.981
    1C        C  601   3.192   4.443   2.042
    1C        C  602   2.984   4.395   2.161
    1C        C  603   3.118   4.445   2.161
    1C        C  604   2.928   4.361   2.287
    1C        C  605   2.989   4.402   2.408
    1C        C  606   2.820   4.280   2.533
    1C        C  607   2.927   4.372   2.531
    1C        C  608   2.773   4.227   2.655
    1C        C  609   2.825   4.278   2.776
    1C        C  610   2.693   4.114   2.897
    1C        C  611   2.775   4.229   2.899
    1C        C  612   2.659   4.057   3.021
    1C        C  613   2.697   4.115   3.144
    1C        C  614   2.599   3.930   3.269
    1C        C  615   2.664   4.056   3.268
    1C        C  616   2.577   3.866   3.393
    1C        C  617   2.599   3.933   3.515
    1C        C  618   2.543   3.732   3.642
    1C        C  619   2.574   3.869   3.639
    1C        C  620   2.525   3.665   3.765
    1C        C  621   2.534   3.737   3.887
    1C        C  622   2.508   3.528   4.013
    1C        C  623   2.525   3.668   4.010
    1C        C  624   2.513   3.457   4.135
    1C        C  625   2.519   3.531   4.256
    1C        C  626   2.542   3.322   4.379
    1C        C  627   2.515   3.461   4.379
    1C        C  628   2.562   3.258   4.503
    1C        C  629   2.539   3.329   4.623
    1C        C  630   2.597   3.121   4.746
    1C        C  631   2.551   3.255   4.744
    1C        C  632   2.619   3.053   4.869
    1C        C  633   2.568   3.118   4.986
    1C        C  634   2.781   4.306   2.056
    1C        C  635   2.889   4.396   2.053
    1C        C  636   2.747   4.239   2.174
    1C        C  637   2.810   4.282   2.293
    1C        C  638   2.683   4.113   2.413
    1C        C  639   2.760   4.231   2.415
    1C        C  640   2.654   4.047   2.534
    1C        C  641   2.691   4.112   2.655
    1C        C  642   2.592   3.924   2.782
    1C        C  643   2.655   4.050   2.777
    1C        C  644   2.567   3.860   2.905
    1C        C  645   2.597   3.930   3.024
    1C        C  646   2.533   3.728   3.152
    1C        C  647   2.573   3.864   3.147
    1C        C  648   2.527   3.657   3.274
    1C        C  649   2.540   3.730   3.394
    1C        C  650   2.513   3.523   3.524
    1C        C  651   2.531   3.663   3.519
    1C        C  652   2.518   3.455   3.648
    1C        C  653   2.511   3.525   3.771
    1C        C  654   2.528   3.314   3.892
    1C        C  655   2.505   3.453   3.893
    1C        C  656   2.545   3.247   4.016
    1C        C  657   2.524   3.316   4.137
    1C        C  658   2.585   3.112   4.261
    1C        C  659   2.550   3.249   4.258
    1C        C  660   2.624   3.051   4.383
    1C        C  661   2.605   3.123   4.502
    1C        C  662   2.711   2.941   4.626
    1C        C  663   2.630   3.057   4.624
    1C        C  664   2.753   2.880   4.746
    1C        C  665   2.703   2.936   4.866
    1C        C  666   2.740   2.868   4.983
    1C        C  667   2.685   4.026   2.061
    1C        C  668   2.692   4.109   2.173
    1C        C  669   2.593   3.916   2.293
    1C        C  670   2.651   4.046   2.292
    1C        C  671   2.571   3.849   2.416
    1C        C  672   2.595   3.919   2.536
    1C        C  673   2.532   3.720   2.662
    1C        C  674   2.568   3.857   2.660
    1C        C  675   2.517   3.654   2.786
    1C        C  676   2.530   3.724   2.908
    1C        C  677   2.505   3.515   3.032
    1C        C  678   2.520   3.656   3.031
    1C        C  679   2.518   3.448   3.156
    1C        C  680   2.521   3.516   3.279
    1C        C  681   2.534   3.310   3.406
    1C        C  682   2.510   3.449   3.404
    1C        C  683   2.558   3.246   3.529
    1C        C  684   2.539   3.316   3.651
    1C        C  685   2.612   3.116   3.775
    1C        C  686   2.553   3.244   3.772
    1C        C  687   2.639   3.054   3.899
    1C        C  688   2.597   3.116   4.018
    1C        C  689   2.712   2.939   4.141
    1C        C  690   2.628   3.052   4.141
    1C        C  691   2.758   2.885   4.263
    1C        C  692   2.713   2.941   4.385
    1C        C  693   2.756   2.882   4.505
    1C        C  694   2.636   3.895   2.062
    1C        C  695   2.534   3.704   2.178
    1C        C  696   2.582   3.836   2.177
    1C        C  697   2.518   3.638   2.302
    1C        C  698   2.534   3.713   2.420
    1C        C  699   2.497   3.506   2.548
    1C        C  700   2.515   3.646   2.543
    1C        C  701   2.505   3.437   2.671
    1C        C  702   2.506   3.513   2.790
    1C        C  703   2.529   3.302   2.917
    1C        C  704   2.504   3.441   2.912
    1C        C  705   2.551   3.237   3.040
    1C        C  706   2.544   3.309   3.162
    1C        C  707   2.605   3.108   3.284
    1C        C  708   2.557   3.241   3.285
    1C        C  709   2.636   3.048   3.408
    1C        C  710   2.608   3.114   3.530
    1C        C  711   2.718   2.932   3.651
    1C        C  712   2.642   3.051   3.652
    1C        C  713   2.761   2.878   3.774
    1C        C  714   2.716   2.935   3.896
    1C        C  715   2.755   2.880   4.020
    1C        C  716   2.452   3.501   2.064
    1C        C  717   2.497   3.634   2.062
    1C        C  718   2.470   3.425   2.185
    1C        C  719   2.490   3.499   2.305
    1C        C  720   2.521   3.292   2.431
    1C        C  721   2.496   3.431   2.428
    1C        C  722   2.536   3.225   2.554
    1C        C  723   2.526   3.298   2.675
    1C        C  724   2.598   3.098   2.795
    1C        C  725   2.546   3.230   2.797
    1C        C  726   2.626   3.034   2.918
    1C        C  727   2.603   3.105   3.038
    1C        C  728   2.709   2.925   3.164
    1C        C  729   2.632   3.044   3.161
    1C        C  730   2.757   2.874   3.286
    1C        C  731   2.713   2.929   3.409
    1C        C  732   2.757   2.871   3.529
    1C        C  733   2.498   3.203   2.077
    1C        C  734   2.499   3.285   2.190
    1C        C  735   2.587   3.087   2.311
    1C        C  736   2.531   3.218   2.311
    1C        C  737   2.617   3.023   2.434
    1C        C  738   2.589   3.093   2.553
    1C        C  739   2.699   2.911   2.674
    1C        C  740   2.624   3.030   2.674
    1C        C  741   2.742   2.856   2.797
    1C        C  742   2.699   2.913   2.919
    1C        C  743   2.750   2.866   3.042
    1C        C  744   2.546   3.072   2.075
    1C        C  745   2.688   2.903   2.188
    1C        C  746   2.607   3.018   2.189
    1C        C  747   2.732   2.844   2.309
    1C        C  748   2.694   2.905   2.431
    1C        C  749   2.740   2.850   2.553
    1C        C  750   2.743   2.845   2.073
    1C        C  751   3.666   2.337   1.965
    1C        O  752   3.721   2.225   1.979
    1C        O  753   3.678   2.382   1.833
    1C        C  754   4.632   3.049   1.989
    1C        O  755   4.606   3.019   1.869
    1C        O  756   4.769   3.043   2.017
    1C        C  757   4.469   4.218   1.974
    1C        O  758   4.528   4.319   2.020
    1C        O  759   4.474   4.201   1.835
    1C        C  760   3.587   4.662   1.945
    1C        O  761   3.540   4.778   1.961
    1C        O  762   3.562   4.621   1.814
    1C        C  763   2.849   4.518   1.979
    1C        O  764   2.909   4.538   1.870
    1C        O  765   2.769   4.624   2.022
    1C        C  766   2.327   3.486   1.987
    1C        O  767   2.306   3.469   1.864
    1C        O  768   2.210   3.515   2.057
    1C        C  769   4.697   3.594   5.057
    1C        O  770   4.681   3.561   5.177
    1C        O  771   4.827   3.625   5.016
    1C        C  772   4.280   4.442   5.042
    1C        O  773   4.261   4.406   5.161
    1C        O  774   4.418   4.430   5.021
    1C        C  775   4.148   2.518   5.072
    1C        O  776   4.182   2.399   5.049
    1C        O  777   4.182   2.563   5.201
    1C        C  778   2.881   4.545   5.053
    1C        O  779   2.784   4.623   5.033
    1C        O  780   2.935   4.543   5.182
    1C        C  781   2.496   3.042   5.091
    1C        O  782   2.401   2.962   5.073
    1C        O  783   2.491   3.065   5.228
    1C        C  784   2.419   4.010   5.055
    1C        O  785   2.296   4.010   5.030
    1C        O  786   2.451   3.964   5.184
    1C        C  787   2.953   2.424   2.010
    1C        O  788   2.941   2.441   1.886
    1C        O  789   2.889   2.316   2.071
    1C        C  790   3.179   2.361   5.048
    1C        O  791   3.153   2.252   4.991
    1C        O  792   3.155   2.354   5.186
    1C        H  793   4.266   3.035   5.051
    1C        H  794   4.149   2.828   5.063
    1C        H  795   4.522   3.129   5.055
    1C        H  796   4.561   3.357   5.062
    1C        H  797   4.596   3.811   5.037
    1C        H  798   4.426   3.978   5.062
    1C        H  799   4.283   4.162   5.052
    1C        H  800   4.052   4.557   5.017
    1C        H  801   3.824   4.602   5.041
    1C        H  802   3.602   4.669   5.030
    1C        H  803   3.387   4.535   5.056
    1C        H  804   3.175   4.442   5.047
    1C        H  805   3.908   2.450   5.040
    1C        H  806   3.674   2.453   5.078
    1C        H  807   3.022   2.575   5.071
    1C        H  808   3.442   2.465   5.079
    1C        H  809   2.900   2.783   5.072
    1C        H  810   2.684   2.878   5.074
    1C        H  811   2.501   3.298   5.073
    1C        H  812   2.585   3.516   5.073
    1C        H  813   2.496   3.730   5.066
    1C        H  814   2.626   4.162   5.058
    1C        H  815   2.757   4.324   5.055
    1C        H  816   2.713   2.885   1.978
    1C        H  817   2.823   2.674   1.987
    1C        H  818   3.190   2.392   2.013
    1C        H  819   3.424   2.426   1.987
    1C        H  820   3.835   2.569   1.982
    1C        H  821   4.075   2.594   1.976
    1C        H  822   4.231   2.739   1.970
    1C        H  823   4.377   2.938   1.974
    1C        H  824   4.620   3.302   1.989
    1C        H  825   4.471   3.521   1.966
    1C        H  826   4.523   3.752   1.954
    1C        H  827   3.821   4.578   1.991
    1C        H  828   3.944   4.337   1.963
    1C        H  829   4.142   4.224   1.959
    1C        H  830   4.430   3.945   1.961
    1C        H  831   2.634   3.843   1.968
    1C        H  832   2.771   4.038   1.998
    1C        H  833   2.761   4.267   1.959
    1C        H  834   3.366   4.505   1.949
    1C        H  835   3.146   4.412   1.951
    1C        H  836   2.509   3.007   1.999
    1C        H  837   2.437   3.227   1.992
    1C        H  838   2.531   3.673   1.968
    2V3OU   H29  839   2.809   3.548   3.774
    2V3OU   C27  840   2.795   3.507   3.877
    2V3OU   H27  841   2.740   3.576   3.947
    2V3OU   H28  842   2.742   3.410   3.859
    2V3OU   O11  843   2.921   3.474   3.937
    2V3OU   C15  844   2.932   3.400   4.054
    2V3OU   C13  845   3.062   3.373   4.099
    2V3OU   C14  846   3.080   3.266   4.188
    2V3OU   C16  847   2.980   3.186   4.243
    2V3OU    H6  848   2.995   3.106   4.316
    2V3OU   C12  849   3.218   3.230   4.226
    2V3OU    O2  850   3.250   3.128   4.291
    2V3OU   C10  851   3.330   3.309   4.174
    2V3OU    C8  852   3.461   3.269   4.199
    2V3OU   O10  853   3.494   3.168   4.284
    2V3OU   H26  854   3.408   3.124   4.299
    2V3OU    C6  855   3.565   3.351   4.146
    2V3OU    C5  856   3.541   3.472   4.082
    2V3OU    C4  857   3.705   3.300   4.151
    2V3OU    H4  858   3.722   3.232   4.240
    2V3OU    H5  859   3.713   3.232   4.062
    2V3OU    C2  860   3.816   3.404   4.147
    2V3OU    O6  861   3.808   3.483   4.267
    2V3OU   H21  862   3.767   3.563   4.233
    2V3OU    C3  863   3.783   3.496   4.029
    2V3OU    H2  864   3.860   3.576   4.018
    2V3OU    H3  865   3.779   3.446   3.929
    2V3OU   C25  866   3.950   3.330   4.143
    2V3OU    O7  867   4.008   3.297   4.040
    2V3OU   C26  868   4.025   3.295   4.271
    2V3OU   H22  869   4.068   3.390   4.310
    2V3OU   H23  870   4.114   3.231   4.248
    2V3OU    O8  871   3.958   3.212   4.364
    2V3OU   H24  872   3.928   3.272   4.435
    2V3OU    C1  873   3.651   3.570   4.051
    2V3OU    H1  874   3.625   3.621   3.954
    2V3OU    O3  875   3.664   3.660   4.161
    2V3OU   C19  876   3.620   3.794   4.139
    2V3OU    H9  877   3.523   3.798   4.081
    2V3OU    O4  878   3.720   3.848   4.057
    2V3OU   C20  879   3.852   3.879   4.105
    2V3OU   H10  880   3.890   3.775   4.125
    2V3OU   C24  881   3.612   3.864   4.275
    2V3OU   H16  882   3.544   3.797   4.335
    2V3OU   H17  883   3.562   3.964   4.270
    2V3OU   C23  884   3.751   3.884   4.337
    2V3OU   H15  885   3.793   3.780   4.359
    2V3OU    N1  886   3.745   3.960   4.460
    2V3OU   H19  887   3.808   3.929   4.531
    2V3OU   H20  888   3.657   3.939   4.503
    2V3OU   C21  889   3.852   3.952   4.239
    2V3OU   H11  890   3.956   3.935   4.278
    2V3OU    O5  891   3.829   4.092   4.234
    2V3OU   H18  892   3.778   4.101   4.317
    2V3OU   C22  893   3.917   3.954   3.990
    2V3OU   H12  894   3.865   4.053   3.977
    2V3OU   H13  895   3.912   3.895   3.895
    2V3OU   H14  896   4.026   3.965   4.011
    2V3OU   C11  897   3.169   3.469   4.064
    2V3OU    O1  898   3.141   3.589   4.045
    2V3OU    C9  899   3.306   3.429   4.100
    2V3OU    C7  900   3.407   3.511   4.051
    2V3OU    O9  901   3.396   3.620   3.967
    2V3OU   H25  902   3.300   3.633   3.959
    2V3OU   C17  903   2.833   3.319   4.112
    2V3OU    H7  904   2.736   3.358   4.079
    2V3OU   C18  905   2.849   3.220   4.208
    2V3OU    H8  906   2.789   3.179   4.290
    3SOL     OW  907   3.082   4.455   5.577
    3SOL    HW1  908   3.152   4.496   5.635
    3SOL    HW2  909   3.038   4.525   5.522
    4SOL     OW  910   0.138   6.864   6.871
    4SOL    HW1  911   0.119   6.871   6.969
    4SOL    HW2  912   0.073   6.799   6.830
    5SOL     OW  913   5.165   1.251   2.745
    5SOL    HW1  914   5.236   1.290   2.686
    5SOL    HW2  915   5.132   1.165   2.706
    6SOL     OW  916   5.433   2.317   2.856
    6SOL    HW1  917   5.528   2.330   2.885
    6SOL    HW2  918   5.411   2.220   2.855
    7SOL     OW  919   1.013   4.129   4.827
    7SOL    HW1  920   1.036   4.032   4.826
    7SOL    HW2  921   1.098   4.183   4.830
    8SOL     OW  922   2.522   2.299   4.956
    8SOL    HW1  923   2.473   2.387   4.956
    8SOL    HW2  924   2.546   2.275   4.862
    9SOL     OW  925   6.661   1.835   6.023
    9SOL    HW1  926   6.736   1.813   6.086
    9SOL    HW2  927   6.574   1.826   6.071
   10SOL     OW  928   3.668   5.027   4.135
   10SOL    HW1  929   3.674   4.979   4.048
   10SOL    HW2  930   3.658   5.125   4.118
   11SOL     OW  931   1.516   1.087   0.392
   11SOL    HW1  932   1.582   1.014   0.378
   11SOL    HW2  933   1.503   1.138   0.307
   12SOL     OW  934   2.624   4.796   3.842
   12SOL    HW1  935   2.682   4.752   3.773
   12SOL    HW2  936   2.672   4.797   3.929
   13SOL     OW  937   2.959   6.121   2.872
   13SOL    HW1  938   2.926   6.182   2.801
   13SOL    HW2  939   2.891   6.116   2.946
   14SOL     OW  940   4.418   4.829   5.889
   14SOL    HW1  941   4.380   4.833   5.981
   14SOL    HW2  942   4.416   4.920   5.848
   15SOL     OW  943   0.493   6.461   6.185
   15SOL    HW1  944   0.473   6.524   6.260
   15SOL    HW2  945   0.508   6.369   6.223
   16SOL     OW  946   5.226   2.652   6.174
   16SOL    HW1  947   5.246   2.595   6.254
   16SOL    HW2  948   5.168   2.601   6.111
   17SOL     OW  949   6.167   0.629   6.228
   17SOL    HW1  950   6.100   0.557   6.208
   17SOL    HW2  951   6.142   0.712   6.178
   18SOL     OW  952   3.641   1.201   5.416
   18SOL    HW1  953   3.613   1.236   5.327
   18SOL    HW2  954   3.741   1.206   5.424
   19SOL     OW  955   0.397   1.960   2.562
   19SOL    HW1  956   0.313   1.954   2.616
   19SOL    HW2  957   0.460   2.024   2.607
   20SOL     OW  958   5.674   1.777   5.678
   20SOL    HW1  959   5.741   1.837   5.635
   20SOL    HW2  960   5.648   1.705   5.614
   21SOL     OW  961   3.226   7.027   2.974
   21SOL    HW1  962   3.235   6.959   2.902
   21SOL    HW2  963   3.238   0.089   2.935
   22SOL     OW  964   0.925   5.884   5.953
   22SOL    HW1  965   0.860   5.853   6.022
   22SOL    HW2  966   0.935   5.814   5.882
   23SOL     OW  967   4.744   5.310   2.233
   23SOL    HW1  968   4.813   5.382   2.236
   23SOL    HW2  969   4.655   5.350   2.209
   24SOL     OW  970   3.889   0.299   2.349
   24SOL    HW1  971   3.966   0.244   2.317
   24SOL    HW2  972   3.824   0.240   2.397
   25SOL     OW  973   3.119   0.152   4.153
   25SOL    HW1  974   3.046   0.201   4.104
   25SOL    HW2  975   3.094   0.056   4.163
   26SOL     OW  976   1.224   1.955   0.006
   26SOL    HW1  977   1.197   2.041   6.991
   26SOL    HW2  978   1.207   1.962   0.104
   27SOL     OW  979   1.162   1.230   2.409
   27SOL    HW1  980   1.129   1.178   2.330
   27SOL    HW2  981   1.242   1.284   2.382
   28SOL     OW  982   1.279   0.790   4.235
   28SOL    HW1  983   1.209   0.834   4.292
   28SOL    HW2  984   1.369   0.824   4.261
   29SOL     OW  985   5.994   0.834   1.207
   29SOL    HW1  986   6.093   0.850   1.204
   29SOL    HW2  987   5.970   0.795   1.296
   30SOL     OW  988   3.805   0.452   4.838
   30SOL    HW1  989   3.784   0.539   4.793
   30SOL    HW2  990   3.902   0.451   4.865
   31SOL     OW  991   0.113   2.148   5.187
   31SOL    HW1  992   0.200   2.195   5.202
   31SOL    HW2  993   0.090   2.153   5.090
   32SOL     OW  994   1.504   1.535   2.219
   32SOL    HW1  995   1.545   1.536   2.311
   32SOL    HW2  996   1.418   1.585   2.221
   33SOL     OW  997   0.129   3.944   5.346
   33SOL    HW1  998   0.200   3.990   5.293
   33SOL    HW2  999   0.152   3.946   5.443
   34SOL     OW 1000   2.696   5.246   5.220
   34SOL    HW1 1001   2.680   5.153   5.189
   34SOL    HW2 1002   2.740   5.299   5.148
   35SOL     OW 1003   4.344   1.437   5.484
   35SOL    HW1 1004   4.274   1.378   5.525
   35SOL    HW2 1005   4.299   1.506   5.427
   36SOL     OW 1006   4.941   0.918   4.128
   36SOL    HW1 1007   4.883   0.880   4.055
   36SOL    HW2 1008   5.032   0.937   4.091
   37SOL     OW 1009   1.971   1.322   3.883
   37SOL    HW1 1010   1.988   1.398   3.946
   37SOL    HW2 1011   1.910   1.256   3.926
   38SOL     OW 1012   2.320   4.402   1.383
   38SOL    HW1 1013   2.384   4.473   1.413
   38SOL    HW2 1014   2.249   4.390   1.453
   39SOL     OW 1015   6.498   4.308   6.673
   39SOL    HW1 1016   6.414   4.353   6.642
   39SOL    HW2 1017   6.526   4.347   6.761
   40SOL     OW 1018   3.326   0.470   6.073
   40SOL    HW1 1019   3.324   0.381   6.119
   40SOL    HW2 1020   3.288   0.540   6.134
   41SOL     OW 1021   6.473   4.209   2.644
   41SOL    HW1 1022   6.402   4.138   2.649
   41SOL    HW2 1023   6.554   4.178   2.694
   42SOL     OW 1024   2.753   6.600   4.091
   42SOL    HW1 1025   2.804   6.595   4.005
   42SOL    HW2 1026   2.670   6.653   4.077
   43SOL     OW 1027   3.669   6.846   4.984
   43SOL    HW1 1028   3.655   6.835   4.886
   43SOL    HW2 1029   3.721   6.931   5.001
   44SOL     OW 1030   6.004   3.048   4.985
   44SOL    HW1 1031   6.039   3.038   4.892
   44SOL    HW2 1032   6.079   3.036   5.050
   45SOL     OW 1033   4.232   5.827   2.201
   45SOL    HW1 1034   4.183   5.763   2.142
   45SOL    HW2 1035   4.322   5.848   2.161
   46SOL     OW 1036   0.538   3.075   4.145
   46SOL    HW1 1037   0.547   3.003   4.076
   46SOL    HW2 1038   0.442   3.087   4.169
   47SOL     OW 1039   5.011   3.974   1.842
   47SOL    HW1 1040   5.080   3.998   1.774
   47SOL    HW2 1041   4.945   4.049   1.850
   48SOL     OW 1042   0.491   1.993   6.694
   48SOL    HW1 1043   0.496   1.895   6.677
   48SOL    HW2 1044   0.450   2.038   6.614
   49SOL     OW 1045   5.355   2.827   1.319
   49SOL    HW1 1046   5.403   2.801   1.403
   49SOL    HW2 1047   5.260   2.798   1.324
   50SOL     OW 1048   6.141   1.564   6.302
   50SOL    HW1 1049   6.154   1.540   6.206
   50SOL    HW2 1050   6.070   1.635   6.310
   51SOL     OW 1051   1.585   5.513   2.652
   51SOL    HW1 1052   1.670   5.462   2.643
   51SOL    HW2 1053   1.545   5.497   2.742
   52SOL     OW 1054   5.927   2.340   1.770
   52SOL    HW1 1055   5.873   2.307   1.693
   52SOL    HW2 1056   6.018   2.367   1.739
   53SOL     OW 1057   5.118   0.204   3.315
   53SOL    HW1 1058   5.110   0.106   3.299
   53SOL    HW2 1059   5.134   0.251   3.228
   54SOL     OW 1060   5.447   6.575   0.289
   54SOL    HW1 1061   5.526   6.615   0.243
   54SOL    HW2 1062   5.478   6.521   0.367
   55SOL     OW 1063   1.656   2.344   5.975
   55SOL    HW1 1064   1.716   2.271   5.943
   55SOL    HW2 1065   1.693   2.432   5.946
   56SOL     OW 1066   1.488   1.386   1.071
   56SOL    HW1 1067   1.395   1.412   1.098
   56SOL    HW2 1068   1.489   1.364   0.973
   57SOL     OW 1069   3.715   1.169   6.794
   57SOL    HW1 1070   3.714   1.264   6.826
   57SOL    HW2 1071   3.809   1.134   6.796
   58SOL     OW 1072   1.011   0.724   6.665
   58SOL    HW1 1073   1.084   0.735   6.732
   58SOL    HW2 1074   1.002   0.809   6.612
   59SOL     OW 1075   6.669   3.526   6.074
   59SOL    HW1 1076   6.731   3.604   6.079
   59SOL    HW2 1077   6.698   3.457   6.141
   60SOL     OW 1078   5.512   1.233   3.663
   60SOL    HW1 1079   5.555   1.307   3.714
   60SOL    HW2 1080   5.429   1.267   3.618
   61SOL     OW 1081   0.324   0.776   4.453
   61SOL    HW1 1082   0.275   0.728   4.380
   61SOL    HW2 1083   0.306   0.874   4.446
   62SOL     OW 1084   1.019   1.265   1.408
   62SOL    HW1 1085   0.983   1.344   1.457
   62SOL    HW2 1086   1.050   1.197   1.474
   63SOL     OW 1087   4.000   0.060   4.373
   63SOL    HW1 1088   3.915   0.026   4.413
   63SOL    HW2 1089   4.042   7.018   4.317
   64SOL     OW 1090   1.184   3.588   6.371
   64SOL    HW1 1091   1.218   3.680   6.353
   64SOL    HW2 1092   1.258   3.522   6.360
   65SOL     OW 1093   0.144   6.980   5.631
   65SOL    HW1 1094   0.108   6.974   5.724
   65SOL    HW2 1095   0.103   0.030   5.585
   66SOL     OW 1096   3.804   0.409   2.766
   66SOL    HW1 1097   3.860   0.381   2.687
   66SOL    HW2 1098   3.849   0.379   2.850
   67SOL     OW 1099   0.226   2.212   6.549
   67SOL    HW1 1100   0.218   2.308   6.521
   67SOL    HW2 1101   0.248   2.208   6.646
   68SOL     OW 1102   6.987   1.502   5.888
   68SOL    HW1 1103   6.994   1.597   5.917
   68SOL    HW2 1104   6.922   1.495   5.812
   69SOL     OW 1105   1.604   4.262   6.053
   69SOL    HW1 1106   1.629   4.170   6.024
   69SOL    HW2 1107   1.675   4.327   6.023
   70SOL     OW 1108   5.287   4.301   4.743
   70SOL    HW1 1109   5.269   4.235   4.815
   70SOL    HW2 1110   5.200   4.334   4.706
   71SOL     OW 1111   4.696   1.827   4.027
   71SOL    HW1 1112   4.655   1.918   4.029
   71SOL    HW2 1113   4.762   1.819   4.102
   72SOL     OW 1114   0.268   1.181   3.316
   72SOL    HW1 1115   0.224   1.197   3.404
   72SOL    HW2 1116   0.336   1.252   3.300
   73SOL     OW 1117   3.826   0.176   0.421
   73SOL    HW1 1118   3.734   0.203   0.393
   73SOL    HW2 1119   3.887   0.182   0.342
   74SOL     OW 1120   2.340   1.971   6.333
   74SOL    HW1 1121   2.351   1.880   6.373
   74SOL    HW2 1122   2.266   1.968   6.266
   75SOL     OW 1123   4.216   1.661   1.285
   75SOL    HW1 1124   4.298   1.717   1.293
   75SOL    HW2 1125   4.180   1.666   1.192
   76SOL     OW 1126   2.534   4.487   5.676
   76SOL    HW1 1127   2.618   4.435   5.688
   76SOL    HW2 1128   2.495   4.508   5.766
   77SOL     OW 1129   2.090   5.324   4.026
   77SOL    HW1 1130   2.057   5.277   4.107
   77SOL    HW2 1131   2.119   5.417   4.051
   78SOL     OW 1132   4.347   1.339   1.299
   78SOL    HW1 1133   4.343   1.438   1.313
   78SOL    HW2 1134   4.376   1.320   1.206
   79SOL     OW 1135   2.692   5.703   2.132
   79SOL    HW1 1136   2.697   5.800   2.108
   79SOL    HW2 1137   2.770   5.655   2.092
   80SOL     OW 1138   4.809   2.080   5.105
   80SOL    HW1 1139   4.776   2.097   5.012
   80SOL    HW2 1140   4.792   2.162   5.161
   81SOL     OW 1141   1.749   0.247   0.206
   81SOL    HW1 1142   1.784   0.195   0.284
   81SOL    HW2 1143   1.681   0.192   0.157
   82SOL     OW 1144   0.777   5.990   2.170
   82SOL    HW1 1145   0.767   6.046   2.087
   82SOL    HW2 1146   0.701   6.008   2.231
   83SOL     OW 1147   6.941   1.719   5.632
   83SOL    HW1 1148   6.903   1.627   5.632
   83SOL    HW2 1149   6.902   1.772   5.557
   84SOL     OW 1150   6.360   3.766   3.139
   84SOL    HW1 1151   6.273   3.816   3.131
   84SOL    HW2 1152   6.367   3.724   3.229
   85SOL     OW 1153   2.060   0.369   3.831
   85SOL    HW1 1154   2.045   0.392   3.735
   85SOL    HW2 1155   2.011   0.285   3.853
   86SOL     OW 1156   6.459   1.225   6.864
   86SOL    HW1 1157   6.551   1.232   6.825
   86SOL    HW2 1158   6.401   1.297   6.824
   87SOL     OW 1159   4.506   4.543   0.599
   87SOL    HW1 1160   4.452   4.466   0.634
   87SOL    HW2 1161   4.551   4.589   0.676
   88SOL     OW 1162   2.698   2.251   5.852
   88SOL    HW1 1163   2.623   2.251   5.919
   88SOL    HW2 1164   2.768   2.317   5.880
   89SOL     OW 1165   2.878   3.466   1.684
   89SOL    HW1 1166   2.917   3.378   1.654
   89SOL    HW2 1167   2.951   3.525   1.717
   90SOL     OW 1168   5.041   4.158   2.093
   90SOL    HW1 1169   4.982   4.238   2.081
   90SOL    HW2 1170   5.063   4.148   2.190
   91SOL     OW 1171   5.795   6.212   6.164
   91SOL    HW1 1172   5.786   6.296   6.217
   91SOL    HW2 1173   5.844   6.143   6.217
   92SOL     OW 1174   5.082   3.709   0.760
   92SOL    HW1 1175   5.103   3.740   0.852
   92SOL    HW2 1176   4.983   3.717   0.744
   93SOL     OW 1177   2.996   3.331   0.427
   93SOL    HW1 1178   3.046   3.296   0.506
   93SOL    HW2 1179   2.987   3.259   0.358
   94SOL     OW 1180   2.361   6.589   0.504
   94SOL    HW1 1181   2.399   6.563   0.592
   94SOL    HW2 1182   2.265   6.563   0.500
   95SOL     OW 1183   0.930   0.502   3.958
   95SOL    HW1 1184   0.831   0.485   3.966
   95SOL    HW2 1185   0.978   0.449   4.028
   96SOL     OW 1186   4.742   5.126   6.777
   96SOL    HW1 1187   4.790   5.088   6.698
   96SOL    HW2 1188   4.805   5.182   6.830
   97SOL     OW 1189   1.977   4.878   5.415
   97SOL    HW1 1190   1.896   4.930   5.388
   97SOL    HW2 1191   2.023   4.842   5.334
   98SOL     OW 1192   0.921   2.280   1.265
   98SOL    HW1 1193   0.907   2.204   1.328
   98SOL    HW2 1194   1.000   2.262   1.206
   99SOL     OW 1195   3.767   4.041   3.195
   99SOL    HW1 1196   3.849   4.097   3.183
   99SOL    HW2 1197   3.763   4.007   3.289
  100SOL     OW 1198   6.893   0.512   4.103
  100SOL    HW1 1199   6.878   0.606   4.071
  100SOL    HW2 1200   6.985   0.505   4.141
  101SOL     OW 1201   0.816   4.949   2.505
  101SOL    HW1 1202   0.819   4.893   2.588
  101SOL    HW2 1203   0.791   5.043   2.530
  102SOL     OW 1204   2.780   6.273   2.217
  102SOL    HW1 1205   2.852   6.306   2.156
  102SOL    HW2 1206   2.698   6.329   2.204
  103SOL     OW 1207   1.570   1.133   1.987
  103SOL    HW1 1208   1.619   1.047   2.002
  103SOL    HW2 1209   1.592   1.168   1.897
  104SOL     OW 1210   1.675   4.737   2.499
  104SOL    HW1 1211   1.652   4.830   2.526
  104SOL    HW2 1212   1.693   4.734   2.400
  105SOL     OW 1213   4.881   1.176   6.503
  105SOL    HW1 1214   4.952   1.197   6.571
  105SOL    HW2 1215   4.810   1.119   6.544
  106SOL     OW 1216   5.085   5.108   1.724
  106SOL    HW1 1217   5.056   5.014   1.704
  106SOL    HW2 1218   5.028   5.173   1.675
  107SOL     OW 1219   6.816   0.931   6.911
  107SOL    HW1 1220   6.888   0.864   6.931
  107SOL    HW2 1221   6.740   0.885   6.865
  108SOL     OW 1222   2.927   6.525   4.735
  108SOL    HW1 1223   2.867   6.604   4.721
  108SOL    HW2 1224   2.884   6.443   4.700
  109SOL     OW 1225   3.777   0.966   2.896
  109SOL    HW1 1226   3.801   0.876   2.932
  109SOL    HW2 1227   3.767   0.961   2.796
  110SOL     OW 1228   2.101   4.871   5.123
  110SOL    HW1 1229   2.032   4.800   5.108
  110SOL    HW2 1230   2.184   4.828   5.160
  111SOL     OW 1231   6.793   1.448   2.571
  111SOL    HW1 1232   6.739   1.382   2.624
  111SOL    HW2 1233   6.882   1.462   2.615
  112SOL     OW 1234   4.781   6.746   6.694
  112SOL    HW1 1235   4.837   6.663   6.690
  112SOL    HW2 1236   4.714   6.736   6.769
  113SOL     OW 1237   6.451   5.354   3.123
  113SOL    HW1 1238   6.483   5.439   3.081
  113SOL    HW2 1239   6.364   5.371   3.169
  114SOL     OW 1240   1.132   5.006   2.921
  114SOL    HW1 1241   1.134   5.018   3.020
  114SOL    HW2 1242   1.045   5.040   2.885
  115SOL     OW 1243   6.251   1.259   3.624
  115SOL    HW1 1244   6.181   1.313   3.672
  115SOL    HW2 1245   6.230   1.258   3.526
  116SOL     OW 1246   0.182   6.127   1.053
  116SOL    HW1 1247   0.263   6.116   1.112
  116SOL    HW2 1248   0.100   6.109   1.106
  117SOL     OW 1249   2.575   1.457   0.303
  117SOL    HW1 1250   2.594   1.553   0.283
  117SOL    HW2 1251   2.623   1.431   0.387
  118SOL     OW 1252   1.638   1.359   3.512
  118SOL    HW1 1253   1.725   1.383   3.556
  118SOL    HW2 1254   1.639   1.390   3.417
  119SOL     OW 1255   0.809   6.703   6.826
  119SOL    HW1 1256   0.820   6.675   6.922
  119SOL    HW2 1257   0.747   6.639   6.781
  120SOL     OW 1258   4.916   0.150   4.971
  120SOL    HW1 1259   4.852   0.215   5.013
  120SOL    HW2 1260   4.993   0.134   5.033
  121SOL     OW 1261   1.376   3.690   6.932
  121SOL    HW1 1262   1.365   3.782   6.968
  121SOL    HW2 1263   1.352   3.690   6.834
  122SOL     OW 1264   1.335   3.636   0.456
  122SOL    HW1 1265   1.375   3.678   0.537
  122SOL    HW2 1266   1.325   3.705   0.384
  123SOL     OW 1267   1.293   0.697   1.371
  123SOL    HW1 1268   1.360   0.688   1.444
  123SOL    HW2 1269   1.215   0.750   1.403
  124SOL     OW 1270   3.034   2.490   0.443
  124SOL    HW1 1271   3.091   2.524   0.518
  124SOL    HW2 1272   3.086   2.493   0.358
  125SOL     OW 1273   3.544   2.683   6.989
  125SOL    HW1 1274   3.445   2.675   6.981
  125SOL    HW2 1275   3.585   2.685   6.899
  126SOL     OW 1276   2.896   3.357   3.457
  126SOL    HW1 1277   2.962   3.326   3.389
  126SOL    HW2 1278   2.810   3.381   3.412
  127SOL     OW 1279   6.717   6.298   5.840
  127SOL    HW1 1280   6.779   6.376   5.839
  127SOL    HW2 1281   6.750   6.228   5.777
  128SOL     OW 1282   4.956   3.615   2.341
  128SOL    HW1 1283   5.032   3.679   2.331
  128SOL    HW2 1284   4.878   3.662   2.382
  129SOL     OW 1285   2.485   5.025   0.920
  129SOL    HW1 1286   2.399   5.047   0.966
  129SOL    HW2 1287   2.516   4.934   0.948
  130SOL     OW 1288   6.022   1.336   4.247
  130SOL    HW1 1289   6.087   1.306   4.178
  130SOL    HW2 1290   6.068   1.393   4.315
  131SOL     OW 1291   5.817   0.627   4.132
  131SOL    HW1 1292   5.748   0.594   4.068
  131SOL    HW2 1293   5.895   0.664   4.081
  132SOL     OW 1294   3.123   3.640   1.656
  132SOL    HW1 1295   3.158   3.734   1.651
  132SOL    HW2 1296   3.157   3.597   1.740
  133SOL     OW 1297   5.202   1.221   3.792
  133SOL    HW1 1298   5.116   1.259   3.824
  133SOL    HW2 1299   5.276   1.287   3.808
  134SOL     OW 1300   0.030   0.492   2.587
  134SOL    HW1 1301   0.107   0.478   2.649
  134SOL    HW2 1302   7.002   0.567   2.622
  135SOL     OW 1303   4.920   3.557   4.243
  135SOL    HW1 1304   4.916   3.547   4.143
  135SOL    HW2 1305   4.941   3.468   4.284
  136SOL     OW 1306   2.497   5.656   4.661
  136SOL    HW1 1307   2.472   5.585   4.595
  136SOL    HW2 1308   2.466   5.629   4.752
  137SOL     OW 1309   4.488   1.350   4.195
  137SOL    HW1 1310   4.441   1.330   4.280
  137SOL    HW2 1311   4.421   1.360   4.121
  138SOL     OW 1312   0.608   5.512   3.612
  138SOL    HW1 1313   0.659   5.597   3.617
  138SOL    HW2 1314   0.606   5.480   3.517
  139SOL     OW 1315   2.174   5.652   6.863
  139SOL    HW1 1316   2.217   5.590   6.798
  139SOL    HW2 1317   2.091   5.611   6.899
  140SOL     OW 1318   1.816   6.632   2.958
  140SOL    HW1 1319   1.817   6.657   3.055
  140SOL    HW2 1320   1.854   6.540   2.947
  141SOL     OW 1321   6.686   3.278   0.002
  141SOL    HW1 1322   6.736   3.365   7.027
  141SOL    HW2 1323   6.587   3.297   0.004
  142SOL     OW 1324   2.056   3.685   1.356
  142SOL    HW1 1325   2.132   3.726   1.406
  142SOL    HW2 1326   1.983   3.662   1.420
  143SOL     OW 1327   5.855   6.178   1.210
  143SOL    HW1 1328   5.783   6.191   1.141
  143SOL    HW2 1329   5.913   6.260   1.213
  144SOL     OW 1330   3.238   4.927   3.810
  144SOL    HW1 1331   3.157   4.925   3.753
  144SOL    HW2 1332   3.320   4.933   3.753
  145SOL     OW 1333   0.841   4.780   2.719
  145SOL    HW1 1334   0.846   4.682   2.702
  145SOL    HW2 1335   0.820   4.796   2.815
  146SOL     OW 1336   5.853   1.207   5.736
  146SOL    HW1 1337   5.770   1.248   5.699
  146SOL    HW2 1338   5.933   1.244   5.689
  147SOL     OW 1339   4.909   1.522   5.030
  147SOL    HW1 1340   4.859   1.542   4.945
  147SOL    HW2 1341   4.976   1.450   5.012
  148SOL     OW 1342   1.316   5.156   1.389
  148SOL    HW1 1343   1.363   5.086   1.334
  148SOL    HW2 1344   1.347   5.247   1.361
  149SOL     OW 1345   2.768   2.359   5.063
  149SOL    HW1 1346   2.839   2.304   5.019
  149SOL    HW2 1347   2.678   2.330   5.030
  150SOL     OW 1348   4.251   1.046   5.693
  150SOL    HW1 1349   4.342   1.005   5.684
  150SOL    HW2 1350   4.219   1.037   5.787
  151SOL     OW 1351   4.017   1.337   1.913
  151SOL    HW1 1352   3.996   1.419   1.965
  151SOL    HW2 1353   4.025   1.360   1.816
  152SOL     OW 1354   0.092   1.335   6.809
  152SOL    HW1 1355   0.116   1.349   6.714
  152SOL    HW2 1356   0.009   1.280   6.815
  153SOL     OW 1357   3.359   0.670   3.255
  153SOL    HW1 1358   3.412   0.739   3.304
  153SOL    HW2 1359   3.421   0.600   3.218
  154SOL     OW 1360   6.780   2.515   0.706
  154SOL    HW1 1361   6.861   2.533   0.762
  154SOL    HW2 1362   6.791   2.428   0.658
  155SOL     OW 1363   0.437   0.139   1.467
  155SOL    HW1 1364   0.379   0.205   1.419
  155SOL    HW2 1365   0.391   0.109   1.550
  156SOL     OW 1366   6.294   1.236   0.348
  156SOL    HW1 1367   6.242   1.154   0.323
  156SOL    HW2 1368   6.380   1.237   0.298
  157SOL     OW 1369   6.024   2.857   6.974
  157SOL    HW1 1370   6.012   2.912   0.027
  157SOL    HW2 1371   6.103   2.797   6.985
  158SOL     OW 1372   1.372   2.513   1.887
  158SOL    HW1 1373   1.291   2.572   1.881
  158SOL    HW2 1374   1.395   2.479   1.796
  159SOL     OW 1375   4.617   4.572   1.059
  159SOL    HW1 1376   4.669   4.604   1.138
  159SOL    HW2 1377   4.528   4.538   1.090
  160SOL     OW 1378   6.411   0.353   0.768
  160SOL    HW1 1379   6.463   0.429   0.808
  160SOL    HW2 1380   6.380   0.378   0.677
  161SOL     OW 1381   1.306   6.377   0.876
  161SOL    HW1 1382   1.260   6.288   0.866
  161SOL    HW2 1383   1.238   6.446   0.903
  162SOL     OW 1384   2.510   6.176   0.388
  162SOL    HW1 1385   2.532   6.100   0.450
  162SOL    HW2 1386   2.591   6.232   0.374
  163SOL     OW 1387   6.774   5.488   3.255
  163SOL    HW1 1388   6.715   5.522   3.327
  163SOL    HW2 1389   6.722   5.480   3.170
  164SOL     OW 1390   1.357   1.756   2.783
  164SOL    HW1 1391   1.300   1.837   2.789
  164SOL    HW2 1392   1.385   1.727   2.875
  165SOL     OW 1393   6.314   5.524   2.441
  165SOL    HW1 1394   6.273   5.565   2.360
  165SOL    HW2 1395   6.268   5.437   2.462
  166SOL     OW 1396   6.350   3.880   1.237
  166SOL    HW1 1397   6.379   3.784   1.238
  166SOL    HW2 1398   6.429   3.939   1.223
  167SOL     OW 1399   5.377   1.647   6.594
  167SOL    HW1 1400   5.312   1.572   6.584
  167SOL    HW2 1401   5.375   1.680   6.688
  168SOL     OW 1402   3.950   2.603   1.616
  168SOL    HW1 1403   3.923   2.526   1.557
  168SOL    HW2 1404   3.870   2.634   1.667
  169SOL     OW 1405   6.311   2.688   0.303
  169SOL    HW1 1406   6.340   2.592   0.299
  169SOL    HW2 1407   6.248   2.700   0.379
  170SOL     OW 1408   0.601   5.816   3.750
  170SOL    HW1 1409   0.650   5.848   3.831
  170SOL    HW2 1410   0.522   5.762   3.778
  171SOL     OW 1411   1.873   3.411   6.970
  171SOL    HW1 1412   1.918   3.377   6.887
  171SOL    HW2 1413   1.850   3.334   0.000
  172SOL     OW 1414   5.560   2.719   2.528
  172SOL    HW1 1415   5.544   2.640   2.587
  172SOL    HW2 1416   5.509   2.797   2.564
  173SOL     OW 1417   5.550   0.914   4.499
  173SOL    HW1 1418   5.501   0.840   4.544
  173SOL    HW2 1419   5.624   0.877   4.443
  174SOL     OW 1420   5.018   5.393   5.170
  174SOL    HW1 1421   5.087   5.465   5.172
  174SOL    HW2 1422   5.043   5.321   5.234
  175SOL     OW 1423   2.582   0.657   0.930
  175SOL    HW1 1424   2.536   0.742   0.957
  175SOL    HW2 1425   2.680   0.667   0.947
  176SOL     OW 1426   4.737   5.273   2.783
  176SOL    HW1 1427   4.718   5.235   2.874
  176SOL    HW2 1428   4.671   5.237   2.718
  177SOL     OW 1429   5.239   2.139   5.520
  177SOL    HW1 1430   5.236   2.052   5.470
  177SOL    HW2 1431   5.276   2.210   5.460
  178SOL     OW 1432   2.620   5.280   4.610
  178SOL    HW1 1433   2.572   5.291   4.697
  178SOL    HW2 1434   2.556   5.298   4.535
  179SOL     OW 1435   4.128   6.179   0.663
  179SOL    HW1 1436   4.181   6.100   0.695
  179SOL    HW2 1437   4.044   6.147   0.620
  180SOL     OW 1438   2.407   6.349   0.141
  180SOL    HW1 1439   2.331   6.414   0.139
  180SOL    HW2 1440   2.425   6.322   0.236
  181SOL     OW 1441   2.932   2.340   5.314
  181SOL    HW1 1442   2.853   2.348   5.254
  181SOL    HW2 1443   3.014   2.371   5.266
  182SOL     OW 1444   4.946   3.513   0.235
  182SOL    HW1 1445   4.990   3.595   0.197
  182SOL    HW2 1446   4.886   3.540   0.311
  183SOL     OW 1447   3.971   2.223   4.207
  183SOL    HW1 1448   3.874   2.204   4.220
  183SOL    HW2 1449   3.991   2.229   4.110
  184SOL     OW 1450   1.020   6.661   3.030
  184SOL    HW1 1451   1.038   6.733   2.963
  184SOL    HW2 1452   1.001   6.702   3.119
  185SOL     OW 1453   0.978   2.002   4.168
  185SOL    HW1 1454   1.050   2.071   4.171
  185SOL    HW2 1455   0.973   1.964   4.076
  186SOL     OW 1456   5.906   5.858   3.866
  186SOL    HW1 1457   5.871   5.856   3.773
  186SOL    HW2 1458   5.991   5.805   3.871
  187SOL     OW 1459   4.657   5.595   2.829
  187SOL    HW1 1460   4.594   5.659   2.785
  187SOL    HW2 1461   4.735   5.578   2.768
  188SOL     OW 1462   1.309   2.268   3.141
  188SOL    HW1 1463   1.336   2.309   3.228
  188SOL    HW2 1464   1.236   2.323   3.100
  189SOL     OW 1465   6.829   5.064   6.380
  189SOL    HW1 1466   6.913   5.028   6.421
  189SOL    HW2 1467   6.756   4.998   6.389
  190SOL     OW 1468   6.616   4.899   6.666
  190SOL    HW1 1469   6.519   4.920   6.654
  190SOL    HW2 1470   6.670   4.983   6.655
  191SOL     OW 1471   6.490   1.818   5.809
  191SOL    HW1 1472   6.582   1.810   5.847
  191SOL    HW2 1473   6.442   1.731   5.820
  192SOL     OW 1474   0.238   4.308   1.356
  192SOL    HW1 1475   0.332   4.287   1.384
  192SOL    HW2 1476   0.206   4.239   1.291
  193SOL     OW 1477   3.849   4.806   5.991
  193SOL    HW1 1478   3.789   4.849   5.924
  193SOL    HW2 1479   3.797   4.785   6.074
  194SOL     OW 1480   4.233   6.996   1.820
  194SOL    HW1 1481   4.276   0.053   1.795
  194SOL    HW2 1482   4.199   7.001   1.914
  195SOL     OW 1483   3.125   0.691   3.126
  195SOL    HW1 1484   3.197   0.671   3.194
  195SOL    HW2 1485   3.122   0.789   3.109
  196SOL     OW 1486   2.930   0.753   6.576
  196SOL    HW1 1487   2.921   0.664   6.621
  196SOL    HW2 1488   2.877   0.821   6.626
  197SOL     OW 1489   2.432   6.049   6.734
  197SOL    HW1 1490   2.427   6.094   6.824
  197SOL    HW2 1491   2.393   6.109   6.665
  198SOL     OW 1492   4.219   5.999   0.888
  198SOL    HW1 1493   4.227   5.900   0.874
  198SOL    HW2 1494   4.127   6.020   0.920
  199SOL     OW 1495   6.473   1.366   1.914
  199SOL    HW1 1496   6.488   1.290   1.977
  199SOL    HW2 1497   6.503   1.451   1.957
  200SOL     OW 1498   1.078   3.590   2.298
  200SOL    HW1 1499   1.087   3.601   2.199
  200SOL    HW2 1500   1.160   3.624   2.343
  201SOL     OW 1501   2.535   6.782   6.726
  201SOL    HW1 1502   2.500   6.875   6.719
  201SOL    HW2 1503   2.469   6.718   6.686
  202SOL     OW 1504   5.103   0.267   5.197
  202SOL    HW1 1505   5.071   0.361   5.181
  202SOL    HW2 1506   5.176   0.245   5.133
  203SOL     OW 1507   4.812   2.726   5.593
  203SOL    HW1 1508   4.896   2.685   5.560
  203SOL    HW2 1509   4.796   2.697   5.688
  204SOL     OW 1510   1.367   6.898   6.998
  204SOL    HW1 1511   1.424   6.831   6.950
  204SOL    HW2 1512   1.378   6.887   0.067
  205SOL     OW 1513   0.617   1.832   1.420
  205SOL    HW1 1514   0.562   1.760   1.377
  205SOL    HW2 1515   0.652   1.799   1.507
  206SOL     OW 1516   0.338   4.663   1.607
  206SOL    HW1 1517   0.350   4.676   1.509
  206SOL    HW2 1518   0.333   4.753   1.652
  207SOL     OW 1519   4.212   0.435   5.280
  207SOL    HW1 1520   4.214   0.505   5.351
  207SOL    HW2 1521   4.182   0.476   5.193
  208SOL     OW 1522   5.077   4.261   5.615
  208SOL    HW1 1523   5.117   4.170   5.602
  208SOL    HW2 1524   5.120   4.304   5.694
  209SOL     OW 1525   0.568   5.886   5.419
  209SOL    HW1 1526   0.646   5.868   5.479
  209SOL    HW2 1527   0.554   5.984   5.410
  210SOL     OW 1528   4.300   2.366   2.269
  210SOL    HW1 1529   4.364   2.434   2.232
  210SOL    HW2 1530   4.282   2.297   2.199
  211SOL     OW 1531   1.241   0.363   2.964
  211SOL    HW1 1532   1.255   0.456   2.997
  211SOL    HW2 1533   1.311   0.303   3.003
  212SOL     OW 1534   1.991   5.074   2.488
  212SOL    HW1 1535   2.043   5.074   2.573
  212SOL    HW2 1536   1.902   5.031   2.504
  213SOL     OW 1537   4.536   1.030   6.378
  213SOL    HW1 1538   4.436   1.032   6.384
  213SOL    HW2 1539   4.564   1.064   6.288
  214SOL     OW 1540   2.112   6.048   2.933
  214SOL    HW1 1541   2.204   6.034   2.896
  214SOL    HW2 1542   2.071   5.959   2.954
  215SOL     OW 1543   3.579   3.906   1.749
  215SOL    HW1 1544   3.533   3.874   1.832
  215SOL    HW2 1545   3.553   3.847   1.672
  216SOL     OW 1546   1.766   0.241   5.100
  216SOL    HW1 1547   1.753   0.292   5.185
  216SOL    HW2 1548   1.860   0.207   5.095
  217SOL     OW 1549   1.467   2.836   4.123
  217SOL    HW1 1550   1.432   2.823   4.031
  217SOL    HW2 1551   1.420   2.913   4.167
  218SOL     OW 1552   1.232   2.813   4.841
  218SOL    HW1 1553   1.252   2.911   4.842
  218SOL    HW2 1554   1.249   2.774   4.931
  219SOL     OW 1555   3.409   4.357   6.596
  219SOL    HW1 1556   3.333   4.420   6.615
  219SOL    HW2 1557   3.488   4.409   6.563
  220SOL     OW 1558   3.056   5.583   0.079
  220SOL    HW1 1559   3.155   5.571   0.072
  220SOL    HW2 1560   3.014   5.496   0.106
  221SOL     OW 1561   5.316   3.979   3.215
  221SOL    HW1 1562   5.374   3.938   3.145
  221SOL    HW2 1563   5.360   4.060   3.253
  222SOL     OW 1564   1.555   5.185   5.607
  222SOL    HW1 1565   1.605   5.206   5.691
  222SOL    HW2 1566   1.617   5.192   5.529
  223SOL     OW 1567   0.521   3.144   1.080
  223SOL    HW1 1568   0.521   3.209   1.156
  223SOL    HW2 1569   0.510   3.051   1.115
  224SOL     OW 1570   2.681   2.423   3.560
  224SOL    HW1 1571   2.763   2.406   3.614
  224SOL    HW2 1572   2.628   2.497   3.603
  225SOL     OW 1573   5.450   0.693   6.533
  225SOL    HW1 1574   5.369   0.661   6.482
  225SOL    HW2 1575   5.506   0.751   6.474
  226SOL     OW 1576   1.044   6.900   0.283
  226SOL    HW1 1577   1.059   6.984   0.334
  226SOL    HW2 1578   1.007   6.922   0.192
  227SOL     OW 1579   1.106   4.405   3.616
  227SOL    HW1 1580   1.118   4.471   3.541
  227SOL    HW2 1581   1.024   4.427   3.668
  228SOL     OW 1582   3.554   0.239   4.503
  228SOL    HW1 1583   3.515   0.329   4.520
  228SOL    HW2 1584   3.514   0.172   4.565
  229SOL     OW 1585   6.450   6.062   1.410
  229SOL    HW1 1586   6.396   6.054   1.493
  229SOL    HW2 1587   6.547   6.060   1.433
  230SOL     OW 1588   2.330   4.687   3.422
  230SOL    HW1 1589   2.393   4.616   3.454
  230SOL    HW2 1590   2.239   4.648   3.410
  231SOL     OW 1591   5.964   2.930   5.869
  231SOL    HW1 1592   6.052   2.899   5.834
  231SOL    HW2 1593   5.910   2.851   5.898
  232SOL     OW 1594   0.781   4.280   5.787
  232SOL    HW1 1595   0.876   4.310   5.783
  232SOL    HW2 1596   0.760   4.248   5.880
  233SOL     OW 1597   2.215   0.579   4.804
  233SOL    HW1 1598   2.237   0.503   4.864
  233SOL    HW2 1599   2.241   0.665   4.848
  234SOL     OW 1600   2.596   5.283   5.784
  234SOL    HW1 1601   2.527   5.231   5.734
  234SOL    HW2 1602   2.677   5.226   5.799
  235SOL     OW 1603   3.747   3.009   2.630
  235SOL    HW1 1604   3.678   2.983   2.697
  235SOL    HW2 1605   3.836   3.019   2.676
  236SOL     OW 1606   6.677   3.045   6.901
  236SOL    HW1 1607   6.693   3.129   6.952
  236SOL    HW2 1608   6.751   2.981   6.918
  237SOL     OW 1609   0.809   6.719   0.631
  237SOL    HW1 1610   0.821   6.758   0.722
  237SOL    HW2 1611   0.884   6.655   0.612
  238SOL     OW 1612   6.247   2.941   1.151
  238SOL    HW1 1613   6.169   2.945   1.088
  238SOL    HW2 1614   6.219   2.976   1.241
  239SOL     OW 1615   6.633   4.786   0.012
  239SOL    HW1 1616   6.588   4.757   6.957
  239SOL    HW2 1617   6.581   4.753   0.090
  240SOL     OW 1618   0.687   3.421   6.036
  240SOL    HW1 1619   0.736   3.341   6.073
  240SOL    HW2 1620   0.645   3.472   6.111
  241SOL     OW 1621   1.034   0.707   3.670
  241SOL    HW1 1622   1.026   0.631   3.606
  241SOL    HW2 1623   0.944   0.727   3.710
  242SOL     OW 1624   1.148   2.649   5.456
  242SOL    HW1 1625   1.200   2.728   5.423
  242SOL    HW2 1626   1.090   2.678   5.532
  243SOL     OW 1627   4.579   0.330   6.033
  243SOL    HW1 1628   4.504   0.383   6.073
  243SOL    HW2 1629   4.621   0.381   5.958
  244SOL     OW 1630   4.596   2.528   4.306
  244SOL    HW1 1631   4.530   2.525   4.230
  244SOL    HW2 1632   4.617   2.624   4.327
  245SOL     OW 1633   6.643   2.507   4.331
  245SOL    HW1 1634   6.662   2.543   4.422
  245SOL    HW2 1635   6.548   2.476   4.326
  246SOL     OW 1636   5.111   3.854   3.745
  246SOL    HW1 1637   5.076   3.944   3.771
  246SOL    HW2 1638   5.209   3.861   3.724
  247SOL     OW 1639   2.533   1.668   3.203
  247SOL    HW1 1640   2.534   1.610   3.284
  247SOL    HW2 1641   2.624   1.668   3.161
  248SOL     OW 1642   4.527   1.975   4.306
  248SOL    HW1 1643   4.609   2.016   4.264
  248SOL    HW2 1644   4.532   1.987   4.405
  249SOL     OW 1645   3.130   6.485   4.899
  249SOL    HW1 1646   3.101   6.410   4.959
  249SOL    HW2 1647   3.068   6.490   4.821
  250SOL     OW 1648   5.381   1.537   5.771
  250SOL    HW1 1649   5.312   1.588   5.823
  250SOL    HW2 1650   5.351   1.442   5.761
  251SOL     OW 1651   4.216   3.403   6.137
  251SOL    HW1 1652   4.313   3.417   6.155
  251SOL    HW2 1653   4.162   3.441   6.212
  252SOL     OW 1654   0.285   1.019   5.550
  252SOL    HW1 1655   0.191   1.002   5.580
  252SOL    HW2 1656   0.309   1.114   5.570
  253SOL     OW 1657   1.811   3.824   0.792
  253SOL    HW1 1658   1.758   3.848   0.874
  253SOL    HW2 1659   1.749   3.795   0.720
  254SOL     OW 1660   6.343   2.522   4.319
  254SOL    HW1 1661   6.291   2.515   4.234
  254SOL    HW2 1662   6.344   2.617   4.351
  255SOL     OW 1663   3.061   1.572   4.217
  255SOL    HW1 1664   3.027   1.573   4.124
  255SOL    HW2 1665   2.985   1.571   4.281
  256SOL     OW 1666   6.900   5.356   6.983
  256SOL    HW1 1667   6.838   5.429   6.956
  256SOL    HW2 1668   6.912   5.292   6.908
  257SOL     OW 1669   3.308   5.690   5.431
  257SOL    HW1 1670   3.315   5.746   5.349
  257SOL    HW2 1671   3.235   5.726   5.489
  258SOL     OW 1672   5.210   4.097   4.949
  258SOL    HW1 1673   5.237   4.001   4.948
  258SOL    HW2 1674   5.149   4.114   5.027
  259SOL     OW 1675   1.211   3.170   2.639
  259SOL    HW1 1676   1.135   3.198   2.582
  259SOL    HW2 1677   1.236   3.076   2.619
  260SOL     OW 1678   5.049   0.287   6.952
  260SOL    HW1 1679   4.999   0.214   6.999
  260SOL    HW2 1680   4.996   0.371   6.956
  261SOL     OW 1681   0.505   3.349   1.252
  261SOL    HW1 1682   0.580   3.410   1.278
  261SOL    HW2 1683   0.424   3.370   1.306
  262SOL     OW 1684   0.670   3.497   2.648
  262SOL    HW1 1685   0.578   3.488   2.609
  262SOL    HW2 1686   0.685   3.425   2.716
  263SOL     OW 1687   6.977   1.915   4.522
  263SOL    HW1 1688   6.986   1.926   4.621
  263SOL    HW2 1689   6.896   1.860   4.503
  264SOL     OW 1690   0.074   3.514   5.575
  264SOL    HW1 1691   0.137   3.586   5.606
  264SOL    HW2 1692   0.105   3.425   5.610
  265SOL     OW 1693   4.772   4.610   3.714
  265SOL    HW1 1694   4.782   4.678   3.641
  265SOL    HW2 1695   4.800   4.651   3.801
  266SOL     OW 1696   3.728   2.068   6.988
  266SOL    HW1 1697   3.697   2.131   0.030
  266SOL    HW2 1698   3.658   1.999   6.973
  267SOL     OW 1699   1.783   2.515   0.337
  267SOL    HW1 1700   1.821   2.512   0.244
  267SOL    HW2 1701   1.848   2.474   0.401
  268SOL     OW 1702   4.632   4.796   4.824
  268SOL    HW1 1703   4.570   4.839   4.890
  268SOL    HW2 1704   4.633   4.850   4.740
  269SOL     OW 1705   1.684   1.590   6.536
  269SOL    HW1 1706   1.606   1.550   6.488
  269SOL    HW2 1707   1.652   1.659   6.601
  270SOL     OW 1708   5.199   1.132   2.259
  270SOL    HW1 1709   5.112   1.092   2.289
  270SOL    HW2 1710   5.270   1.109   2.325
  271SOL     OW 1711   2.219   1.271   0.979
  271SOL    HW1 1712   2.265   1.277   1.067
  271SOL    HW2 1713   2.274   1.317   0.909
  272SOL     OW 1714   3.975   5.538   4.444
  272SOL    HW1 1715   4.068   5.571   4.424
  272SOL    HW2 1716   3.908   5.606   4.416
  273SOL     OW 1717   0.899   5.536   5.286
  273SOL    HW1 1718   0.896   5.470   5.210
  273SOL    HW2 1719   0.856   5.621   5.257
  274SOL     OW 1720   4.823   3.045   3.396
  274SOL    HW1 1721   4.762   3.071   3.321
  274SOL    HW2 1722   4.902   2.996   3.359
  275SOL     OW 1723   0.304   5.612   6.318
  275SOL    HW1 1724   0.403   5.620   6.302
  275SOL    HW2 1725   0.256   5.675   6.257
  276SOL     OW 1726   6.948   5.411   4.224
  276SOL    HW1 1727   7.005   5.471   4.169
  276SOL    HW2 1728   6.925   5.329   4.171
  277SOL     OW 1729   2.901   0.752   6.050
  277SOL    HW1 1730   2.878   0.769   6.145
  277SOL    HW2 1731   2.964   0.823   6.017
  278SOL     OW 1732   5.193   4.500   2.715
  278SOL    HW1 1733   5.140   4.418   2.738
  278SOL    HW2 1734   5.131   4.572   2.684
  279SOL     OW 1735   6.600   3.141   3.970
  279SOL    HW1 1736   6.574   3.072   4.037
  279SOL    HW2 1737   6.648   3.097   3.894
  280SOL     OW 1738   4.629   6.406   3.853
  280SOL    HW1 1739   4.647   6.314   3.820
  280SOL    HW2 1740   4.690   6.471   3.808
  281SOL     OW 1741   3.680   5.343   3.955
  281SOL    HW1 1742   3.732   5.399   4.020
  281SOL    HW2 1743   3.718   5.251   3.952
  282SOL     OW 1744   4.041   1.289   6.199
  282SOL    HW1 1745   3.988   1.356   6.146
  282SOL    HW2 1746   3.980   1.241   6.262
  283SOL     OW 1747   5.937   0.176   5.077
  283SOL    HW1 1748   5.996   0.101   5.048
  283SOL    HW2 1749   5.929   0.242   5.002
  284SOL     OW 1750   0.808   4.830   4.171
  284SOL    HW1 1751   0.819   4.927   4.193
  284SOL    HW2 1752   0.826   4.774   4.252
  285SOL     OW 1753   6.050   0.003   0.221
  285SOL    HW1 1754   6.095   0.092   0.209
  285SOL    HW2 1755   6.004   0.001   0.310
  286SOL     OW 1756   3.362   5.176   4.979
  286SOL    HW1 1757   3.364   5.169   5.079
  286SOL    HW2 1758   3.395   5.090   4.939
  287SOL     OW 1759   1.473   5.834   6.188
  287SOL    HW1 1760   1.533   5.893   6.241
  287SOL    HW2 1761   1.384   5.828   6.233
  288SOL     OW 1762   4.033   0.483   1.204
  288SOL    HW1 1763   3.938   0.461   1.182
  288SOL    HW2 1764   4.036   0.527   1.294
  289SOL     OW 1765   1.247   5.144   6.067
  289SOL    HW1 1766   1.169   5.201   6.040
  289SOL    HW2 1767   1.318   5.202   6.109
  290SOL     OW 1768   4.443   0.331   2.755
  290SOL    HW1 1769   4.456   0.240   2.794
  290SOL    HW2 1770   4.516   0.392   2.787
  291SOL     OW 1771   3.962   0.918   4.238
  291SOL    HW1 1772   4.021   0.939   4.316
  291SOL    HW2 1773   3.882   0.867   4.269
  292SOL     OW 1774   3.898   0.505   3.578
  292SOL    HW1 1775   3.897   0.407   3.599
  292SOL    HW2 1776   3.944   0.554   3.652
  293SOL     OW 1777   4.477   6.627   2.607
  293SOL    HW1 1778   4.564   6.577   2.612
  293SOL    HW2 1779   4.420   6.600   2.685
  294SOL     OW 1780   5.608   6.238   5.814
  294SOL    HW1 1781   5.705   6.252   5.829
  294SOL    HW2 1782   5.555   6.293   5.879
  295SOL     OW 1783   1.173   2.732   5.145
  295SOL    HW1 1784   1.109   2.763   5.215
  295SOL    HW2 1785   1.256   2.789   5.149
  296SOL     OW 1786   6.134   1.447   0.957
  296SOL    HW1 1787   6.188   1.371   0.993
  296SOL    HW2 1788   6.125   1.518   1.026
  297SOL     OW 1789   5.137   5.357   3.562
  297SOL    HW1 1790   5.099   5.305   3.639
  297SOL    HW2 1791   5.215   5.411   3.593
  298SOL     OW 1792   4.315   0.737   0.967
  298SOL    HW1 1793   4.260   0.732   0.884
  298SOL    HW2 1794   4.398   0.683   0.955
  299SOL     OW 1795   3.685   1.876   0.587
  299SOL    HW1 1796   3.756   1.869   0.518
  299SOL    HW2 1797   3.642   1.787   0.601
  300SOL     OW 1798   3.163   1.274   2.530
  300SOL    HW1 1799   3.091   1.331   2.570
  300SOL    HW2 1800   3.123   1.211   2.464
  301SOL     OW 1801   5.104   6.797   1.820
  301SOL    HW1 1802   5.130   6.847   1.737
  301SOL    HW2 1803   5.116   6.855   1.900
  302SOL     OW 1804   0.254   7.014   1.632
  302SOL    HW1 1805   0.277   7.013   1.730
  302SOL    HW2 1806   0.261   6.921   1.596
  303SOL     OW 1807   5.780   6.088   2.091
  303SOL    HW1 1808   5.851   6.142   2.045
  303SOL    HW2 1809   5.784   6.105   2.189
  304SOL     OW 1810   1.471   6.510   5.635
  304SOL    HW1 1811   1.435   6.454   5.560
  304SOL    HW2 1812   1.558   6.551   5.607
  305SOL     OW 1813   1.604   3.260   1.249
  305SOL    HW1 1814   1.695   3.295   1.225
  305SOL    HW2 1815   1.564   3.214   1.170
  306SOL     OW 1816   0.422   0.855   2.281
  306SOL    HW1 1817   0.514   0.880   2.312
  306SOL    HW2 1818   0.427   0.816   2.190
  307SOL     OW 1819   3.390   3.845   0.693
  307SOL    HW1 1820   3.311   3.906   0.696
  307SOL    HW2 1821   3.379   3.779   0.619
  308SOL     OW 1822   5.816   2.755   4.903
  308SOL    HW1 1823   5.905   2.762   4.859
  308SOL    HW2 1824   5.755   2.827   4.869
  309SOL     OW 1825   1.089   6.503   6.748
  309SOL    HW1 1826   1.085   6.567   6.825
  309SOL    HW2 1827   1.120   6.552   6.666
  310SOL     OW 1828   5.946   6.403   4.414
  310SOL    HW1 1829   6.014   6.465   4.376
  310SOL    HW2 1830   5.947   6.317   4.363
  311SOL     OW 1831   2.437   4.789   2.299
  311SOL    HW1 1832   2.431   4.887   2.319
  311SOL    HW2 1833   2.518   4.772   2.243
  312SOL     OW 1834   4.230   2.318   3.710
  312SOL    HW1 1835   4.272   2.389   3.655
  312SOL    HW2 1836   4.285   2.301   3.792
  313SOL     OW 1837   3.329   3.780   2.625
  313SOL    HW1 1838   3.386   3.749   2.549
  313SOL    HW2 1839   3.291   3.870   2.603
  314SOL     OW 1840   1.650   5.862   5.586
  314SOL    HW1 1841   1.660   5.910   5.498
  314SOL    HW2 1842   1.613   5.771   5.569
  315SOL     OW 1843   0.439   1.634   3.416
  315SOL    HW1 1844   0.348   1.629   3.458
  315SOL    HW2 1845   0.493   1.705   3.461
  316SOL     OW 1846   4.539   1.703   4.491
  316SOL    HW1 1847   4.471   1.760   4.444
  316SOL    HW2 1848   4.565   1.746   4.577
  317SOL     OW 1849   1.540   1.534   1.949
  317SOL    HW1 1850   1.452   1.573   1.923
  317SOL    HW2 1851   1.535   1.501   2.043
  318SOL     OW 1852   6.526   0.357   6.238
  318SOL    HW1 1853   6.458   0.427   6.262
  318SOL    HW2 1854   6.549   0.304   6.319
  319SOL     OW 1855   6.562   2.088   3.249
  319SOL    HW1 1856   6.529   1.998   3.220
  319SOL    HW2 1857   6.630   2.078   3.321
  320SOL     OW 1858   6.294   2.466   6.940
  320SOL    HW1 1859   6.244   2.382   6.958
  320SOL    HW2 1860   6.294   2.485   6.842
  321SOL     OW 1861   3.682   2.694   0.352
  321SOL    HW1 1862   3.757   2.648   0.399
  321SOL    HW2 1863   3.712   2.719   0.259
  322SOL     OW 1864   3.857   3.016   4.646
  322SOL    HW1 1865   3.813   2.952   4.709
  322SOL    HW2 1866   3.804   3.022   4.561
  323SOL     OW 1867   1.266   2.287   4.266
  323SOL    HW1 1868   1.196   2.303   4.196
  323SOL    HW2 1869   1.258   2.356   4.338
  324SOL     OW 1870   2.048   6.820   3.437
  324SOL    HW1 1871   2.070   6.914   3.413
  324SOL    HW2 1872   1.962   6.818   3.490
  325SOL     OW 1873   1.345   3.559   2.399
  325SOL    HW1 1874   1.354   3.513   2.311
  325SOL    HW2 1875   1.435   3.577   2.437
  326SOL     OW 1876   1.735   4.097   5.874
  326SOL    HW1 1877   1.793   4.108   5.955
  326SOL    HW2 1878   1.743   4.179   5.817
  327SOL     OW 1879   2.622   4.592   2.503
  327SOL    HW1 1880   2.564   4.549   2.434
  327SOL    HW2 1881   2.678   4.522   2.547
  328SOL     OW 1882   2.124   4.687   1.483
  328SOL    HW1 1883   2.168   4.612   1.533
  328SOL    HW2 1884   2.182   4.714   1.405
  329SOL     OW 1885   2.818   4.061   6.514
  329SOL    HW1 1886   2.863   4.132   6.569
  329SOL    HW2 1887   2.796   3.983   6.573
  330SOL     OW 1888   3.887   6.136   0.440
  330SOL    HW1 1889   3.823   6.104   0.371
  330SOL    HW2 1890   3.968   6.175   0.395
  331SOL     OW 1891   5.391   4.778   1.170
  331SOL    HW1 1892   5.393   4.737   1.079
  331SOL    HW2 1893   5.480   4.769   1.213
  332SOL     OW 1894   5.593   1.993   3.795
  332SOL    HW1 1895   5.645   1.933   3.856
  332SOL    HW2 1896   5.608   1.965   3.700
  333SOL     OW 1897   4.465   0.598   5.025
  333SOL    HW1 1898   4.436   0.627   4.934
  333SOL    HW2 1899   4.390   0.613   5.091
  334SOL     OW 1900   4.067   2.892   1.274
  334SOL    HW1 1901   3.975   2.865   1.244
  334SOL    HW2 1902   4.099   2.828   1.345
  335SOL     OW 1903   4.624   0.455   6.635
  335SOL    HW1 1904   4.614   0.376   6.574
  335SOL    HW2 1905   4.682   0.524   6.592
  336SOL     OW 1906   2.759   1.742   3.069
  336SOL    HW1 1907   2.786   1.839   3.068
  336SOL    HW2 1908   2.719   1.718   2.980
  337SOL     OW 1909   1.056   2.858   5.902
  337SOL    HW1 1910   1.001   2.914   5.840
  337SOL    HW2 1911   1.153   2.872   5.884
  338SOL     OW 1912   3.523   3.354   0.872
  338SOL    HW1 1913   3.455   3.399   0.931
  338SOL    HW2 1914   3.509   3.255   0.875
  339SOL     OW 1915   4.062   4.932   4.495
  339SOL    HW1 1916   3.991   4.994   4.461
  339SOL    HW2 1917   4.110   4.975   4.572
  340SOL     OW 1918   4.966   3.485   5.215
  340SOL    HW1 1919   5.006   3.420   5.151
  340SOL    HW2 1920   4.887   3.529   5.173
  341SOL     OW 1921   5.978   6.184   4.235
  341SOL    HW1 1922   6.038   6.116   4.278
  341SOL    HW2 1923   5.908   6.137   4.181
  342SOL     OW 1924   4.948   3.088   0.762
  342SOL    HW1 1925   5.037   3.077   0.807
  342SOL    HW2 1926   4.955   3.159   0.692
  343SOL     OW 1927   0.157   6.617   2.180
  343SOL    HW1 1928   0.094   6.650   2.110
  343SOL    HW2 1929   0.110   6.617   2.269
  344SOL     OW 1930   1.276   2.275   1.989
  344SOL    HW1 1931   1.329   2.360   1.981
  344SOL    HW2 1932   1.210   2.270   1.915
  345SOL     OW 1933   6.300   2.175   4.061
  345SOL    HW1 1934   6.297   2.158   3.963
  345SOL    HW2 1935   6.220   2.134   4.104
  346SOL     OW 1936   1.624   0.421   2.281
  346SOL    HW1 1937   1.633   0.505   2.334
  346SOL    HW2 1938   1.582   0.350   2.337
  347SOL     OW 1939   2.815   6.018   6.977
  347SOL    HW1 1940   2.780   6.099   6.932
  347SOL    HW2 1941   2.850   6.043   0.038
  348SOL     OW 1942   4.723   5.069   2.986
  348SOL    HW1 1943   4.772   5.002   2.930
  348SOL    HW2 1944   4.631   5.035   3.006
  349SOL     OW 1945   6.944   4.514   2.534
  349SOL    HW1 1946   6.902   4.604   2.540
  349SOL    HW2 1947   6.898   4.451   2.596
  350SOL     OW 1948   2.863   2.937   0.569
  350SOL    HW1 1949   2.883   2.979   0.480
  350SOL    HW2 1950   2.780   2.977   0.606
  351SOL     OW 1951   2.927   3.243   0.806
  351SOL    HW1 1952   2.996   3.228   0.735
  351SOL    HW2 1953   2.973   3.251   0.895
  352SOL     OW 1954   3.460   6.330   3.382
  352SOL    HW1 1955   3.436   6.266   3.310
  352SOL    HW2 1956   3.498   6.280   3.460
  353SOL     OW 1957   3.100   0.605   6.265
  353SOL    HW1 1958   3.120   0.540   6.338
  353SOL    HW2 1959   3.024   0.664   6.294
  354SOL     OW 1960   4.667   2.625   0.810
  354SOL    HW1 1961   4.654   2.534   0.850
  354SOL    HW2 1962   4.580   2.658   0.774
  355SOL     OW 1963   1.863   3.751   2.344
  355SOL    HW1 1964   1.835   3.782   2.435
  355SOL    HW2 1965   1.793   3.777   2.278
  356SOL     OW 1966   1.978   0.966   4.576
  356SOL    HW1 1967   2.070   0.928   4.576
  356SOL    HW2 1968   1.915   0.899   4.616
  357SOL     OW 1969   0.107   6.204   4.382
  357SOL    HW1 1970   0.116   6.297   4.416
  357SOL    HW2 1971   0.056   6.149   4.449
  358SOL     OW 1972   4.549   6.541   0.714
  358SOL    HW1 1973   4.646   6.538   0.740
  358SOL    HW2 1974   4.541   6.565   0.618
  359SOL     OW 1975   3.018   0.974   2.089
  359SOL    HW1 1976   3.093   1.033   2.120
  359SOL    HW2 1977   3.054   0.906   2.025
  360SOL     OW 1978   1.421   4.173   4.206
  360SOL    HW1 1979   1.407   4.154   4.303
  360SOL    HW2 1980   1.519   4.178   4.186
  361SOL     OW 1981   6.741   6.141   3.042
  361SOL    HW1 1982   6.746   6.240   3.042
  361SOL    HW2 1983   6.729   6.108   2.948
  362SOL     OW 1984   3.274   3.219   0.945
  362SOL    HW1 1985   3.274   3.218   1.045
  362SOL    HW2 1986   3.239   3.306   0.912
  363SOL     OW 1987   5.973   4.905   2.979
  363SOL    HW1 1988   5.921   4.977   2.934
  363SOL    HW2 1989   5.911   4.837   3.018
  364SOL     OW 1990   6.911   5.212   6.739
  364SOL    HW1 1991   6.990   5.225   6.679
  364SOL    HW2 1992   6.907   5.117   6.769
  365SOL     OW 1993   4.336   0.815   1.222
  365SOL    HW1 1994   4.336   0.790   1.126
  365SOL    HW2 1995   4.242   0.834   1.252
  366SOL     OW 1996   5.503   2.621   0.212
  366SOL    HW1 1997   5.472   2.710   0.180
  366SOL    HW2 1998   5.443   2.550   0.176
  367SOL     OW 1999   5.874   2.611   6.606
  367SOL    HW1 2000   5.867   2.569   6.516
  367SOL    HW2 2001   5.959   2.663   6.613
  368SOL     OW 2002   7.010   2.704   5.470
  368SOL    HW1 2003   0.058   2.734   5.415
  368SOL    HW2 2004   6.941   2.776   5.474
  369SOL     OW 2005   5.801   4.512   3.010
  369SOL    HW1 2006   5.847   4.455   2.942
  369SOL    HW2 2007   5.865   4.535   3.084
  370SOL     OW 2008   0.678   2.196   3.980
  370SOL    HW1 2009   0.764   2.204   3.929
  370SOL    HW2 2010   0.676   2.109   4.029
  371SOL     OW 2011   1.877   4.325   6.933
  371SOL    HW1 2012   1.823   4.408   6.946
  371SOL    HW2 2013   1.818   4.251   6.902
  372SOL     OW 2014   1.966   6.646   5.267
  372SOL    HW1 2015   2.055   6.635   5.310
  372SOL    HW2 2016   1.936   6.741   5.278
  373SOL     OW 2017   5.377   6.102   5.270
  373SOL    HW1 2018   5.467   6.103   5.314
  373SOL    HW2 2019   5.307   6.083   5.338
  374SOL     OW 2020   2.211   2.540   3.385
  374SOL    HW1 2021   2.199   2.557   3.287
  374SOL    HW2 2022   2.301   2.573   3.414
  375SOL     OW 2023   1.279   4.753   4.172
  375SOL    HW1 2024   1.343   4.830   4.182
  375SOL    HW2 2025   1.240   4.754   4.080
  376SOL     OW 2026   1.261   1.901   5.053
  376SOL    HW1 2027   1.341   1.924   4.997
  376SOL    HW2 2028   1.187   1.964   5.032
  377SOL     OW 2029   2.135   2.461   6.755
  377SOL    HW1 2030   2.038   2.437   6.765
  377SOL    HW2 2031   2.151   2.492   6.661
  378SOL     OW 2032   4.033   1.573   0.269
  378SOL    HW1 2033   4.119   1.616   0.298
  378SOL    HW2 2034   4.041   1.474   0.279
  379SOL     OW 2035   5.247   2.400   6.805
  379SOL    HW1 2036   5.235   2.425   6.709
  379SOL    HW2 2037   5.207   2.310   6.822
  380SOL     OW 2038   3.497   0.937   1.176
  380SOL    HW1 2039   3.458   0.927   1.084
  380SOL    HW2 2040   3.557   0.860   1.195
  381SOL     OW 2041   1.278   3.790   3.489
  381SOL    HW1 2042   1.353   3.799   3.424
  381SOL    HW2 2043   1.314   3.784   3.582
  382SOL     OW 2044   5.867   0.766   6.822
  382SOL    HW1 2045   5.835   0.691   6.879
  382SOL    HW2 2046   5.965   0.780   6.838
  383SOL     OW 2047   4.087   3.710   0.401
  383SOL    HW1 2048   4.128   3.630   0.356
  383SOL    HW2 2049   4.004   3.681   0.449
  384SOL     OW 2050   0.133   5.212   4.743
  384SOL    HW1 2051   0.160   5.247   4.654
  384SOL    HW2 2052   0.072   5.278   4.788
  385SOL     OW 2053   3.380   5.971   5.880
  385SOL    HW1 2054   3.311   5.937   5.815
  385SOL    HW2 2055   3.425   6.051   5.842
  386SOL     OW 2056   3.302   6.990   4.609
  386SOL    HW1 2057   3.214   7.027   4.640
  386SOL    HW2 2058   3.351   6.953   4.688
  387SOL     OW 2059   0.851   5.657   2.342
  387SOL    HW1 2060   0.789   5.652   2.263
  387SOL    HW2 2061   0.911   5.736   2.332
  388SOL     OW 2062   1.923   2.191   6.569
  388SOL    HW1 2063   1.833   2.233   6.569
  388SOL    HW2 2064   1.977   2.226   6.493
  389SOL     OW 2065   3.455   3.682   2.366
  389SOL    HW1 2066   3.534   3.713   2.313
  389SOL    HW2 2067   3.461   3.584   2.382
  390SOL     OW 2068   3.149   0.758   3.789
  390SOL    HW1 2069   3.120   0.699   3.864
  390SOL    HW2 2070   3.149   0.705   3.704
  391SOL     OW 2071   2.188   2.643   6.085
  391SOL    HW1 2072   2.162   2.670   6.177
  391SOL    HW2 2073   2.106   2.639   6.028
  392SOL     OW 2074   1.475   4.252   0.246
  392SOL    HW1 2075   1.551   4.315   0.255
  392SOL    HW2 2076   1.500   4.162   0.282
  393SOL     OW 2077   0.312   4.689   6.421
  393SOL    HW1 2078   0.297   4.731   6.331
  393SOL    HW2 2079   0.368   4.607   6.410
  394SOL     OW 2080   0.225   0.723   6.695
  394SOL    HW1 2081   0.235   0.818   6.726
  394SOL    HW2 2082   0.259   0.662   6.766
  395SOL     OW 2083   4.837   3.935   3.349
  395SOL    HW1 2084   4.935   3.915   3.341
  395SOL    HW2 2085   4.824   4.011   3.413
  396SOL     OW 2086   3.928   3.952   1.900
  396SOL    HW1 2087   3.877   3.931   1.817
  396SOL    HW2 2088   3.890   4.035   1.942
  397SOL     OW 2089   4.122   2.341   5.618
  397SOL    HW1 2090   4.026   2.363   5.599
  397SOL    HW2 2091   4.160   2.407   5.683
  398SOL     OW 2092   0.504   6.317   2.419
  398SOL    HW1 2093   0.497   6.391   2.485
  398SOL    HW2 2094   0.581   6.334   2.357
  399SOL     OW 2095   5.343   6.329   3.008
  399SOL    HW1 2096   5.279   6.283   2.945
  399SOL    HW2 2097   5.363   6.421   2.974
  400SOL     OW 2098   5.975   6.538   5.504
  400SOL    HW1 2099   5.959   6.452   5.455
  400SOL    HW2 2100   5.888   6.577   5.533
  401SOL     OW 2101   5.220   0.899   5.078
  401SOL    HW1 2102   5.270   0.813   5.084
  401SOL    HW2 2103   5.241   0.945   4.991
  402SOL     OW 2104   6.291   0.580   2.904
  402SOL    HW1 2105   6.226   0.510   2.877
  402SOL    HW2 2106   6.241   0.657   2.945
  403SOL     OW 2107   4.255   1.967   5.028
  403SOL    HW1 2108   4.225   2.003   4.939
  403SOL    HW2 2109   4.248   1.867   5.027
  404SOL     OW 2110   1.511   6.047   4.020
  404SOL    HW1 2111   1.573   5.969   4.020
  404SOL    HW2 2112   1.421   6.018   3.986
  405SOL     OW 2113   1.720   4.012   1.790
  405SOL    HW1 2114   1.716   4.029   1.888
  405SOL    HW2 2115   1.794   3.948   1.770
  406SOL     OW 2116   0.661   4.158   3.858
  406SOL    HW1 2117   0.631   4.216   3.934
  406SOL    HW2 2118   0.646   4.062   3.882
  407SOL     OW 2119   1.991   0.432   3.548
  407SOL    HW1 2120   1.992   0.354   3.485
  407SOL    HW2 2121   2.029   0.512   3.502
  408SOL     OW 2122   0.744   2.355   3.058
  408SOL    HW1 2123   0.667   2.313   3.010
  408SOL    HW2 2124   0.712   2.390   3.147
  409SOL     OW 2125   6.128   2.637   1.150
  409SOL    HW1 2126   6.081   2.684   1.076
  409SOL    HW2 2127   6.080   2.552   1.171
  410SOL     OW 2128   1.672   0.860   0.387
  410SOL    HW1 2129   1.636   0.768   0.400
  410SOL    HW2 2130   1.713   0.892   0.473
  411SOL     OW 2131   5.385   0.014   6.628
  411SOL    HW1 2132   5.367   7.019   6.533
  411SOL    HW2 2133   5.324   0.087   6.657
  412SOL     OW 2134   5.574   6.387   3.548
  412SOL    HW1 2135   5.566   6.448   3.627
  412SOL    HW2 2136   5.624   6.305   3.575
  413SOL     OW 2137   5.433   5.499   2.055
  413SOL    HW1 2138   5.519   5.475   2.010
  413SOL    HW2 2139   5.452   5.532   2.148
  414SOL     OW 2140   3.973   4.881   3.560
  414SOL    HW1 2141   3.980   4.890   3.659
  414SOL    HW2 2142   4.061   4.851   3.523
  415SOL     OW 2143   0.785   5.886   6.542
  415SOL    HW1 2144   0.849   5.844   6.478
  415SOL    HW2 2145   0.835   5.923   6.621
  416SOL     OW 2146   5.205   5.703   4.142
  416SOL    HW1 2147   5.166   5.721   4.051
  416SOL    HW2 2148   5.296   5.744   4.147
  417SOL     OW 2149   2.146   5.070   0.716
  417SOL    HW1 2150   2.099   5.158   0.717
  417SOL    HW2 2151   2.225   5.075   0.655
  418SOL     OW 2152   4.202   6.109   1.695
  418SOL    HW1 2153   4.156   6.197   1.708
  418SOL    HW2 2154   4.152   6.038   1.745
  419SOL     OW 2155   2.050   0.105   0.941
  419SOL    HW1 2156   2.002   0.155   1.013
  419SOL    HW2 2157   2.086   0.170   0.873
  420SOL     OW 2158   6.109   1.876   0.443
  420SOL    HW1 2159   6.040   1.948   0.450
  420SOL    HW2 2160   6.124   1.835   0.534
  421SOL     OW 2161   0.277   4.792   6.176
  421SOL    HW1 2162   0.358   4.769   6.122
  421SOL    HW2 2163   0.202   4.815   6.114
  422SOL     OW 2164   5.256   4.712   0.631
  422SOL    HW1 2165   5.220   4.657   0.556
  422SOL    HW2 2166   5.353   4.729   0.616
  423SOL     OW 2167   0.847   2.243   0.428
  423SOL    HW1 2168   0.815   2.323   0.377
  423SOL    HW2 2169   0.947   2.247   0.437
  424SOL     OW 2170   2.833   3.489   1.325
  424SOL    HW1 2171   2.866   3.578   1.356
  424SOL    HW2 2172   2.900   3.419   1.348
  425SOL     OW 2173   5.700   1.118   2.009
  425SOL    HW1 2174   5.736   1.210   1.988
  425SOL    HW2 2175   5.601   1.118   1.999
  426SOL     OW 2176   4.366   2.241   3.918
  426SOL    HW1 2177   4.345   2.145   3.938
  426SOL    HW2 2178   4.466   2.252   3.913
  427SOL     OW 2179   4.994   5.191   2.676
  427SOL    HW1 2180   5.011   5.097   2.704
  427SOL    HW2 2181   4.918   5.229   2.728
  428SOL     OW 2182   4.468   0.322   4.484
  428SOL    HW1 2183   4.489   0.390   4.414
  428SOL    HW2 2184   4.379   0.281   4.465
  429SOL     OW 2185   2.290   3.680   0.820
  429SOL    HW1 2186   2.205   3.629   0.833
  429SOL    HW2 2187   2.294   3.755   0.886
  430SOL     OW 2188   6.526   0.299   4.298
  430SOL    HW1 2189   6.470   0.225   4.336
  430SOL    HW2 2190   6.610   0.261   4.260
  431SOL     OW 2191   3.598   6.678   0.524
  431SOL    HW1 2192   3.505   6.714   0.532
  431SOL    HW2 2193   3.648   6.696   0.608
  432SOL     OW 2194   6.657   1.547   1.483
  432SOL    HW1 2195   6.648   1.604   1.402
  432SOL    HW2 2196   6.713   1.595   1.551
  433SOL     OW 2197   3.307   6.124   4.618
  433SOL    HW1 2198   3.337   6.056   4.685
  433SOL    HW2 2199   3.330   6.093   4.526
  434SOL     OW 2200   3.549   6.227   1.902
  434SOL    HW1 2201   3.632   6.191   1.859
  434SOL    HW2 2202   3.564   6.241   1.999
  435SOL     OW 2203   5.317   2.369   5.396
  435SOL    HW1 2204   5.269   2.414   5.320
  435SOL    HW2 2205   5.362   2.438   5.453
  436SOL     OW 2206   3.350   6.117   1.108
  436SOL    HW1 2207   3.253   6.135   1.125
  436SOL    HW2 2208   3.374   6.027   1.147
  437SOL     OW 2209   1.290   0.155   6.330
  437SOL    HW1 2210   1.251   0.117   6.245
  437SOL    HW2 2211   1.215   0.185   6.389
  438SOL     OW 2212   2.034   3.412   2.315
  438SOL    HW1 2213   2.062   3.341   2.249
  438SOL    HW2 2214   2.055   3.381   2.408
  439SOL     OW 2215   5.738   4.375   3.567
  439SOL    HW1 2216   5.776   4.358   3.477
  439SOL    HW2 2217   5.646   4.336   3.572
  440SOL     OW 2218   1.820   1.044   4.958
  440SOL    HW1 2219   1.755   1.083   4.893
  440SOL    HW2 2220   1.838   0.949   4.934
  441SOL     OW 2221   1.075   2.714   3.654
  441SOL    HW1 2222   1.172   2.707   3.677
  441SOL    HW2 2223   1.023   2.739   3.736
  442SOL     OW 2224   2.989   4.943   5.936
  442SOL    HW1 2225   2.987   5.040   5.960
  442SOL    HW2 2226   3.080   4.905   5.953
  443SOL     OW 2227   6.178   4.241   4.518
  443SOL    HW1 2228   6.184   4.219   4.615
  443SOL    HW2 2229   6.156   4.338   4.508
  444SOL     OW 2230   5.133   1.684   5.874
  444SOL    HW1 2231   5.081   1.770   5.870
  444SOL    HW2 2232   5.091   1.622   5.941
  445SOL     OW 2233   0.788   5.410   2.782
  445SOL    HW1 2234   0.708   5.415   2.841
  445SOL    HW2 2235   0.866   5.454   2.827
  446SOL     OW 2236   4.215   4.799   3.493
  446SOL    HW1 2237   4.280   4.753   3.433
  446SOL    HW2 2238   4.230   4.769   3.587
  447SOL     OW 2239   0.904   2.664   6.495
  447SOL    HW1 2240   0.926   2.638   6.401
  447SOL    HW2 2241   0.988   2.671   6.548
  448SOL     OW 2242   3.141   0.577   4.287
  448SOL    HW1 2243   3.085   0.509   4.334
  448SOL    HW2 2244   3.160   0.653   4.349
  449SOL     OW 2245   4.349   1.031   4.264
  449SOL    HW1 2246   4.437   1.022   4.312
  449SOL    HW2 2247   4.290   1.095   4.314
  450SOL     OW 2248   1.504   5.885   3.699
  450SOL    HW1 2249   1.561   5.804   3.687
  450SOL    HW2 2250   1.561   5.964   3.717
  451SOL     OW 2251   1.874   1.865   3.628
  451SOL    HW1 2252   1.911   1.944   3.581
  451SOL    HW2 2253   1.774   1.868   3.624
  452SOL     OW 2254   6.401   6.275   1.051
  452SOL    HW1 2255   6.420   6.296   1.147
  452SOL    HW2 2256   6.469   6.320   0.993
  453SOL     OW 2257   3.922   1.193   5.039
  453SOL    HW1 2258   3.989   1.184   4.965
  453SOL    HW2 2259   3.924   1.112   5.097
  454SOL     OW 2260   0.080   4.971   6.412
  454SOL    HW1 2261   0.065   4.952   6.315
  454SOL    HW2 2262   0.088   4.885   6.462
  455SOL     OW 2263   5.994   2.735   3.116
  455SOL    HW1 2264   6.035   2.793   3.045
  455SOL    HW2 2265   5.946   2.792   3.182
  456SOL     OW 2266   5.799   6.356   3.987
  456SOL    HW1 2267   5.749   6.407   4.056
  456SOL    HW2 2268   5.793   6.258   4.007
  457SOL     OW 2269   1.713   3.446   3.729
  457SOL    HW1 2270   1.801   3.430   3.686
  457SOL    HW2 2271   1.726   3.490   3.817
  458SOL     OW 2272   4.531   5.351   3.506
  458SOL    HW1 2273   4.506   5.407   3.427
  458SOL    HW2 2274   4.629   5.362   3.525
  459SOL     OW 2275   1.830   6.907   5.341
  459SOL    HW1 2276   1.911   6.947   5.299
  459SOL    HW2 2277   1.750   6.961   5.317
  460SOL     OW 2278   1.356   0.296   3.460
  460SOL    HW1 2279   1.297   0.356   3.513
  460SOL    HW2 2280   1.403   0.350   3.389
  461SOL     OW 2281   5.805   0.103   5.931
  461SOL    HW1 2282   5.718   0.137   5.894
  461SOL    HW2 2283   5.791   0.072   6.025
  462SOL     OW 2284   3.339   3.079   6.297
  462SOL    HW1 2285   3.247   3.092   6.334
  462SOL    HW2 2286   3.361   3.155   6.236
  463SOL     OW 2287   6.358   5.878   3.110
  463SOL    HW1 2288   6.266   5.915   3.124
  463SOL    HW2 2289   6.379   5.877   3.013
  464SOL     OW 2290   2.232   1.974   5.120
  464SOL    HW1 2291   2.312   2.009   5.072
  464SOL    HW2 2292   2.203   2.040   5.189
  465SOL     OW 2293   0.670   2.582   5.438
  465SOL    HW1 2294   0.768   2.565   5.451
  465SOL    HW2 2295   0.629   2.506   5.387
  466SOL     OW 2296   0.934   5.824   3.039
  466SOL    HW1 2297   0.931   5.897   2.971
  466SOL    HW2 2298   1.014   5.766   3.023
  467SOL     OW 2299   1.578   1.734   0.682
  467SOL    HW1 2300   1.486   1.734   0.721
  467SOL    HW2 2301   1.577   1.779   0.592
  468SOL     OW 2302   3.670   6.904   7.001
  468SOL    HW1 2303   3.745   6.945   0.023
  468SOL    HW2 2304   3.655   6.955   6.917
  469SOL     OW 2305   2.585   3.858   0.010
  469SOL    HW1 2306   2.485   3.869   0.016
  469SOL    HW2 2307   2.608   3.817   6.951
  470SOL     OW 2308   4.360   0.146   2.128
  470SOL    HW1 2309   4.313   0.222   2.171
  470SOL    HW2 2310   4.310   0.061   2.145
  471SOL     OW 2311   2.577   2.219   3.980
  471SOL    HW1 2312   2.627   2.286   4.035
  471SOL    HW2 2313   2.532   2.265   3.904
  472SOL     OW 2314   5.230   3.675   6.741
  472SOL    HW1 2315   5.297   3.620   6.790
  472SOL    HW2 2316   5.157   3.702   6.804
  473SOL     OW 2317   1.000   3.106   2.838
  473SOL    HW1 2318   1.028   3.118   2.933
  473SOL    HW2 2319   1.081   3.100   2.780
  474SOL     OW 2320   5.607   5.605   4.485
  474SOL    HW1 2321   5.614   5.516   4.439
  474SOL    HW2 2322   5.667   5.671   4.439
  475SOL     OW 2323   5.661   0.930   6.723
  475SOL    HW1 2324   5.718   0.851   6.744
  475SOL    HW2 2325   5.603   0.910   6.644
  476SOL     OW 2326   6.585   3.999   3.403
  476SOL    HW1 2327   6.617   4.015   3.496
  476SOL    HW2 2328   6.633   3.920   3.364
  477SOL     OW 2329   2.236   4.984   3.671
  477SOL    HW1 2330   2.239   4.919   3.748
  477SOL    HW2 2331   2.161   4.959   3.610
  478SOL     OW 2332   3.447   6.809   1.722
  478SOL    HW1 2333   3.357   6.800   1.680
  478SOL    HW2 2334   3.517   6.783   1.656
  479SOL     OW 2335   4.042   2.355   6.034
  479SOL    HW1 2336   4.023   2.427   5.967
  479SOL    HW2 2337   4.140   2.332   6.031
  480SOL     OW 2338   2.319   1.211   6.977
  480SOL    HW1 2339   2.397   1.269   7.001
  480SOL    HW2 2340   2.235   1.266   6.978
  481SOL     OW 2341   1.839   6.845   0.284
  481SOL    HW1 2342   1.776   6.809   0.215
  481SOL    HW2 2343   1.831   6.945   0.287
  482SOL     OW 2344   4.596   4.743   2.902
  482SOL    HW1 2345   4.536   4.663   2.910
  482SOL    HW2 2346   4.559   4.818   2.957
  483SOL     OW 2347   6.517   1.101   1.983
  483SOL    HW1 2348   6.514   1.055   2.071
  483SOL    HW2 2349   6.558   1.041   1.915
  484SOL     OW 2350   1.909   3.355   4.952
  484SOL    HW1 2351   1.890   3.259   4.973
  484SOL    HW2 2352   1.937   3.403   5.035
  485SOL     OW 2353   3.704   5.210   2.368
  485SOL    HW1 2354   3.779   5.275   2.359
  485SOL    HW2 2355   3.671   5.211   2.463
  486SOL     OW 2356   6.811   1.742   0.539
  486SOL    HW1 2357   6.737   1.808   0.526
  486SOL    HW2 2358   6.776   1.662   0.589
  487SOL     OW 2359   1.262   0.523   1.163
  487SOL    HW1 2360   1.294   0.577   1.241
  487SOL    HW2 2361   1.325   0.534   1.086
  488SOL     OW 2362   0.891   1.369   2.349
  488SOL    HW1 2363   0.828   1.442   2.376
  488SOL    HW2 2364   0.974   1.375   2.405
  489SOL     OW 2365   3.144   6.307   6.325
  489SOL    HW1 2366   3.173   6.393   6.283
  489SOL    HW2 2367   3.203   6.233   6.295
  490SOL     OW 2368   6.253   5.701   3.586
  490SOL    HW1 2369   6.220   5.777   3.642
  490SOL    HW2 2370   6.222   5.614   3.626
  491SOL     OW 2371   0.214   3.294   2.951
  491SOL    HW1 2372   0.276   3.370   2.927
  491SOL    HW2 2373   0.144   3.327   3.014
  492SOL     OW 2374   2.081   0.529   5.692
  492SOL    HW1 2375   2.097   0.607   5.631
  492SOL    HW2 2376   1.986   0.501   5.686
  493SOL     OW 2377   5.237   5.816   5.189
  493SOL    HW1 2378   5.316   5.841   5.245
  493SOL    HW2 2379   5.222   5.717   5.196
  494SOL     OW 2380   0.448   0.233   6.768
  494SOL    HW1 2381   0.397   0.147   6.758
  494SOL    HW2 2382   0.474   0.267   6.677
  495SOL     OW 2383   4.965   6.108   3.550
  495SOL    HW1 2384   4.915   6.031   3.592
  495SOL    HW2 2385   4.986   6.086   3.455
  496SOL     OW 2386   5.288   3.940   2.000
  496SOL    HW1 2387   5.206   3.992   2.023
  496SOL    HW2 2388   5.302   3.943   1.901
  497SOL     OW 2389   3.452   1.151   4.384
  497SOL    HW1 2390   3.533   1.110   4.426
  497SOL    HW2 2391   3.416   1.089   4.315
  498SOL     OW 2392   2.381   3.628   1.293
  498SOL    HW1 2393   2.326   3.690   1.349
  498SOL    HW2 2394   2.428   3.562   1.352
  499SOL     OW 2395   2.590   6.821   4.385
  499SOL    HW1 2396   2.543   6.736   4.407
  499SOL    HW2 2397   2.530   6.880   4.332
  500SOL     OW 2398   0.512   3.344   4.248
  500SOL    HW1 2399   0.555   3.338   4.338
  500SOL    HW2 2400   0.527   3.259   4.198
  501SOL     OW 2401   2.955   5.507   0.857
  501SOL    HW1 2402   3.036   5.512   0.799
  501SOL    HW2 2403   2.876   5.479   0.802
  502SOL     OW 2404   0.216   3.950   0.281
  502SOL    HW1 2405   0.286   3.878   0.284
  502SOL    HW2 2406   0.190   3.967   0.187
  503SOL     OW 2407   6.248   5.521   6.359
  503SOL    HW1 2408   6.326   5.584   6.356
  503SOL    HW2 2409   6.280   5.429   6.378
  504SOL     OW 2410   1.197   5.420   2.762
  504SOL    HW1 2411   1.105   5.453   2.779
  504SOL    HW2 2412   1.229   5.452   2.673
  505SOL     OW 2413   2.898   6.127   5.364
  505SOL    HW1 2414   2.799   6.138   5.358
  505SOL    HW2 2415   2.942   6.213   5.337
  506SOL     OW 2416   2.181   5.063   4.619
  506SOL    HW1 2417   2.199   5.013   4.704
  506SOL    HW2 2418   2.168   4.998   4.544
  507SOL     OW 2419   3.278   6.599   2.904
  507SOL    HW1 2420   3.375   6.619   2.890
  507SOL    HW2 2421   3.260   6.587   3.002
  508SOL     OW 2422   0.035   3.805   2.457
  508SOL    HW1 2423   0.060   3.789   2.362
  508SOL    HW2 2424   0.029   3.904   2.473
  509SOL     OW 2425   3.159   1.161   1.564
  509SOL    HW1 2426   3.187   1.070   1.594
  509SOL    HW2 2427   3.107   1.154   1.479
  510SOL     OW 2428   6.085   4.938   0.193
  510SOL    HW1 2429   6.045   5.019   0.150
  510SOL    HW2 2430   6.124   4.878   0.123
  511SOL     OW 2431   0.922   1.418   5.846
  511SOL    HW1 2432   0.833   1.402   5.802
  511SOL    HW2 2433   0.920   1.381   5.939
  512SOL     OW 2434   6.848   2.803   6.918
  512SOL    HW1 2435   6.838   2.828   6.822
  512SOL    HW2 2436   6.833   2.704   6.928
  513SOL     OW 2437   6.090   6.915   3.456
  513SOL    HW1 2438   6.061   6.821   3.441
  513SOL    HW2 2439   6.190   6.919   3.455
  514SOL     OW 2440   6.218   2.474   4.054
  514SOL    HW1 2441   6.252   2.385   4.024
  514SOL    HW2 2442   6.119   2.478   4.038
  515SOL     OW 2443   1.345   0.827   6.451
  515SOL    HW1 2444   1.330   0.729   6.442
  515SOL    HW2 2445   1.430   0.843   6.502
  516SOL     OW 2446   2.291   4.829   1.886
  516SOL    HW1 2447   2.321   4.857   1.977
  516SOL    HW2 2448   2.293   4.729   1.879
  517SOL     OW 2449   4.947   5.488   2.305
  517SOL    HW1 2450   4.910   5.564   2.358
  517SOL    HW2 2451   4.986   5.523   2.219
  518SOL     OW 2452   2.572   2.469   3.240
  518SOL    HW1 2453   2.627   2.401   3.191
  518SOL    HW2 2454   2.533   2.428   3.322
  519SOL     OW 2455   0.724   0.456   4.881
  519SOL    HW1 2456   0.783   0.484   4.957
  519SOL    HW2 2457   0.740   0.517   4.804
  520SOL     OW 2458   6.389   4.303   0.579
  520SOL    HW1 2459   6.469   4.356   0.607
  520SOL    HW2 2460   6.392   4.213   0.621
  521SOL     OW 2461   6.253   4.179   4.806
  521SOL    HW1 2462   6.207   4.220   4.885
  521SOL    HW2 2463   6.348   4.210   4.803
  522SOL     OW 2464   3.395   3.262   4.774
  522SOL    HW1 2465   3.470   3.292   4.715
  522SOL    HW2 2466   3.382   3.164   4.764
  523SOL     OW 2467   0.274   4.991   1.981
  523SOL    HW1 2468   0.358   5.018   2.028
  523SOL    HW2 2469   0.198   5.047   2.014
  524SOL     OW 2470   6.896   1.163   1.060
  524SOL    HW1 2471   6.951   1.237   1.099
  524SOL    HW2 2472   6.941   1.128   0.978
  525SOL     OW 2473   2.013   3.301   5.852
  525SOL    HW1 2474   1.946   3.271   5.920
  525SOL    HW2 2475   2.105   3.295   5.891
  526SOL     OW 2476   4.205   6.427   4.435
  526SOL    HW1 2477   4.140   6.488   4.480
  526SOL    HW2 2478   4.185   6.332   4.462
  527SOL     OW 2479   6.788   2.542   6.960
  527SOL    HW1 2480   6.693   2.526   6.989
  527SOL    HW2 2481   6.806   2.492   6.875
  528SOL     OW 2482   0.692   1.959   3.369
  528SOL    HW1 2483   0.778   1.994   3.330
  528SOL    HW2 2484   0.707   1.932   3.464
  529SOL     OW 2485   1.942   0.130   3.896
  529SOL    HW1 2486   1.950   0.030   3.892
  529SOL    HW2 2487   1.846   0.156   3.886
  530SOL     OW 2488   3.375   2.913   4.487
  530SOL    HW1 2489   3.452   2.912   4.424
  530SOL    HW2 2490   3.297   2.957   4.443
  531SOL     OW 2491   0.694   1.050   3.185
  531SOL    HW1 2492   0.619   0.989   3.210
  531SOL    HW2 2493   0.660   1.143   3.173
  532SOL     OW 2494   1.190   2.506   0.143
  532SOL    HW1 2495   1.117   2.439   0.132
  532SOL    HW2 2496   1.210   2.549   0.055
  533SOL     OW 2497   4.812   6.715   4.047
  533SOL    HW1 2498   4.800   6.741   4.143
  533SOL    HW2 2499   4.905   6.737   4.018
  534SOL     OW 2500   4.948   6.441   2.714
  534SOL    HW1 2501   4.982   6.376   2.646
  534SOL    HW2 2502   4.999   6.430   2.800
  535SOL     OW 2503   0.910   3.848   4.371
  535SOL    HW1 2504   0.993   3.899   4.349
  535SOL    HW2 2505   0.848   3.906   4.423
  536SOL     OW 2506   6.611   5.328   1.676
  536SOL    HW1 2507   6.614   5.414   1.625
  536SOL    HW2 2508   6.556   5.340   1.759
  537SOL     OW 2509   2.201   6.423   4.484
  537SOL    HW1 2510   2.283   6.367   4.495
  537SOL    HW2 2511   2.174   6.424   4.388
  538SOL     OW 2512   1.277   4.223   2.842
  538SOL    HW1 2513   1.298   4.206   2.938
  538SOL    HW2 2514   1.179   4.213   2.826
  539SOL     OW 2515   1.429   6.530   1.048
  539SOL    HW1 2516   1.350   6.560   1.102
  539SOL    HW2 2517   1.401   6.457   0.986
  540SOL     OW 2518   0.940   0.399   3.043
  540SOL    HW1 2519   0.923   0.497   3.035
  540SOL    HW2 2520   1.036   0.380   3.020
  541SOL     OW 2521   3.710   6.489   4.242
  541SOL    HW1 2522   3.804   6.462   4.261
  541SOL    HW2 2523   3.707   6.585   4.216
  542SOL     OW 2524   6.675   0.668   0.010
  542SOL    HW1 2525   6.689   0.657   0.108
  542SOL    HW2 2526   6.626   0.754   7.022
  543SOL     OW 2527   1.596   4.059   5.526
  543SOL    HW1 2528   1.632   3.995   5.593
  543SOL    HW2 2529   1.497   4.066   5.538
  544SOL     OW 2530   2.464   3.656   0.429
  544SOL    HW1 2531   2.523   3.698   0.361
  544SOL    HW2 2532   2.433   3.725   0.494
  545SOL     OW 2533   2.916   0.553   2.842
  545SOL    HW1 2534   2.829   0.602   2.843
  545SOL    HW2 2535   2.978   0.597   2.778
  546SOL     OW 2536   1.601   3.210   0.930
  546SOL    HW1 2537   1.599   3.291   0.988
  546SOL    HW2 2538   1.695   3.177   0.923
  547SOL     OW 2539   3.347   1.436   0.165
  547SOL    HW1 2540   3.259   1.394   0.189
  547SOL    HW2 2541   3.368   1.509   0.229
  548SOL     OW 2542   3.589   2.903   2.856
  548SOL    HW1 2543   3.509   2.867   2.903
  548SOL    HW2 2544   3.644   2.957   2.920
  549SOL     OW 2545   4.548   3.315   1.122
  549SOL    HW1 2546   4.529   3.245   1.053
  549SOL    HW2 2547   4.503   3.290   1.208
  550SOL     OW 2548   6.307   4.575   3.445
  550SOL    HW1 2549   6.254   4.643   3.495
  550SOL    HW2 2550   6.397   4.612   3.423
  551SOL     OW 2551   0.966   0.447   1.680
  551SOL    HW1 2552   1.014   0.450   1.593
  551SOL    HW2 2553   0.956   0.541   1.715
  552SOL     OW 2554   5.018   4.793   6.984
  552SOL    HW1 2555   5.046   4.779   6.889
  552SOL    HW2 2556   5.078   4.739   0.015
  553SOL     OW 2557   1.795   6.527   2.208
  553SOL    HW1 2558   1.746   6.548   2.123
  553SOL    HW2 2559   1.749   6.453   2.256
  554SOL     OW 2560   5.434   6.623   6.221
  554SOL    HW1 2561   5.523   6.659   6.195
  554SOL    HW2 2562   5.396   6.570   6.146
  555SOL     OW 2563   1.837   5.481   3.081
  555SOL    HW1 2564   1.786   5.416   3.138
  555SOL    HW2 2565   1.846   5.444   2.989
  556SOL     OW 2566   4.940   2.165   3.691
  556SOL    HW1 2567   4.847   2.163   3.652
  556SOL    HW2 2568   4.938   2.215   3.778
  557SOL     OW 2569   0.642   4.668   0.162
  557SOL    HW1 2570   0.546   4.677   0.134
  557SOL    HW2 2571   0.700   4.662   0.081
  558SOL     OW 2572   2.859   3.592   4.634
  558SOL    HW1 2573   2.938   3.561   4.687
  558SOL    HW2 2574   2.824   3.678   4.672
  559SOL     OW 2575   6.580   5.505   6.696
  559SOL    HW1 2576   6.643   5.501   6.773
  559SOL    HW2 2577   6.486   5.502   6.729
  560SOL     OW 2578   4.117   4.955   0.307
  560SOL    HW1 2579   4.030   4.973   0.261
  560SOL    HW2 2580   4.112   4.988   0.401
  561SOL     OW 2581   6.172   1.226   7.024
  561SOL    HW1 2582   6.109   1.169   6.972
  561SOL    HW2 2583   6.260   1.178   0.004
  562SOL     OW 2584   5.484   0.631   5.745
  562SOL    HW1 2585   5.546   0.708   5.728
  562SOL    HW2 2586   5.495   0.600   5.839
  563SOL     OW 2587   1.933   0.274   3.115
  563SOL    HW1 2588   1.945   0.199   3.050
  563SOL    HW2 2589   1.993   0.260   3.194
  564SOL     OW 2590   2.755   1.948   6.973
  564SOL    HW1 2591   2.668   1.899   6.980
  564SOL    HW2 2592   2.737   2.045   6.955
  565SOL     OW 2593   3.511   2.924   5.960
  565SOL    HW1 2594   3.557   2.843   5.996
  565SOL    HW2 2595   3.482   2.908   5.866
  566SOL     OW 2596   6.127   4.507   4.542
  566SOL    HW1 2597   6.032   4.510   4.573
  566SOL    HW2 2598   6.152   4.595   4.503
  567SOL     OW 2599   3.879   3.869   2.467
  567SOL    HW1 2600   3.810   3.936   2.441
  567SOL    HW2 2601   3.903   3.881   2.564
  568SOL     OW 2602   4.109   2.147   0.115
  568SOL    HW1 2603   4.048   2.207   0.168
  568SOL    HW2 2604   4.068   2.130   0.026
  569SOL     OW 2605   1.070   3.768   6.831
  569SOL    HW1 2606   0.994   3.708   6.807
  569SOL    HW2 2607   1.122   3.792   6.749
  570SOL     OW 2608   2.601   6.415   6.731
  570SOL    HW1 2609   2.599   6.399   6.829
  570SOL    HW2 2610   2.509   6.404   6.693
  571SOL     OW 2611   3.025   0.412   2.604
  571SOL    HW1 2612   2.998   0.380   2.695
  571SOL    HW2 2613   3.063   0.504   2.610
  572SOL     OW 2614   2.500   4.676   5.898
  572SOL    HW1 2615   2.533   4.739   5.828
  572SOL    HW2 2616   2.577   4.624   5.936
  573SOL     OW 2617   5.333   1.044   5.265
  573SOL    HW1 2618   5.280   0.969   5.226
  573SOL    HW2 2619   5.305   1.059   5.360
  574SOL     OW 2620   2.998   2.119   4.537
  574SOL    HW1 2621   2.999   2.021   4.555
  574SOL    HW2 2622   2.904   2.149   4.517
  575SOL     OW 2623   6.052   3.146   0.152
  575SOL    HW1 2624   6.050   3.123   0.250
  575SOL    HW2 2625   6.146   3.162   0.124
  576SOL     OW 2626   0.826   2.071   2.770
  576SOL    HW1 2627   0.911   2.018   2.774
  576SOL    HW2 2628   0.758   2.021   2.718
  577SOL     OW 2629   2.253   1.212   3.160
  577SOL    HW1 2630   2.180   1.247   3.102
  577SOL    HW2 2631   2.257   1.113   3.154
  578SOL     OW 2632   6.643   4.943   3.504
  578SOL    HW1 2633   6.731   4.950   3.457
  578SOL    HW2 2634   6.649   4.876   3.578
  579SOL     OW 2635   1.711   3.420   1.814
  579SOL    HW1 2636   1.688   3.338   1.761
  579SOL    HW2 2637   1.808   3.441   1.803
  580SOL     OW 2638   6.974   4.733   6.704
  580SOL    HW1 2639   6.927   4.664   6.759
  580SOL    HW2 2640   6.975   4.704   6.608
  581SOL     OW 2641   3.151   3.813   2.299
  581SOL    HW1 2642   3.203   3.728   2.305
  581SOL    HW2 2643   3.206   3.888   2.336
  582SOL     OW 2644   5.741   5.073   2.534
  582SOL    HW1 2645   5.686   5.028   2.604
  582SOL    HW2 2646   5.777   5.005   2.471
  583SOL     OW 2647   2.850   5.373   6.376
  583SOL    HW1 2648   2.773   5.383   6.439
  583SOL    HW2 2649   2.816   5.371   6.282
  584SOL     OW 2650   1.780   3.954   6.687
  584SOL    HW1 2651   1.814   3.993   6.602
  584SOL    HW2 2652   1.727   4.023   6.736
  585SOL     OW 2653   5.661   3.110   6.395
  585SOL    HW1 2654   5.699   3.146   6.309
  585SOL    HW2 2655   5.729   3.055   6.442
  586SOL     OW 2656   3.324   1.531   6.290
  586SOL    HW1 2657   3.231   1.543   6.325
  586SOL    HW2 2658   3.383   1.603   6.327
  587SOL     OW 2659   2.519   2.160   4.705
  587SOL    HW1 2660   2.497   2.126   4.614
  587SOL    HW2 2661   2.618   2.158   4.719
  588SOL     OW 2662   2.348   4.602   0.776
  588SOL    HW1 2663   2.447   4.591   0.788
  588SOL    HW2 2664   2.311   4.520   0.733
  589SOL     OW 2665   3.448   5.123   1.512
  589SOL    HW1 2666   3.402   5.142   1.599
  589SOL    HW2 2667   3.512   5.197   1.491
  590SOL     OW 2668   5.900   2.835   1.946
  590SOL    HW1 2669   5.810   2.875   1.932
  590SOL    HW2 2670   5.891   2.739   1.972
  591SOL     OW 2671   3.643   5.841   3.857
  591SOL    HW1 2672   3.618   5.886   3.771
  591SOL    HW2 2673   3.640   5.908   3.931
  592SOL     OW 2674   3.108   0.354   1.363
  592SOL    HW1 2675   3.187   0.292   1.356
  592SOL    HW2 2676   3.082   0.385   1.272
  593SOL     OW 2677   4.855   2.305   3.911
  593SOL    HW1 2678   4.834   2.285   4.006
  593SOL    HW2 2679   4.771   2.328   3.862
  594SOL     OW 2680   4.754   2.356   6.083
  594SOL    HW1 2681   4.759   2.356   6.183
  594SOL    HW2 2682   4.671   2.404   6.054
  595SOL     OW 2683   5.623   0.442   3.674
  595SOL    HW1 2684   5.613   0.416   3.578
  595SOL    HW2 2685   5.642   0.540   3.680
  596SOL     OW 2686   1.206   4.142   2.363
  596SOL    HW1 2687   1.227   4.239   2.378
  596SOL    HW2 2688   1.193   4.096   2.451
  597SOL     OW 2689   4.092   6.982   6.178
  597SOL    HW1 2690   4.120   0.042   6.143
  597SOL    HW2 2691   3.999   6.962   6.146
  598SOL     OW 2692   3.136   4.409   6.800
  598SOL    HW1 2693   3.114   4.312   6.795
  598SOL    HW2 2694   3.138   4.448   6.708
  599SOL     OW 2695   1.950   6.418   2.910
  599SOL    HW1 2696   2.003   6.462   2.838
  599SOL    HW2 2697   1.931   6.323   2.886
  600SOL     OW 2698   1.022   0.621   1.074
  600SOL    HW1 2699   0.957   0.690   1.105
  600SOL    HW2 2700   1.103   0.623   1.133
  601SOL     OW 2701   3.365   6.770   4.170
  601SOL    HW1 2702   3.327   6.817   4.249
  601SOL    HW2 2703   3.317   6.683   4.158
  602SOL     OW 2704   1.454   2.781   6.946
  602SOL    HW1 2705   1.521   2.812   7.013
  602SOL    HW2 2706   1.482   2.691   6.910
  603SOL     OW 2707   4.138   1.620   3.512
  603SOL    HW1 2708   4.093   1.534   3.534
  603SOL    HW2 2709   4.116   1.688   3.582
  604SOL     OW 2710   0.508   3.880   1.380
  604SOL    HW1 2711   0.493   3.793   1.333
  604SOL    HW2 2712   0.470   3.875   1.472
  605SOL     OW 2713   6.263   5.622   3.058
  605SOL    HW1 2714   6.288   5.608   2.962
  605SOL    HW2 2715   6.319   5.696   3.097
  606SOL     OW 2716   5.258   0.695   6.345
  606SOL    HW1 2717   5.301   0.623   6.290
  606SOL    HW2 2718   5.163   0.706   6.317
  607SOL     OW 2719   5.211   0.823   5.465
  607SOL    HW1 2720   5.301   0.781   5.455
  607SOL    HW2 2721   5.221   0.921   5.482
  608SOL     OW 2722   4.005   6.414   7.003
  608SOL    HW1 2723   3.949   6.360   6.940
  608SOL    HW2 2724   4.006   6.510   6.973
  609SOL     OW 2725   3.909   3.089   3.748
  609SOL    HW1 2726   3.893   3.035   3.831
  609SOL    HW2 2727   3.840   3.161   3.742
  610SOL     OW 2728   5.277   2.270   2.465
  610SOL    HW1 2729   5.362   2.232   2.428
  610SOL    HW2 2730   5.250   2.350   2.411
  611SOL     OW 2731   1.765   0.264   6.553
  611SOL    HW1 2732   1.788   0.345   6.608
  611SOL    HW2 2733   1.848   0.214   6.531
  612SOL     OW 2734   4.171   6.524   6.191
  612SOL    HW1 2735   4.235   6.456   6.227
  612SOL    HW2 2736   4.185   6.611   6.238
  613SOL     OW 2737   4.111   6.804   5.823
  613SOL    HW1 2738   4.085   6.777   5.730
  613SOL    HW2 2739   4.064   6.747   5.889
  614SOL     OW 2740   5.875   3.632   0.887
  614SOL    HW1 2741   5.807   3.670   0.949
  614SOL    HW2 2742   5.845   3.643   0.793
  615SOL     OW 2743   0.329   1.949   1.182
  615SOL    HW1 2744   0.257   2.017   1.167
  615SOL    HW2 2745   0.288   1.859   1.192
  616SOL     OW 2746   6.232   1.552   2.868
  616SOL    HW1 2747   6.323   1.526   2.835
  616SOL    HW2 2748   6.219   1.650   2.855
  617SOL     OW 2749   6.968   3.499   6.766
  617SOL    HW1 2750   6.906   3.454   6.831
  617SOL    HW2 2751   0.020   3.443   6.754
  618SOL     OW 2752   0.340   3.380   0.051
  618SOL    HW1 2753   0.293   3.468   0.054
  618SOL    HW2 2754   0.274   3.308   0.028
  619SOL     OW 2755   4.502   7.014   6.715
  619SOL    HW1 2756   4.597   0.002   6.741
  619SOL    HW2 2757   4.448   6.992   6.797
  620SOL     OW 2758   5.569   2.490   1.657
  620SOL    HW1 2759   5.601   2.585   1.657
  620SOL    HW2 2760   5.643   2.431   1.624
  621SOL     OW 2761   1.834   6.913   5.776
  621SOL    HW1 2762   1.782   6.988   5.817
  621SOL    HW2 2763   1.772   6.852   5.728
  622SOL     OW 2764   0.681   1.610   5.097
  622SOL    HW1 2765   0.694   1.585   5.001
  622SOL    HW2 2766   0.586   1.639   5.111
  623SOL     OW 2767   0.299   6.507   5.487
  623SOL    HW1 2768   0.282   6.572   5.562
  623SOL    HW2 2769   0.388   6.527   5.446
  624SOL     OW 2770   6.637   1.003   0.594
  624SOL    HW1 2771   6.734   0.992   0.616
  624SOL    HW2 2772   6.600   1.082   0.642
  625SOL     OW 2773   1.871   1.936   1.009
  625SOL    HW1 2774   1.807   2.011   0.992
  625SOL    HW2 2775   1.831   1.851   0.976
  626SOL     OW 2776   0.416   6.216   2.863
  626SOL    HW1 2777   0.368   6.271   2.931
  626SOL    HW2 2778   0.514   6.219   2.879
  627SOL     OW 2779   6.441   6.175   0.602
  627SOL    HW1 2780   6.502   6.175   0.681
  627SOL    HW2 2781   6.494   6.164   0.519
  628SOL     OW 2782   5.514   4.382   5.064
  628SOL    HW1 2783   5.493   4.316   5.136
  628SOL    HW2 2784   5.575   4.452   5.100
  629SOL     OW 2785   0.934   1.007   6.876
  629SOL    HW1 2786   1.013   0.987   6.818
  629SOL    HW2 2787   0.939   1.101   6.908
  630SOL     OW 2788   0.319   2.350   0.740
  630SOL    HW1 2789   0.313   2.273   0.804
  630SOL    HW2 2790   0.401   2.342   0.684
  631SOL     OW 2791   3.986   1.185   4.679
  631SOL    HW1 2792   4.086   1.183   4.683
  631SOL    HW2 2793   3.951   1.092   4.672
  632SOL     OW 2794   5.324   2.324   1.152
  632SOL    HW1 2795   5.368   2.286   1.071
  632SOL    HW2 2796   5.355   2.276   1.233
  633SOL     OW 2797   3.250   4.289   0.179
  633SOL    HW1 2798   3.189   4.348   0.126
  633SOL    HW2 2799   3.318   4.345   0.226
  634SOL     OW 2800   3.513   3.861   2.803
  634SOL    HW1 2801   3.442   3.802   2.766
  634SOL    HW2 2802   3.489   3.889   2.896
  635SOL     OW 2803   4.768   6.044   0.544
  635SOL    HW1 2804   4.738   6.118   0.604
  635SOL    HW2 2805   4.764   6.074   0.449
  636SOL     OW 2806   2.835   6.849   6.146
  636SOL    HW1 2807   2.875   6.764   6.112
  636SOL    HW2 2808   2.743   6.861   6.108
  637SOL     OW 2809   6.869   3.049   2.749
  637SOL    HW1 2810   6.874   2.998   2.835
  637SOL    HW2 2811   6.952   3.104   2.738
  638SOL     OW 2812   6.149   3.320   3.603
  638SOL    HW1 2813   6.132   3.354   3.511
  638SOL    HW2 2814   6.073   3.345   3.663
  639SOL     OW 2815   4.836   3.924   2.811
  639SOL    HW1 2816   4.816   3.836   2.853
  639SOL    HW2 2817   4.930   3.924   2.777
  640SOL     OW 2818   6.813   5.166   3.355
  640SOL    HW1 2819   6.846   5.257   3.328
  640SOL    HW2 2820   6.718   5.155   3.325
  641SOL     OW 2821   0.836   4.702   5.027
  641SOL    HW1 2822   0.859   4.797   5.009
  641SOL    HW2 2823   0.755   4.676   4.975
  642SOL     OW 2824   0.869   3.193   4.249
  642SOL    HW1 2825   0.853   3.097   4.271
  642SOL    HW2 2826   0.821   3.216   4.164
  643SOL     OW 2827   6.703   0.767   6.668
  643SOL    HW1 2828   6.797   0.797   6.650
  643SOL    HW2 2829   6.677   0.697   6.601
  644SOL     OW 2830   1.205   0.226   4.641
  644SOL    HW1 2831   1.258   0.227   4.556
  644SOL    HW2 2832   1.265   0.244   4.719
  645SOL     OW 2833   3.586   6.334   4.721
  645SOL    HW1 2834   3.591   6.331   4.821
  645SOL    HW2 2835   3.492   6.350   4.693
  646SOL     OW 2836   3.506   0.578   4.687
  646SOL    HW1 2837   3.505   0.569   4.787
  646SOL    HW2 2838   3.441   0.513   4.647
  647SOL     OW 2839   5.289   2.046   4.880
  647SOL    HW1 2840   5.356   1.975   4.856
  647SOL    HW2 2841   5.217   2.006   4.936
  648SOL     OW 2842   0.025   4.528   4.104
  648SOL    HW1 2843   6.996   4.609   4.106
  648SOL    HW2 2844   7.019   4.463   4.037
  649SOL     OW 2845   2.019   3.526   0.462
  649SOL    HW1 2846   2.019   3.460   0.536
  649SOL    HW2 2847   1.963   3.491   0.386
  650SOL     OW 2848   6.717   4.672   0.934
  650SOL    HW1 2849   6.770   4.590   0.912
  650SOL    HW2 2850   6.736   4.744   0.867
  651SOL     OW 2851   1.704   0.587   5.807
  651SOL    HW1 2852   1.756   0.511   5.769
  651SOL    HW2 2853   1.628   0.610   5.747
  652SOL     OW 2854   4.772   0.008   2.939
  652SOL    HW1 2855   4.677   0.033   2.920
  652SOL    HW2 2856   4.789   0.011   3.037
  653SOL     OW 2857   0.450   6.280   0.050
  653SOL    HW1 2858   0.392   6.200   0.034
  653SOL    HW2 2859   0.534   6.251   0.096
  654SOL     OW 2860   0.862   6.274   6.193
  654SOL    HW1 2861   0.868   6.223   6.108
  654SOL    HW2 2862   0.947   6.264   6.245
  655SOL     OW 2863   6.705   5.551   1.499
  655SOL    HW1 2864   6.796   5.572   1.462
  655SOL    HW2 2865   6.636   5.607   1.454
  656SOL     OW 2866   2.123   6.502   0.446
  656SOL    HW1 2867   2.030   6.494   0.481
  656SOL    HW2 2868   2.163   6.411   0.438
  657SOL     OW 2869   3.151   3.999   0.747
  657SOL    HW1 2870   3.081   3.953   0.694
  657SOL    HW2 2871   3.121   4.008   0.842
  658SOL     OW 2872   1.335   3.950   5.272
  658SOL    HW1 2873   1.335   3.930   5.370
  658SOL    HW2 2874   1.241   3.950   5.238
  659SOL     OW 2875   2.540   5.999   4.340
  659SOL    HW1 2876   2.625   6.009   4.390
  659SOL    HW2 2877   2.551   6.033   4.247
  660SOL     OW 2878   4.745   4.195   2.775
  660SOL    HW1 2879   4.727   4.190   2.677
  660SOL    HW2 2880   4.751   4.102   2.812
  661SOL     OW 2881   4.860   3.776   4.374
  661SOL    HW1 2882   4.849   3.855   4.313
  661SOL    HW2 2883   4.897   3.699   4.322
  662SOL     OW 2884   4.231   0.656   5.458
  662SOL    HW1 2885   4.327   0.639   5.476
  662SOL    HW2 2886   4.219   0.751   5.429
  663SOL     OW 2887   0.999   4.122   0.432
  663SOL    HW1 2888   0.964   4.146   0.341
  663SOL    HW2 2889   1.030   4.205   0.479
  664SOL     OW 2890   1.415   5.624   6.489
  664SOL    HW1 2891   1.320   5.650   6.507
  664SOL    HW2 2892   1.424   5.525   6.495
  665SOL     OW 2893   4.395   5.549   1.247
  665SOL    HW1 2894   4.396   5.641   1.207
  665SOL    HW2 2895   4.459   5.490   1.198
  666SOL     OW 2896   4.612   2.142   1.431
  666SOL    HW1 2897   4.523   2.120   1.391
  666SOL    HW2 2898   4.634   2.077   1.503
  667SOL     OW 2899   6.514   4.183   3.977
  667SOL    HW1 2900   6.569   4.251   4.024
  667SOL    HW2 2901   6.547   4.091   3.998
  668SOL     OW 2902   5.096   5.424   6.936
  668SOL    HW1 2903   5.057   5.386   6.852
  668SOL    HW2 2904   5.151   5.354   6.982
  669SOL     OW 2905   3.172   6.100   3.032
  669SOL    HW1 2906   3.103   6.135   2.969
  669SOL    HW2 2907   3.130   6.035   3.095
  670SOL     OW 2908   3.239   2.864   2.197
  670SOL    HW1 2909   3.176   2.940   2.178
  670SOL    HW2 2910   3.259   2.861   2.295
  671SOL     OW 2911   2.349   6.148   6.977
  671SOL    HW1 2912   2.354   6.193   0.037
  671SOL    HW2 2913   2.278   6.191   6.922
  672SOL     OW 2914   0.518   4.290   2.009
  672SOL    HW1 2915   0.595   4.290   2.073
  672SOL    HW2 2916   0.530   4.215   1.943
  673SOL     OW 2917   5.439   0.292   1.371
  673SOL    HW1 2918   5.413   0.258   1.280
  673SOL    HW2 2919   5.365   0.274   1.435
  674SOL     OW 2920   6.533   3.507   4.635
  674SOL    HW1 2921   6.491   3.567   4.567
  674SOL    HW2 2922   6.632   3.524   4.638
  675SOL     OW 2923   6.828   1.206   5.064
  675SOL    HW1 2924   6.849   1.302   5.047
  675SOL    HW2 2925   6.869   1.149   4.993
  676SOL     OW 2926   3.261   4.918   3.147
  676SOL    HW1 2927   3.261   4.917   3.047
  676SOL    HW2 2928   3.353   4.942   3.179
  677SOL     OW 2929   6.008   1.106   6.209
  677SOL    HW1 2930   5.928   1.060   6.247
  677SOL    HW2 2931   5.978   1.172   6.140
  678SOL     OW 2932   1.480   1.519   5.295
  678SOL    HW1 2933   1.543   1.456   5.251
  678SOL    HW2 2934   1.414   1.553   5.228
  679SOL     OW 2935   4.793   0.830   3.913
  679SOL    HW1 2936   4.808   0.774   3.831
  679SOL    HW2 2937   4.696   0.852   3.920
  680SOL     OW 2938   5.362   5.146   5.805
  680SOL    HW1 2939   5.375   5.194   5.891
  680SOL    HW2 2940   5.399   5.053   5.813
  681SOL     OW 2941   6.191   0.191   0.798
  681SOL    HW1 2942   6.276   0.243   0.792
  681SOL    HW2 2943   6.142   0.196   0.711
  682SOL     OW 2944   1.860   6.655   6.441
  682SOL    HW1 2945   1.868   6.755   6.448
  682SOL    HW2 2946   1.895   6.613   6.524
  683SOL     OW 2947   3.488   1.171   6.655
  683SOL    HW1 2948   3.566   1.174   6.717
  683SOL    HW2 2949   3.486   1.254   6.599
  684SOL     OW 2950   5.903   1.258   6.510
  684SOL    HW1 2951   5.860   1.253   6.420
  684SOL    HW2 2952   5.999   1.233   6.502
  685SOL     OW 2953   4.972   6.964   5.323
  685SOL    HW1 2954   4.984   6.912   5.239
  685SOL    HW2 2955   5.056   7.013   5.345
  686SOL     OW 2956   5.806   3.004   3.521
  686SOL    HW1 2957   5.736   3.062   3.481
  686SOL    HW2 2958   5.773   2.965   3.607
  687SOL     OW 2959   6.595   2.318   5.237
  687SOL    HW1 2960   6.528   2.390   5.256
  687SOL    HW2 2961   6.557   2.254   5.170
  688SOL     OW 2962   1.543   3.400   0.574
  688SOL    HW1 2963   1.549   3.344   0.491
  688SOL    HW2 2964   1.447   3.413   0.598
  689SOL     OW 2965   0.541   4.387   5.344
  689SOL    HW1 2966   0.619   4.352   5.394
  689SOL    HW2 2967   0.508   4.471   5.387
  690SOL     OW 2968   0.627   3.526   3.627
  690SOL    HW1 2969   0.645   3.430   3.609
  690SOL    HW2 2970   0.686   3.583   3.571
  691SOL     OW 2971   2.610   1.653   6.251
  691SOL    HW1 2972   2.689   1.709   6.274
  691SOL    HW2 2973   2.535   1.674   6.313
  692SOL     OW 2974   3.376   6.125   3.240
  692SOL    HW1 2975   3.295   6.130   3.181
  692SOL    HW2 2976   3.396   6.030   3.261
  693SOL     OW 2977   6.670   1.700   2.819
  693SOL    HW1 2978   6.601   1.640   2.778
  693SOL    HW2 2979   6.747   1.644   2.850
  694SOL     OW 2980   3.436   6.356   2.368
  694SOL    HW1 2981   3.445   6.291   2.443
  694SOL    HW2 2982   3.346   6.347   2.326
  695SOL     OW 2983   4.388   5.119   6.062
  695SOL    HW1 2984   4.342   5.035   6.089
  695SOL    HW2 2985   4.441   5.154   6.139
  696SOL     OW 2986   2.961   5.166   1.971
  696SOL    HW1 2987   2.901   5.235   2.012
  696SOL    HW2 2988   3.056   5.197   1.978
  697SOL     OW 2989   1.162   2.888   4.309
  697SOL    HW1 2990   1.210   2.950   4.371
  697SOL    HW2 2991   1.202   2.797   4.316
  698SOL     OW 2992   5.652   6.812   6.585
  698SOL    HW1 2993   5.669   6.850   6.676
  698SOL    HW2 2994   5.626   6.886   6.523
  699SOL     OW 2995   0.551   4.000   6.958
  699SOL    HW1 2996   0.620   3.971   7.025
  699SOL    HW2 2997   0.464   3.955   6.978
  700SOL     OW 2998   2.847   1.455   4.452
  700SOL    HW1 2999   2.819   1.390   4.522
  700SOL    HW2 3000   2.794   1.540   4.462
  701SOL     OW 3001   0.080   4.213   5.515
  701SOL    HW1 3002   7.020   4.199   5.558
  701SOL    HW2 3003   0.067   4.245   5.421
  702SOL     OW 3004   5.584   5.858   5.981
  702SOL    HW1 3005   5.587   5.949   6.022
  702SOL    HW2 3006   5.525   5.859   5.901
  703SOL     OW 3007   4.209   4.098   6.484
  703SOL    HW1 3008   4.111   4.095   6.466
  703SOL    HW2 3009   4.228   4.168   6.553
  704SOL     OW 3010   1.935   1.488   6.121
  704SOL    HW1 3011   1.982   1.556   6.178
  704SOL    HW2 3012   1.870   1.437   6.177
  705SOL     OW 3013   5.340   6.759   3.683
  705SOL    HW1 3014   5.249   6.718   3.681
  705SOL    HW2 3015   5.409   6.689   3.667
  706SOL     OW 3016   4.474   2.135   3.310
  706SOL    HW1 3017   4.476   2.209   3.243
  706SOL    HW2 3018   4.379   2.118   3.337
  707SOL     OW 3019   4.193   0.317   2.265
  707SOL    HW1 3020   4.189   0.410   2.230
  707SOL    HW2 3021   4.226   0.318   2.360
  708SOL     OW 3022   4.096   0.359   1.630
  708SOL    HW1 3023   4.012   0.411   1.614
  708SOL    HW2 3024   4.088   0.308   1.715
  709SOL     OW 3025   0.932   5.099   0.056
  709SOL    HW1 3026   0.968   5.192   0.048
  709SOL    HW2 3027   0.942   5.051   6.998
  710SOL     OW 3028   3.625   3.384   2.196
  710SOL    HW1 3029   3.711   3.384   2.248
  710SOL    HW2 3030   3.570   3.305   2.223
  711SOL     OW 3031   0.568   1.979   5.799
  711SOL    HW1 3032   0.468   1.981   5.810
  711SOL    HW2 3033   0.594   2.043   5.726
  712SOL     OW 3034   2.354   3.815   0.603
  712SOL    HW1 3035   2.350   3.907   0.643
  712SOL    HW2 3036   2.323   3.748   0.671
  713SOL     OW 3037   3.026   3.525   0.159
  713SOL    HW1 3038   3.031   3.449   0.224
  713SOL    HW2 3039   3.086   3.599   0.189
  714SOL     OW 3040   6.833   5.337   4.912
  714SOL    HW1 3041   6.740   5.341   4.874
  714SOL    HW2 3042   6.839   5.263   4.978
  715SOL     OW 3043   5.415   6.376   0.568
  715SOL    HW1 3044   5.425   6.280   0.592
  715SOL    HW2 3045   5.330   6.411   0.606
  716SOL     OW 3046   1.479   6.784   0.505
  716SOL    HW1 3047   1.565   6.809   0.551
  716SOL    HW2 3048   1.416   6.744   0.571
  717SOL     OW 3049   5.841   4.957   6.569
  717SOL    HW1 3050   5.753   5.001   6.552
  717SOL    HW2 3051   5.825   4.863   6.601
  718SOL     OW 3052   4.448   2.238   5.666
  718SOL    HW1 3053   4.436   2.307   5.736
  718SOL    HW2 3054   4.545   2.227   5.646
  719SOL     OW 3055   6.580   2.786   1.049
  719SOL    HW1 3056   6.570   2.794   0.950
  719SOL    HW2 3057   6.670   2.748   1.071
  720SOL     OW 3058   3.552   1.114   6.054
  720SOL    HW1 3059   3.496   1.052   5.999
  720SOL    HW2 3060   3.605   1.062   6.120
  721SOL     OW 3061   2.021   0.320   4.355
  721SOL    HW1 3062   2.071   0.236   4.371
  721SOL    HW2 3063   2.003   0.331   4.257
  722SOL     OW 3064   2.748   6.779   4.928
  722SOL    HW1 3065   2.708   6.729   4.852
  722SOL    HW2 3066   2.782   6.867   4.896
  723SOL     OW 3067   2.108   3.768   2.997
  723SOL    HW1 3068   2.120   3.731   3.089
  723SOL    HW2 3069   2.076   3.695   2.936
  724SOL     OW 3070   1.362   2.080   4.443
  724SOL    HW1 3071   1.343   2.155   4.379
  724SOL    HW2 3072   1.310   2.095   4.528
  725SOL     OW 3073   3.001   5.520   1.502
  725SOL    HW1 3074   2.932   5.504   1.431
  725SOL    HW2 3075   2.976   5.470   1.584
  726SOL     OW 3076   3.940   4.785   0.821
  726SOL    HW1 3077   4.020   4.752   0.871
  726SOL    HW2 3078   3.906   4.869   0.864
  727SOL     OW 3079   4.973   5.250   5.633
  727SOL    HW1 3080   4.978   5.193   5.715
  727SOL    HW2 3081   4.889   5.303   5.634
  728SOL     OW 3082   0.096   3.450   5.131
  728SOL    HW1 3083   0.037   3.458   5.211
  728SOL    HW2 3084   0.107   3.540   5.089
  729SOL     OW 3085   2.256   1.490   0.170
  729SOL    HW1 3086   2.158   1.507   0.158
  729SOL    HW2 3087   2.300   1.572   0.204
  730SOL     OW 3088   5.917   0.965   3.738
  730SOL    HW1 3089   5.935   0.934   3.645
  730SOL    HW2 3090   5.874   0.890   3.790
  731SOL     OW 3091   5.872   4.022   5.923
  731SOL    HW1 3092   5.928   4.086   5.976
  731SOL    HW2 3093   5.906   3.929   5.936
  732SOL     OW 3094   0.837   3.122   1.332
  732SOL    HW1 3095   0.930   3.084   1.345
  732SOL    HW2 3096   0.836   3.182   1.253
  733SOL     OW 3097   5.954   4.856   5.118
  733SOL    HW1 3098   5.976   4.792   5.190
  733SOL    HW2 3099   5.944   4.948   5.157
  734SOL     OW 3100   6.826   4.375   2.753
  734SOL    HW1 3101   6.916   4.344   2.783
  734SOL    HW2 3102   6.823   4.475   2.756
  735SOL     OW 3103   4.011   2.859   0.496
  735SOL    HW1 3104   4.099   2.869   0.449
  735SOL    HW2 3105   4.027   2.846   0.594
  736SOL     OW 3106   0.040   6.841   2.470
  736SOL    HW1 3107   7.002   6.903   2.510
  736SOL    HW2 3108   0.093   6.889   2.400
  737SOL     OW 3109   4.143   2.397   6.545
  737SOL    HW1 3110   4.093   2.465   6.491
  737SOL    HW2 3111   4.086   2.315   6.556
  738SOL     OW 3112   1.970   3.986   2.028
  738SOL    HW1 3113   2.025   3.902   2.024
  738SOL    HW2 3114   2.027   4.062   2.060
  739SOL     OW 3115   3.881   6.803   4.392
  739SOL    HW1 3116   3.788   6.785   4.423
  739SOL    HW2 3117   3.879   6.849   4.303
  740SOL     OW 3118   4.777   6.537   0.423
  740SOL    HW1 3119   4.742   6.447   0.447
  740SOL    HW2 3120   4.784   6.545   0.324
  741SOL     OW 3121   2.330   6.093   3.290
  741SOL    HW1 3122   2.299   6.183   3.261
  741SOL    HW2 3123   2.412   6.102   3.347
  742SOL     OW 3124   1.891   6.791   1.733
  742SOL    HW1 3125   1.935   6.819   1.819
  742SOL    HW2 3126   1.809   6.738   1.754
  743SOL     OW 3127   1.608   4.337   5.215
  743SOL    HW1 3128   1.681   4.331   5.147
  743SOL    HW2 3129   1.581   4.245   5.243
  744SOL     OW 3130   5.358   0.123   6.309
  744SOL    HW1 3131   5.392   0.029   6.317
  744SOL    HW2 3132   5.307   0.132   6.224
  745SOL     OW 3133   1.155   5.159   4.164
  745SOL    HW1 3134   1.149   5.247   4.115
  745SOL    HW2 3135   1.164   5.176   4.262
  746SOL     OW 3136   0.663   5.207   6.003
  746SOL    HW1 3137   0.686   5.186   5.908
  746SOL    HW2 3138   0.564   5.205   6.015
  747SOL     OW 3139   4.644   5.998   4.779
  747SOL    HW1 3140   4.646   6.097   4.792
  747SOL    HW2 3141   4.658   5.953   4.867
  748SOL     OW 3142   3.436   5.121   2.557
  748SOL    HW1 3143   3.384   5.164   2.483
  748SOL    HW2 3144   3.427   5.176   2.641
  749SOL     OW 3145   6.527   4.242   4.913
  749SOL    HW1 3146   6.531   4.280   5.005
  749SOL    HW2 3147   6.549   4.145   4.915
  750SOL     OW 3148   1.917   2.728   0.541
  750SOL    HW1 3149   1.982   2.715   0.466
  750SOL    HW2 3150   1.904   2.641   0.589
  751SOL     OW 3151   3.769   2.398   6.115
  751SOL    HW1 3152   3.715   2.334   6.060
  751SOL    HW2 3153   3.866   2.376   6.107
  752SOL     OW 3154   3.983   2.169   1.942
  752SOL    HW1 3155   4.013   2.217   1.860
  752SOL    HW2 3156   3.887   2.192   1.960
  753SOL     OW 3157   1.533   3.153   3.986
  753SOL    HW1 3158   1.594   3.144   3.908
  753SOL    HW2 3159   1.582   3.194   4.063
  754SOL     OW 3160   5.443   2.856   6.283
  754SOL    HW1 3161   5.409   2.950   6.289
  754SOL    HW2 3162   5.373   2.798   6.241
  755SOL     OW 3163   1.411   5.324   6.195
  755SOL    HW1 3164   1.510   5.312   6.182
  755SOL    HW2 3165   1.383   5.412   6.158
  756SOL     OW 3166   3.348   0.346   1.183
  756SOL    HW1 3167   3.346   0.436   1.140
  756SOL    HW2 3168   3.377   0.278   1.116
  757SOL     OW 3169   0.498   6.352   3.329
  757SOL    HW1 3170   0.483   6.260   3.366
  757SOL    HW2 3171   0.501   6.418   3.404
  758SOL     OW 3172   4.040   0.926   2.155
  758SOL    HW1 3173   3.995   0.941   2.243
  758SOL    HW2 3174   4.011   0.838   2.117
  759SOL     OW 3175   0.546   0.890   0.632
  759SOL    HW1 3176   0.520   0.894   0.535
  759SOL    HW2 3177   0.479   0.835   0.682
  760SOL     OW 3178   4.838   0.281   5.640
  760SOL    HW1 3179   4.925   0.294   5.591
  760SOL    HW2 3180   4.845   0.201   5.699
  761SOL     OW 3181   5.321   4.009   5.629
  761SOL    HW1 3182   5.307   3.915   5.598
  761SOL    HW2 3183   5.293   4.017   5.724
  762SOL     OW 3184   1.608   0.178   4.891
  762SOL    HW1 3185   1.667   0.218   4.961
  762SOL    HW2 3186   1.635   0.213   4.801
  763SOL     OW 3187   4.599   5.342   0.045
  763SOL    HW1 3188   4.599   5.243   0.054
  763SOL    HW2 3189   4.678   5.380   0.093
  764SOL     OW 3190   4.040   0.698   4.074
  764SOL    HW1 3191   3.975   0.748   4.131
  764SOL    HW2 3192   4.086   0.629   4.128
  765SOL     OW 3193   1.379   5.757   1.166
  765SOL    HW1 3194   1.420   5.728   1.253
  765SOL    HW2 3195   1.316   5.687   1.134
  766SOL     OW 3196   1.293   3.228   0.667
  766SOL    HW1 3197   1.355   3.166   0.619
  766SOL    HW2 3198   1.222   3.175   0.714
  767SOL     OW 3199   6.241   5.781   2.703
  767SOL    HW1 3200   6.152   5.825   2.709
  767SOL    HW2 3201   6.237   5.692   2.748
  768SOL     OW 3202   2.059   6.764   1.940
  768SOL    HW1 3203   2.045   6.677   1.986
  768SOL    HW2 3204   2.096   6.748   1.848
  769SOL     OW 3205   3.138   0.593   4.676
  769SOL    HW1 3206   3.040   0.584   4.687
  769SOL    HW2 3207   3.177   0.635   4.759
  770SOL     OW 3208   2.217   4.306   3.107
  770SOL    HW1 3209   2.167   4.352   3.034
  770SOL    HW2 3210   2.196   4.208   3.104
  771SOL     OW 3211   2.468   5.978   2.400
  771SOL    HW1 3212   2.387   5.994   2.343
  771SOL    HW2 3213   2.455   5.895   2.454
  772SOL     OW 3214   6.611   5.154   0.626
  772SOL    HW1 3215   6.633   5.235   0.572
  772SOL    HW2 3216   6.695   5.115   0.663
  773SOL     OW 3217   6.850   3.919   4.067
  773SOL    HW1 3218   6.948   3.930   4.048
  773SOL    HW2 3219   6.835   3.924   4.166
  774SOL     OW 3220   1.183   1.615   2.089
  774SOL    HW1 3221   1.214   1.670   2.167
  774SOL    HW2 3222   1.085   1.627   2.077
  775SOL     OW 3223   0.913   2.170   3.221
  775SOL    HW1 3224   1.006   2.140   3.199
  775SOL    HW2 3225   0.878   2.228   3.148
  776SOL     OW 3226   0.360   0.734   5.549
  776SOL    HW1 3227   0.336   0.827   5.525
  776SOL    HW2 3228   0.290   0.671   5.516
  777SOL     OW 3229   3.219   5.264   1.116
  777SOL    HW1 3230   3.134   5.233   1.074
  777SOL    HW2 3231   3.281   5.298   1.044
  778SOL     OW 3232   3.475   1.827   3.083
  778SOL    HW1 3233   3.460   1.743   3.134
  778SOL    HW2 3234   3.406   1.835   3.010
  779SOL     OW 3235   0.186   2.002   2.727
  779SOL    HW1 3236   0.128   1.938   2.776
  779SOL    HW2 3237   0.136   2.088   2.713
  780SOL     OW 3238   6.281   3.667   3.567
  780SOL    HW1 3239   6.273   3.766   3.553
  780SOL    HW2 3240   6.242   3.643   3.656
  781SOL     OW 3241   5.308   1.156   6.890
  781SOL    HW1 3242   5.291   1.209   6.973
  781SOL    HW2 3243   5.343   1.218   6.818
  782SOL     OW 3244   1.146   3.679   0.058
  782SOL    HW1 3245   1.124   3.695   6.991
  782SOL    HW2 3246   1.127   3.763   0.110
  783SOL     OW 3247   4.087   4.936   1.461
  783SOL    HW1 3248   4.022   5.005   1.429
  783SOL    HW2 3249   4.039   4.851   1.482
  784SOL     OW 3250   5.173   6.088   6.919
  784SOL    HW1 3251   5.253   6.106   6.974
  784SOL    HW2 3252   5.094   6.073   6.978
  785SOL     OW 3253   6.886   2.975   3.014
  785SOL    HW1 3254   6.939   2.891   3.006
  785SOL    HW2 3255   6.790   2.952   3.027
  786SOL     OW 3256   1.258   1.058   0.850
  786SOL    HW1 3257   1.236   0.960   0.852
  786SOL    HW2 3258   1.272   1.091   0.943
  787SOL     OW 3259   2.796   0.670   6.827
  787SOL    HW1 3260   2.759   0.604   6.892
  787SOL    HW2 3261   2.849   0.739   6.877
  788SOL     OW 3262   3.028   2.052   5.266
  788SOL    HW1 3263   2.968   2.132   5.271
  788SOL    HW2 3264   3.123   2.081   5.271
  789SOL     OW 3265   5.409   3.905   0.906
  789SOL    HW1 3266   5.467   3.824   0.894
  789SOL    HW2 3267   5.316   3.877   0.926
  790SOL     OW 3268   2.568   0.616   4.450
  790SOL    HW1 3269   2.603   0.621   4.357
  790SOL    HW2 3270   2.547   0.520   4.472
  791SOL     OW 3271   3.281   5.805   3.326
  791SOL    HW1 3272   3.351   5.850   3.382
  791SOL    HW2 3273   3.324   5.765   3.246
  792SOL     OW 3274   0.429   0.701   2.032
  792SOL    HW1 3275   0.379   0.652   2.103
  792SOL    HW2 3276   0.525   0.674   2.033
  793SOL     OW 3277   5.048   6.125   2.602
  793SOL    HW1 3278   5.138   6.101   2.565
  793SOL    HW2 3279   4.997   6.041   2.622
  794SOL     OW 3280   3.153   3.496   5.369
  794SOL    HW1 3281   3.207   3.416   5.342
  794SOL    HW2 3282   3.138   3.554   5.289
  795SOL     OW 3283   3.919   6.365   5.044
  795SOL    HW1 3284   3.877   6.284   5.004
  795SOL    HW2 3285   3.857   6.443   5.032
  796SOL     OW 3286   1.277   2.027   6.209
  796SOL    HW1 3287   1.258   2.124   6.195
  796SOL    HW2 3288   1.246   2.000   6.301
  797SOL     OW 3289   5.010   2.603   2.221
  797SOL    HW1 3290   5.025   2.688   2.172
  797SOL    HW2 3291   4.926   2.610   2.275
  798SOL     OW 3292   5.013   0.064   1.417
  798SOL    HW1 3293   4.922   0.105   1.405
  798SOL    HW2 3294   5.043   0.025   1.330
  799SOL     OW 3295   5.970   1.466   4.774
  799SOL    HW1 3296   5.925   1.416   4.700
  799SOL    HW2 3297   6.045   1.520   4.737
  800SOL     OW 3298   5.291   1.386   2.326
  800SOL    HW1 3299   5.271   1.439   2.244
  800SOL    HW2 3300   5.256   1.293   2.315
  801SOL     OW 3301   1.999   3.297   4.217
  801SOL    HW1 3302   2.004   3.330   4.123
  801SOL    HW2 3303   1.908   3.259   4.234
  802SOL     OW 3304   4.565   0.307   0.726
  802SOL    HW1 3305   4.487   0.367   0.742
  802SOL    HW2 3306   4.547   0.247   0.648
  803SOL     OW 3307   6.880   6.175   4.563
  803SOL    HW1 3308   6.907   6.085   4.596
  803SOL    HW2 3309   6.931   6.245   4.612
  804SOL     OW 3310   5.883   6.247   0.018
  804SOL    HW1 3311   5.808   6.312   0.005
  804SOL    HW2 3312   5.848   6.154   0.013
  805SOL     OW 3313   3.533   1.296   5.668
  805SOL    HW1 3314   3.580   1.271   5.584
  805SOL    HW2 3315   3.592   1.357   5.722
  806SOL     OW 3316   5.060   1.471   4.019
  806SOL    HW1 3317   5.110   1.533   3.959
  806SOL    HW2 3318   4.965   1.502   4.027
  807SOL     OW 3319   0.674   1.523   4.812
  807SOL    HW1 3320   0.633   1.437   4.842
  807SOL    HW2 3321   0.617   1.565   4.742
  808SOL     OW 3322   4.452   3.491   6.227
  808SOL    HW1 3323   4.528   3.552   6.205
  808SOL    HW2 3324   4.449   3.475   6.325
  809SOL     OW 3325   0.166   4.477   1.703
  809SOL    HW1 3326   0.194   4.494   1.798
  809SOL    HW2 3327   0.229   4.523   1.641
  810SOL     OW 3328   3.704   2.799   0.948
  810SOL    HW1 3329   3.761   2.876   0.921
  810SOL    HW2 3330   3.612   2.810   0.908
  811SOL     OW 3331   3.852   5.911   4.107
  811SOL    HW1 3332   3.853   6.002   4.066
  811SOL    HW2 3333   3.864   5.919   4.206
  812SOL     OW 3334   0.355   1.985   1.481
  812SOL    HW1 3335   0.400   1.991   1.392
  812SOL    HW2 3336   0.379   1.898   1.524
  813SOL     OW 3337   3.785   5.332   4.375
  813SOL    HW1 3338   3.715   5.326   4.304
  813SOL    HW2 3339   3.854   5.398   4.348
  814SOL     OW 3340   5.618   5.862   2.461
  814SOL    HW1 3341   5.661   5.781   2.499
  814SOL    HW2 3342   5.535   5.884   2.513
  815SOL     OW 3343   0.233   3.195   3.240
  815SOL    HW1 3344   0.274   3.269   3.187
  815SOL    HW2 3345   0.205   3.122   3.179
  816SOL     OW 3346   7.025   6.688   0.237
  816SOL    HW1 3347   0.046   6.773   0.222
  816SOL    HW2 3348   6.955   6.703   0.308
  817SOL     OW 3349   2.284   3.836   1.482
  817SOL    HW1 3350   2.265   3.933   1.466
  817SOL    HW2 3351   2.363   3.827   1.542
  818SOL     OW 3352   6.575   2.961   1.622
  818SOL    HW1 3353   6.483   2.962   1.662
  818SOL    HW2 3354   6.604   2.866   1.609
  819SOL     OW 3355   5.334   2.931   3.350
  819SOL    HW1 3356   5.334   3.009   3.288
  819SOL    HW2 3357   5.379   2.957   3.436
  820SOL     OW 3358   2.573   2.567   5.920
  820SOL    HW1 3359   2.572   2.602   5.826
  820SOL    HW2 3360   2.508   2.618   5.975
  821SOL     OW 3361   1.979   3.874   0.567
  821SOL    HW1 3362   1.960   3.871   0.665
  821SOL    HW2 3363   1.989   3.781   0.532
  822SOL     OW 3364   1.427   4.998   4.221
  822SOL    HW1 3365   1.385   4.994   4.311
  822SOL    HW2 3366   1.369   5.051   4.159
  823SOL     OW 3367   4.609   4.007   6.210
  823SOL    HW1 3368   4.692   4.051   6.245
  823SOL    HW2 3369   4.528   4.054   6.245
  824SOL     OW 3370   5.593   0.965   5.337
  824SOL    HW1 3371   5.657   1.042   5.340
  824SOL    HW2 3372   5.505   0.995   5.299
  825SOL     OW 3373   1.332   3.808   1.089
  825SOL    HW1 3374   1.357   3.881   1.152
  825SOL    HW2 3375   1.252   3.760   1.123
  826SOL     OW 3376   5.476   3.468   6.331
  826SOL    HW1 3377   5.436   3.447   6.242
  826SOL    HW2 3378   5.467   3.389   6.391
  827SOL     OW 3379   3.521   5.639   6.510
  827SOL    HW1 3380   3.513   5.567   6.441
  827SOL    HW2 3381   3.606   5.626   6.562
  828SOL     OW 3382   5.323   6.403   6.042
  828SOL    HW1 3383   5.286   6.430   5.954
  828SOL    HW2 3384   5.285   6.314   6.069
  829SOL     OW 3385   3.002   3.741   3.859
  829SOL    HW1 3386   2.992   3.817   3.923
  829SOL    HW2 3387   3.033   3.659   3.908
  830SOL     OW 3388   5.121   4.811   6.746
  830SOL    HW1 3389   5.133   4.909   6.733
  830SOL    HW2 3390   5.202   4.762   6.714
  831SOL     OW 3391   5.969   0.894   5.642
  831SOL    HW1 3392   5.888   0.863   5.592
  831SOL    HW2 3393   5.954   0.987   5.675
  832SOL     OW 3394   2.423   1.031   1.197
  832SOL    HW1 3395   2.327   1.012   1.218
  832SOL    HW2 3396   2.481   1.002   1.273
  833SOL     OW 3397   0.256   4.346   6.364
  833SOL    HW1 3398   0.350   4.380   6.360
  833SOL    HW2 3399   0.215   4.371   6.452
  834SOL     OW 3400   2.812   3.369   1.071
  834SOL    HW1 3401   2.731   3.403   1.024
  834SOL    HW2 3402   2.825   3.421   1.156
  835SOL     OW 3403   3.325   0.416   4.572
  835SOL    HW1 3404   3.287   0.337   4.524
  835SOL    HW2 3405   3.250   0.478   4.597
  836SOL     OW 3406   3.576   6.356   0.211
  836SOL    HW1 3407   3.636   6.401   0.277
  836SOL    HW2 3408   3.482   6.354   0.248
  837SOL     OW 3409   5.420   6.183   0.086
  837SOL    HW1 3410   5.486   6.198   0.160
  837SOL    HW2 3411   5.350   6.255   0.089
  838SOL     OW 3412   1.459   6.745   4.892
  838SOL    HW1 3413   1.481   6.760   4.795
  838SOL    HW2 3414   1.505   6.813   4.948
  839SOL     OW 3415   2.658   2.283   2.171
  839SOL    HW1 3416   2.749   2.298   2.132
  839SOL    HW2 3417   2.648   2.338   2.254
  840SOL     OW 3418   5.700   0.020   6.422
  840SOL    HW1 3419   5.792   0.010   6.461
  840SOL    HW2 3420   5.707   0.035   6.324
  841SOL     OW 3421   4.625   5.014   0.893
  841SOL    HW1 3422   4.708   4.989   0.942
  841SOL    HW2 3423   4.548   5.020   0.957
  842SOL     OW 3424   4.353   5.039   4.427
  842SOL    HW1 3425   4.285   5.023   4.356
  842SOL    HW2 3426   4.373   4.952   4.474
  843SOL     OW 3427   3.183   1.831   7.007
  843SOL    HW1 3428   3.108   1.868   0.032
  843SOL    HW2 3429   3.163   1.736   6.982
  844SOL     OW 3430   5.474   6.978   1.093
  844SOL    HW1 3431   5.493   0.046   1.080
  844SOL    HW2 3432   5.421   6.943   1.016
  845SOL     OW 3433   5.746   3.405   4.831
  845SOL    HW1 3434   5.690   3.481   4.866
  845SOL    HW2 3435   5.750   3.333   4.901
  846SOL     OW 3436   3.417   1.657   0.394
  846SOL    HW1 3437   3.506   1.680   0.356
  846SOL    HW2 3438   3.393   1.722   0.466
  847SOL     OW 3439   0.722   4.074   0.490
  847SOL    HW1 3440   0.819   4.091   0.472
  847SOL    HW2 3441   0.707   3.976   0.504
  848SOL     OW 3442   6.251   0.941   6.451
  848SOL    HW1 3443   6.329   0.917   6.509
  848SOL    HW2 3444   6.273   0.922   6.356
  849SOL     OW 3445   0.845   4.794   5.286
  849SOL    HW1 3446   0.940   4.813   5.308
  849SOL    HW2 3447   0.837   4.766   5.190
  850SOL     OW 3448   5.169   1.245   4.110
  850SOL    HW1 3449   5.179   1.160   4.059
  850SOL    HW2 3450   5.136   1.318   4.050
  851SOL     OW 3451   6.905   1.092   1.322
  851SOL    HW1 3452   6.911   1.074   1.223
  851SOL    HW2 3453   6.877   1.187   1.337
  852SOL     OW 3454   1.526   2.202   0.256
  852SOL    HW1 3455   1.604   2.204   0.319
  852SOL    HW2 3456   1.442   2.219   0.306
  853SOL     OW 3457   1.685   4.455   2.260
  853SOL    HW1 3458   1.665   4.447   2.358
  853SOL    HW2 3459   1.710   4.365   2.224
  854SOL     OW 3460   4.605   5.623   2.291
  854SOL    HW1 3461   4.600   5.722   2.275
  854SOL    HW2 3462   4.584   5.575   2.205
  855SOL     OW 3463   6.793   0.146   0.887
  855SOL    HW1 3464   6.807   0.229   0.940
  855SOL    HW2 3465   6.795   0.066   0.947
  856SOL     OW 3466   1.558   1.937   4.978
  856SOL    HW1 3467   1.545   2.032   5.003
  856SOL    HW2 3468   1.634   1.898   5.030
  857SOL     OW 3469   5.901   4.229   1.774
  857SOL    HW1 3470   5.870   4.142   1.736
  857SOL    HW2 3471   5.825   4.294   1.773
  858SOL     OW 3472   2.650   4.278   1.289
  858SOL    HW1 3473   2.581   4.228   1.342
  858SOL    HW2 3474   2.738   4.233   1.297
  859SOL     OW 3475   4.697   5.482   6.765
  859SOL    HW1 3476   4.779   5.508   6.816
  859SOL    HW2 3477   4.677   5.552   6.697
  860SOL     OW 3478   4.188   4.360   1.006
  860SOL    HW1 3479   4.156   4.316   1.090
  860SOL    HW2 3480   4.249   4.299   0.958
  861SOL     OW 3481   2.405   0.195   4.687
  861SOL    HW1 3482   2.390   0.103   4.722
  861SOL    HW2 3483   2.350   0.260   4.739
  862SOL     OW 3484   0.006   4.856   6.143
  862SOL    HW1 3485   7.007   4.762   6.125
  862SOL    HW2 3486   6.991   4.918   6.079
  863SOL     OW 3487   1.112   0.910   0.618
  863SOL    HW1 3488   1.012   0.911   0.629
  863SOL    HW2 3489   1.154   0.894   0.708
  864SOL     OW 3490   5.051   4.555   3.889
  864SOL    HW1 3491   5.068   4.510   3.802
  864SOL    HW2 3492   5.057   4.489   3.963
  865SOL     OW 3493   2.230   6.054   5.130
  865SOL    HW1 3494   2.301   6.075   5.063
  865SOL    HW2 3495   2.154   6.007   5.085
  866SOL     OW 3496   1.892   2.402   2.049
  866SOL    HW1 3497   1.893   2.343   2.130
  866SOL    HW2 3498   1.973   2.384   1.994
  867SOL     OW 3499   4.135   2.902   0.991
  867SOL    HW1 3500   4.123   2.930   1.086
  867SOL    HW2 3501   4.186   2.973   0.942
  868SOL     OW 3502   5.678   6.626   1.390
  868SOL    HW1 3503   5.628   6.633   1.477
  868SOL    HW2 3504   5.776   6.625   1.408
  869SOL     OW 3505   6.542   5.573   3.417
  869SOL    HW1 3506   6.449   5.539   3.433
  869SOL    HW2 3507   6.566   5.638   3.488
  870SOL     OW 3508   5.595   3.457   0.179
  870SOL    HW1 3509   5.685   3.449   0.221
  870SOL    HW2 3510   5.569   3.369   0.138
  871SOL     OW 3511   5.710   3.653   1.842
  871SOL    HW1 3512   5.637   3.585   1.838
  871SOL    HW2 3513   5.764   3.638   1.925
  872SOL     OW 3514   6.233   4.153   4.020
  872SOL    HW1 3515   6.327   4.178   3.997
  872SOL    HW2 3516   6.177   4.236   4.028
  873SOL     OW 3517   5.525   0.311   3.461
  873SOL    HW1 3518   5.536   0.211   3.459
  873SOL    HW2 3519   5.544   0.348   3.371
  874SOL     OW 3520   1.602   4.796   5.307
  874SOL    HW1 3521   1.572   4.748   5.225
  874SOL    HW2 3522   1.630   4.729   5.376
  875SOL     OW 3523   4.553   3.502   0.638
  875SOL    HW1 3524   4.602   3.453   0.566
  875SOL    HW2 3525   4.483   3.560   0.596
  876SOL     OW 3526   0.484   6.207   3.779
  876SOL    HW1 3527   0.440   6.156   3.852
  876SOL    HW2 3528   0.578   6.228   3.805
  877SOL     OW 3529   3.485   4.857   0.352
  877SOL    HW1 3530   3.434   4.790   0.405
  877SOL    HW2 3531   3.482   4.832   0.255
  878SOL     OW 3532   4.165   5.950   6.089
  878SOL    HW1 3533   4.144   5.895   6.008
  878SOL    HW2 3534   4.171   5.891   6.169
  879SOL     OW 3535   3.323   1.954   1.974
  879SOL    HW1 3536   3.233   1.980   2.009
  879SOL    HW2 3537   3.362   2.032   1.924
  880SOL     OW 3538   2.978   5.135   0.106
  880SOL    HW1 3539   2.939   5.083   0.030
  880SOL    HW2 3540   3.077   5.125   0.106
  881SOL     OW 3541   4.144   4.647   5.341
  881SOL    HW1 3542   4.198   4.628   5.259
  881SOL    HW2 3543   4.112   4.561   5.381
  882SOL     OW 3544   1.290   1.212   4.170
  882SOL    HW1 3545   1.320   1.274   4.097
  882SOL    HW2 3546   1.348   1.130   4.169
  883SOL     OW 3547   4.753   5.350   5.222
  883SOL    HW1 3548   4.849   5.366   5.201
  883SOL    HW2 3549   4.699   5.356   5.138
  884SOL     OW 3550   0.253   3.471   1.353
  884SOL    HW1 3551   0.206   3.408   1.415
  884SOL    HW2 3552   0.185   3.518   1.296
  885SOL     OW 3553   5.338   5.524   6.731
  885SOL    HW1 3554   5.382   5.553   6.815
  885SOL    HW2 3555   5.244   5.559   6.728
  886SOL     OW 3556   4.048   6.828   0.712
  886SOL    HW1 3557   4.048   6.909   0.653
  886SOL    HW2 3558   4.119   6.836   0.781
  887SOL     OW 3559   4.542   6.754   4.945
  887SOL    HW1 3560   4.486   6.716   4.872
  887SOL    HW2 3561   4.508   6.845   4.969
  888SOL     OW 3562   5.997   6.344   3.429
  888SOL    HW1 3563   6.010   6.321   3.526
  888SOL    HW2 3564   5.914   6.298   3.395
  889SOL     OW 3565   0.734   6.534   6.082
  889SOL    HW1 3566   0.794   6.461   6.115
  889SOL    HW2 3567   0.643   6.524   6.124
  890SOL     OW 3568   2.629   4.874   1.976
  890SOL    HW1 3569   2.612   4.931   2.057
  890SOL    HW2 3570   2.696   4.803   2.000
  891SOL     OW 3571   6.035   3.892   1.984
  891SOL    HW1 3572   6.097   3.959   1.944
  891SOL    HW2 3573   5.982   3.848   1.911
  892SOL     OW 3574   3.854   3.883   0.644
  892SOL    HW1 3575   3.816   3.824   0.715
  892SOL    HW2 3576   3.782   3.909   0.580
  893SOL     OW 3577   2.543   0.655   2.251
  893SOL    HW1 3578   2.494   0.568   2.253
  893SOL    HW2 3579   2.617   0.650   2.183
  894SOL     OW 3580   1.715   3.532   4.362
  894SOL    HW1 3581   1.634   3.480   4.333
  894SOL    HW2 3582   1.767   3.477   4.428
  895SOL     OW 3583   2.054   5.884   5.012
  895SOL    HW1 3584   2.037   5.802   5.067
  895SOL    HW2 3585   1.982   5.894   4.943
  896SOL     OW 3586   5.675   6.329   2.297
  896SOL    HW1 3587   5.632   6.347   2.209
  896SOL    HW2 3588   5.609   6.346   2.370
  897SOL     OW 3589   5.874   0.666   0.117
  897SOL    HW1 3590   5.953   0.711   0.073
  897SOL    HW2 3591   5.851   0.715   0.201
  898SOL     OW 3592   3.895   5.833   3.563
  898SOL    HW1 3593   3.939   5.825   3.652
  898SOL    HW2 3594   3.850   5.746   3.540
  899SOL     OW 3595   0.405   5.071   0.117
  899SOL    HW1 3596   0.483   5.113   0.161
  899SOL    HW2 3597   0.321   5.094   0.167
  900SOL     OW 3598   5.238   6.193   1.384
  900SOL    HW1 3599   5.280   6.183   1.475
  900SOL    HW2 3600   5.142   6.165   1.388
  901SOL     OW 3601   0.540   1.087   5.476
  901SOL    HW1 3602   0.577   1.092   5.384
  901SOL    HW2 3603   0.463   1.023   5.478
  902SOL     OW 3604   0.241   1.692   5.897
  902SOL    HW1 3605   0.250   1.676   5.995
  902SOL    HW2 3606   0.154   1.739   5.878
  903SOL     OW 3607   6.471   3.714   6.390
  903SOL    HW1 3608   6.549   3.777   6.385
  903SOL    HW2 3609   6.392   3.757   6.347
  904SOL     OW 3610   1.669   1.963   4.197
  904SOL    HW1 3611   1.718   1.951   4.111
  904SOL    HW2 3612   1.642   1.874   4.233
  905SOL     OW 3613   4.661   2.884   6.160
  905SOL    HW1 3614   4.590   2.816   6.181
  905SOL    HW2 3615   4.625   2.951   6.096
  906SOL     OW 3616   0.179   3.542   6.351
  906SOL    HW1 3617   0.183   3.640   6.367
  906SOL    HW2 3618   0.237   3.519   6.273
  907SOL     OW 3619   5.289   2.374   3.749
  907SOL    HW1 3620   5.353   2.319   3.803
  907SOL    HW2 3621   5.328   2.391   3.658
  908SOL     OW 3622   1.742   6.518   3.735
  908SOL    HW1 3623   1.805   6.464   3.679
  908SOL    HW2 3624   1.710   6.597   3.683
  909SOL     OW 3625   2.226   0.524   1.201
  909SOL    HW1 3626   2.207   0.477   1.115
  909SOL    HW2 3627   2.297   0.476   1.251
  910SOL     OW 3628   2.577   0.231   0.659
  910SOL    HW1 3629   2.572   0.218   0.758
  910SOL    HW2 3630   2.656   0.182   0.623
  911SOL     OW 3631   6.692   5.921   1.217
  911SOL    HW1 3632   6.710   6.011   1.255
  911SOL    HW2 3633   6.628   5.872   1.276
  912SOL     OW 3634   6.285   0.988   5.011
  912SOL    HW1 3635   6.233   0.922   5.066
  912SOL    HW2 3636   6.298   0.951   4.919
  913SOL     OW 3637   2.466   0.449   3.701
  913SOL    HW1 3638   2.564   0.452   3.682
  913SOL    HW2 3639   2.432   0.541   3.716
  914SOL     OW 3640   3.033   5.342   5.682
  914SOL    HW1 3641   3.009   5.338   5.585
  914SOL    HW2 3642   2.982   5.417   5.725
  915SOL     OW 3643   0.860   3.282   1.113
  915SOL    HW1 3644   0.836   3.362   1.167
  915SOL    HW2 3645   0.828   3.294   1.019
  916SOL     OW 3646   1.136   2.677   2.673
  916SOL    HW1 3647   1.209   2.641   2.731
  916SOL    HW2 3648   1.055   2.696   2.729
  917SOL     OW 3649   4.409   0.626   1.455
  917SOL    HW1 3650   4.334   0.649   1.517
  917SOL    HW2 3651   4.386   0.654   1.362
  918SOL     OW 3652   2.422   5.924   0.132
  918SOL    HW1 3653   2.447   5.994   0.065
  918SOL    HW2 3654   2.406   5.967   0.221
  919SOL     OW 3655   0.433   5.545   2.390
  919SOL    HW1 3656   0.398   5.451   2.391
  919SOL    HW2 3657   0.519   5.549   2.441
  920SOL     OW 3658   1.867   0.283   2.774
  920SOL    HW1 3659   1.772   0.312   2.781
  920SOL    HW2 3660   1.927   0.352   2.814
  921SOL     OW 3661   5.641   4.462   4.117
  921SOL    HW1 3662   5.731   4.474   4.157
  921SOL    HW2 3663   5.617   4.542   4.062
  922SOL     OW 3664   3.591   2.702   6.434
  922SOL    HW1 3665   3.513   2.737   6.382
  922SOL    HW2 3666   3.649   2.648   6.372
  923SOL     OW 3667   3.039   5.482   0.379
  923SOL    HW1 3668   2.996   5.391   0.380
  923SOL    HW2 3669   2.971   5.550   0.353
  924SOL     OW 3670   5.984   3.253   2.173
  924SOL    HW1 3671   5.917   3.311   2.125
  924SOL    HW2 3672   6.073   3.260   2.127
  925SOL     OW 3673   6.584   1.917   5.557
  925SOL    HW1 3674   6.557   1.861   5.635
  925SOL    HW2 3675   6.502   1.943   5.505
  926SOL     OW 3676   5.741   1.188   6.717
  926SOL    HW1 3677   5.793   1.206   6.634
  926SOL    HW2 3678   5.710   1.093   6.717
  927SOL     OW 3679   5.534   4.209   4.066
  927SOL    HW1 3680   5.569   4.298   4.094
  927SOL    HW2 3681   5.536   4.147   4.144
  928SOL     OW 3682   1.961   0.711   0.606
  928SOL    HW1 3683   1.980   0.666   0.518
  928SOL    HW2 3684   1.892   0.782   0.594
  929SOL     OW 3685   6.931   1.500   0.939
  929SOL    HW1 3686   6.971   1.462   1.022
  929SOL    HW2 3687   6.899   1.425   0.880
  930SOL     OW 3688   6.346   5.871   4.585
  930SOL    HW1 3689   6.320   5.937   4.515
  930SOL    HW2 3690   6.299   5.785   4.568
  931SOL     OW 3691   0.148   3.526   4.003
  931SOL    HW1 3692   0.140   3.427   4.006
  931SOL    HW2 3693   0.185   3.554   3.914
  932SOL     OW 3694   2.616   6.572   1.743
  932SOL    HW1 3695   2.649   6.662   1.770
  932SOL    HW2 3696   2.528   6.554   1.787
  933SOL     OW 3697   0.572   4.920   2.378
  933SOL    HW1 3698   0.660   4.924   2.425
  933SOL    HW2 3699   0.498   4.917   2.446
  934SOL     OW 3700   2.190   0.549   4.319
  934SOL    HW1 3701   2.203   0.592   4.230
  934SOL    HW2 3702   2.150   0.458   4.306
  935SOL     OW 3703   5.069   4.161   5.162
  935SOL    HW1 3704   5.007   4.223   5.210
  935SOL    HW2 3705   5.114   4.100   5.229
  936SOL     OW 3706   1.232   0.328   5.947
  936SOL    HW1 3707   1.193   0.330   5.855
  936SOL    HW2 3708   1.332   0.330   5.941
  937SOL     OW 3709   5.025   1.967   5.379
  937SOL    HW1 3710   5.011   1.908   5.299
  937SOL    HW2 3711   5.031   2.063   5.349
  938SOL     OW 3712   0.209   5.407   6.165
  938SOL    HW1 3713   0.241   5.483   6.223
  938SOL    HW2 3714   0.267   5.327   6.180
  939SOL     OW 3715   4.970   1.487   5.303
  939SOL    HW1 3716   4.951   1.468   5.207
  939SOL    HW2 3717   4.946   1.581   5.324
  940SOL     OW 3718   6.773   3.070   2.496
  940SOL    HW1 3719   6.752   3.168   2.502
  940SOL    HW2 3720   6.783   3.032   2.588
  941SOL     OW 3721   6.282   0.778   3.846
  941SOL    HW1 3722   6.330   0.749   3.763
  941SOL    HW2 3723   6.302   0.714   3.920
  942SOL     OW 3724   4.975   0.614   4.022
  942SOL    HW1 3725   5.054   0.639   3.966
  942SOL    HW2 3726   4.896   0.668   3.993
  943SOL     OW 3727   0.903   3.095   3.643
  943SOL    HW1 3728   0.928   3.066   3.735
  943SOL    HW2 3729   0.981   3.142   3.600
  944SOL     OW 3730   6.138   3.148   6.244
  944SOL    HW1 3731   6.234   3.173   6.247
  944SOL    HW2 3732   6.101   3.147   6.338
  945SOL     OW 3733   6.571   4.189   5.940
  945SOL    HW1 3734   6.665   4.211   5.911
  945SOL    HW2 3735   6.558   4.090   5.939
  946SOL     OW 3736   5.277   2.913   5.957
  946SOL    HW1 3737   5.349   2.978   5.981
  946SOL    HW2 3738   5.223   2.891   6.039
  947SOL     OW 3739   3.133   3.618   5.106
  947SOL    HW1 3740   3.087   3.661   5.029
  947SOL    HW2 3741   3.230   3.609   5.087
  948SOL     OW 3742   4.560   1.051   0.997
  948SOL    HW1 3743   4.506   1.030   0.916
  948SOL    HW2 3744   4.567   0.970   1.055
  949SOL     OW 3745   0.096   6.319   6.435
  949SOL    HW1 3746   0.143   6.337   6.522
  949SOL    HW2 3747   0.007   6.364   6.436
  950SOL     OW 3748   4.233   5.108   2.301
  950SOL    HW1 3749   4.271   5.169   2.231
  950SOL    HW2 3750   4.280   5.020   2.296
  951SOL     OW 3751   1.991   0.608   2.201
  951SOL    HW1 3752   2.041   0.611   2.115
  951SOL    HW2 3753   1.894   0.625   2.184
  952SOL     OW 3754   5.288   1.331   1.715
  952SOL    HW1 3755   5.200   1.320   1.669
  952SOL    HW2 3756   5.272   1.342   1.814
  953SOL     OW 3757   4.911   5.751   5.110
  953SOL    HW1 3758   5.009   5.730   5.111
  953SOL    HW2 3759   4.871   5.729   5.199
  954SOL     OW 3760   5.159   6.237   0.624
  954SOL    HW1 3761   5.097   6.211   0.550
  954SOL    HW2 3762   5.146   6.334   0.646
  955SOL     OW 3763   0.541   4.705   2.939
  955SOL    HW1 3764   0.519   4.620   2.892
  955SOL    HW2 3765   0.539   4.691   3.038
  956SOL     OW 3766   0.795   1.829   2.255
  956SOL    HW1 3767   0.857   1.806   2.180
  956SOL    HW2 3768   0.744   1.912   2.232
  957SOL     OW 3769   1.614   4.935   4.003
  957SOL    HW1 3770   1.536   4.944   4.065
  957SOL    HW2 3771   1.664   4.852   4.024
  958SOL     OW 3772   4.737   2.564   1.321
  958SOL    HW1 3773   4.645   2.558   1.360
  958SOL    HW2 3774   4.748   2.496   1.249
  959SOL     OW 3775   2.707   5.159   3.059
  959SOL    HW1 3776   2.772   5.129   2.989
  959SOL    HW2 3777   2.623   5.190   3.015
  960SOL     OW 3778   0.152   6.310   3.888
  960SOL    HW1 3779   0.098   6.324   3.971
  960SOL    HW2 3780   0.219   6.238   3.904
  961SOL     OW 3781   5.114   6.585   2.969
  961SOL    HW1 3782   5.059   6.667   2.957
  961SOL    HW2 3783   5.209   6.611   2.985
  962SOL     OW 3784   1.680   1.511   3.881
  962SOL    HW1 3785   1.771   1.548   3.861
  962SOL    HW2 3786   1.676   1.484   3.977
  963SOL     OW 3787   6.159   1.210   6.436
  963SOL    HW1 3788   6.167   1.193   6.338
  963SOL    HW2 3789   6.183   1.126   6.486
  964SOL     OW 3790   6.267   3.353   0.574
  964SOL    HW1 3791   6.329   3.379   0.649
  964SOL    HW2 3792   6.314   3.365   0.487
  965SOL     OW 3793   5.618   1.729   1.029
  965SOL    HW1 3794   5.621   1.698   0.934
  965SOL    HW2 3795   5.680   1.807   1.040
  966SOL     OW 3796   6.200   1.835   2.235
  966SOL    HW1 3797   6.297   1.851   2.251
  966SOL    HW2 3798   6.185   1.810   2.140
  967SOL     OW 3799   1.586   5.128   0.911
  967SOL    HW1 3800   1.684   5.122   0.932
  967SOL    HW2 3801   1.574   5.122   0.812
  968SOL     OW 3802   4.667   2.548   2.114
  968SOL    HW1 3803   4.703   2.606   2.041
  968SOL    HW2 3804   4.692   2.587   2.203
  969SOL     OW 3805   4.478   5.733   6.197
  969SOL    HW1 3806   4.567   5.715   6.239
  969SOL    HW2 3807   4.485   5.813   6.138
  970SOL     OW 3808   4.739   0.874   4.946
  970SOL    HW1 3809   4.657   0.871   5.003
  970SOL    HW2 3810   4.727   0.943   4.874
  971SOL     OW 3811   0.138   1.891   3.140
  971SOL    HW1 3812   0.229   1.922   3.112
  971SOL    HW2 3813   0.134   1.887   3.240
  972SOL     OW 3814   5.489   3.627   0.953
  972SOL    HW1 3815   5.563   3.624   1.020
  972SOL    HW2 3816   5.404   3.599   0.997
  973SOL     OW 3817   0.131   4.049   6.510
  973SOL    HW1 3818   0.156   4.103   6.429
  973SOL    HW2 3819   0.183   4.081   6.589
  974SOL     OW 3820   4.181   0.758   2.432
  974SOL    HW1 3821   4.157   0.780   2.527
  974SOL    HW2 3822   4.250   0.686   2.431
  975SOL     OW 3823   2.015   5.564   6.451
  975SOL    HW1 3824   1.959   5.487   6.481
  975SOL    HW2 3825   2.046   5.548   6.357
  976SOL     OW 3826   5.848   3.175   2.963
  976SOL    HW1 3827   5.821   3.232   2.886
  976SOL    HW2 3828   5.935   3.129   2.943
  977SOL     OW 3829   2.621   1.456   3.685
  977SOL    HW1 3830   2.587   1.484   3.775
  977SOL    HW2 3831   2.693   1.520   3.655
  978SOL     OW 3832   4.858   4.057   5.558
  978SOL    HW1 3833   4.768   4.055   5.515
  978SOL    HW2 3834   4.898   4.148   5.548
  979SOL     OW 3835   0.057   1.616   2.143
  979SOL    HW1 3836   0.041   1.628   2.045
  979SOL    HW2 3837   0.143   1.566   2.156
  980SOL     OW 3838   4.532   2.025   3.720
  980SOL    HW1 3839   4.627   1.998   3.738
  980SOL    HW2 3840   4.472   1.983   3.789
  981SOL     OW 3841   1.611   1.459   4.941
  981SOL    HW1 3842   1.711   1.449   4.939
  981SOL    HW2 3843   1.573   1.399   5.011
  982SOL     OW 3844   2.256   2.116   3.659
  982SOL    HW1 3845   2.328   2.184   3.670
  982SOL    HW2 3846   2.298   2.026   3.645
  983SOL     OW 3847   5.893   2.139   3.332
  983SOL    HW1 3848   5.990   2.160   3.329
  983SOL    HW2 3849   5.841   2.223   3.350
  984SOL     OW 3850   3.564   0.849   3.861
  984SOL    HW1 3851   3.474   0.834   3.903
  984SOL    HW2 3852   3.636   0.828   3.927
  985SOL     OW 3853   5.394   4.777   6.731
  985SOL    HW1 3854   5.392   4.815   6.638
  985SOL    HW2 3855   5.469   4.819   6.782
  986SOL     OW 3856   5.352   5.129   0.472
  986SOL    HW1 3857   5.289   5.095   0.542
  986SOL    HW2 3858   5.326   5.092   0.383
  987SOL     OW 3859   4.511   6.429   1.597
  987SOL    HW1 3860   4.447   6.405   1.525
  987SOL    HW2 3861   4.527   6.528   1.597
  988SOL     OW 3862   3.600   3.346   1.232
  988SOL    HW1 3863   3.584   3.279   1.159
  988SOL    HW2 3864   3.664   3.416   1.199
  989SOL     OW 3865   6.822   1.117   5.348
  989SOL    HW1 3866   6.840   1.154   5.257
  989SOL    HW2 3867   6.876   1.166   5.416
  990SOL     OW 3868   4.404   0.685   2.625
  990SOL    HW1 3869   4.446   0.639   2.703
  990SOL    HW2 3870   4.322   0.734   2.655
  991SOL     OW 3871   1.813   2.589   5.165
  991SOL    HW1 3872   1.835   2.647   5.087
  991SOL    HW2 3873   1.723   2.615   5.201
  992SOL     OW 3874   0.981   4.209   1.026
  992SOL    HW1 3875   0.912   4.217   0.955
  992SOL    HW2 3876   0.950   4.144   1.096
  993SOL     OW 3877   1.251   5.263   2.431
  993SOL    HW1 3878   1.169   5.314   2.456
  993SOL    HW2 3879   1.301   5.312   2.360
  994SOL     OW 3880   3.473   3.431   2.469
  994SOL    HW1 3881   3.550   3.384   2.511
  994SOL    HW2 3882   3.428   3.369   2.404
  995SOL     OW 3883   2.885   2.283   6.121
  995SOL    HW1 3884   2.886   2.307   6.218
  995SOL    HW2 3885   2.837   2.195   6.110
  996SOL     OW 3886   1.564   4.425   4.383
  996SOL    HW1 3887   1.496   4.452   4.451
  996SOL    HW2 3888   1.522   4.428   4.292
  997SOL     OW 3889   6.822   0.608   1.724
  997SOL    HW1 3890   6.763   0.572   1.797
  997SOL    HW2 3891   6.870   0.689   1.757
  998SOL     OW 3892   5.114   6.402   3.822
  998SOL    HW1 3893   5.044   6.410   3.893
  998SOL    HW2 3894   5.202   6.381   3.864
  999SOL     OW 3895   5.645   4.936   1.772
  999SOL    HW1 3896   5.613   4.882   1.850
  999SOL    HW2 3897   5.743   4.953   1.781
 1000SOL     OW 3898   1.520   1.206   2.521
 1000SOL    HW1 3899   1.475   1.182   2.435
 1000SOL    HW2 3900   1.611   1.241   2.502
 1001SOL     OW 3901   6.035   6.691   0.119
 1001SOL    HW1 3902   6.010   6.639   0.038
 1001SOL    HW2 3903   6.011   6.788   0.106
 1002SOL     OW 3904   5.988   2.133   6.601
 1002SOL    HW1 3905   6.012   2.043   6.566
 1002SOL    HW2 3906   5.901   2.128   6.650
 1003SOL     OW 3907   2.177   6.674   1.714
 1003SOL    HW1 3908   2.168   6.761   1.667
 1003SOL    HW2 3909   2.143   6.600   1.656
 1004SOL     OW 3910   0.208   0.572   1.204
 1004SOL    HW1 3911   0.169   0.524   1.125
 1004SOL    HW2 3912   0.157   0.657   1.219
 1005SOL     OW 3913   0.409   1.568   2.889
 1005SOL    HW1 3914   0.437   1.663   2.879
 1005SOL    HW2 3915   0.336   1.562   2.957
 1006SOL     OW 3916   1.426   5.965   1.571
 1006SOL    HW1 3917   1.524   5.944   1.563
 1006SOL    HW2 3918   1.379   5.889   1.615
 1007SOL     OW 3919   5.852   6.760   4.217
 1007SOL    HW1 3920   5.943   6.789   4.186
 1007SOL    HW2 3921   5.788   6.761   4.140
 1008SOL     OW 3922   2.090   3.048   4.826
 1008SOL    HW1 3923   2.168   2.986   4.821
 1008SOL    HW2 3924   2.080   3.096   4.738
 1009SOL     OW 3925   0.562   6.114   4.321
 1009SOL    HW1 3926   0.519   6.185   4.376
 1009SOL    HW2 3927   0.628   6.064   4.376
 1010SOL     OW 3928   3.727   2.309   6.369
 1010SOL    HW1 3929   3.703   2.344   6.279
 1010SOL    HW2 3930   3.644   2.281   6.418
 1011SOL     OW 3931   2.865   5.173   2.383
 1011SOL    HW1 3932   2.775   5.214   2.372
 1011SOL    HW2 3933   2.918   5.226   2.450
 1012SOL     OW 3934   0.138   6.904   0.155
 1012SOL    HW1 3935   0.214   6.908   0.220
 1012SOL    HW2 3936   0.091   6.992   0.153
 1013SOL     OW 3937   0.463   1.440   6.533
 1013SOL    HW1 3938   0.455   1.379   6.455
 1013SOL    HW2 3939   0.417   1.399   6.612
 1014SOL     OW 3940   5.463   5.334   6.615
 1014SOL    HW1 3941   5.436   5.243   6.648
 1014SOL    HW2 3942   5.413   5.404   6.665
 1015SOL     OW 3943   2.428   6.687   5.555
 1015SOL    HW1 3944   2.496   6.619   5.528
 1015SOL    HW2 3945   2.365   6.646   5.621
 1016SOL     OW 3946   2.596   3.376   0.256
 1016SOL    HW1 3947   2.507   3.376   0.208
 1016SOL    HW2 3948   2.648   3.295   0.230
 1017SOL     OW 3949   4.584   2.346   0.847
 1017SOL    HW1 3950   4.490   2.365   0.875
 1017SOL    HW2 3951   4.588   2.337   0.748
 1018SOL     OW 3952   1.486   3.398   3.564
 1018SOL    HW1 3953   1.565   3.443   3.606
 1018SOL    HW2 3954   1.423   3.368   3.634
 1019SOL     OW 3955   1.160   0.314   0.259
 1019SOL    HW1 3956   1.118   0.270   0.179
 1019SOL    HW2 3957   1.199   0.402   0.233
 1020SOL     OW 3958   1.193   6.624   1.183
 1020SOL    HW1 3959   1.156   6.714   1.205
 1020SOL    HW2 3960   1.140   6.553   1.229
 1021SOL     OW 3961   5.698   1.035   1.239
 1021SOL    HW1 3962   5.599   1.043   1.229
 1021SOL    HW2 3963   5.720   0.986   1.324
 1022SOL     OW 3964   4.284   4.734   6.374
 1022SOL    HW1 3965   4.358   4.673   6.399
 1022SOL    HW2 3966   4.232   4.694   6.298
 1023SOL     OW 3967   6.497   6.885   1.472
 1023SOL    HW1 3968   6.543   6.973   1.490
 1023SOL    HW2 3969   6.403   6.889   1.505
 1024SOL     OW 3970   5.765   3.468   4.099
 1024SOL    HW1 3971   5.805   3.398   4.158
 1024SOL    HW2 3972   5.678   3.434   4.063
 1025SOL     OW 3973   3.565   4.017   0.593
 1025SOL    HW1 3974   3.488   3.964   0.629
 1025SOL    HW2 3975   3.562   4.015   0.493
 1026SOL     OW 3976   2.163   1.903   1.511
 1026SOL    HW1 3977   2.123   1.819   1.546
 1026SOL    HW2 3978   2.112   1.933   1.430
 1027SOL     OW 3979   2.589   5.882   1.080
 1027SOL    HW1 3980   2.574   5.820   1.004
 1027SOL    HW2 3981   2.680   5.922   1.073
 1028SOL     OW 3982   4.235   5.922   0.592
 1028SOL    HW1 3983   4.283   5.937   0.506
 1028SOL    HW2 3984   4.301   5.895   0.663
 1029SOL     OW 3985   1.967   0.576   0.368
 1029SOL    HW1 3986   1.907   0.505   0.405
 1029SOL    HW2 3987   1.936   0.601   0.276
 1030SOL     OW 3988   3.507   3.698   1.564
 1030SOL    HW1 3989   3.585   3.650   1.524
 1030SOL    HW2 3990   3.465   3.641   1.634
 1031SOL     OW 3991   5.379   5.422   0.650
 1031SOL    HW1 3992   5.440   5.489   0.690
 1031SOL    HW2 3993   5.432   5.350   0.606
 1032SOL     OW 3994   1.693   1.903   4.587
 1032SOL    HW1 3995   1.681   1.844   4.666
 1032SOL    HW2 3996   1.718   1.995   4.618
 1033SOL     OW 3997   1.768   6.317   1.112
 1033SOL    HW1 3998   1.824   6.386   1.067
 1033SOL    HW2 3999   1.677   6.316   1.071
 1034SOL     OW 4000   1.050   5.846   5.334
 1034SOL    HW1 4001   1.024   5.845   5.237
 1034SOL    HW2 4002   1.104   5.928   5.353
 1035SOL     OW 4003   2.427   1.297   3.572
 1035SOL    HW1 4004   2.346   1.345   3.607
 1035SOL    HW2 4005   2.501   1.304   3.639
 1036SOL     OW 4006   3.279   0.809   1.389
 1036SOL    HW1 4007   3.358   0.787   1.447
 1036SOL    HW2 4008   3.312   0.833   1.297
 1037SOL     OW 4009   2.330   0.719   1.420
 1037SOL    HW1 4010   2.421   0.725   1.461
 1037SOL    HW2 4011   2.334   0.655   1.343
 1038SOL     OW 4012   1.386   1.011   5.781
 1038SOL    HW1 4013   1.378   1.072   5.860
 1038SOL    HW2 4014   1.390   0.916   5.813
 1039SOL     OW 4015   3.688   3.103   5.734
 1039SOL    HW1 4016   3.608   3.135   5.684
 1039SOL    HW2 4017   3.664   3.021   5.786
 1040SOL     OW 4018   5.262   2.868   2.409
 1040SOL    HW1 4019   5.349   2.895   2.450
 1040SOL    HW2 4020   5.266   2.880   2.310
 1041SOL     OW 4021   6.710   0.117   4.147
 1041SOL    HW1 4022   6.662   0.085   4.065
 1041SOL    HW2 4023   6.805   0.088   4.144
 1042SOL     OW 4024   3.407   4.905   2.176
 1042SOL    HW1 4025   3.464   4.879   2.099
 1042SOL    HW2 4026   3.312   4.916   2.146
 1043SOL     OW 4027   4.827   1.247   5.313
 1043SOL    HW1 4028   4.884   1.329   5.307
 1043SOL    HW2 4029   4.741   1.271   5.359
 1044SOL     OW 4030   4.766   4.135   1.838
 1044SOL    HW1 4031   4.789   4.085   1.755
 1044SOL    HW2 4032   4.667   4.132   1.852
 1045SOL     OW 4033   2.577   6.660   2.819
 1045SOL    HW1 4034   2.659   6.692   2.866
 1045SOL    HW2 4035   2.502   6.652   2.884
 1046SOL     OW 4036   1.987   6.710   7.022
 1046SOL    HW1 4037   1.919   6.646   0.028
 1046SOL    HW2 4038   2.047   6.662   6.958
 1047SOL     OW 4039   1.034   6.174   2.647
 1047SOL    HW1 4040   1.106   6.227   2.692
 1047SOL    HW2 4041   1.074   6.112   2.580
 1048SOL     OW 4042   5.053   5.730   5.549
 1048SOL    HW1 4043   5.025   5.811   5.600
 1048SOL    HW2 4044   4.986   5.711   5.477
 1049SOL     OW 4045   6.695   5.243   4.632
 1049SOL    HW1 4046   6.663   5.326   4.676
 1049SOL    HW2 4047   6.628   5.170   4.645
 1050SOL     OW 4048   2.985   5.164   1.018
 1050SOL    HW1 4049   2.894   5.156   1.059
 1050SOL    HW2 4050   2.976   5.176   0.919
 1051SOL     OW 4051   2.676   5.004   0.475
 1051SOL    HW1 4052   2.641   4.935   0.412
 1051SOL    HW2 4053   2.770   4.980   0.501
 1052SOL     OW 4054   4.360   6.969   4.427
 1052SOL    HW1 4055   4.320   6.924   4.507
 1052SOL    HW2 4056   4.309   6.943   4.345
 1053SOL     OW 4057   5.112   5.464   2.994
 1053SOL    HW1 4058   5.144   5.515   2.914
 1053SOL    HW2 4059   5.172   5.386   3.010
 1054SOL     OW 4060   3.079   4.781   6.230
 1054SOL    HW1 4061   3.101   4.744   6.139
 1054SOL    HW2 4062   3.040   4.708   6.286
 1055SOL     OW 4063   6.152   6.831   4.367
 1055SOL    HW1 4064   6.247   6.818   4.341
 1055SOL    HW2 4065   6.117   6.915   4.326
 1056SOL     OW 4066   1.222   5.668   5.453
 1056SOL    HW1 4067   1.167   5.733   5.400
 1056SOL    HW2 4068   1.162   5.604   5.499
 1057SOL     OW 4069   3.392   3.483   2.782
 1057SOL    HW1 4070   3.409   3.393   2.742
 1057SOL    HW2 4071   3.466   3.506   2.846
 1058SOL     OW 4072   4.960   1.542   1.793
 1058SOL    HW1 4073   5.000   1.539   1.885
 1058SOL    HW2 4074   4.978   1.457   1.745
 1059SOL     OW 4075   2.130   0.719   0.805
 1059SOL    HW1 4076   2.222   0.722   0.768
 1059SOL    HW2 4077   2.064   0.712   0.730
 1060SOL     OW 4078   0.294   3.211   4.809
 1060SOL    HW1 4079   0.258   3.212   4.715
 1060SOL    HW2 4080   0.316   3.304   4.837
 1061SOL     OW 4081   5.112   3.681   1.418
 1061SOL    HW1 4082   5.059   3.629   1.352
 1061SOL    HW2 4083   5.206   3.647   1.419
 1062SOL     OW 4084   6.670   5.047   5.166
 1062SOL    HW1 4085   6.573   5.047   5.190
 1062SOL    HW2 4086   6.702   4.953   5.157
 1063SOL     OW 4087   1.083   4.243   1.811
 1063SOL    HW1 4088   1.169   4.206   1.776
 1063SOL    HW2 4089   1.102   4.320   1.872
 1064SOL     OW 4090   1.337   4.138   1.768
 1064SOL    HW1 4091   1.365   4.163   1.861
 1064SOL    HW2 4092   1.351   4.040   1.754
 1065SOL     OW 4093   4.331   0.346   4.147
 1065SOL    HW1 4094   4.361   0.432   4.187
 1065SOL    HW2 4095   4.407   0.280   4.149
 1066SOL     OW 4096   5.270   0.775   4.226
 1066SOL    HW1 4097   5.314   0.753   4.314
 1066SOL    HW2 4098   5.310   0.717   4.155
 1067SOL     OW 4099   1.579   2.872   0.146
 1067SOL    HW1 4100   1.605   2.836   0.236
 1067SOL    HW2 4101   1.508   2.942   0.158
 1068SOL     OW 4102   5.392   4.511   2.120
 1068SOL    HW1 4103   5.379   4.416   2.148
 1068SOL    HW2 4104   5.381   4.570   2.200
 1069SOL     OW 4105   4.868   4.825   1.429
 1069SOL    HW1 4106   4.853   4.923   1.417
 1069SOL    HW2 4107   4.920   4.789   1.352
 1070SOL     OW 4108   1.439   0.615   0.918
 1070SOL    HW1 4109   1.493   0.535   0.944
 1070SOL    HW2 4110   1.500   0.693   0.903
 1071SOL     OW 4111   3.701   0.015   3.601
 1071SOL    HW1 4112   3.696   7.016   3.697
 1071SOL    HW2 4113   3.759   6.980   3.550
 1072SOL     OW 4114   1.644   5.805   0.880
 1072SOL    HW1 4115   1.693   5.846   0.802
 1072SOL    HW2 4116   1.679   5.845   0.965
 1073SOL     OW 4117   3.348   6.266   2.686
 1073SOL    HW1 4118   3.333   6.197   2.615
 1073SOL    HW2 4119   3.264   6.317   2.701
 1074SOL     OW 4120   1.915   5.326   0.785
 1074SOL    HW1 4121   1.863   5.406   0.815
 1074SOL    HW2 4122   2.009   5.353   0.764
 1075SOL     OW 4123   4.397   6.297   3.433
 1075SOL    HW1 4124   4.414   6.245   3.517
 1075SOL    HW2 4125   4.478   6.294   3.375
 1076SOL     OW 4126   0.602   4.610   4.841
 1076SOL    HW1 4127   0.590   4.596   4.939
 1076SOL    HW2 4128   0.535   4.677   4.808
 1077SOL     OW 4129   6.564   0.255   6.985
 1077SOL    HW1 4130   6.592   0.259   0.052
 1077SOL    HW2 4131   6.608   0.329   6.935
 1078SOL     OW 4132   2.339   0.905   2.558
 1078SOL    HW1 4133   2.317   0.844   2.482
 1078SOL    HW2 4134   2.321   0.858   2.644
 1079SOL     OW 4135   1.630   5.697   2.449
 1079SOL    HW1 4136   1.694   5.655   2.384
 1079SOL    HW2 4137   1.624   5.640   2.531
 1080SOL     OW 4138   2.089   4.239   3.353
 1080SOL    HW1 4139   2.145   4.213   3.431
 1080SOL    HW2 4140   2.146   4.245   3.271
 1081SOL     OW 4141   6.840   0.111   5.864
 1081SOL    HW1 4142   6.791   0.170   5.799
 1081SOL    HW2 4143   6.786   0.029   5.881
 1082SOL     OW 4144   2.455   0.808   5.391
 1082SOL    HW1 4145   2.483   0.807   5.487
 1082SOL    HW2 4146   2.536   0.808   5.332
 1083SOL     OW 4147   3.751   4.342   1.199
 1083SOL    HW1 4148   3.677   4.277   1.214
 1083SOL    HW2 4149   3.747   4.377   1.105
 1084SOL     OW 4150   6.713   6.177   0.776
 1084SOL    HW1 4151   6.745   6.084   0.756
 1084SOL    HW2 4152   6.769   6.216   0.849
 1085SOL     OW 4153   1.912   4.205   2.924
 1085SOL    HW1 4154   1.976   4.281   2.916
 1085SOL    HW2 4155   1.946   4.127   2.873
 1086SOL     OW 4156   6.650   6.004   2.785
 1086SOL    HW1 4157   6.616   6.059   2.709
 1086SOL    HW2 4158   6.575   5.950   2.823
 1087SOL     OW 4159   5.930   2.438   5.757
 1087SOL    HW1 4160   5.985   2.459   5.677
 1087SOL    HW2 4161   5.860   2.509   5.769
 1088SOL     OW 4162   5.844   4.784   3.442
 1088SOL    HW1 4163   5.849   4.874   3.397
 1088SOL    HW2 4164   5.748   4.754   3.444
 1089SOL     OW 4165   1.152   6.949   4.599
 1089SOL    HW1 4166   1.131   0.012   4.633
 1089SOL    HW2 4167   1.141   6.883   4.673
 1090SOL     OW 4168   2.806   1.668   3.623
 1090SOL    HW1 4169   2.887   1.617   3.594
 1090SOL    HW2 4170   2.810   1.760   3.585
 1091SOL     OW 4171   1.752   3.106   4.735
 1091SOL    HW1 4172   1.729   3.017   4.695
 1091SOL    HW2 4173   1.722   3.179   4.674
 1092SOL     OW 4174   2.972   3.559   0.917
 1092SOL    HW1 4175   2.918   3.493   0.969
 1092SOL    HW2 4176   2.941   3.560   0.822
 1093SOL     OW 4177   1.550   2.404   2.653
 1093SOL    HW1 4178   1.586   2.343   2.723
 1093SOL    HW2 4179   1.617   2.475   2.633
 1094SOL     OW 4180   1.323   6.721   2.970
 1094SOL    HW1 4181   1.341   6.626   2.943
 1094SOL    HW2 4182   1.247   6.723   3.035
 1095SOL     OW 4183   6.905   2.173   5.763
 1095SOL    HW1 4184   6.945   2.144   5.676
 1095SOL    HW2 4185   6.811   2.203   5.749
 1096SOL     OW 4186   3.751   4.473   1.675
 1096SOL    HW1 4187   3.679   4.520   1.726
 1096SOL    HW2 4188   3.780   4.530   1.598
 1097SOL     OW 4189   1.236   4.477   3.936
 1097SOL    HW1 4190   1.273   4.390   3.903
 1097SOL    HW2 4191   1.147   4.462   3.978
 1098SOL     OW 4192   5.383   2.949   0.633
 1098SOL    HW1 4193   5.330   3.030   0.654
 1098SOL    HW2 4194   5.369   2.879   0.703
 1099SOL     OW 4195   3.869   1.217   4.429
 1099SOL    HW1 4196   3.913   1.222   4.519
 1099SOL    HW2 4197   3.850   1.309   4.396
 1100SOL     OW 4198   2.534   2.324   6.700
 1100SOL    HW1 4199   2.483   2.346   6.617
 1100SOL    HW2 4200   2.626   2.363   6.693
 1101SOL     OW 4201   5.519   2.833   1.081
 1101SOL    HW1 4202   5.461   2.835   0.999
 1101SOL    HW2 4203   5.461   2.840   1.162
 1102SOL     OW 4204   1.106   5.435   3.046
 1102SOL    HW1 4205   1.029   5.390   3.091
 1102SOL    HW2 4206   1.161   5.367   2.997
 1103SOL     OW 4207   3.104   1.432   1.400
 1103SOL    HW1 4208   3.030   1.370   1.427
 1103SOL    HW2 4209   3.123   1.420   1.302
 1104SOL     OW 4210   2.011   3.587   6.284
 1104SOL    HW1 4211   1.991   3.623   6.193
 1104SOL    HW2 4212   2.091   3.633   6.322
 1105SOL     OW 4213   5.209   3.483   4.906
 1105SOL    HW1 4214   5.283   3.449   4.848
 1105SOL    HW2 4215   5.225   3.456   5.001
 1106SOL     OW 4216   0.862   1.613   0.751
 1106SOL    HW1 4217   0.794   1.653   0.813
 1106SOL    HW2 4218   0.867   1.668   0.668
 1107SOL     OW 4219   1.055   0.533   6.477
 1107SOL    HW1 4220   1.046   0.592   6.557
 1107SOL    HW2 4221   0.964   0.516   6.438
 1108SOL     OW 4222   2.459   0.450   6.193
 1108SOL    HW1 4223   2.447   0.363   6.145
 1108SOL    HW2 4224   2.489   0.520   6.129
 1109SOL     OW 4225   4.272   5.849   4.687
 1109SOL    HW1 4226   4.327   5.889   4.613
 1109SOL    HW2 4227   4.319   5.769   4.723
 1110SOL     OW 4228   2.953   1.404   2.602
 1110SOL    HW1 4229   2.867   1.371   2.640
 1110SOL    HW2 4230   2.934   1.476   2.535
 1111SOL     OW 4231   5.598   5.683   0.146
 1111SOL    HW1 4232   5.563   5.675   0.052
 1111SOL    HW2 4233   5.620   5.779   0.165
 1112SOL     OW 4234   6.303   1.052   2.679
 1112SOL    HW1 4235   6.349   1.033   2.593
 1112SOL    HW2 4236   6.371   1.075   2.749
 1113SOL     OW 4237   6.111   3.228   2.454
 1113SOL    HW1 4238   6.064   3.278   2.382
 1113SOL    HW2 4239   6.133   3.290   2.529
 1114SOL     OW 4240   4.241   0.983   6.439
 1114SOL    HW1 4241   4.234   0.985   6.538
 1114SOL    HW2 4242   4.240   1.077   6.403
 1115SOL     OW 4243   3.878   3.290   0.284
 1115SOL    HW1 4244   3.864   3.316   0.189
 1115SOL    HW2 4245   3.918   3.198   0.288
 1116SOL     OW 4246   5.552   5.398   4.653
 1116SOL    HW1 4247   5.563   5.486   4.608
 1116SOL    HW2 4248   5.483   5.344   4.605
 1117SOL     OW 4249   2.022   2.974   1.518
 1117SOL    HW1 4250   2.077   2.938   1.443
 1117SOL    HW2 4251   1.934   2.926   1.521
 1118SOL     OW 4252   1.682   4.765   1.598
 1118SOL    HW1 4253   1.722   4.675   1.615
 1118SOL    HW2 4254   1.652   4.771   1.503
 1119SOL     OW 4255   4.136   4.237   1.681
 1119SOL    HW1 4256   4.172   4.229   1.588
 1119SOL    HW2 4257   4.192   4.302   1.733
 1120SOL     OW 4258   5.048   6.259   5.254
 1120SOL    HW1 4259   5.091   6.293   5.338
 1120SOL    HW2 4260   4.974   6.321   5.227
 1121SOL     OW 4261   5.106   4.073   2.329
 1121SOL    HW1 4262   5.119   4.129   2.411
 1121SOL    HW2 4263   5.010   4.049   2.320
 1122SOL     OW 4264   4.870   3.480   5.512
 1122SOL    HW1 4265   4.936   3.529   5.569
 1122SOL    HW2 4266   4.828   3.544   5.447
 1123SOL     OW 4267   5.511   1.733   2.124
 1123SOL    HW1 4268   5.470   1.774   2.043
 1123SOL    HW2 4269   5.522   1.635   2.111
 1124SOL     OW 4270   6.185   4.291   5.286
 1124SOL    HW1 4271   6.215   4.210   5.337
 1124SOL    HW2 4272   6.264   4.350   5.268
 1125SOL     OW 4273   1.882   1.467   4.891
 1125SOL    HW1 4274   1.901   1.492   4.986
 1125SOL    HW2 4275   1.967   1.464   4.839
 1126SOL     OW 4276   5.721   6.853   0.752
 1126SOL    HW1 4277   5.695   6.914   0.678
 1126SOL    HW2 4278   5.768   6.905   0.824
 1127SOL     OW 4279   5.019   5.416   4.764
 1127SOL    HW1 4280   4.920   5.410   4.750
 1127SOL    HW2 4281   5.043   5.510   4.786
 1128SOL     OW 4282   4.699   2.271   5.533
 1128SOL    HW1 4283   4.694   2.243   5.437
 1128SOL    HW2 4284   4.763   2.348   5.542
 1129SOL     OW 4285   4.004   0.260   0.221
 1129SOL    HW1 4286   4.009   0.359   0.237
 1129SOL    HW2 4287   4.040   0.239   0.131
 1130SOL     OW 4288   1.765   3.975   1.012
 1130SOL    HW1 4289   1.693   4.039   0.987
 1130SOL    HW2 4290   1.790   3.988   1.108
 1131SOL     OW 4291   0.653   6.305   5.755
 1131SOL    HW1 4292   0.666   6.205   5.756
 1131SOL    HW2 4293   0.557   6.326   5.768
 1132SOL     OW 4294   4.896   0.188   6.716
 1132SOL    HW1 4295   4.897   0.092   6.743
 1132SOL    HW2 4296   4.839   0.240   6.780
 1133SOL     OW 4297   0.289   1.290   0.857
 1133SOL    HW1 4298   0.375   1.242   0.878
 1133SOL    HW2 4299   0.212   1.233   0.884
 1134SOL     OW 4300   5.400   2.154   0.398
 1134SOL    HW1 4301   5.429   2.248   0.417
 1134SOL    HW2 4302   5.432   2.094   0.471
 1135SOL     OW 4303   3.026   1.336   2.887
 1135SOL    HW1 4304   3.007   1.360   2.792
 1135SOL    HW2 4305   3.012   1.417   2.945
 1136SOL     OW 4306   3.355   5.112   5.268
 1136SOL    HW1 4307   3.391   5.021   5.288
 1136SOL    HW2 4308   3.312   5.150   5.350
 1137SOL     OW 4309   1.433   2.473   0.235
 1137SOL    HW1 4310   1.341   2.483   0.196
 1137SOL    HW2 4311   1.465   2.380   0.221
 1138SOL     OW 4312   1.230   1.450   6.508
 1138SOL    HW1 4313   1.267   1.526   6.562
 1138SOL    HW2 4314   1.299   1.377   6.502
 1139SOL     OW 4315   2.196   6.140   1.625
 1139SOL    HW1 4316   2.274   6.149   1.687
 1139SOL    HW2 4317   2.227   6.157   1.531
 1140SOL     OW 4318   3.445   1.401   2.019
 1140SOL    HW1 4319   3.346   1.396   2.008
 1140SOL    HW2 4320   3.476   1.493   1.997
 1141SOL     OW 4321   6.560   5.955   6.121
 1141SOL    HW1 4322   6.583   6.016   6.197
 1141SOL    HW2 4323   6.499   6.003   6.058
 1142SOL     OW 4324   4.215   0.256   4.432
 1142SOL    HW1 4325   4.152   0.185   4.462
 1142SOL    HW2 4326   4.213   0.262   4.332
 1143SOL     OW 4327   2.829   2.177   2.606
 1143SOL    HW1 4328   2.925   2.167   2.579
 1143SOL    HW2 4329   2.780   2.092   2.585
 1144SOL     OW 4330   6.795   5.025   4.797
 1144SOL    HW1 4331   6.795   5.117   4.757
 1144SOL    HW2 4332   6.887   5.002   4.830
 1145SOL     OW 4333   0.132   4.004   2.844
 1145SOL    HW1 4334   0.224   4.014   2.808
 1145SOL    HW2 4335   0.134   3.948   2.927
 1146SOL     OW 4336   5.386   0.594   0.834
 1146SOL    HW1 4337   5.297   0.630   0.803
 1146SOL    HW2 4338   5.388   0.593   0.934
 1147SOL     OW 4339   0.910   4.544   0.534
 1147SOL    HW1 4340   0.954   4.563   0.621
 1147SOL    HW2 4341   0.957   4.468   0.489
 1148SOL     OW 4342   3.501   7.001   0.407
 1148SOL    HW1 4343   3.511   6.957   0.317
 1148SOL    HW2 4344   3.475   6.932   0.475
 1149SOL     OW 4345   5.660   3.691   3.320
 1149SOL    HW1 4346   5.752   3.653   3.334
 1149SOL    HW2 4347   5.668   3.784   3.284
 1150SOL     OW 4348   0.984   3.959   0.648
 1150SOL    HW1 4349   0.994   4.027   0.575
 1150SOL    HW2 4350   1.037   3.987   0.727
 1151SOL     OW 4351   4.873   5.603   6.977
 1151SOL    HW1 4352   4.876   5.700   6.954
 1151SOL    HW2 4353   4.964   5.564   6.970
 1152SOL     OW 4354   0.668   6.031   5.735
 1152SOL    HW1 4355   0.593   5.968   5.752
 1152SOL    HW2 4356   0.747   5.981   5.698
 1153SOL     OW 4357   2.478   0.027   1.628
 1153SOL    HW1 4358   2.541   0.105   1.626
 1153SOL    HW2 4359   2.430   0.022   1.540
 1154SOL     OW 4360   0.665   3.718   1.930
 1154SOL    HW1 4361   0.707   3.731   2.019
 1154SOL    HW2 4362   0.638   3.622   1.919
 1155SOL     OW 4363   3.259   5.082   0.113
 1155SOL    HW1 4364   3.340   5.112   0.063
 1155SOL    HW2 4365   3.242   4.985   0.095
 1156SOL     OW 4366   1.941   0.580   4.512
 1156SOL    HW1 4367   1.885   0.512   4.466
 1156SOL    HW2 4368   1.884   0.657   4.541
 1157SOL     OW 4369   6.285   1.389   4.398
 1157SOL    HW1 4370   6.326   1.351   4.315
 1157SOL    HW2 4371   6.271   1.487   4.387
 1158SOL     OW 4372   0.008   5.196   5.757
 1158SOL    HW1 4373   0.001   5.295   5.746
 1158SOL    HW2 4374   0.048   5.157   5.674
 1159SOL     OW 4375   5.463   0.115   3.139
 1159SOL    HW1 4376   5.530   0.189   3.132
 1159SOL    HW2 4377   5.395   0.125   3.066
 1160SOL     OW 4378   4.148   3.964   1.715
 1160SOL    HW1 4379   4.065   3.933   1.761
 1160SOL    HW2 4380   4.148   4.063   1.706
 1161SOL     OW 4381   5.123   0.506   5.966
 1161SOL    HW1 4382   5.136   0.543   5.874
 1161SOL    HW2 4383   5.091   0.412   5.960
 1162SOL     OW 4384   3.909   2.605   0.479
 1162SOL    HW1 4385   3.965   2.685   0.455
 1162SOL    HW2 4386   3.968   2.531   0.510
 1163SOL     OW 4387   5.673   2.957   1.871
 1163SOL    HW1 4388   5.657   3.008   1.956
 1163SOL    HW2 4389   5.587   2.920   1.837
 1164SOL     OW 4390   4.798   2.541   4.049
 1164SOL    HW1 4391   4.821   2.502   3.960
 1164SOL    HW2 4392   4.721   2.604   4.039
 1165SOL     OW 4393   2.160   4.853   3.910
 1165SOL    HW1 4394   2.068   4.843   3.873
 1165SOL    HW2 4395   2.154   4.868   4.009
 1166SOL     OW 4396   3.736   0.801   0.055
 1166SOL    HW1 4397   3.731   0.792   0.155
 1166SOL    HW2 4398   3.717   0.713   0.013
 1167SOL     OW 4399   3.232   0.376   6.407
 1167SOL    HW1 4400   3.155   0.313   6.418
 1167SOL    HW2 4401   3.305   0.331   6.354
 1168SOL     OW 4402   0.073   0.223   2.233
 1168SOL    HW1 4403   0.029   0.194   2.148
 1168SOL    HW2 4404   0.043   0.315   2.257
 1169SOL     OW 4405   6.397   3.088   6.951
 1169SOL    HW1 4406   6.494   3.066   6.958
 1169SOL    HW2 4407   6.355   3.087   0.012
 1170SOL     OW 4408   4.639   0.718   2.308
 1170SOL    HW1 4409   4.594   0.799   2.345
 1170SOL    HW2 4410   4.716   0.745   2.250
 1171SOL     OW 4411   2.282   6.472   6.815
 1171SOL    HW1 4412   2.233   6.412   6.879
 1171SOL    HW2 4413   2.352   6.523   6.865
 1172SOL     OW 4414   3.703   4.064   2.753
 1172SOL    HW1 4415   3.657   3.983   2.789
 1172SOL    HW2 4416   3.682   4.143   2.811
 1173SOL     OW 4417   3.237   0.137   5.964
 1173SOL    HW1 4418   3.162   0.071   5.966
 1173SOL    HW2 4419   3.323   0.089   5.949
 1174SOL     OW 4420   2.941   4.658   0.559
 1174SOL    HW1 4421   2.982   4.585   0.614
 1174SOL    HW2 4422   2.844   4.639   0.546
 1175SOL     OW 4423   5.195   3.489   6.520
 1175SOL    HW1 4424   5.286   3.452   6.499
 1175SOL    HW2 4425   5.204   3.566   6.582
 1176SOL     OW 4426   5.826   4.134   0.699
 1176SOL    HW1 4427   5.899   4.175   0.754
 1176SOL    HW2 4428   5.756   4.203   0.681
 1177SOL     OW 4429   6.787   1.506   5.342
 1177SOL    HW1 4430   6.870   1.501   5.287
 1177SOL    HW2 4431   6.725   1.574   5.304
 1178SOL     OW 4432   3.893   3.281   1.199
 1178SOL    HW1 4433   3.794   3.263   1.198
 1178SOL    HW2 4434   3.929   3.270   1.106
 1179SOL     OW 4435   2.932   5.169   0.760
 1179SOL    HW1 4436   2.932   5.262   0.725
 1179SOL    HW2 4437   2.920   5.104   0.684
 1180SOL     OW 4438   3.087   0.160   3.531
 1180SOL    HW1 4439   3.095   0.119   3.622
 1180SOL    HW2 4440   2.990   0.170   3.509
 1181SOL     OW 4441   0.123   2.790   5.078
 1181SOL    HW1 4442   0.153   2.705   5.034
 1181SOL    HW2 4443   0.139   2.867   5.017
 1182SOL     OW 4444   1.891   5.521   3.507
 1182SOL    HW1 4445   1.909   5.584   3.582
 1182SOL    HW2 4446   1.936   5.554   3.424
 1183SOL     OW 4447   3.584   5.531   2.469
 1183SOL    HW1 4448   3.565   5.474   2.548
 1183SOL    HW2 4449   3.620   5.619   2.499
 1184SOL     OW 4450   3.964   1.511   5.330
 1184SOL    HW1 4451   3.959   1.472   5.422
 1184SOL    HW2 4452   3.873   1.536   5.299
 1185SOL     OW 4453   2.206   0.281   0.260
 1185SOL    HW1 4454   2.112   0.305   0.234
 1185SOL    HW2 4455   2.212   0.182   0.273
 1186SOL     OW 4456   6.014   6.358   6.344
 1186SOL    HW1 4457   6.099   6.365   6.292
 1186SOL    HW2 4458   5.967   6.273   6.319
 1187SOL     OW 4459   5.448   5.969   4.931
 1187SOL    HW1 4460   5.490   5.878   4.944
 1187SOL    HW2 4461   5.409   6.000   5.018
 1188SOL     OW 4462   3.406   6.609   6.669
 1188SOL    HW1 4463   3.409   6.599   6.569
 1188SOL    HW2 4464   3.435   6.702   6.693
 1189SOL     OW 4465   5.563   0.449   1.825
 1189SOL    HW1 4466   5.546   0.402   1.911
 1189SOL    HW2 4467   5.661   0.458   1.810
 1190SOL     OW 4468   4.056   4.852   4.934
 1190SOL    HW1 4469   3.967   4.893   4.918
 1190SOL    HW2 4470   4.056   4.758   4.901
 1191SOL     OW 4471   4.367   5.764   5.188
 1191SOL    HW1 4472   4.276   5.741   5.154
 1191SOL    HW2 4473   4.358   5.827   5.266
 1192SOL     OW 4474   5.459   5.365   2.678
 1192SOL    HW1 4475   5.388   5.349   2.747
 1192SOL    HW2 4476   5.438   5.312   2.596
 1193SOL     OW 4477   6.637   0.473   4.490
 1193SOL    HW1 4478   6.642   0.415   4.571
 1193SOL    HW2 4479   6.618   0.417   4.410
 1194SOL     OW 4480   0.022   1.370   1.194
 1194SOL    HW1 4481   0.113   1.329   1.182
 1194SOL    HW2 4482   0.032   1.459   1.240
 1195SOL     OW 4483   5.968   2.410   1.149
 1195SOL    HW1 4484   5.963   2.333   1.212
 1195SOL    HW2 4485   5.939   2.381   1.058
 1196SOL     OW 4486   7.024   4.521   2.049
 1196SOL    HW1 4487   0.038   4.576   2.121
 1196SOL    HW2 4488   6.926   4.517   2.065
 1197SOL     OW 4489   4.084   6.127   4.890
 1197SOL    HW1 4490   4.063   6.201   4.954
 1197SOL    HW2 4491   4.165   6.077   4.921
 1198SOL     OW 4492   2.251   2.811   2.691
 1198SOL    HW1 4493   2.244   2.910   2.705
 1198SOL    HW2 4494   2.212   2.787   2.602
 1199SOL     OW 4495   3.617   3.035   3.105
 1199SOL    HW1 4496   3.588   2.971   3.176
 1199SOL    HW2 4497   3.537   3.072   3.058
 1200SOL     OW 4498   3.669   4.217   4.953
 1200SOL    HW1 4499   3.693   4.312   4.937
 1200SOL    HW2 4500   3.660   4.169   4.866
 1201SOL     OW 4501   0.140   1.255   4.497
 1201SOL    HW1 4502   0.072   1.261   4.425
 1201SOL    HW2 4503   0.163   1.347   4.530
 1202SOL     OW 4504   6.200   1.282   5.870
 1202SOL    HW1 4505   6.161   1.277   5.962
 1202SOL    HW2 4506   6.261   1.203   5.856
 1203SOL     OW 4507   6.093   6.530   1.706
 1203SOL    HW1 4508   6.063   6.609   1.653
 1203SOL    HW2 4509   6.020   6.461   1.709
 1204SOL     OW 4510   4.499   1.604   0.554
 1204SOL    HW1 4511   4.527   1.569   0.465
 1204SOL    HW2 4512   4.401   1.588   0.567
 1205SOL     OW 4513   4.062   3.871   6.218
 1205SOL    HW1 4514   4.022   3.787   6.254
 1205SOL    HW2 4515   4.161   3.870   6.234
 1206SOL     OW 4516   0.961   1.952   4.759
 1206SOL    HW1 4517   0.999   2.038   4.724
 1206SOL    HW2 4518   0.986   1.877   4.697
 1207SOL     OW 4519   0.950   6.620   0.321
 1207SOL    HW1 4520   0.968   6.711   0.285
 1207SOL    HW2 4521   0.975   6.617   0.418
 1208SOL     OW 4522   3.418   4.093   2.560
 1208SOL    HW1 4523   3.377   4.092   2.651
 1208SOL    HW2 4524   3.512   4.058   2.567
 1209SOL     OW 4525   5.610   6.551   4.906
 1209SOL    HW1 4526   5.636   6.599   4.822
 1209SOL    HW2 4527   5.633   6.454   4.898
 1210SOL     OW 4528   4.431   6.590   3.379
 1210SOL    HW1 4529   4.497   6.600   3.304
 1210SOL    HW2 4530   4.421   6.494   3.401
 1211SOL     OW 4531   1.732   3.228   3.051
 1211SOL    HW1 4532   1.659   3.177   3.006
 1211SOL    HW2 4533   1.773   3.292   2.986
 1212SOL     OW 4534   0.345   1.840   5.228
 1212SOL    HW1 4535   0.375   1.786   5.307
 1212SOL    HW2 4536   0.251   1.870   5.243
 1213SOL     OW 4537   5.799   3.149   4.649
 1213SOL    HW1 4538   5.897   3.157   4.671
 1213SOL    HW2 4539   5.749   3.223   4.695
 1214SOL     OW 4540   1.271   3.148   4.842
 1214SOL    HW1 4541   1.347   3.213   4.840
 1214SOL    HW2 4542   1.234   3.144   4.935
 1215SOL     OW 4543   1.667   5.177   2.759
 1215SOL    HW1 4544   1.659   5.121   2.677
 1215SOL    HW2 4545   1.581   5.227   2.774
 1216SOL     OW 4546   0.276   0.095   1.054
 1216SOL    HW1 4547   0.193   0.072   1.106
 1216SOL    HW2 4548   0.297   0.022   0.990
 1217SOL     OW 4549   2.775   5.794   0.796
 1217SOL    HW1 4550   2.846   5.754   0.854
 1217SOL    HW2 4551   2.686   5.755   0.820
 1218SOL     OW 4552   0.556   3.431   4.900
 1218SOL    HW1 4553   0.614   3.358   4.864
 1218SOL    HW2 4554   0.575   3.516   4.851
 1219SOL     OW 4555   4.593   5.252   1.649
 1219SOL    HW1 4556   4.641   5.195   1.715
 1219SOL    HW2 4557   4.589   5.206   1.560
 1220SOL     OW 4558   5.429   3.864   3.001
 1220SOL    HW1 4559   5.456   3.947   2.953
 1220SOL    HW2 4560   5.399   3.795   2.934
 1221SOL     OW 4561   5.994   3.969   6.251
 1221SOL    HW1 4562   5.905   3.945   6.289
 1221SOL    HW2 4563   6.052   3.887   6.248
 1222SOL     OW 4564   6.668   0.067   0.279
 1222SOL    HW1 4565   6.731   0.084   0.355
 1222SOL    HW2 4566   6.605   0.145   0.271
 1223SOL     OW 4567   4.904   0.995   0.540
 1223SOL    HW1 4568   4.932   1.029   0.451
 1223SOL    HW2 4569   4.873   1.071   0.597
 1224SOL     OW 4570   3.272   5.941   0.400
 1224SOL    HW1 4571   3.346   5.887   0.440
 1224SOL    HW2 4572   3.208   5.880   0.353
 1225SOL     OW 4573   3.652   2.464   0.702
 1225SOL    HW1 4574   3.573   2.516   0.670
 1225SOL    HW2 4575   3.656   2.468   0.802
 1226SOL     OW 4576   4.922   5.870   0.681
 1226SOL    HW1 4577   4.852   5.932   0.646
 1226SOL    HW2 4578   5.006   5.921   0.699
 1227SOL     OW 4579   6.228   5.243   6.701
 1227SOL    HW1 4580   6.133   5.230   6.672
 1227SOL    HW2 4581   6.286   5.174   6.657
 1228SOL     OW 4582   4.045   3.344   0.587
 1228SOL    HW1 4583   4.002   3.294   0.662
 1228SOL    HW2 4584   4.000   3.433   0.576
 1229SOL     OW 4585   1.880   5.967   1.337
 1229SOL    HW1 4586   1.947   5.956   1.410
 1229SOL    HW2 4587   1.928   5.977   1.250
 1230SOL     OW 4588   5.427   5.627   2.612
 1230SOL    HW1 4589   5.445   5.532   2.638
 1230SOL    HW2 4590   5.357   5.629   2.540
 1231SOL     OW 4591   1.047   2.241   6.117
 1231SOL    HW1 4592   0.990   2.180   6.063
 1231SOL    HW2 4593   1.090   2.309   6.057
 1232SOL     OW 4594   4.757   0.958   5.369
 1232SOL    HW1 4595   4.658   0.958   5.383
 1232SOL    HW2 4596   4.783   1.036   5.311
 1233SOL     OW 4597   0.756   5.711   3.225
 1233SOL    HW1 4598   0.679   5.767   3.257
 1233SOL    HW2 4599   0.815   5.766   3.166
 1234SOL     OW 4600   6.877   2.669   5.938
 1234SOL    HW1 4601   6.959   2.674   5.881
 1234SOL    HW2 4602   6.839   2.577   5.934
 1235SOL     OW 4603   6.561   4.764   0.615
 1235SOL    HW1 4604   6.607   4.823   0.682
 1235SOL    HW2 4605   6.479   4.810   0.581
 1236SOL     OW 4606   4.054   1.487   1.617
 1236SOL    HW1 4607   3.962   1.520   1.641
 1236SOL    HW2 4608   4.109   1.562   1.582
 1237SOL     OW 4609   1.302   5.750   4.841
 1237SOL    HW1 4610   1.326   5.803   4.922
 1237SOL    HW2 4611   1.224   5.691   4.863
 1238SOL     OW 4612   0.385   0.115   4.139
 1238SOL    HW1 4613   0.292   0.151   4.135
 1238SOL    HW2 4614   0.448   0.188   4.169
 1239SOL     OW 4615   6.192   6.519   5.690
 1239SOL    HW1 4616   6.243   6.602   5.671
 1239SOL    HW2 4617   6.113   6.514   5.630
 1240SOL     OW 4618   6.221   4.934   2.397
 1240SOL    HW1 4619   6.193   4.966   2.306
 1240SOL    HW2 4620   6.198   4.838   2.407
 1241SOL     OW 4621   6.739   4.747   5.173
 1241SOL    HW1 4622   6.737   4.712   5.266
 1241SOL    HW2 4623   6.827   4.724   5.130
 1242SOL     OW 4624   2.057   3.173   0.426
 1242SOL    HW1 4625   2.123   3.213   0.362
 1242SOL    HW2 4626   2.047   3.234   0.505
 1243SOL     OW 4627   0.752   0.906   4.684
 1243SOL    HW1 4628   0.749   0.950   4.594
 1243SOL    HW2 4629   0.832   0.938   4.735
 1244SOL     OW 4630   5.067   6.616   5.303
 1244SOL    HW1 4631   5.029   6.659   5.221
 1244SOL    HW2 4632   5.155   6.574   5.280
 1245SOL     OW 4633   5.614   5.522   0.778
 1245SOL    HW1 4634   5.574   5.481   0.860
 1245SOL    HW2 4635   5.638   5.617   0.797
 1246SOL     OW 4636   3.326   1.110   2.688
 1246SOL    HW1 4637   3.367   1.139   2.774
 1246SOL    HW2 4638   3.295   1.190   2.637
 1247SOL     OW 4639   5.617   6.972   5.002
 1247SOL    HW1 4640   5.599   6.882   5.042
 1247SOL    HW2 4641   5.611   0.012   5.074
 1248SOL     OW 4642   1.573   6.768   4.031
 1248SOL    HW1 4643   1.639   6.804   3.965
 1248SOL    HW2 4644   1.572   6.668   4.027
 1249SOL     OW 4645   6.929   3.899   1.794
 1249SOL    HW1 4646   6.959   3.968   1.860
 1249SOL    HW2 4647   6.896   3.944   1.711
 1250SOL     OW 4648   6.107   3.767   4.099
 1250SOL    HW1 4649   6.134   3.762   4.003
 1250SOL    HW2 4650   6.185   3.799   4.154
 1251SOL     OW 4651   2.327   0.730   2.786
 1251SOL    HW1 4652   2.416   0.690   2.809
 1251SOL    HW2 4653   2.261   0.710   2.858
 1252SOL     OW 4654   3.708   5.468   0.143
 1252SOL    HW1 4655   3.641   5.407   0.185
 1252SOL    HW2 4656   3.692   5.473   0.045
 1253SOL     OW 4657   2.696   6.933   1.461
 1253SOL    HW1 4658   2.608   6.932   1.507
 1253SOL    HW2 4659   2.756   7.000   1.505
 1254SOL     OW 4660   6.351   3.176   2.888
 1254SOL    HW1 4661   6.284   3.106   2.911
 1254SOL    HW2 4662   6.421   3.138   2.828
 1255SOL     OW 4663   5.826   2.717   6.015
 1255SOL    HW1 4664   5.768   2.785   6.061
 1255SOL    HW2 4665   5.781   2.684   5.933
 1256SOL     OW 4666   0.729   6.338   3.851
 1256SOL    HW1 4667   0.755   6.369   3.942
 1256SOL    HW2 4668   0.809   6.340   3.791
 1257SOL     OW 4669   0.231   4.942   4.589
 1257SOL    HW1 4670   0.159   4.882   4.555
 1257SOL    HW2 4671   0.220   5.033   4.550
 1258SOL     OW 4672   1.882   5.883   2.932
 1258SOL    HW1 4673   1.799   5.895   2.985
 1258SOL    HW2 4674   1.871   5.806   2.869
 1259SOL     OW 4675   3.296   6.175   5.639
 1259SOL    HW1 4676   3.255   6.108   5.577
 1259SOL    HW2 4677   3.326   6.255   5.585
 1260SOL     OW 4678   3.052   1.063   1.354
 1260SOL    HW1 4679   3.140   1.017   1.341
 1260SOL    HW2 4680   3.021   1.103   1.268
 1261SOL     OW 4681   0.224   4.227   6.998
 1261SOL    HW1 4682   0.188   4.143   0.009
 1261SOL    HW2 4683   0.317   4.243   0.002
 1262SOL     OW 4684   5.013   5.790   1.358
 1262SOL    HW1 4685   4.979   5.883   1.366
 1262SOL    HW2 4686   5.096   5.780   1.413
 1263SOL     OW 4687   6.452   1.546   0.589
 1263SOL    HW1 4688   6.388   1.470   0.586
 1263SOL    HW2 4689   6.508   1.546   0.505
 1264SOL     OW 4690   0.949   3.696   1.666
 1264SOL    HW1 4691   0.861   3.740   1.685
 1264SOL    HW2 4692   1.015   3.766   1.638
 1265SOL     OW 4693   6.663   4.760   3.710
 1265SOL    HW1 4694   6.706   4.815   3.781
 1265SOL    HW2 4695   6.729   4.693   3.675
 1266SOL     OW 4696   2.121   0.971   3.976
 1266SOL    HW1 4697   2.121   1.011   4.068
 1266SOL    HW2 4698   2.029   0.974   3.938
 1267SOL     OW 4699   5.478   6.169   1.012
 1267SOL    HW1 4700   5.396   6.220   1.038
 1267SOL    HW2 4701   5.453   6.074   0.992
 1268SOL     OW 4702   4.686   2.586   6.768
 1268SOL    HW1 4703   4.652   2.593   6.674
 1268SOL    HW2 4704   4.609   2.581   6.831
 1269SOL     OW 4705   5.796   6.323   5.279
 1269SOL    HW1 4706   5.737   6.382   5.334
 1269SOL    HW2 4707   5.786   6.347   5.182
 1270SOL     OW 4708   2.055   3.457   4.437
 1270SOL    HW1 4709   2.045   3.557   4.433
 1270SOL    HW2 4710   2.034   3.419   4.347
 1271SOL     OW 4711   3.602   2.109   3.660
 1271SOL    HW1 4712   3.544   2.064   3.728
 1271SOL    HW2 4713   3.545   2.140   3.584
 1272SOL     OW 4714   6.288   5.990   1.167
 1272SOL    HW1 4715   6.327   6.075   1.134
 1272SOL    HW2 4716   6.313   5.977   1.263
 1273SOL     OW 4717   1.720   4.532   0.017
 1273SOL    HW1 4718   1.636   4.578   0.047
 1273SOL    HW2 4719   1.798   4.590   0.037
 1274SOL     OW 4720   6.306   2.932   1.608
 1274SOL    HW1 4721   6.292   2.968   1.516
 1274SOL    HW2 4722   6.272   2.838   1.613
 1275SOL     OW 4723   3.891   0.226   3.580
 1275SOL    HW1 4724   3.966   0.167   3.611
 1275SOL    HW2 4725   3.806   0.174   3.577
 1276SOL     OW 4726   0.279   1.169   3.922
 1276SOL    HW1 4727   0.197   1.189   3.868
 1276SOL    HW2 4728   0.258   1.100   3.991
 1277SOL     OW 4729   0.166   0.336   5.220
 1277SOL    HW1 4730   0.105   0.370   5.292
 1277SOL    HW2 4731   0.202   0.247   5.248
 1278SOL     OW 4732   1.497   0.984   5.321
 1278SOL    HW1 4733   1.522   1.015   5.413
 1278SOL    HW2 4734   1.480   0.885   5.322
 1279SOL     OW 4735   2.926   6.055   0.188
 1279SOL    HW1 4736   2.998   6.123   0.176
 1279SOL    HW2 4737   2.907   6.043   0.285
 1280SOL     OW 4738   3.284   6.250   3.853
 1280SOL    HW1 4739   3.232   6.330   3.825
 1280SOL    HW2 4740   3.221   6.175   3.875
 1281SOL     OW 4741   1.048   5.986   3.275
 1281SOL    HW1 4742   1.018   5.906   3.223
 1281SOL    HW2 4743   1.146   5.999   3.261
 1282SOL     OW 4744   0.443   1.188   0.046
 1282SOL    HW1 4745   0.368   1.123   0.040
 1282SOL    HW2 4746   0.449   1.241   6.991
 1283SOL     OW 4747   5.564   2.804   5.149
 1283SOL    HW1 4748   5.622   2.733   5.109
 1283SOL    HW2 4749   5.470   2.792   5.118
 1284SOL     OW 4750   4.296   3.233   1.574
 1284SOL    HW1 4751   4.230   3.192   1.511
 1284SOL    HW2 4752   4.339   3.161   1.629
 1285SOL     OW 4753   5.127   3.537   5.741
 1285SOL    HW1 4754   5.203   3.559   5.802
 1285SOL    HW2 4755   5.053   3.603   5.754
 1286SOL     OW 4756   4.929   4.412   2.805
 1286SOL    HW1 4757   4.901   4.498   2.763
 1286SOL    HW2 4758   4.874   4.337   2.770
 1287SOL     OW 4759   4.460   3.994   5.714
 1287SOL    HW1 4760   4.469   4.082   5.759
 1287SOL    HW2 4761   4.500   3.923   5.771
 1288SOL     OW 4762   6.317   3.766   0.765
 1288SOL    HW1 4763   6.242   3.781   0.830
 1288SOL    HW2 4764   6.397   3.731   0.813
 1289SOL     OW 4765   0.327   6.044   1.778
 1289SOL    HW1 4766   0.310   6.133   1.737
 1289SOL    HW2 4767   0.250   6.020   1.837
 1290SOL     OW 4768   1.413   0.222   0.353
 1290SOL    HW1 4769   1.327   0.272   0.341
 1290SOL    HW2 4770   1.445   0.189   0.264
 1291SOL     OW 4771   0.487   3.317   5.564
 1291SOL    HW1 4772   0.450   3.385   5.500
 1291SOL    HW2 4773   0.508   3.362   5.651
 1292SOL     OW 4774   5.854   5.772   2.716
 1292SOL    HW1 4775   5.913   5.745   2.640
 1292SOL    HW2 4776   5.845   5.695   2.780
 1293SOL     OW 4777   1.681   1.392   6.742
 1293SOL    HW1 4778   1.729   1.459   6.686
 1293SOL    HW2 4779   1.587   1.381   6.707
 1294SOL     OW 4780   1.171   3.407   0.501
 1294SOL    HW1 4781   1.210   3.498   0.487
 1294SOL    HW2 4782   1.232   3.354   0.560
 1295SOL     OW 4783   6.746   3.689   2.895
 1295SOL    HW1 4784   6.722   3.754   2.823
 1295SOL    HW2 4785   6.663   3.644   2.928
 1296SOL     OW 4786   3.997   0.545   5.562
 1296SOL    HW1 4787   3.977   0.460   5.513
 1296SOL    HW2 4788   4.078   0.588   5.522
 1297SOL     OW 4789   5.984   0.795   6.420
 1297SOL    HW1 4790   6.045   0.864   6.459
 1297SOL    HW2 4791   6.033   0.708   6.413
 1298SOL     OW 4792   6.122   3.911   3.111
 1298SOL    HW1 4793   6.124   4.011   3.104
 1298SOL    HW2 4794   6.050   3.875   3.051
 1299SOL     OW 4795   0.702   3.761   3.037
 1299SOL    HW1 4796   0.610   3.766   2.998
 1299SOL    HW2 4797   0.763   3.821   2.985
 1300SOL     OW 4798   3.371   4.112   1.772
 1300SOL    HW1 4799   3.369   4.137   1.869
 1300SOL    HW2 4800   3.455   4.061   1.753
 1301SOL     OW 4801   0.491   5.868   2.122
 1301SOL    HW1 4802   0.511   5.935   2.193
 1301SOL    HW2 4803   0.549   5.787   2.135
 1302SOL     OW 4804   2.967   0.428   5.361
 1302SOL    HW1 4805   2.960   0.453   5.457
 1302SOL    HW2 4806   2.952   0.509   5.304
 1303SOL     OW 4807   4.842   1.778   1.246
 1303SOL    HW1 4808   4.860   1.840   1.322
 1303SOL    HW2 4809   4.755   1.801   1.204
 1304SOL     OW 4810   1.392   1.248   6.655
 1304SOL    HW1 4811   1.311   1.189   6.660
 1304SOL    HW2 4812   1.469   1.195   6.618
 1305SOL     OW 4813   5.683   4.064   0.009
 1305SOL    HW1 4814   5.753   4.129   7.007
 1305SOL    HW2 4815   5.645   4.095   0.096
 1306SOL     OW 4816   1.201   4.458   5.132
 1306SOL    HW1 4817   1.170   4.538   5.081
 1306SOL    HW2 4818   1.301   4.456   5.131
 1307SOL     OW 4819   1.711   2.850   4.639
 1307SOL    HW1 4820   1.765   2.767   4.655
 1307SOL    HW2 4821   1.666   2.844   4.550
 1308SOL     OW 4822   4.312   5.288   4.526
 1308SOL    HW1 4823   4.282   5.288   4.622
 1308SOL    HW2 4824   4.304   5.195   4.489
 1309SOL     OW 4825   5.587   3.699   5.752
 1309SOL    HW1 4826   5.648   3.647   5.692
 1309SOL    HW2 4827   5.500   3.715   5.705
 1310SOL     OW 4828   0.256   4.001   4.739
 1310SOL    HW1 4829   0.178   3.972   4.796
 1310SOL    HW2 4830   0.257   3.947   4.655
 1311SOL     OW 4831   6.671   0.125   3.746
 1311SOL    HW1 4832   6.659   0.207   3.802
 1311SOL    HW2 4833   6.718   0.055   3.799
 1312SOL     OW 4834   1.088   0.155   6.516
 1312SOL    HW1 4835   1.103   0.214   6.596
 1312SOL    HW2 4836   0.990   0.146   6.499
 1313SOL     OW 4837   1.348   4.986   4.499
 1313SOL    HW1 4838   1.299   5.070   4.474
 1313SOL    HW2 4839   1.401   5.002   4.582
 1314SOL     OW 4840   2.932   1.960   5.961
 1314SOL    HW1 4841   2.981   1.877   5.990
 1314SOL    HW2 4842   2.998   2.024   5.920
 1315SOL     OW 4843   0.492   0.905   0.371
 1315SOL    HW1 4844   0.483   0.809   0.343
 1315SOL    HW2 4845   0.433   0.961   0.314
 1316SOL     OW 4846   2.334   6.676   4.118
 1316SOL    HW1 4847   2.351   6.579   4.133
 1316SOL    HW2 4848   2.276   6.711   4.191
 1317SOL     OW 4849   0.753   4.273   4.397
 1317SOL    HW1 4850   0.688   4.293   4.323
 1317SOL    HW2 4851   0.734   4.334   4.475
 1318SOL     OW 4852   0.092   0.359   0.592
 1318SOL    HW1 4853   0.045   0.352   0.504
 1318SOL    HW2 4854   0.118   0.268   0.623
 1319SOL     OW 4855   6.912   0.199   0.371
 1319SOL    HW1 4856   6.883   0.266   0.304
 1319SOL    HW2 4857   7.006   0.171   0.351
 1320SOL     OW 4858   6.200   3.647   0.239
 1320SOL    HW1 4859   6.223   3.651   0.336
 1320SOL    HW2 4860   6.100   3.650   0.229
 1321SOL     OW 4861   4.398   2.265   6.487
 1321SOL    HW1 4862   4.364   2.182   6.531
 1321SOL    HW2 4863   4.327   2.335   6.489
 1322SOL     OW 4864   4.863   0.905   3.456
 1322SOL    HW1 4865   4.951   0.931   3.416
 1322SOL    HW2 4866   4.793   0.903   3.385
 1323SOL     OW 4867   5.341   1.987   5.287
 1323SOL    HW1 4868   5.267   2.040   5.246
 1323SOL    HW2 4869   5.319   1.890   5.282
 1324SOL     OW 4870   0.938   2.556   1.265
 1324SOL    HW1 4871   1.024   2.570   1.217
 1324SOL    HW2 4872   0.916   2.459   1.269
 1325SOL     OW 4873   1.703   6.861   2.057
 1325SOL    HW1 4874   1.733   6.777   2.013
 1325SOL    HW2 4875   1.703   6.936   1.991
 1326SOL     OW 4876   5.204   2.706   4.692
 1326SOL    HW1 4877   5.149   2.640   4.641
 1326SOL    HW2 4878   5.281   2.736   4.636
 1327SOL     OW 4879   2.689   4.955   2.243
 1327SOL    HW1 4880   2.728   5.041   2.277
 1327SOL    HW2 4881   2.748   4.879   2.270
 1328SOL     OW 4882   1.365   2.729   1.022
 1328SOL    HW1 4883   1.268   2.748   1.012
 1328SOL    HW2 4884   1.411   2.743   0.934
 1329SOL     OW 4885   0.356   2.095   0.898
 1329SOL    HW1 4886   0.288   2.068   0.967
 1329SOL    HW2 4887   0.345   2.038   0.817
 1330SOL     OW 4888   6.607   1.124   1.411
 1330SOL    HW1 4889   6.622   1.074   1.496
 1330SOL    HW2 4890   6.668   1.203   1.407
 1331SOL     OW 4891   4.792   2.234   3.356
 1331SOL    HW1 4892   4.771   2.287   3.274
 1331SOL    HW2 4893   4.782   2.136   3.336
 1332SOL     OW 4894   3.739   0.285   0.012
 1332SOL    HW1 4895   3.673   0.336   0.068
 1332SOL    HW2 4896   3.807   0.348   7.005
 1333SOL     OW 4897   3.718   3.628   6.148
 1333SOL    HW1 4898   3.764   3.703   6.100
 1333SOL    HW2 4899   3.653   3.584   6.085
 1334SOL     OW 4900   0.116   2.495   4.979
 1334SOL    HW1 4901   0.209   2.499   5.016
 1334SOL    HW2 4902   0.055   2.455   5.047
 1335SOL     OW 4903   2.979   0.317   2.962
 1335SOL    HW1 4904   2.987   0.240   2.899
 1335SOL    HW2 4905   2.950   0.398   2.911
 1336SOL     OW 4906   2.112   1.373   6.587
 1336SOL    HW1 4907   2.028   1.423   6.609
 1336SOL    HW2 4908   2.097   1.275   6.603
 1337SOL     OW 4909   1.389   1.544   4.792
 1337SOL    HW1 4910   1.473   1.528   4.844
 1337SOL    HW2 4911   1.311   1.512   4.844
 1338SOL     OW 4912   4.439   2.752   6.246
 1338SOL    HW1 4913   4.382   2.671   6.234
 1338SOL    HW2 4914   4.390   2.833   6.213
 1339SOL     OW 4915   1.005   6.959   0.023
 1339SOL    HW1 4916   1.035   0.019   7.018
 1339SOL    HW2 4917   0.954   6.912   6.981
 1340SOL     OW 4918   0.854   1.439   1.517
 1340SOL    HW1 4919   0.843   1.504   1.442
 1340SOL    HW2 4920   0.767   1.428   1.565
 1341SOL     OW 4921   4.530   0.655   5.469
 1341SOL    HW1 4922   4.582   0.631   5.386
 1341SOL    HW2 4923   4.522   0.574   5.527
 1342SOL     OW 4924   1.864   4.667   6.310
 1342SOL    HW1 4925   1.883   4.711   6.398
 1342SOL    HW2 4926   1.924   4.706   6.240
 1343SOL     OW 4927   4.140   5.939   2.636
 1343SOL    HW1 4928   4.146   5.957   2.734
 1343SOL    HW2 4929   4.069   5.870   2.619
 1344SOL     OW 4930   6.640   4.348   3.704
 1344SOL    HW1 4931   6.706   4.375   3.774
 1344SOL    HW2 4932   6.669   4.385   3.615
 1345SOL     OW 4933   1.434   1.858   3.237
 1345SOL    HW1 4934   1.430   1.778   3.177
 1345SOL    HW2 4935   1.523   1.901   3.228
 1346SOL     OW 4936   1.404   0.183   3.073
 1346SOL    HW1 4937   1.471   0.228   3.014
 1346SOL    HW2 4938   1.449   0.110   3.124
 1347SOL     OW 4939   6.300   6.512   4.121
 1347SOL    HW1 4940   6.246   6.494   4.203
 1347SOL    HW2 4941   6.396   6.489   4.138
 1348SOL     OW 4942   5.389   5.323   3.021
 1348SOL    HW1 4943   5.417   5.408   2.977
 1348SOL    HW2 4944   5.439   5.312   3.107
 1349SOL     OW 4945   4.781   2.654   5.839
 1349SOL    HW1 4946   4.683   2.664   5.857
 1349SOL    HW2 4947   4.820   2.591   5.907
 1350SOL     OW 4948   4.340   4.604   0.031
 1350SOL    HW1 4949   4.408   4.535   0.007
 1350SOL    HW2 4950   4.332   4.610   0.130
 1351SOL     OW 4951   6.603   2.511   3.042
 1351SOL    HW1 4952   6.520   2.468   3.078
 1351SOL    HW2 4953   6.631   2.465   2.957
 1352SOL     OW 4954   0.259   0.591   3.090
 1352SOL    HW1 4955   0.330   0.521   3.083
 1352SOL    HW2 4956   0.279   0.652   3.166
 1353SOL     OW 4957   5.965   4.036   5.627
 1353SOL    HW1 4958   5.916   4.031   5.713
 1353SOL    HW2 4959   5.940   3.959   5.569
 1354SOL     OW 4960   0.492   1.889   0.341
 1354SOL    HW1 4961   0.541   1.950   0.404
 1354SOL    HW2 4962   0.393   1.906   0.349
 1355SOL     OW 4963   6.274   2.447   5.769
 1355SOL    HW1 4964   6.373   2.461   5.774
 1355SOL    HW2 4965   6.230   2.500   5.841
 1356SOL     OW 4966   2.986   3.280   3.728
 1356SOL    HW1 4967   2.941   3.331   3.801
 1356SOL    HW2 4968   2.943   3.300   3.641
 1357SOL     OW 4969   1.399   4.565   5.936
 1357SOL    HW1 4970   1.359   4.648   5.975
 1357SOL    HW2 4971   1.397   4.570   5.836
 1358SOL     OW 4972   3.650   1.487   5.806
 1358SOL    HW1 4973   3.658   1.585   5.789
 1358SOL    HW2 4974   3.683   1.466   5.897
 1359SOL     OW 4975   6.963   4.635   1.511
 1359SOL    HW1 4976   6.923   4.727   1.511
 1359SOL    HW2 4977   6.918   4.579   1.441
 1360SOL     OW 4978   4.137   3.464   2.175
 1360SOL    HW1 4979   4.206   3.528   2.210
 1360SOL    HW2 4980   4.159   3.371   2.204
 1361SOL     OW 4981   6.898   6.488   5.795
 1361SOL    HW1 4982   6.949   6.477   5.710
 1361SOL    HW2 4983   6.958   6.525   5.866
 1362SOL     OW 4984   2.927   3.813   4.293
 1362SOL    HW1 4985   2.898   3.846   4.383
 1362SOL    HW2 4986   2.874   3.732   4.268
 1363SOL     OW 4987   6.448   6.110   3.543
 1363SOL    HW1 4988   6.527   6.094   3.603
 1363SOL    HW2 4989   6.475   6.096   3.448
 1364SOL     OW 4990   0.580   2.132   0.499
 1364SOL    HW1 4991   0.522   2.200   0.545
 1364SOL    HW2 4992   0.664   2.176   0.468
 1365SOL     OW 4993   0.522   3.440   5.803
 1365SOL    HW1 4994   0.600   3.459   5.863
 1365SOL    HW2 4995   0.437   3.462   5.850
 1366SOL     OW 4996   0.486   4.056   0.666
 1366SOL    HW1 4997   0.474   3.986   0.736
 1366SOL    HW2 4998   0.574   4.042   0.620
 1367SOL     OW 4999   1.272   6.044   2.954
 1367SOL    HW1 5000   1.212   6.124   2.947
 1367SOL    HW2 5001   1.350   6.055   2.893
 1368SOL     OW 5002   6.659   0.583   3.833
 1368SOL    HW1 5003   6.583   0.519   3.822
 1368SOL    HW2 5004   6.623   0.675   3.849
 1369SOL     OW 5005   2.097   6.912   2.650
 1369SOL    HW1 5006   2.068   6.893   2.556
 1369SOL    HW2 5007   2.181   6.861   2.670
 1370SOL     OW 5008   5.387   1.764   4.204
 1370SOL    HW1 5009   5.438   1.732   4.124
 1370SOL    HW2 5010   5.410   1.860   4.221
 1371SOL     OW 5011   5.056   1.250   5.033
 1371SOL    HW1 5012   4.997   1.171   5.047
 1371SOL    HW2 5013   5.151   1.224   5.047
 1372SOL     OW 5014   1.187   1.874   1.005
 1372SOL    HW1 5015   1.253   1.864   0.930
 1372SOL    HW2 5016   1.102   1.914   0.969
 1373SOL     OW 5017   4.742   2.235   6.823
 1373SOL    HW1 5018   4.761   2.313   6.883
 1373SOL    HW2 5019   4.744   2.265   6.728
 1374SOL     OW 5020   4.548   3.062   0.417
 1374SOL    HW1 5021   4.513   3.132   0.356
 1374SOL    HW2 5022   4.475   3.033   0.479
 1375SOL     OW 5023   0.542   6.967   6.230
 1375SOL    HW1 5024   0.612   6.897   6.215
 1375SOL    HW2 5025   0.587   0.023   6.257
 1376SOL     OW 5026   3.732   4.833   5.392
 1376SOL    HW1 5027   3.805   4.815   5.327
 1376SOL    HW2 5028   3.714   4.751   5.446
 1377SOL     OW 5029   0.916   3.719   3.233
 1377SOL    HW1 5030   0.831   3.735   3.182
 1377SOL    HW2 5031   0.994   3.747   3.177
 1378SOL     OW 5032   5.921   2.420   5.418
 1378SOL    HW1 5033   5.938   2.334   5.465
 1378SOL    HW2 5034   5.976   2.493   5.459
 1379SOL     OW 5035   4.065   5.995   3.293
 1379SOL    HW1 5036   4.151   5.962   3.330
 1379SOL    HW2 5037   4.067   6.095   3.286
 1380SOL     OW 5038   0.291   6.215   3.560
 1380SOL    HW1 5039   0.358   6.240   3.629
 1380SOL    HW2 5040   0.279   6.115   3.560
 1381SOL     OW 5041   5.462   1.848   0.070
 1381SOL    HW1 5042   5.379   1.898   0.093
 1381SOL    HW2 5043   5.498   1.803   0.152
 1382SOL     OW 5044   5.228   3.275   1.453
 1382SOL    HW1 5045   5.208   3.197   1.393
 1382SOL    HW2 5046   5.143   3.314   1.488
 1383SOL     OW 5047   1.355   0.296   1.633
 1383SOL    HW1 5048   1.451   0.322   1.625
 1383SOL    HW2 5049   1.347   0.196   1.624
 1384SOL     OW 5050   4.946   0.388   2.019
 1384SOL    HW1 5051   4.920   0.388   2.116
 1384SOL    HW2 5052   4.933   0.297   1.981
 1385SOL     OW 5053   2.798   4.715   3.536
 1385SOL    HW1 5054   2.871   4.771   3.574
 1385SOL    HW2 5055   2.777   4.745   3.442
 1386SOL     OW 5056   2.969   1.194   3.947
 1386SOL    HW1 5057   3.011   1.259   4.011
 1386SOL    HW2 5058   2.913   1.129   3.998
 1387SOL     OW 5059   4.164   5.408   2.904
 1387SOL    HW1 5060   4.242   5.468   2.923
 1387SOL    HW2 5061   4.175   5.368   2.813
 1388SOL     OW 5062   6.652   0.095   2.787
 1388SOL    HW1 5063   6.691   0.186   2.780
 1388SOL    HW2 5064   6.682   0.040   2.709
 1389SOL     OW 5065   6.266   1.072   3.835
 1389SOL    HW1 5066   6.255   0.977   3.808
 1389SOL    HW2 5067   6.254   1.131   3.755
 1390SOL     OW 5068   0.175   3.365   6.729
 1390SOL    HW1 5069   0.162   3.336   6.635
 1390SOL    HW2 5070   0.244   3.307   6.773
 1391SOL     OW 5071   6.495   6.390   4.679
 1391SOL    HW1 5072   6.416   6.354   4.731
 1391SOL    HW2 5073   6.522   6.322   4.611
 1392SOL     OW 5074   5.185   6.557   5.822
 1392SOL    HW1 5075   5.209   6.464   5.793
 1392SOL    HW2 5076   5.164   6.613   5.742
 1393SOL     OW 5077   6.416   4.831   5.750
 1393SOL    HW1 5078   6.477   4.908   5.728
 1393SOL    HW2 5079   6.367   4.852   5.835
 1394SOL     OW 5080   3.435   5.269   5.839
 1394SOL    HW1 5081   3.414   5.339   5.771
 1394SOL    HW2 5082   3.533   5.250   5.839
 1395SOL     OW 5083   2.485   4.407   5.174
 1395SOL    HW1 5084   2.423   4.352   5.230
 1395SOL    HW2 5085   2.568   4.427   5.226
 1396SOL     OW 5086   1.081   1.460   5.424
 1396SOL    HW1 5087   1.011   1.390   5.414
 1396SOL    HW2 5088   1.165   1.419   5.459
 1397SOL     OW 5089   0.592   6.905   4.071
 1397SOL    HW1 5090   0.549   6.987   4.110
 1397SOL    HW2 5091   0.614   6.841   4.144
 1398SOL     OW 5092   3.245   0.772   6.643
 1398SOL    HW1 5093   3.241   0.724   6.731
 1398SOL    HW2 5094   3.153   0.801   6.617
 1399SOL     OW 5095   3.705   5.441   0.895
 1399SOL    HW1 5096   3.620   5.481   0.929
 1399SOL    HW2 5097   3.721   5.473   0.801
 1400SOL     OW 5098   0.020   1.568   4.221
 1400SOL    HW1 5099   0.073   1.484   4.235
 1400SOL    HW2 5100   6.977   1.573   4.289
 1401SOL     OW 5101   6.326   0.897   4.754
 1401SOL    HW1 5102   6.296   0.973   4.696
 1401SOL    HW2 5103   6.402   0.850   4.709
 1402SOL     OW 5104   6.149   3.738   6.193
 1402SOL    HW1 5105   6.119   3.674   6.263
 1402SOL    HW2 5106   6.212   3.691   6.131
 1403SOL     OW 5107   2.498   2.369   1.950
 1403SOL    HW1 5108   2.572   2.340   2.012
 1403SOL    HW2 5109   2.481   2.297   1.883
 1404SOL     OW 5110   6.442   6.621   0.558
 1404SOL    HW1 5111   6.534   6.582   0.567
 1404SOL    HW2 5112   6.375   6.553   0.588
 1405SOL     OW 5113   2.468   3.229   0.714
 1405SOL    HW1 5114   2.532   3.292   0.756
 1405SOL    HW2 5115   2.439   3.265   0.625
 1406SOL     OW 5116   0.428   5.046   0.737
 1406SOL    HW1 5117   0.421   5.113   0.663
 1406SOL    HW2 5118   0.491   5.079   0.807
 1407SOL     OW 5119   0.382   3.252   2.420
 1407SOL    HW1 5120   0.330   3.332   2.450
 1407SOL    HW2 5121   0.472   3.282   2.387
 1408SOL     OW 5122   5.661   0.846   5.691
 1408SOL    HW1 5123   5.683   0.790   5.611
 1408SOL    HW2 5124   5.572   0.890   5.678
 1409SOL     OW 5125   6.660   0.340   4.747
 1409SOL    HW1 5126   6.724   0.268   4.720
 1409SOL    HW2 5127   6.684   0.374   4.837
 1410SOL     OW 5128   1.269   3.960   6.148
 1410SOL    HW1 5129   1.331   4.036   6.166
 1410SOL    HW2 5130   1.176   3.985   6.176
 1411SOL     OW 5131   3.996   6.851   1.143
 1411SOL    HW1 5132   4.090   6.839   1.176
 1411SOL    HW2 5133   3.995   6.920   1.070
 1412SOL     OW 5134   1.495   1.904   1.010
 1412SOL    HW1 5135   1.535   1.813   0.998
 1412SOL    HW2 5136   1.406   1.896   1.054
 1413SOL     OW 5137   1.645   2.146   5.283
 1413SOL    HW1 5138   1.620   2.057   5.322
 1413SOL    HW2 5139   1.683   2.204   5.355
 1414SOL     OW 5140   2.656   1.061   1.809
 1414SOL    HW1 5141   2.750   1.032   1.790
 1414SOL    HW2 5142   2.657   1.138   1.872
 1415SOL     OW 5143   2.100   1.151   4.300
 1415SOL    HW1 5144   2.156   1.234   4.300
 1415SOL    HW2 5145   2.012   1.169   4.344
 1416SOL     OW 5146   5.238   5.194   4.116
 1416SOL    HW1 5147   5.295   5.123   4.075
 1416SOL    HW2 5148   5.142   5.164   4.115
 1417SOL     OW 5149   3.144   2.483   0.201
 1417SOL    HW1 5150   3.147   2.405   0.138
 1417SOL    HW2 5151   3.179   2.564   0.156
 1418SOL     OW 5152   3.371   4.114   2.886
 1418SOL    HW1 5153   3.399   4.096   2.981
 1418SOL    HW2 5154   3.397   4.207   2.861
 1419SOL     OW 5155   2.812   5.571   3.914
 1419SOL    HW1 5156   2.765   5.539   3.996
 1419SOL    HW2 5157   2.909   5.585   3.934
 1420SOL     OW 5158   2.548   6.838   2.028
 1420SOL    HW1 5159   2.607   6.843   1.947
 1420SOL    HW2 5160   2.456   6.867   2.004
 1421SOL     OW 5161   2.374   4.932   3.282
 1421SOL    HW1 5162   2.358   4.834   3.296
 1421SOL    HW2 5163   2.461   4.945   3.234
 1422SOL     OW 5164   1.308   3.863   0.316
 1422SOL    HW1 5165   1.260   3.916   0.247
 1422SOL    HW2 5166   1.402   3.898   0.326
 1423SOL     OW 5167   5.329   6.257   3.945
 1423SOL    HW1 5168   5.304   6.302   4.030
 1423SOL    HW2 5169   5.330   6.158   3.958
 1424SOL     OW 5170   6.648   4.992   5.731
 1424SOL    HW1 5171   6.673   5.082   5.766
 1424SOL    HW2 5172   6.704   4.970   5.651
 1425SOL     OW 5173   1.802   5.480   5.460
 1425SOL    HW1 5174   1.880   5.541   5.448
 1425SOL    HW2 5175   1.833   5.390   5.491
 1426SOL     OW 5176   2.216   4.225   6.652
 1426SOL    HW1 5177   2.182   4.319   6.642
 1426SOL    HW2 5178   2.189   4.172   6.572
 1427SOL     OW 5179   0.136   0.390   3.288
 1427SOL    HW1 5180   0.153   0.343   3.201
 1427SOL    HW2 5181   0.202   0.358   3.356
 1428SOL     OW 5182   0.393   2.974   6.899
 1428SOL    HW1 5183   0.439   2.953   6.986
 1428SOL    HW2 5184   0.455   2.953   6.823
 1429SOL     OW 5185   4.340   1.619   6.887
 1429SOL    HW1 5186   4.395   1.649   6.965
 1429SOL    HW2 5187   4.391   1.552   6.834
 1430SOL     OW 5188   1.615   4.640   3.358
 1430SOL    HW1 5189   1.601   4.733   3.324
 1430SOL    HW2 5190   1.526   4.597   3.375
 1431SOL     OW 5191   2.649   2.154   0.642
 1431SOL    HW1 5192   2.682   2.117   0.729
 1431SOL    HW2 5193   2.722   2.206   0.598
 1432SOL     OW 5194   2.954   1.504   1.772
 1432SOL    HW1 5195   3.025   1.530   1.707
 1432SOL    HW2 5196   2.889   1.580   1.782
 1433SOL     OW 5197   4.664   0.378   4.999
 1433SOL    HW1 5198   4.587   0.439   5.015
 1433SOL    HW2 5199   4.703   0.396   4.908
 1434SOL     OW 5200   0.668   0.642   5.964
 1434SOL    HW1 5201   0.591   0.586   5.995
 1434SOL    HW2 5202   0.679   0.720   6.026
 1435SOL     OW 5203   6.555   0.109   3.044
 1435SOL    HW1 5204   6.617   0.113   2.966
 1435SOL    HW2 5205   6.541   0.201   3.082
 1436SOL     OW 5206   5.229   4.030   6.698
 1436SOL    HW1 5207   5.324   3.998   6.698
 1436SOL    HW2 5208   5.200   4.047   6.792
 1437SOL     OW 5209   2.802   2.013   4.708
 1437SOL    HW1 5210   2.789   1.922   4.748
 1437SOL    HW2 5211   2.856   2.069   4.770
 1438SOL     OW 5212   2.769   6.226   1.650
 1438SOL    HW1 5213   2.764   6.134   1.611
 1438SOL    HW2 5214   2.677   6.266   1.655
 1439SOL     OW 5215   6.529   5.515   0.837
 1439SOL    HW1 5216   6.576   5.603   0.825
 1439SOL    HW2 5217   6.595   5.441   0.827
 1440SOL     OW 5218   2.830   3.292   0.036
 1440SOL    HW1 5219   2.909   3.347   0.065
 1440SOL    HW2 5220   2.767   3.350   7.014
 1441SOL     OW 5221   6.220   0.613   3.460
 1441SOL    HW1 5222   6.255   0.656   3.377
 1441SOL    HW2 5223   6.136   0.659   3.489
 1442SOL     OW 5224   0.220   6.094   7.004
 1442SOL    HW1 5225   0.282   6.025   6.966
 1442SOL    HW2 5226   0.130   6.054   7.018
 1443SOL     OW 5227   0.609   2.609   4.358
 1443SOL    HW1 5228   0.600   2.668   4.277
 1443SOL    HW2 5229   0.702   2.615   4.394
 1444SOL     OW 5230   5.312   5.660   0.843
 1444SOL    HW1 5231   5.226   5.619   0.873
 1444SOL    HW2 5232   5.298   5.703   0.753
 1445SOL     OW 5233   1.000   2.784   2.946
 1445SOL    HW1 5234   0.908   2.816   2.965
 1445SOL    HW2 5235   1.054   2.783   3.030
 1446SOL     OW 5236   5.990   2.249   0.288
 1446SOL    HW1 5237   5.976   2.192   0.370
 1446SOL    HW2 5238   5.929   2.328   0.292
 1447SOL     OW 5239   6.134   6.612   4.972
 1447SOL    HW1 5240   6.202   6.621   4.899
 1447SOL    HW2 5241   6.151   6.681   5.042
 1448SOL     OW 5242   6.795   2.203   5.416
 1448SOL    HW1 5243   6.716   2.246   5.372
 1448SOL    HW2 5244   6.847   2.273   5.466
 1449SOL     OW 5245   1.004   2.029   6.691
 1449SOL    HW1 5246   0.905   2.043   6.696
 1449SOL    HW2 5247   1.050   2.117   6.681
 1450SOL     OW 5248   0.722   2.646   1.415
 1450SOL    HW1 5249   0.696   2.740   1.395
 1450SOL    HW2 5250   0.795   2.618   1.352
 1451SOL     OW 5251   0.660   6.986   2.291
 1451SOL    HW1 5252   0.591   0.007   2.342
 1451SOL    HW2 5253   0.615   6.920   2.231
 1452SOL     OW 5254   4.325   1.614   4.869
 1452SOL    HW1 5255   4.336   1.574   4.960
 1452SOL    HW2 5256   4.231   1.645   4.858
 1453SOL     OW 5257   6.857   3.558   5.701
 1453SOL    HW1 5258   6.842   3.643   5.751
 1453SOL    HW2 5259   6.946   3.561   5.656
 1454SOL     OW 5260   0.591   2.864   2.420
 1454SOL    HW1 5261   0.638   2.798   2.479
 1454SOL    HW2 5262   0.619   2.956   2.445
 1455SOL     OW 5263   1.592   0.208   1.426
 1455SOL    HW1 5264   1.637   0.119   1.425
 1455SOL    HW2 5265   1.567   0.234   1.332
 1456SOL     OW 5266   0.029   6.152   5.708
 1456SOL    HW1 5267   0.037   6.246   5.675
 1456SOL    HW2 5268   0.028   6.090   5.630
 1457SOL     OW 5269   0.709   6.932   1.476
 1457SOL    HW1 5270   0.640   6.915   1.546
 1457SOL    HW2 5271   0.668   6.919   1.385
 1458SOL     OW 5272   5.691   5.277   4.364
 1458SOL    HW1 5273   5.609   5.262   4.418
 1458SOL    HW2 5274   5.682   5.229   4.276
 1459SOL     OW 5275   3.667   5.758   5.789
 1459SOL    HW1 5276   3.667   5.791   5.694
 1459SOL    HW2 5277   3.628   5.828   5.848
 1460SOL     OW 5278   0.276   6.782   5.331
 1460SOL    HW1 5279   0.238   6.844   5.400
 1460SOL    HW2 5280   0.204   6.718   5.302
 1461SOL     OW 5281   6.196   4.638   2.772
 1461SOL    HW1 5282   6.196   4.648   2.872
 1461SOL    HW2 5283   6.122   4.693   2.734
 1462SOL     OW 5284   1.379   0.488   0.194
 1462SOL    HW1 5285   1.458   0.509   0.252
 1462SOL    HW2 5286   1.341   0.572   0.158
 1463SOL     OW 5287   7.009   5.662   6.260
 1463SOL    HW1 5288   6.920   5.704   6.247
 1463SOL    HW2 5289   7.012   5.575   6.210
 1464SOL     OW 5290   0.282   6.371   2.137
 1464SOL    HW1 5291   0.239   6.456   2.169
 1464SOL    HW2 5292   0.290   6.307   2.213
 1465SOL     OW 5293   1.614   0.455   3.665
 1465SOL    HW1 5294   1.545   0.490   3.602
 1465SOL    HW2 5295   1.656   0.373   3.628
 1466SOL     OW 5296   2.470   2.519   2.507
 1466SOL    HW1 5297   2.470   2.526   2.607
 1466SOL    HW2 5298   2.448   2.608   2.468
 1467SOL     OW 5299   1.869   1.642   2.445
 1467SOL    HW1 5300   1.913   1.651   2.535
 1467SOL    HW2 5301   1.935   1.607   2.379
 1468SOL     OW 5302   3.256   5.873   2.585
 1468SOL    HW1 5303   3.320   5.892   2.511
 1468SOL    HW2 5304   3.303   5.819   2.656
 1469SOL     OW 5305   0.486   1.271   2.240
 1469SOL    HW1 5306   0.511   1.268   2.337
 1469SOL    HW2 5307   0.423   1.347   2.224
 1470SOL     OW 5308   1.065   1.968   2.077
 1470SOL    HW1 5309   1.117   2.025   2.141
 1470SOL    HW2 5310   1.085   1.872   2.095
 1471SOL     OW 5311   0.723   0.015   0.767
 1471SOL    HW1 5312   0.778   6.971   0.807
 1471SOL    HW2 5313   0.688   0.074   0.840
 1472SOL     OW 5314   2.952   5.338   5.429
 1472SOL    HW1 5315   2.867   5.370   5.473
 1472SOL    HW2 5316   2.929   5.287   5.346
 1473SOL     OW 5317   4.425   5.265   5.116
 1473SOL    HW1 5318   4.413   5.282   5.214
 1473SOL    HW2 5319   4.361   5.193   5.087
 1474SOL     OW 5320   5.828   5.380   2.490
 1474SOL    HW1 5321   5.768   5.398   2.569
 1474SOL    HW2 5322   5.805   5.291   2.451
 1475SOL     OW 5323   6.110   0.561   1.587
 1475SOL    HW1 5324   6.099   0.539   1.684
 1475SOL    HW2 5325   6.171   0.639   1.577
 1476SOL     OW 5326   3.405   0.617   1.079
 1476SOL    HW1 5327   3.448   0.642   1.166
 1476SOL    HW2 5328   3.470   0.632   1.005
 1477SOL     OW 5329   3.032   6.977   5.842
 1477SOL    HW1 5330   3.059   7.020   5.756
 1477SOL    HW2 5331   3.066   6.883   5.844
 1478SOL     OW 5332   6.242   5.130   5.799
 1478SOL    HW1 5333   6.301   5.163   5.726
 1478SOL    HW2 5334   6.249   5.191   5.878
 1479SOL     OW 5335   1.728   2.270   0.752
 1479SOL    HW1 5336   1.742   2.171   0.746
 1479SOL    HW2 5337   1.674   2.291   0.834
 1480SOL     OW 5338   3.254   0.714   4.898
 1480SOL    HW1 5339   3.350   0.690   4.913
 1480SOL    HW2 5340   3.243   0.813   4.906
 1481SOL     OW 5341   6.643   3.130   6.647
 1481SOL    HW1 5342   6.651   3.097   6.741
 1481SOL    HW2 5343   6.625   3.052   6.586
 1482SOL     OW 5344   4.050   1.605   2.017
 1482SOL    HW1 5345   4.078   1.665   1.943
 1482SOL    HW2 5346   4.026   1.659   2.098
 1483SOL     OW 5347   4.549   1.869   6.296
 1483SOL    HW1 5348   4.450   1.859   6.302
 1483SOL    HW2 5349   4.583   1.814   6.221
 1484SOL     OW 5350   5.451   4.402   4.313
 1484SOL    HW1 5351   5.507   4.390   4.230
 1484SOL    HW2 5352   5.510   4.430   4.389
 1485SOL     OW 5353   3.919   1.186   4.161
 1485SOL    HW1 5354   3.911   1.219   4.255
 1485SOL    HW2 5355   3.987   1.113   4.157
 1486SOL     OW 5356   5.564   1.125   2.595
 1486SOL    HW1 5357   5.662   1.143   2.597
 1486SOL    HW2 5358   5.515   1.204   2.632
 1487SOL     OW 5359   0.641   2.475   6.886
 1487SOL    HW1 5360   0.618   2.440   6.795
 1487SOL    HW2 5361   0.588   2.426   6.955
 1488SOL     OW 5362   5.271   0.837   3.482
 1488SOL    HW1 5363   5.226   0.882   3.558
 1488SOL    HW2 5364   5.320   0.756   3.515
 1489SOL     OW 5365   3.929   4.783   5.208
 1489SOL    HW1 5366   3.928   4.761   5.110
 1489SOL    HW2 5367   4.012   4.747   5.249
 1490SOL     OW 5368   1.046   3.252   1.569
 1490SOL    HW1 5369   1.069   3.171   1.623
 1490SOL    HW2 5370   1.110   3.261   1.492
 1491SOL     OW 5371   6.074   4.668   2.400
 1491SOL    HW1 5372   6.069   4.633   2.307
 1491SOL    HW2 5373   6.152   4.626   2.447
 1492SOL     OW 5374   6.577   0.986   2.544
 1492SOL    HW1 5375   6.552   0.896   2.578
 1492SOL    HW2 5376   6.677   0.998   2.549
 1493SOL     OW 5377   3.340   6.994   5.552
 1493SOL    HW1 5378   3.315   0.061   5.560
 1493SOL    HW2 5379   3.263   6.943   5.514
 1494SOL     OW 5380   4.772   1.613   6.428
 1494SOL    HW1 5381   4.846   1.623   6.494
 1494SOL    HW2 5382   4.745   1.516   6.424
 1495SOL     OW 5383   0.081   3.176   5.106
 1495SOL    HW1 5384   0.082   3.145   5.010
 1495SOL    HW2 5385   0.098   3.274   5.109
 1496SOL     OW 5386   0.074   1.785   1.732
 1496SOL    HW1 5387   0.164   1.786   1.776
 1496SOL    HW2 5388   0.081   1.823   1.640
 1497SOL     OW 5389   5.749   3.347   2.762
 1497SOL    HW1 5390   5.704   3.311   2.680
 1497SOL    HW2 5391   5.731   3.445   2.769
 1498SOL     OW 5392   2.290   5.124   6.944
 1498SOL    HW1 5393   2.311   5.051   6.880
 1498SOL    HW2 5394   2.358   5.197   6.936
 1499SOL     OW 5395   0.681   2.836   5.510
 1499SOL    HW1 5396   0.682   2.751   5.457
 1499SOL    HW2 5397   0.606   2.835   5.575
 1500SOL     OW 5398   0.293   7.028   6.720
 1500SOL    HW1 5399   0.223   6.985   6.777
 1500SOL    HW2 5400   0.306   6.975   6.637
 1501SOL     OW 5401   4.999   2.422   6.463
 1501SOL    HW1 5402   4.920   2.445   6.405
 1501SOL    HW2 5403   4.971   2.425   6.559
 1502SOL     OW 5404   4.119   0.195   7.006
 1502SOL    HW1 5405   4.077   0.215   6.917
 1502SOL    HW2 5406   4.190   0.126   6.994
 1503SOL     OW 5407   0.890   3.195   1.892
 1503SOL    HW1 5408   0.872   3.180   1.989
 1503SOL    HW2 5409   0.933   3.114   1.853
 1504SOL     OW 5410   0.382   0.177   4.555
 1504SOL    HW1 5411   0.327   0.231   4.619
 1504SOL    HW2 5412   0.457   0.232   4.521
 1505SOL     OW 5413   5.023   0.026   4.751
 1505SOL    HW1 5414   4.983   0.057   4.837
 1505SOL    HW2 5415   5.077   6.973   4.767
 1506SOL     OW 5416   0.728   6.228   0.174
 1506SOL    HW1 5417   0.703   6.141   0.216
 1506SOL    HW2 5418   0.762   6.291   0.244
 1507SOL     OW 5419   0.694   1.758   5.717
 1507SOL    HW1 5420   0.773   1.774   5.658
 1507SOL    HW2 5421   0.670   1.843   5.763
 1508SOL     OW 5422   6.389   1.499   1.572
 1508SOL    HW1 5423   6.363   1.404   1.553
 1508SOL    HW2 5424   6.483   1.514   1.542
 1509SOL     OW 5425   3.888   1.743   5.580
 1509SOL    HW1 5426   3.836   1.795   5.513
 1509SOL    HW2 5427   3.973   1.791   5.601
 1510SOL     OW 5428   4.749   1.694   4.783
 1510SOL    HW1 5429   4.804   1.777   4.792
 1510SOL    HW2 5430   4.653   1.715   4.803
 1511SOL     OW 5431   3.764   3.273   3.379
 1511SOL    HW1 5432   3.796   3.333   3.305
 1511SOL    HW2 5433   3.843   3.227   3.420
 1512SOL     OW 5434   0.168   5.157   0.810
 1512SOL    HW1 5435   0.142   5.251   0.831
 1512SOL    HW2 5436   0.267   5.151   0.797
 1513SOL     OW 5437   4.163   0.624   5.069
 1513SOL    HW1 5438   4.127   0.558   5.003
 1513SOL    HW2 5439   4.091   0.688   5.095
 1514SOL     OW 5440   4.232   2.072   5.612
 1514SOL    HW1 5441   4.188   2.162   5.603
 1514SOL    HW2 5442   4.331   2.085   5.623
 1515SOL     OW 5443   5.909   1.668   2.608
 1515SOL    HW1 5444   5.920   1.661   2.509
 1515SOL    HW2 5445   5.933   1.581   2.650
 1516SOL     OW 5446   0.040   6.000   6.529
 1516SOL    HW1 5447   0.108   6.038   6.467
 1516SOL    HW2 5448   0.044   5.900   6.526
 1517SOL     OW 5449   4.357   6.011   3.261
 1517SOL    HW1 5450   4.387   6.003   3.356
 1517SOL    HW2 5451   4.304   6.095   3.249
 1518SOL     OW 5452   1.046   2.330   0.697
 1518SOL    HW1 5453   1.099   2.279   0.630
 1518SOL    HW2 5454   0.971   2.377   0.651
 1519SOL     OW 5455   6.738   4.857   1.693
 1519SOL    HW1 5456   6.774   4.768   1.666
 1519SOL    HW2 5457   6.806   4.928   1.674
 1520SOL     OW 5458   6.940   4.119   1.929
 1520SOL    HW1 5459   6.994   4.142   2.010
 1520SOL    HW2 5460   6.899   4.202   1.892
 1521SOL     OW 5461   1.721   3.826   6.205
 1521SOL    HW1 5462   1.765   3.801   6.291
 1521SOL    HW2 5463   1.764   3.909   6.168
 1522SOL     OW 5464   5.381   6.341   5.101
 1522SOL    HW1 5465   5.349   6.258   5.146
 1522SOL    HW2 5466   5.466   6.321   5.051
 1523SOL     OW 5467   4.753   5.729   0.419
 1523SOL    HW1 5468   4.752   5.629   0.410
 1523SOL    HW2 5469   4.692   5.756   0.494
 1524SOL     OW 5470   2.641   2.024   2.183
 1524SOL    HW1 5471   2.640   2.122   2.199
 1524SOL    HW2 5472   2.550   1.994   2.152
 1525SOL     OW 5473   6.946   3.224   0.593
 1525SOL    HW1 5474   0.013   3.203   0.582
 1525SOL    HW2 5475   6.891   3.154   0.548
 1526SOL     OW 5476   0.370   0.816   6.969
 1526SOL    HW1 5477   0.468   0.829   6.984
 1526SOL    HW2 5478   0.339   0.736   7.022
 1527SOL     OW 5479   4.469   0.446   4.728
 1527SOL    HW1 5480   4.517   0.534   4.724
 1527SOL    HW2 5481   4.455   0.412   4.634
 1528SOL     OW 5482   4.110   5.022   2.523
 1528SOL    HW1 5483   4.155   5.099   2.477
 1528SOL    HW2 5484   4.179   4.957   2.554
 1529SOL     OW 5485   4.669   0.560   0.313
 1529SOL    HW1 5486   4.669   0.547   0.412
 1529SOL    HW2 5487   4.589   0.613   0.286
 1530SOL     OW 5488   3.681   2.001   1.848
 1530SOL    HW1 5489   3.683   2.094   1.886
 1530SOL    HW2 5490   3.763   1.952   1.877
 1531SOL     OW 5491   4.576   0.230   5.598
 1531SOL    HW1 5492   4.560   0.133   5.586
 1531SOL    HW2 5493   4.666   0.244   5.639
 1532SOL     OW 5494   3.006   3.153   6.751
 1532SOL    HW1 5495   2.999   3.252   6.740
 1532SOL    HW2 5496   3.052   3.132   6.837
 1533SOL     OW 5497   6.230   4.372   6.620
 1533SOL    HW1 5498   6.228   4.274   6.641
 1533SOL    HW2 5499   6.145   4.398   6.574
 1534SOL     OW 5500   2.519   4.978   0.061
 1534SOL    HW1 5501   2.426   5.014   0.062
 1534SOL    HW2 5502   2.548   4.962   6.996
 1535SOL     OW 5503   4.972   6.400   4.476
 1535SOL    HW1 5504   4.907   6.459   4.429
 1535SOL    HW2 5505   5.021   6.452   4.546
 1536SOL     OW 5506   3.474   4.642   5.874
 1536SOL    HW1 5507   3.545   4.650   5.804
 1536SOL    HW2 5508   3.500   4.693   5.955
 1537SOL     OW 5509   4.651   6.146   3.817
 1537SOL    HW1 5510   4.628   6.069   3.876
 1537SOL    HW2 5511   4.712   6.115   3.744
 1538SOL     OW 5512   3.577   6.282   6.939
 1538SOL    HW1 5513   3.576   6.335   7.023
 1538SOL    HW2 5514   3.491   6.231   6.930
 1539SOL     OW 5515   4.831   4.022   1.604
 1539SOL    HW1 5516   4.916   3.974   1.580
 1539SOL    HW2 5517   4.754   3.959   1.595
 1540SOL     OW 5518   0.851   6.090   5.393
 1540SOL    HW1 5519   0.922   6.096   5.322
 1540SOL    HW2 5520   0.886   6.038   5.470
 1541SOL     OW 5521   3.684   2.898   3.671
 1541SOL    HW1 5522   3.693   2.818   3.729
 1541SOL    HW2 5523   3.757   2.963   3.692
 1542SOL     OW 5524   6.063   6.744   2.850
 1542SOL    HW1 5525   6.095   6.827   2.896
 1542SOL    HW2 5526   6.037   6.676   2.918
 1543SOL     OW 5527   3.020   5.215   5.193
 1543SOL    HW1 5528   3.094   5.245   5.254
 1543SOL    HW2 5529   3.054   5.146   5.130
 1544SOL     OW 5530   2.952   3.447   2.595
 1544SOL    HW1 5531   2.906   3.488   2.516
 1544SOL    HW2 5532   3.040   3.491   2.608
 1545SOL     OW 5533   5.310   0.725   3.210
 1545SOL    HW1 5534   5.282   0.742   3.304
 1545SOL    HW2 5535   5.241   0.763   3.148
 1546SOL     OW 5536   3.874   6.931   6.037
 1546SOL    HW1 5537   3.884   6.837   6.006
 1546SOL    HW2 5538   3.872   6.992   5.957
 1547SOL     OW 5539   1.768   4.084   2.730
 1547SOL    HW1 5540   1.689   4.052   2.782
 1547SOL    HW2 5541   1.818   4.151   2.785
 1548SOL     OW 5542   5.235   4.048   5.880
 1548SOL    HW1 5543   5.302   4.100   5.934
 1548SOL    HW2 5544   5.193   3.979   5.938
 1549SOL     OW 5545   4.772   1.219   2.304
 1549SOL    HW1 5546   4.694   1.229   2.241
 1549SOL    HW2 5547   4.762   1.285   2.378
 1550SOL     OW 5548   3.257   3.714   0.240
 1550SOL    HW1 5549   3.295   3.663   0.162
 1550SOL    HW2 5550   3.328   3.727   0.309
 1551SOL     OW 5551   2.472   4.412   5.997
 1551SOL    HW1 5552   2.494   4.332   5.942
 1551SOL    HW2 5553   2.373   4.426   5.999
 1552SOL     OW 5554   0.681   5.995   0.292
 1552SOL    HW1 5555   0.587   5.975   0.319
 1552SOL    HW2 5556   0.702   5.949   0.206
 1553SOL     OW 5557   0.194   1.828   5.561
 1553SOL    HW1 5558   0.122   1.761   5.580
 1553SOL    HW2 5559   0.278   1.802   5.610
 1554SOL     OW 5560   4.033   2.202   2.913
 1554SOL    HW1 5561   4.082   2.234   2.995
 1554SOL    HW2 5562   4.100   2.179   2.842
 1555SOL     OW 5563   4.933   2.458   6.738
 1555SOL    HW1 5564   4.845   2.504   6.728
 1555SOL    HW2 5565   4.959   2.457   6.835
 1556SOL     OW 5566   3.868   1.593   0.485
 1556SOL    HW1 5567   3.934   1.605   0.410
 1556SOL    HW2 5568   3.784   1.641   0.462
 1557SOL     OW 5569   2.587   2.093   6.351
 1557SOL    HW1 5570   2.637   2.087   6.264
 1557SOL    HW2 5571   2.504   2.038   6.346
 1558SOL     OW 5572   5.324   0.732   4.605
 1558SOL    HW1 5573   5.357   0.695   4.692
 1558SOL    HW2 5574   5.261   0.666   4.564
 1559SOL     OW 5575   0.807   2.421   0.225
 1559SOL    HW1 5576   0.767   2.498   0.176
 1559SOL    HW2 5577   0.894   2.396   0.183
 1560SOL     OW 5578   0.850   1.024   6.057
 1560SOL    HW1 5579   0.908   0.966   6.000
 1560SOL    HW2 5580   0.778   1.064   6.000
 1561SOL     OW 5581   6.418   6.692   3.940
 1561SOL    HW1 5582   6.377   6.623   3.999
 1561SOL    HW2 5583   6.353   6.766   3.924
 1562SOL     OW 5584   3.949   5.759   3.257
 1562SOL    HW1 5585   3.995   5.740   3.170
 1562SOL    HW2 5586   3.978   5.849   3.290
 1563SOL     OW 5587   1.794   0.110   6.199
 1563SOL    HW1 5588   1.832   0.023   6.167
 1563SOL    HW2 5589   1.694   0.108   6.191
 1564SOL     OW 5590   1.146   2.832   3.414
 1564SOL    HW1 5591   1.223   2.895   3.406
 1564SOL    HW2 5592   1.124   2.818   3.510
 1565SOL     OW 5593   4.183   5.053   4.727
 1565SOL    HW1 5594   4.219   5.143   4.751
 1565SOL    HW2 5595   4.175   4.998   4.810
 1566SOL     OW 5596   5.698   4.936   3.087
 1566SOL    HW1 5597   5.675   4.839   3.078
 1566SOL    HW2 5598   5.621   4.991   3.053
 1567SOL     OW 5599   5.929   5.766   0.411
 1567SOL    HW1 5600   6.013   5.806   0.373
 1567SOL    HW2 5601   5.907   5.811   0.497
 1568SOL     OW 5602   1.764   6.234   0.821
 1568SOL    HW1 5603   1.774   6.139   0.792
 1568SOL    HW2 5604   1.688   6.241   0.886
 1569SOL     OW 5605   4.211   6.115   3.625
 1569SOL    HW1 5606   4.162   6.063   3.696
 1569SOL    HW2 5607   4.267   6.052   3.571
 1570SOL     OW 5608   1.775   0.061   0.414
 1570SOL    HW1 5609   1.685   0.021   0.429
 1570SOL    HW2 5610   1.835   0.038   0.490
 1571SOL     OW 5611   5.362   1.928   1.374
 1571SOL    HW1 5612   5.273   1.907   1.414
 1571SOL    HW2 5613   5.353   2.000   1.306
 1572SOL     OW 5614   0.886   6.857   0.898
 1572SOL    HW1 5615   0.823   6.790   0.936
 1572SOL    HW2 5616   0.934   6.904   0.972
 1573SOL     OW 5617   5.357   3.559   1.426
 1573SOL    HW1 5618   5.388   3.580   1.518
 1573SOL    HW2 5619   5.357   3.459   1.413
 1574SOL     OW 5620   6.882   0.834   1.883
 1574SOL    HW1 5621   6.974   0.821   1.918
 1574SOL    HW2 5622   6.854   0.929   1.898
 1575SOL     OW 5623   3.921   1.418   1.037
 1575SOL    HW1 5624   3.852   1.353   1.067
 1575SOL    HW2 5625   4.000   1.369   1.001
 1576SOL     OW 5626   1.695   6.765   3.646
 1576SOL    HW1 5627   1.614   6.755   3.589
 1576SOL    HW2 5628   1.722   6.861   3.648
 1577SOL     OW 5629   3.082   1.412   4.968
 1577SOL    HW1 5630   3.059   1.371   4.879
 1577SOL    HW2 5631   2.999   1.448   5.011
 1578SOL     OW 5632   6.463   3.008   5.702
 1578SOL    HW1 5633   6.516   2.923   5.699
 1578SOL    HW2 5634   6.434   3.031   5.609
 1579SOL     OW 5635   0.281   1.445   2.144
 1579SOL    HW1 5636   0.234   1.399   2.219
 1579SOL    HW2 5637   0.266   1.394   2.059
 1580SOL     OW 5638   2.948   3.912   5.143
 1580SOL    HW1 5639   3.034   3.960   5.161
 1580SOL    HW2 5640   2.951   3.871   5.052
 1581SOL     OW 5641   0.638   3.643   4.744
 1581SOL    HW1 5642   0.722   3.652   4.690
 1581SOL    HW2 5643   0.621   3.727   4.795
 1582SOL     OW 5644   1.196   0.004   3.750
 1582SOL    HW1 5645   1.224   6.959   3.811
 1582SOL    HW2 5646   1.145   0.072   3.803
 1583SOL     OW 5647   1.192   4.817   3.607
 1583SOL    HW1 5648   1.115   4.779   3.657
 1583SOL    HW2 5649   1.277   4.774   3.639
 1584SOL     OW 5650   1.205   6.945   5.338
 1584SOL    HW1 5651   1.225   6.885   5.416
 1584SOL    HW2 5652   1.136   6.902   5.280
 1585SOL     OW 5653   6.048   1.830   3.873
 1585SOL    HW1 5654   6.101   1.802   3.793
 1585SOL    HW2 5655   5.954   1.850   3.846
 1586SOL     OW 5656   3.624   4.875   1.723
 1586SOL    HW1 5657   3.616   4.781   1.755
 1586SOL    HW2 5658   3.567   4.934   1.780
 1587SOL     OW 5659   3.095   6.057   6.584
 1587SOL    HW1 5660   3.175   6.030   6.638
 1587SOL    HW2 5661   3.094   6.156   6.573
 1588SOL     OW 5662   4.717   1.421   3.229
 1588SOL    HW1 5663   4.666   1.371   3.300
 1588SOL    HW2 5664   4.728   1.516   3.257
 1589SOL     OW 5665   5.725   3.906   1.418
 1589SOL    HW1 5666   5.632   3.868   1.413
 1589SOL    HW2 5667   5.788   3.845   1.371
 1590SOL     OW 5668   3.369   6.129   6.384
 1590SOL    HW1 5669   3.456   6.162   6.420
 1590SOL    HW2 5670   3.349   6.039   6.421
 1591SOL     OW 5671   6.467   5.198   2.905
 1591SOL    HW1 5672   6.440   5.263   2.976
 1591SOL    HW2 5673   6.496   5.248   2.823
 1592SOL     OW 5674   2.106   4.303   0.378
 1592SOL    HW1 5675   2.175   4.233   0.398
 1592SOL    HW2 5676   2.039   4.266   0.314
 1593SOL     OW 5677   1.129   6.756   4.228
 1593SOL    HW1 5678   1.221   6.728   4.257
 1593SOL    HW2 5679   1.065   6.682   4.245
 1594SOL     OW 5680   0.278   6.167   2.336
 1594SOL    HW1 5681   0.281   6.079   2.383
 1594SOL    HW2 5682   0.345   6.229   2.377
 1595SOL     OW 5683   1.152   5.604   0.182
 1595SOL    HW1 5684   1.172   5.530   0.118
 1595SOL    HW2 5685   1.192   5.582   0.271
 1596SOL     OW 5686   0.382   2.763   4.098
 1596SOL    HW1 5687   0.350   2.727   4.011
 1596SOL    HW2 5688   0.313   2.824   4.136
 1597SOL     OW 5689   1.821   6.306   6.897
 1597SOL    HW1 5690   1.878   6.319   6.816
 1597SOL    HW2 5691   1.759   6.229   6.882
 1598SOL     OW 5692   0.773   3.641   6.256
 1598SOL    HW1 5693   0.843   3.594   6.202
 1598SOL    HW2 5694   0.700   3.673   6.197
 1599SOL     OW 5695   4.471   4.506   5.703
 1599SOL    HW1 5696   4.448   4.532   5.609
 1599SOL    HW2 5697   4.547   4.561   5.736
 1600SOL     OW 5698   5.370   1.593   4.611
 1600SOL    HW1 5699   5.431   1.666   4.581
 1600SOL    HW2 5700   5.275   1.618   4.592
 1601SOL     OW 5701   0.023   4.933   4.803
 1601SOL    HW1 5702   7.010   4.885   4.727
 1601SOL    HW2 5703   0.087   5.001   4.768
 1602SOL     OW 5704   2.403   5.202   3.693
 1602SOL    HW1 5705   2.489   5.196   3.642
 1602SOL    HW2 5706   2.355   5.114   3.688
 1603SOL     OW 5707   6.761   6.262   2.565
 1603SOL    HW1 5708   6.840   6.324   2.559
 1603SOL    HW2 5709   6.792   6.167   2.561
 1604SOL     OW 5710   6.253   4.609   0.768
 1604SOL    HW1 5711   6.232   4.617   0.670
 1604SOL    HW2 5712   6.312   4.530   0.783
 1605SOL     OW 5713   6.827   6.476   1.897
 1605SOL    HW1 5714   6.853   6.389   1.939
 1605SOL    HW2 5715   6.728   6.488   1.905
 1606SOL     OW 5716   3.546   0.646   4.987
 1606SOL    HW1 5717   3.557   0.559   5.035
 1606SOL    HW2 5718   3.577   0.720   5.046
 1607SOL     OW 5719   3.843   2.117   0.928
 1607SOL    HW1 5720   3.907   2.044   0.903
 1607SOL    HW2 5721   3.751   2.092   0.900
 1608SOL     OW 5722   1.041   0.192   4.244
 1608SOL    HW1 5723   0.990   0.177   4.159
 1608SOL    HW2 5724   1.025   0.115   4.306
 1609SOL     OW 5725   3.935   0.386   0.562
 1609SOL    HW1 5726   3.890   0.475   0.555
 1609SOL    HW2 5727   3.873   0.315   0.527
 1610SOL     OW 5728   5.650   4.650   6.907
 1610SOL    HW1 5729   5.622   4.564   6.864
 1610SOL    HW2 5730   5.646   4.640   7.007
 1611SOL     OW 5731   2.459   3.754   1.654
 1611SOL    HW1 5732   2.525   3.680   1.638
 1611SOL    HW2 5733   2.508   3.836   1.684
 1612SOL     OW 5734   2.345   0.584   5.275
 1612SOL    HW1 5735   2.349   0.607   5.177
 1612SOL    HW2 5736   2.395   0.652   5.327
 1613SOL     OW 5737   1.812   5.377   1.551
 1613SOL    HW1 5738   1.909   5.380   1.575
 1613SOL    HW2 5739   1.795   5.298   1.492
 1614SOL     OW 5740   6.213   3.334   6.923
 1614SOL    HW1 5741   6.202   3.380   6.835
 1614SOL    HW2 5742   6.274   3.255   6.913
 1615SOL     OW 5743   6.730   5.353   0.912
 1615SOL    HW1 5744   6.692   5.346   1.004
 1615SOL    HW2 5745   6.814   5.299   0.906
 1616SOL     OW 5746   3.505   2.011   5.196
 1616SOL    HW1 5747   3.416   2.047   5.225
 1616SOL    HW2 5748   3.519   2.031   5.099
 1617SOL     OW 5749   6.097   0.603   2.112
 1617SOL    HW1 5750   6.022   0.626   2.175
 1617SOL    HW2 5751   6.184   0.619   2.158
 1618SOL     OW 5752   1.439   4.224   1.999
 1618SOL    HW1 5753   1.436   4.308   2.054
 1618SOL    HW2 5754   1.532   4.188   1.999
 1619SOL     OW 5755   0.651   2.361   2.487
 1619SOL    HW1 5756   0.698   2.400   2.566
 1619SOL    HW2 5757   0.594   2.431   2.444
 1620SOL     OW 5758   2.815   5.295   1.339
 1620SOL    HW1 5759   2.750   5.249   1.278
 1620SOL    HW2 5760   2.896   5.238   1.350
 1621SOL     OW 5761   0.384   1.526   0.656
 1621SOL    HW1 5762   0.317   1.540   0.729
 1621SOL    HW2 5763   0.469   1.490   0.695
 1622SOL     OW 5764   0.336   2.634   4.655
 1622SOL    HW1 5765   0.368   2.545   4.686
 1622SOL    HW2 5766   0.380   2.657   4.569
 1623SOL     OW 5767   2.317   3.548   5.393
 1623SOL    HW1 5768   2.265   3.514   5.314
 1623SOL    HW2 5769   2.378   3.621   5.363
 1624SOL     OW 5770   2.462   1.212   5.118
 1624SOL    HW1 5771   2.418   1.151   5.183
 1624SOL    HW2 5772   2.561   1.207   5.129
 1625SOL     OW 5773   1.260   5.712   1.712
 1625SOL    HW1 5774   1.178   5.770   1.713
 1625SOL    HW2 5775   1.266   5.661   1.798
 1626SOL     OW 5776   3.304   2.429   6.178
 1626SOL    HW1 5777   3.249   2.346   6.169
 1626SOL    HW2 5778   3.355   2.445   6.094
 1627SOL     OW 5779   6.275   2.802   3.774
 1627SOL    HW1 5780   6.294   2.882   3.716
 1627SOL    HW2 5781   6.232   2.833   3.859
 1628SOL     OW 5782   4.506   4.598   0.327
 1628SOL    HW1 5783   4.417   4.641   0.313
 1628SOL    HW2 5784   4.520   4.584   0.425
 1629SOL     OW 5785   2.768   1.220   3.751
 1629SOL    HW1 5786   2.841   1.220   3.820
 1629SOL    HW2 5787   2.731   1.312   3.741
 1630SOL     OW 5788   1.313   5.975   5.738
 1630SOL    HW1 5789   1.362   5.977   5.825
 1630SOL    HW2 5790   1.376   5.947   5.665
 1631SOL     OW 5791   0.530   1.734   6.625
 1631SOL    HW1 5792   0.623   1.746   6.589
 1631SOL    HW2 5793   0.484   1.662   6.573
 1632SOL     OW 5794   0.251   1.767   6.776
 1632SOL    HW1 5795   0.349   1.773   6.755
 1632SOL    HW2 5796   0.230   1.676   6.812
 1633SOL     OW 5797   4.960   2.410   4.264
 1633SOL    HW1 5798   4.886   2.435   4.201
 1633SOL    HW2 5799   4.921   2.363   4.343
 1634SOL     OW 5800   4.240   5.011   0.064
 1634SOL    HW1 5801   4.258   5.110   0.064
 1634SOL    HW2 5802   4.205   4.984   0.154
 1635SOL     OW 5803   0.110   6.011   5.927
 1635SOL    HW1 5804   0.084   6.070   5.850
 1635SOL    HW2 5805   0.180   6.057   5.981
 1636SOL     OW 5806   2.772   4.000   1.454
 1636SOL    HW1 5807   2.840   4.042   1.394
 1636SOL    HW2 5808   2.729   3.922   1.408
 1637SOL     OW 5809   0.254   0.276   3.509
 1637SOL    HW1 5810   0.344   0.265   3.553
 1637SOL    HW2 5811   0.190   0.314   3.576
 1638SOL     OW 5812   0.425   4.378   3.849
 1638SOL    HW1 5813   0.463   4.434   3.776
 1638SOL    HW2 5814   0.425   4.431   3.934
 1639SOL     OW 5815   4.519   0.057   2.869
 1639SOL    HW1 5816   4.481   0.086   2.957
 1639SOL    HW2 5817   4.456   7.023   2.824
 1640SOL     OW 5818   5.784   1.665   0.768
 1640SOL    HW1 5819   5.687   1.664   0.744
 1640SOL    HW2 5820   5.809   1.576   0.805
 1641SOL     OW 5821   5.057   2.548   4.468
 1641SOL    HW1 5822   4.989   2.516   4.534
 1641SOL    HW2 5823   5.035   2.513   4.377
 1642SOL     OW 5824   6.327   3.969   6.176
 1642SOL    HW1 5825   6.368   3.997   6.089
 1642SOL    HW2 5826   6.249   3.909   6.159
 1643SOL     OW 5827   2.919   4.933   3.710
 1643SOL    HW1 5828   2.872   4.929   3.798
 1643SOL    HW2 5829   2.887   5.013   3.659
 1644SOL     OW 5830   0.362   2.955   1.362
 1644SOL    HW1 5831   0.446   2.917   1.324
 1644SOL    HW2 5832   0.290   2.885   1.360
 1645SOL     OW 5833   2.922   5.550   5.808
 1645SOL    HW1 5834   2.881   5.572   5.896
 1645SOL    HW2 5835   2.985   5.623   5.781
 1646SOL     OW 5836   2.726   5.415   0.743
 1646SOL    HW1 5837   2.682   5.492   0.695
 1646SOL    HW2 5838   2.682   5.330   0.715
 1647SOL     OW 5839   6.284   2.741   4.730
 1647SOL    HW1 5840   6.298   2.709   4.823
 1647SOL    HW2 5841   6.187   2.733   4.706
 1648SOL     OW 5842   6.178   6.022   0.659
 1648SOL    HW1 5843   6.260   6.077   0.643
 1648SOL    HW2 5844   6.107   6.079   0.701
 1649SOL     OW 5845   3.574   0.038   4.740
 1649SOL    HW1 5846   3.575   6.969   4.723
 1649SOL    HW2 5847   3.667   0.069   4.761
 1650SOL     OW 5848   1.963   6.616   5.629
 1650SOL    HW1 5849   1.992   6.704   5.666
 1650SOL    HW2 5850   1.983   6.544   5.695
 1651SOL     OW 5851   0.539   1.567   1.857
 1651SOL    HW1 5852   0.625   1.563   1.909
 1651SOL    HW2 5853   0.555   1.532   1.765
 1652SOL     OW 5854   1.530   3.234   1.962
 1652SOL    HW1 5855   1.468   3.218   1.885
 1652SOL    HW2 5856   1.570   3.325   1.955
 1653SOL     OW 5857   1.104   6.862   1.271
 1653SOL    HW1 5858   1.131   6.904   1.358
 1653SOL    HW2 5859   1.042   6.924   1.222
 1654SOL     OW 5860   6.491   3.329   2.261
 1654SOL    HW1 5861   6.496   3.429   2.261
 1654SOL    HW2 5862   6.572   3.292   2.218
 1655SOL     OW 5863   6.210   2.214   5.286
 1655SOL    HW1 5864   6.155   2.251   5.212
 1655SOL    HW2 5865   6.151   2.195   5.365
 1656SOL     OW 5866   2.427   4.472   2.345
 1656SOL    HW1 5867   2.400   4.546   2.283
 1656SOL    HW2 5868   2.412   4.384   2.299
 1657SOL     OW 5869   6.813   0.771   4.061
 1657SOL    HW1 5870   6.880   0.811   3.998
 1657SOL    HW2 5871   6.721   0.795   4.032
 1658SOL     OW 5872   0.905   0.123   1.521
 1658SOL    HW1 5873   0.844   0.045   1.508
 1658SOL    HW2 5874   0.853   0.208   1.519
 1659SOL     OW 5875   3.838   1.032   5.499
 1659SOL    HW1 5876   3.838   0.932   5.508
 1659SOL    HW2 5877   3.828   1.073   5.590
 1660SOL     OW 5878   1.076   5.354   3.994
 1660SOL    HW1 5879   1.027   5.299   3.927
 1660SOL    HW2 5880   1.017   5.430   4.024
 1661SOL     OW 5881   3.474   1.685   2.287
 1661SOL    HW1 5882   3.392   1.642   2.325
 1661SOL    HW2 5883   3.459   1.707   2.191
 1662SOL     OW 5884   6.568   0.839   3.946
 1662SOL    HW1 5885   6.499   0.776   3.983
 1662SOL    HW2 5886   6.528   0.929   3.934
 1663SOL     OW 5887   3.601   0.558   2.887
 1663SOL    HW1 5888   3.546   0.612   2.822
 1663SOL    HW2 5889   3.664   0.500   2.837
 1664SOL     OW 5890   2.535   6.799   3.995
 1664SOL    HW1 5891   2.457   6.753   4.037
 1664SOL    HW2 5892   2.530   6.789   3.896
 1665SOL     OW 5893   0.489   1.021   3.372
 1665SOL    HW1 5894   0.500   1.067   3.460
 1665SOL    HW2 5895   0.430   1.076   3.313
 1666SOL     OW 5896   5.397   3.398   0.511
 1666SOL    HW1 5897   5.445   3.397   0.599
 1666SOL    HW2 5898   5.444   3.339   0.446
 1667SOL     OW 5899   6.615   6.684   1.362
 1667SOL    HW1 5900   6.572   6.764   1.405
 1667SOL    HW2 5901   6.694   6.715   1.308
 1668SOL     OW 5902   5.247   5.919   5.492
 1668SOL    HW1 5903   5.189   5.998   5.472
 1668SOL    HW2 5904   5.190   5.843   5.526
 1669SOL     OW 5905   6.600   6.139   6.327
 1669SOL    HW1 5906   6.619   6.203   6.252
 1669SOL    HW2 5907   6.517   6.169   6.375
 1670SOL     OW 5908   6.996   4.625   6.464
 1670SOL    HW1 5909   6.903   4.590   6.475
 1670SOL    HW2 5910   7.007   4.661   6.372
 1671SOL     OW 5911   4.530   2.901   0.909
 1671SOL    HW1 5912   4.613   2.874   0.957
 1671SOL    HW2 5913   4.477   2.963   0.967
 1672SOL     OW 5914   1.795   3.566   1.485
 1672SOL    HW1 5915   1.783   3.471   1.514
 1672SOL    HW2 5916   1.711   3.617   1.503
 1673SOL     OW 5917   6.781   2.151   4.210
 1673SOL    HW1 5918   6.703   2.132   4.269
 1673SOL    HW2 5919   6.816   2.065   4.172
 1674SOL     OW 5920   0.719   4.059   2.724
 1674SOL    HW1 5921   0.776   4.082   2.645
 1674SOL    HW2 5922   0.677   3.970   2.710
 1675SOL     OW 5923   4.415   0.448   5.625
 1675SOL    HW1 5924   4.464   0.361   5.617
 1675SOL    HW2 5925   4.316   0.431   5.621
 1676SOL     OW 5926   2.272   1.303   2.060
 1676SOL    HW1 5927   2.179   1.296   2.098
 1676SOL    HW2 5928   2.268   1.307   1.961
 1677SOL     OW 5929   3.897   3.605   5.600
 1677SOL    HW1 5930   3.890   3.540   5.675
 1677SOL    HW2 5931   3.879   3.697   5.634
 1678SOL     OW 5932   5.051   4.760   5.067
 1678SOL    HW1 5933   5.100   4.760   4.980
 1678SOL    HW2 5934   5.052   4.853   5.105
 1679SOL     OW 5935   2.190   3.216   5.065
 1679SOL    HW1 5936   2.262   3.157   5.101
 1679SOL    HW2 5937   2.153   3.176   4.982
 1680SOL     OW 5938   0.391   2.727   4.395
 1680SOL    HW1 5939   0.473   2.670   4.405
 1680SOL    HW2 5940   0.386   2.763   4.302
 1681SOL     OW 5941   6.383   5.944   0.430
 1681SOL    HW1 5942   6.368   5.897   0.516
 1681SOL    HW2 5943   6.477   5.930   0.399
 1682SOL     OW 5944   0.445   2.050   4.930
 1682SOL    HW1 5945   0.361   2.020   4.884
 1682SOL    HW2 5946   0.508   2.090   4.863
 1683SOL     OW 5947   4.140   5.604   1.220
 1683SOL    HW1 5948   4.216   5.609   1.285
 1683SOL    HW2 5949   4.107   5.510   1.214
 1684SOL     OW 5950   1.204   6.332   3.150
 1684SOL    HW1 5951   1.165   6.380   3.072
 1684SOL    HW2 5952   1.296   6.368   3.169
 1685SOL     OW 5953   2.601   0.992   6.131
 1685SOL    HW1 5954   2.588   1.037   6.043
 1685SOL    HW2 5955   2.522   0.933   6.150
 1686SOL     OW 5956   2.290   5.102   5.305
 1686SOL    HW1 5957   2.241   5.045   5.371
 1686SOL    HW2 5958   2.233   5.181   5.281
 1687SOL     OW 5959   2.422   3.281   1.361
 1687SOL    HW1 5960   2.491   3.343   1.398
 1687SOL    HW2 5961   2.423   3.285   1.261
 1688SOL     OW 5962   1.569   2.557   3.802
 1688SOL    HW1 5963   1.613   2.558   3.892
 1688SOL    HW2 5964   1.524   2.469   3.788
 1689SOL     OW 5965   4.518   0.888   2.473
 1689SOL    HW1 5966   4.547   0.964   2.532
 1689SOL    HW2 5967   4.446   0.836   2.518
 1690SOL     OW 5968   1.673   3.198   3.519
 1690SOL    HW1 5969   1.739   3.231   3.452
 1690SOL    HW2 5970   1.601   3.266   3.530
 1691SOL     OW 5971   5.456   4.218   3.311
 1691SOL    HW1 5972   5.431   4.240   3.217
 1691SOL    HW2 5973   5.552   4.242   3.327
 1692SOL     OW 5974   5.405   0.666   1.528
 1692SOL    HW1 5975   5.371   0.572   1.518
 1692SOL    HW2 5976   5.387   0.698   1.622
 1693SOL     OW 5977   6.985   2.235   2.684
 1693SOL    HW1 5978   6.963   2.200   2.776
 1693SOL    HW2 5979   6.978   2.160   2.618
 1694SOL     OW 5980   5.346   0.599   3.612
 1694SOL    HW1 5981   5.349   0.503   3.638
 1694SOL    HW2 5982   5.437   0.630   3.585
 1695SOL     OW 5983   2.717   1.553   5.993
 1695SOL    HW1 5984   2.673   1.619   5.933
 1695SOL    HW2 5985   2.689   1.570   6.088
 1696SOL     OW 5986   4.931   4.702   0.734
 1696SOL    HW1 5987   4.924   4.751   0.647
 1696SOL    HW2 5988   4.997   4.748   0.793
 1697SOL     OW 5989   5.501   6.587   1.661
 1697SOL    HW1 5990   5.503   6.497   1.616
 1697SOL    HW2 5991   5.557   6.585   1.743
 1698SOL     OW 5992   5.480   1.021   0.560
 1698SOL    HW1 5993   5.511   1.105   0.516
 1698SOL    HW2 5994   5.559   0.964   0.583
 1699SOL     OW 5995   2.945   1.336   0.965
 1699SOL    HW1 5996   2.993   1.411   1.011
 1699SOL    HW2 5997   2.856   1.323   1.007
 1700SOL     OW 5998   6.137   2.557   3.264
 1700SOL    HW1 5999   6.172   2.602   3.346
 1700SOL    HW2 6000   6.096   2.626   3.204
 1701SOL     OW 6001   5.660   3.795   5.993
 1701SOL    HW1 6002   5.622   3.804   5.901
 1701SOL    HW2 6003   5.760   3.807   5.989
 1702SOL     OW 6004   6.543   3.093   0.526
 1702SOL    HW1 6005   6.486   3.094   0.443
 1702SOL    HW2 6006   6.499   3.037   0.596
 1703SOL     OW 6007   4.130   3.210   2.785
 1703SOL    HW1 6008   4.104   3.117   2.808
 1703SOL    HW2 6009   4.164   3.256   2.867
 1704SOL     OW 6010   0.775   1.286   2.108
 1704SOL    HW1 6011   0.683   1.248   2.114
 1704SOL    HW2 6012   0.813   1.295   2.200
 1705SOL     OW 6013   3.461   2.605   1.525
 1705SOL    HW1 6014   3.367   2.628   1.497
 1705SOL    HW2 6015   3.510   2.567   1.446
 1706SOL     OW 6016   4.827   0.256   1.412
 1706SOL    HW1 6017   4.749   0.259   1.475
 1706SOL    HW2 6018   4.847   0.349   1.381
 1707SOL     OW 6019   4.670   1.927   2.678
 1707SOL    HW1 6020   4.587   1.925   2.622
 1707SOL    HW2 6021   4.658   1.869   2.758
 1708SOL     OW 6022   4.865   4.888   2.224
 1708SOL    HW1 6023   4.901   4.803   2.264
 1708SOL    HW2 6024   4.938   4.933   2.172
 1709SOL     OW 6025   2.225   5.756   1.551
 1709SOL    HW1 6026   2.282   5.809   1.489
 1709SOL    HW2 6027   2.144   5.808   1.575
 1710SOL     OW 6028   5.683   4.814   3.762
 1710SOL    HW1 6029   5.758   4.784   3.703
 1710SOL    HW2 6030   5.699   4.908   3.792
 1711SOL     OW 6031   1.226   4.788   4.619
 1711SOL    HW1 6032   1.210   4.725   4.543
 1711SOL    HW2 6033   1.248   4.879   4.583
 1712SOL     OW 6034   0.500   3.170   6.124
 1712SOL    HW1 6035   0.522   3.254   6.173
 1712SOL    HW2 6036   0.568   3.100   6.144
 1713SOL     OW 6037   3.949   2.356   1.443
 1713SOL    HW1 6038   4.023   2.300   1.405
 1713SOL    HW2 6039   3.898   2.303   1.510
 1714SOL     OW 6040   4.287   1.801   5.953
 1714SOL    HW1 6041   4.355   1.820   5.882
 1714SOL    HW2 6042   4.268   1.703   5.955
 1715SOL     OW 6043   6.833   3.672   2.533
 1715SOL    HW1 6044   6.919   3.722   2.538
 1715SOL    HW2 6045   6.803   3.665   2.438
 1716SOL     OW 6046   4.747   0.053   2.633
 1716SOL    HW1 6047   4.743   6.991   2.594
 1716SOL    HW2 6048   4.714   0.051   2.728
 1717SOL     OW 6049   2.222   6.448   6.200
 1717SOL    HW1 6050   2.167   6.530   6.189
 1717SOL    HW2 6051   2.315   6.473   6.228
 1718SOL     OW 6052   2.250   2.421   2.303
 1718SOL    HW1 6053   2.191   2.379   2.234
 1718SOL    HW2 6054   2.314   2.484   2.259
 1719SOL     OW 6055   2.047   4.072   0.897
 1719SOL    HW1 6056   1.956   4.032   0.901
 1719SOL    HW2 6057   2.056   4.141   0.969
 1720SOL     OW 6058   0.773   1.970   0.632
 1720SOL    HW1 6059   0.697   1.910   0.656
 1720SOL    HW2 6060   0.739   2.061   0.608
 1721SOL     OW 6061   1.203   6.464   2.402
 1721SOL    HW1 6062   1.171   6.453   2.496
 1721SOL    HW2 6063   1.235   6.376   2.368
 1722SOL     OW 6064   4.670   2.249   4.212
 1722SOL    HW1 6065   4.624   2.332   4.244
 1722SOL    HW2 6066   4.721   2.208   4.287
 1723SOL     OW 6067   0.053   2.611   2.262
 1723SOL    HW1 6068   7.006   2.620   2.326
 1723SOL    HW2 6069   0.137   2.593   2.313
 1724SOL     OW 6070   6.120   1.961   1.032
 1724SOL    HW1 6071   6.107   1.946   0.934
 1724SOL    HW2 6072   6.158   1.879   1.074
 1725SOL     OW 6073   2.099   4.622   6.882
 1725SOL    HW1 6074   2.138   4.714   6.885
 1725SOL    HW2 6075   2.165   4.557   6.920
 1726SOL     OW 6076   5.658   4.906   5.565
 1726SOL    HW1 6077   5.616   4.823   5.528
 1726SOL    HW2 6078   5.730   4.938   5.503
 1727SOL     OW 6079   3.927   3.381   4.582
 1727SOL    HW1 6080   3.871   3.331   4.649
 1727SOL    HW2 6081   4.009   3.416   4.627
 1728SOL     OW 6082   5.122   5.018   5.149
 1728SOL    HW1 6083   5.208   5.046   5.106
 1728SOL    HW2 6084   5.062   5.098   5.159
 1729SOL     OW 6085   2.077   3.572   3.740
 1729SOL    HW1 6086   2.013   3.632   3.692
 1729SOL    HW2 6087   2.064   3.477   3.709
 1730SOL     OW 6088   6.639   0.254   5.396
 1730SOL    HW1 6089   6.625   0.349   5.422
 1730SOL    HW2 6090   6.555   0.216   5.357
 1731SOL     OW 6091   6.995   4.933   2.096
 1731SOL    HW1 6092   0.027   4.872   2.145
 1731SOL    HW2 6093   6.901   4.911   2.118
 1732SOL     OW 6094   2.608   4.645   5.463
 1732SOL    HW1 6095   2.574   4.597   5.543
 1732SOL    HW2 6096   2.665   4.584   5.408
 1733SOL     OW 6097   0.880   4.102   2.498
 1733SOL    HW1 6098   0.886   4.026   2.433
 1733SOL    HW2 6099   0.953   4.093   2.566
 1734SOL     OW 6100   4.717   3.227   1.734
 1734SOL    HW1 6101   4.795   3.244   1.795
 1734SOL    HW2 6102   4.659   3.155   1.773
 1735SOL     OW 6103   5.846   5.580   1.454
 1735SOL    HW1 6104   5.916   5.635   1.499
 1735SOL    HW2 6105   5.768   5.637   1.431
 1736SOL     OW 6106   4.231   2.669   1.095
 1736SOL    HW1 6107   4.163   2.728   1.051
 1736SOL    HW2 6108   4.313   2.723   1.115
 1737SOL     OW 6109   2.799   1.093   4.171
 1737SOL    HW1 6110   2.890   1.052   4.179
 1737SOL    HW2 6111   2.769   1.127   4.260
 1738SOL     OW 6112   1.908   1.689   3.858
 1738SOL    HW1 6113   1.959   1.701   3.773
 1738SOL    HW2 6114   1.844   1.765   3.869
 1739SOL     OW 6115   5.680   2.169   5.624
 1739SOL    HW1 6116   5.582   2.175   5.643
 1739SOL    HW2 6117   5.703   2.229   5.547
 1740SOL     OW 6118   0.487   1.373   6.215
 1740SOL    HW1 6119   0.498   1.319   6.132
 1740SOL    HW2 6120   0.393   1.367   6.247
 1741SOL     OW 6121   2.261   0.716   4.080
 1741SOL    HW1 6122   2.245   0.813   4.098
 1741SOL    HW2 6123   2.230   0.693   3.988
 1742SOL     OW 6124   4.797   6.419   6.092
 1742SOL    HW1 6125   4.795   6.482   6.169
 1742SOL    HW2 6126   4.707   6.417   6.048
 1743SOL     OW 6127   1.858   2.283   2.284
 1743SOL    HW1 6128   1.867   2.300   2.382
 1743SOL    HW2 6129   1.771   2.320   2.251
 1744SOL     OW 6130   0.687   0.580   1.766
 1744SOL    HW1 6131   0.780   0.617   1.774
 1744SOL    HW2 6132   0.679   0.497   1.822
 1745SOL     OW 6133   6.240   0.807   3.096
 1745SOL    HW1 6134   6.264   0.729   3.153
 1745SOL    HW2 6135   6.143   0.829   3.108
 1746SOL     OW 6136   2.339   4.749   5.474
 1746SOL    HW1 6137   2.427   4.719   5.510
 1746SOL    HW2 6138   2.334   4.731   5.376
 1747SOL     OW 6139   5.621   1.288   3.088
 1747SOL    HW1 6140   5.696   1.354   3.084
 1747SOL    HW2 6141   5.547   1.325   3.143
 1748SOL     OW 6142   0.331   0.717   3.906
 1748SOL    HW1 6143   0.308   0.654   3.833
 1748SOL    HW2 6144   0.423   0.754   3.891
 1749SOL     OW 6145   2.567   6.766   5.128
 1749SOL    HW1 6146   2.554   6.669   5.148
 1749SOL    HW2 6147   2.629   6.776   5.050
 1750SOL     OW 6148   6.618   0.156   3.497
 1750SOL    HW1 6149   6.631   0.061   3.468
 1750SOL    HW2 6150   6.619   0.161   3.597
 1751SOL     OW 6151   4.090   5.622   4.750
 1751SOL    HW1 6152   4.026   5.697   4.766
 1751SOL    HW2 6153   4.182   5.651   4.778
 1752SOL     OW 6154   0.278   2.299   2.088
 1752SOL    HW1 6155   0.327   2.232   2.033
 1752SOL    HW2 6156   0.330   2.385   2.090
 1753SOL     OW 6157   0.275   2.167   0.433
 1753SOL    HW1 6158   0.281   2.085   0.489
 1753SOL    HW2 6159   0.212   2.232   0.476
 1754SOL     OW 6160   3.272   3.524   0.992
 1754SOL    HW1 6161   3.308   3.501   1.082
 1754SOL    HW2 6162   3.214   3.606   0.999
 1755SOL     OW 6163   6.021   6.192   1.887
 1755SOL    HW1 6164   6.077   6.234   1.959
 1755SOL    HW2 6165   6.049   6.097   1.875
 1756SOL     OW 6166   3.984   4.461   6.026
 1756SOL    HW1 6167   3.887   4.462   6.048
 1756SOL    HW2 6168   4.004   4.384   5.965
 1757SOL     OW 6169   2.661   4.966   4.917
 1757SOL    HW1 6170   2.720   4.979   4.838
 1757SOL    HW2 6171   2.718   4.951   4.999
 1758SOL     OW 6172   2.851   0.323   4.119
 1758SOL    HW1 6173   2.812   0.244   4.072
 1758SOL    HW2 6174   2.802   0.406   4.090
 1759SOL     OW 6175   1.862   5.378   6.574
 1759SOL    HW1 6176   1.904   5.288   6.581
 1759SOL    HW2 6177   1.824   5.404   6.663
 1760SOL     OW 6178   5.491   2.225   2.154
 1760SOL    HW1 6179   5.504   2.177   2.241
 1760SOL    HW2 6180   5.484   2.324   2.171
 1761SOL     OW 6181   0.707   0.364   0.734
 1761SOL    HW1 6182   0.663   0.313   0.808
 1761SOL    HW2 6183   0.729   0.301   0.659
 1762SOL     OW 6184   0.040   1.990   4.952
 1762SOL    HW1 6185   0.122   1.994   4.895
 1762SOL    HW2 6186   6.988   1.992   4.894
 1763SOL     OW 6187   1.384   3.730   3.760
 1763SOL    HW1 6188   1.354   3.636   3.773
 1763SOL    HW2 6189   1.462   3.750   3.820
 1764SOL     OW 6190   2.152   3.760   2.002
 1764SOL    HW1 6191   2.224   3.812   1.957
 1764SOL    HW2 6192   2.184   3.666   2.019
 1765SOL     OW 6193   4.199   1.770   0.099
 1765SOL    HW1 6194   4.218   1.813   0.011
 1765SOL    HW2 6195   4.106   1.733   0.098
 1766SOL     OW 6196   4.854   3.580   2.869
 1766SOL    HW1 6197   4.775   3.538   2.913
 1766SOL    HW2 6198   4.853   3.559   2.771
 1767SOL     OW 6199   6.579   4.124   3.141
 1767SOL    HW1 6200   6.506   4.192   3.137
 1767SOL    HW2 6201   6.601   4.104   3.237
 1768SOL     OW 6202   3.697   1.327   5.142
 1768SOL    HW1 6203   3.779   1.276   5.116
 1768SOL    HW2 6204   3.617   1.289   5.095
 1769SOL     OW 6205   4.510   2.529   5.056
 1769SOL    HW1 6206   4.545   2.533   4.962
 1769SOL    HW2 6207   4.528   2.616   5.102
 1770SOL     OW 6208   0.230   5.225   4.478
 1770SOL    HW1 6209   0.305   5.286   4.453
 1770SOL    HW2 6210   0.173   5.208   4.399
 1771SOL     OW 6211   2.032   5.189   0.425
 1771SOL    HW1 6212   2.052   5.255   0.353
 1771SOL    HW2 6213   2.116   5.141   0.450
 1772SOL     OW 6214   3.180   6.269   3.459
 1772SOL    HW1 6215   3.278   6.264   3.443
 1772SOL    HW2 6216   3.161   6.342   3.525
 1773SOL     OW 6217   2.812   4.880   6.237
 1773SOL    HW1 6218   2.910   4.859   6.242
 1773SOL    HW2 6219   2.787   4.896   6.141
 1774SOL     OW 6220   4.769   6.535   1.936
 1774SOL    HW1 6221   4.778   6.626   1.978
 1774SOL    HW2 6222   4.812   6.467   1.996
 1775SOL     OW 6223   1.182   4.819   3.886
 1775SOL    HW1 6224   1.202   4.914   3.909
 1775SOL    HW2 6225   1.262   4.778   3.841
 1776SOL     OW 6226   3.438   0.982   5.409
 1776SOL    HW1 6227   3.517   1.032   5.374
 1776SOL    HW2 6228   3.447   0.970   5.508
 1777SOL     OW 6229   3.724   5.228   5.825
 1777SOL    HW1 6230   3.774   5.180   5.753
 1777SOL    HW2 6231   3.754   5.195   5.914
 1778SOL     OW 6232   4.736   2.316   5.221
 1778SOL    HW1 6233   4.686   2.295   5.136
 1778SOL    HW2 6234   4.770   2.410   5.218
 1779SOL     OW 6235   4.562   1.299   4.513
 1779SOL    HW1 6236   4.520   1.376   4.465
 1779SOL    HW2 6237   4.610   1.333   4.594
 1780SOL     OW 6238   2.649   4.012   6.096
 1780SOL    HW1 6239   2.618   4.071   6.022
 1780SOL    HW2 6240   2.615   3.919   6.081
 1781SOL     OW 6241   4.308   5.176   3.756
 1781SOL    HW1 6242   4.356   5.092   3.781
 1781SOL    HW2 6243   4.295   5.179   3.657
 1782SOL     OW 6244   2.699   2.060   3.550
 1782SOL    HW1 6245   2.765   2.039   3.622
 1782SOL    HW2 6246   2.745   2.109   3.476
 1783SOL     OW 6247   1.798   3.771   6.442
 1783SOL    HW1 6248   1.859   3.700   6.406
 1783SOL    HW2 6249   1.841   3.815   6.520
 1784SOL     OW 6250   3.208   0.968   4.854
 1784SOL    HW1 6251   3.124   0.981   4.801
 1784SOL    HW2 6252   3.208   1.032   4.932
 1785SOL     OW 6253   5.276   5.681   3.491
 1785SOL    HW1 6254   5.304   5.607   3.551
 1785SOL    HW2 6255   5.195   5.726   3.529
 1786SOL     OW 6256   1.387   2.885   1.519
 1786SOL    HW1 6257   1.445   2.964   1.496
 1786SOL    HW2 6258   1.403   2.812   1.453
 1787SOL     OW 6259   2.219   0.779   4.498
 1787SOL    HW1 6260   2.198   0.774   4.401
 1787SOL    HW2 6261   2.314   0.805   4.511
 1788SOL     OW 6262   3.165   3.230   0.186
 1788SOL    HW1 6263   3.249   3.208   0.236
 1788SOL    HW2 6264   3.180   3.218   0.088
 1789SOL     OW 6265   6.714   1.975   2.433
 1789SOL    HW1 6266   6.691   1.878   2.420
 1789SOL    HW2 6267   6.788   2.000   2.371
 1790SOL     OW 6268   3.981   6.394   4.224
 1790SOL    HW1 6269   3.959   6.297   4.209
 1790SOL    HW2 6270   4.049   6.402   4.296
 1791SOL     OW 6271   0.213   1.537   4.495
 1791SOL    HW1 6272   0.133   1.548   4.554
 1791SOL    HW2 6273   0.230   1.622   4.446
 1792SOL     OW 6274   0.009   2.424   4.105
 1792SOL    HW1 6275   0.059   2.347   4.144
 1792SOL    HW2 6276   0.051   2.451   4.019
 1793SOL     OW 6277   6.470   0.433   3.686
 1793SOL    HW1 6278   6.374   0.428   3.658
 1793SOL    HW2 6279   6.526   0.456   3.607
 1794SOL     OW 6280   5.367   5.854   6.281
 1794SOL    HW1 6281   5.353   5.833   6.184
 1794SOL    HW2 6282   5.297   5.918   6.312
 1795SOL     OW 6283   0.276   3.220   2.156
 1795SOL    HW1 6284   0.321   3.239   2.243
 1795SOL    HW2 6285   0.273   3.121   2.141
 1796SOL     OW 6286   2.043   0.885   4.287
 1796SOL    HW1 6287   1.983   0.871   4.365
 1796SOL    HW2 6288   2.083   0.977   4.290
 1797SOL     OW 6289   1.188   1.070   6.452
 1797SOL    HW1 6290   1.226   0.987   6.493
 1797SOL    HW2 6291   1.134   1.118   6.520
 1798SOL     OW 6292   5.102   2.377   4.963
 1798SOL    HW1 6293   5.189   2.353   4.919
 1798SOL    HW2 6294   5.103   2.475   4.985
 1799SOL     OW 6295   6.701   1.539   6.457
 1799SOL    HW1 6296   6.714   1.601   6.534
 1799SOL    HW2 6297   6.614   1.558   6.412
 1800SOL     OW 6298   4.409   5.523   2.972
 1800SOL    HW1 6299   4.503   5.549   2.947
 1800SOL    HW2 6300   4.387   5.562   3.062
 1801SOL     OW 6301   0.920   0.933   2.298
 1801SOL    HW1 6302   0.992   0.869   2.325
 1801SOL    HW2 6303   0.959   1.023   2.280
 1802SOL     OW 6304   5.355   5.248   2.037
 1802SOL    HW1 6305   5.381   5.345   2.033
 1802SOL    HW2 6306   5.327   5.225   2.130
 1803SOL     OW 6307   7.020   6.433   0.313
 1803SOL    HW1 6308   7.022   6.526   0.277
 1803SOL    HW2 6309   0.011   6.368   0.240
 1804SOL     OW 6310   2.041   4.085   5.991
 1804SOL    HW1 6311   2.092   4.005   6.024
 1804SOL    HW2 6312   2.040   4.085   5.891
 1805SOL     OW 6313   6.625   3.996   5.656
 1805SOL    HW1 6314   6.628   3.965   5.751
 1805SOL    HW2 6315   6.639   3.918   5.595
 1806SOL     OW 6316   1.240   1.119   0.455
 1806SOL    HW1 6317   1.331   1.102   0.418
 1806SOL    HW2 6318   1.211   1.040   0.510
 1807SOL     OW 6319   5.001   2.469   6.017
 1807SOL    HW1 6320   4.919   2.426   6.055
 1807SOL    HW2 6321   5.009   2.446   5.920
 1808SOL     OW 6322   6.844   3.290   5.787
 1808SOL    HW1 6323   6.853   3.389   5.776
 1808SOL    HW2 6324   6.880   3.245   5.705
 1809SOL     OW 6325   2.261   2.904   4.282
 1809SOL    HW1 6326   2.355   2.873   4.271
 1809SOL    HW2 6327   2.253   2.957   4.366
 1810SOL     OW 6328   2.648   0.778   5.168
 1810SOL    HW1 6329   2.706   0.847   5.211
 1810SOL    HW2 6330   2.601   0.818   5.089
 1811SOL     OW 6331   4.468   4.643   3.636
 1811SOL    HW1 6332   4.462   4.600   3.546
 1811SOL    HW2 6333   4.536   4.595   3.692
 1812SOL     OW 6334   4.214   6.766   6.353
 1812SOL    HW1 6335   4.174   6.821   6.280
 1812SOL    HW2 6336   4.254   6.826   6.422
 1813SOL     OW 6337   4.868   4.841   0.517
 1813SOL    HW1 6338   4.863   4.786   0.434
 1813SOL    HW2 6339   4.778   4.881   0.536
 1814SOL     OW 6340   0.190   0.689   0.103
 1814SOL    HW1 6341   0.151   0.613   0.051
 1814SOL    HW2 6342   0.199   0.662   0.199
 1815SOL     OW 6343   6.546   2.345   1.739
 1815SOL    HW1 6344   6.504   2.435   1.723
 1815SOL    HW2 6345   6.644   2.350   1.716
 1816SOL     OW 6346   2.072   3.860   1.143
 1816SOL    HW1 6347   2.068   3.787   1.211
 1816SOL    HW2 6348   2.101   3.823   1.055
 1817SOL     OW 6349   2.900   6.672   3.569
 1817SOL    HW1 6350   2.848   6.594   3.535
 1817SOL    HW2 6351   2.997   6.659   3.548
 1818SOL     OW 6352   1.927   6.664   2.421
 1818SOL    HW1 6353   1.859   6.628   2.358
 1818SOL    HW2 6354   1.970   6.745   2.382
 1819SOL     OW 6355   0.260   5.175   1.565
 1819SOL    HW1 6356   0.167   5.184   1.599
 1819SOL    HW2 6357   0.286   5.079   1.564
 1820SOL     OW 6358   4.153   0.796   2.720
 1820SOL    HW1 6359   4.163   0.877   2.778
 1820SOL    HW2 6360   4.058   0.764   2.723
 1821SOL     OW 6361   2.914   0.571   1.620
 1821SOL    HW1 6362   2.863   0.490   1.595
 1821SOL    HW2 6363   2.983   0.591   1.550
 1822SOL     OW 6364   2.032   2.734   1.160
 1822SOL    HW1 6365   2.022   2.640   1.195
 1822SOL    HW2 6366   1.968   2.749   1.085
 1823SOL     OW 6367   2.736   5.517   3.178
 1823SOL    HW1 6368   2.727   5.614   3.198
 1823SOL    HW2 6369   2.820   5.482   3.219
 1824SOL     OW 6370   3.718   3.584   1.456
 1824SOL    HW1 6371   3.802   3.579   1.512
 1824SOL    HW2 6372   3.725   3.520   1.380
 1825SOL     OW 6373   1.250   2.101   3.701
 1825SOL    HW1 6374   1.300   2.082   3.616
 1825SOL    HW2 6375   1.298   2.059   3.778
 1826SOL     OW 6376   3.187   0.378   0.661
 1826SOL    HW1 6377   3.112   0.322   0.697
 1826SOL    HW2 6378   3.273   0.350   0.705
 1827SOL     OW 6379   0.349   5.448   1.497
 1827SOL    HW1 6380   0.329   5.488   1.586
 1827SOL    HW2 6381   0.419   5.379   1.507
 1828SOL     OW 6382   1.193   2.194   1.058
 1828SOL    HW1 6383   1.216   2.271   0.999
 1828SOL    HW2 6384   1.134   2.130   1.008
 1829SOL     OW 6385   2.828   0.624   3.135
 1829SOL    HW1 6386   2.751   0.680   3.104
 1829SOL    HW2 6387   2.906   0.637   3.073
 1830SOL     OW 6388   6.196   6.422   3.885
 1830SOL    HW1 6389   6.265   6.450   3.819
 1830SOL    HW2 6390   6.220   6.458   3.975
 1831SOL     OW 6391   6.129   0.295   2.406
 1831SOL    HW1 6392   6.052   0.298   2.470
 1831SOL    HW2 6393   6.205   0.246   2.448
 1832SOL     OW 6394   4.703   1.307   1.688
 1832SOL    HW1 6395   4.683   1.404   1.673
 1832SOL    HW2 6396   4.680   1.255   1.606
 1833SOL     OW 6397   5.139   0.519   6.562
 1833SOL    HW1 6398   5.217   0.517   6.625
 1833SOL    HW2 6399   5.070   0.584   6.595
 1834SOL     OW 6400   2.941   3.916   0.596
 1834SOL    HW1 6401   2.942   3.912   0.496
 1834SOL    HW2 6402   2.887   3.994   0.626
 1835SOL     OW 6403   0.023   4.087   2.493
 1835SOL    HW1 6404   0.094   4.150   2.525
 1835SOL    HW2 6405   6.962   4.122   2.517
 1836SOL     OW 6406   5.062   2.817   1.310
 1836SOL    HW1 6407   5.035   2.724   1.283
 1836SOL    HW2 6408   5.055   2.827   1.409
 1837SOL     OW 6409   0.838   0.801   5.259
 1837SOL    HW1 6410   0.778   0.834   5.185
 1837SOL    HW2 6411   0.840   0.869   5.332
 1838SOL     OW 6412   7.002   1.496   4.669
 1838SOL    HW1 6413   6.975   1.402   4.691
 1838SOL    HW2 6414   7.016   1.547   4.753
 1839SOL     OW 6415   5.813   2.086   5.287
 1839SOL    HW1 6416   5.729   2.140   5.277
 1839SOL    HW2 6417   5.864   2.120   5.366
 1840SOL     OW 6418   3.358   6.666   1.432
 1840SOL    HW1 6419   3.397   6.583   1.472
 1840SOL    HW2 6420   3.281   6.641   1.374
 1841SOL     OW 6421   2.332   0.988   3.573
 1841SOL    HW1 6422   2.235   0.970   3.586
 1841SOL    HW2 6423   2.365   1.048   3.646
 1842SOL     OW 6424   1.455   5.660   0.208
 1842SOL    HW1 6425   1.526   5.677   0.277
 1842SOL    HW2 6426   1.452   5.562   0.187
 1843SOL     OW 6427   6.133   2.278   3.270
 1843SOL    HW1 6428   6.119   2.377   3.282
 1843SOL    HW2 6429   6.222   2.263   3.225
 1844SOL     OW 6430   3.003   0.167   5.616
 1844SOL    HW1 6431   2.947   0.166   5.699
 1844SOL    HW2 6432   3.082   0.227   5.630
 1845SOL     OW 6433   2.066   6.996   5.258
 1845SOL    HW1 6434   2.146   6.940   5.236
 1845SOL    HW2 6435   2.066   0.049   5.202
 1846SOL     OW 6436   3.793   2.427   1.219
 1846SOL    HW1 6437   3.874   2.407   1.164
 1846SOL    HW2 6438   3.820   2.443   1.314
 1847SOL     OW 6439   1.575   1.181   6.906
 1847SOL    HW1 6440   1.537   1.109   6.847
 1847SOL    HW2 6441   1.630   1.244   6.851
 1848SOL     OW 6442   0.923   6.441   3.520
 1848SOL    HW1 6443   0.871   6.502   3.461
 1848SOL    HW2 6444   0.968   6.371   3.464
 1849SOL     OW 6445   4.065   2.361   0.473
 1849SOL    HW1 6446   4.143   2.422   0.459
 1849SOL    HW2 6447   4.007   2.362   0.392
 1850SOL     OW 6448   0.883   2.599   2.075
 1850SOL    HW1 6449   0.969   2.562   2.111
 1850SOL    HW2 6450   0.890   2.698   2.067
 1851SOL     OW 6451   0.067   2.729   0.433
 1851SOL    HW1 6452   0.019   2.746   0.520
 1851SOL    HW2 6453   0.000   2.730   0.358
 1852SOL     OW 6454   6.281   4.497   2.245
 1852SOL    HW1 6455   6.250   4.487   2.340
 1852SOL    HW2 6456   6.205   4.531   2.189
 1853SOL     OW 6457   6.971   2.167   2.969
 1853SOL    HW1 6458   0.036   2.161   3.003
 1853SOL    HW2 6459   6.908   2.138   3.041
 1854SOL     OW 6460   2.583   5.913   2.811
 1854SOL    HW1 6461   2.633   5.967   2.743
 1854SOL    HW2 6462   2.486   5.937   2.806
 1855SOL     OW 6463   5.157   3.001   5.555
 1855SOL    HW1 6464   5.152   3.096   5.587
 1855SOL    HW2 6465   5.142   2.940   5.632
 1856SOL     OW 6466   6.253   3.872   5.877
 1856SOL    HW1 6467   6.215   3.938   5.813
 1856SOL    HW2 6468   6.214   3.781   5.859
 1857SOL     OW 6469   4.732   1.489   5.639
 1857SOL    HW1 6470   4.811   1.464   5.583
 1857SOL    HW2 6471   4.764   1.533   5.723
 1858SOL     OW 6472   5.894   4.024   3.758
 1858SOL    HW1 6473   5.919   4.042   3.853
 1858SOL    HW2 6474   5.942   4.089   3.699
 1859SOL     OW 6475   5.172   2.127   3.089
 1859SOL    HW1 6476   5.269   2.107   3.099
 1859SOL    HW2 6477   5.118   2.064   3.145
 1860SOL     OW 6478   6.171   0.405   5.057
 1860SOL    HW1 6479   6.227   0.323   5.049
 1860SOL    HW2 6480   6.121   0.403   5.144
 1861SOL     OW 6481   6.276   6.772   2.036
 1861SOL    HW1 6482   6.346   6.815   1.979
 1861SOL    HW2 6483   6.272   6.674   2.017
 1862SOL     OW 6484   2.124   0.311   6.331
 1862SOL    HW1 6485   2.120   0.410   6.342
 1862SOL    HW2 6486   2.212   0.278   6.365
 1863SOL     OW 6487   0.909   2.300   2.864
 1863SOL    HW1 6488   0.851   2.323   2.942
 1863SOL    HW2 6489   0.884   2.209   2.829
 1864SOL     OW 6490   1.526   0.333   5.481
 1864SOL    HW1 6491   1.606   0.375   5.439
 1864SOL    HW2 6492   1.457   0.315   5.410
 1865SOL     OW 6493   3.446   6.686   6.385
 1865SOL    HW1 6494   3.467   6.784   6.384
 1865SOL    HW2 6495   3.377   6.665   6.316
 1866SOL     OW 6496   4.496   4.966   3.077
 1866SOL    HW1 6497   4.486   5.009   3.167
 1866SOL    HW2 6498   4.439   5.014   3.011
 1867SOL     OW 6499   0.681   3.915   0.175
 1867SOL    HW1 6500   0.639   3.895   0.264
 1867SOL    HW2 6501   0.764   3.969   0.190
 1868SOL     OW 6502   4.858   3.595   6.629
 1868SOL    HW1 6503   4.925   3.596   6.555
 1868SOL    HW2 6504   4.789   3.665   6.612
 1869SOL     OW 6505   5.949   3.017   5.611
 1869SOL    HW1 6506   5.956   3.001   5.709
 1869SOL    HW2 6507   5.853   3.008   5.582
 1870SOL     OW 6508   1.191   3.271   5.351
 1870SOL    HW1 6509   1.242   3.349   5.388
 1870SOL    HW2 6510   1.164   3.211   5.426
 1871SOL     OW 6511   0.897   0.722   0.003
 1871SOL    HW1 6512   0.846   0.689   0.083
 1871SOL    HW2 6513   0.930   0.815   0.021
 1872SOL     OW 6514   3.916   1.763   6.703
 1872SOL    HW1 6515   3.963   1.707   6.771
 1872SOL    HW2 6516   3.899   1.709   6.621
 1873SOL     OW 6517   5.174   0.873   5.824
 1873SOL    HW1 6518   5.124   0.957   5.804
 1873SOL    HW2 6519   5.129   0.796   5.778
 1874SOL     OW 6520   3.335   1.875   0.556
 1874SOL    HW1 6521   3.335   1.972   0.581
 1874SOL    HW2 6522   3.274   1.825   0.618
 1875SOL     OW 6523   0.655   0.830   6.960
 1875SOL    HW1 6524   0.748   0.791   6.959
 1875SOL    HW2 6525   0.661   0.930   6.968
 1876SOL     OW 6526   3.342   6.297   6.074
 1876SOL    HW1 6527   3.297   6.283   5.986
 1876SOL    HW2 6528   3.391   6.214   6.100
 1877SOL     OW 6529   0.772   1.018   2.900
 1877SOL    HW1 6530   0.751   1.017   2.997
 1877SOL    HW2 6531   0.854   0.963   2.883
 1878SOL     OW 6532   6.850   2.711   3.993
 1878SOL    HW1 6533   6.878   2.615   3.984
 1878SOL    HW2 6534   6.787   2.720   4.070
 1879SOL     OW 6535   1.430   5.249   3.890
 1879SOL    HW1 6536   1.508   5.282   3.836
 1879SOL    HW2 6537   1.391   5.324   3.942
 1880SOL     OW 6538   6.762   0.761   4.332
 1880SOL    HW1 6539   6.819   0.793   4.256
 1880SOL    HW2 6540   6.685   0.709   4.296
 1881SOL     OW 6541   6.213   2.913   2.674
 1881SOL    HW1 6542   6.183   2.884   2.583
 1881SOL    HW2 6543   6.310   2.936   2.671
 1882SOL     OW 6544   0.969   3.348   6.818
 1882SOL    HW1 6545   1.028   3.352   6.738
 1882SOL    HW2 6546   0.898   3.278   6.804
 1883SOL     OW 6547   0.998   2.212   3.817
 1883SOL    HW1 6548   0.976   2.308   3.800
 1883SOL    HW2 6549   1.081   2.188   3.769
 1884SOL     OW 6550   6.419   2.960   0.297
 1884SOL    HW1 6551   6.512   2.924   0.292
 1884SOL    HW2 6552   6.358   2.887   0.329
 1885SOL     OW 6553   1.145   2.452   5.949
 1885SOL    HW1 6554   1.207   2.442   5.871
 1885SOL    HW2 6555   1.095   2.539   5.940
 1886SOL     OW 6556   2.428   0.398   1.371
 1886SOL    HW1 6557   2.494   0.446   1.314
 1886SOL    HW2 6558   2.472   0.369   1.456
 1887SOL     OW 6559   1.028   5.842   5.049
 1887SOL    HW1 6560   1.050   5.748   5.023
 1887SOL    HW2 6561   1.107   5.900   5.032
 1888SOL     OW 6562   2.774   2.456   6.685
 1888SOL    HW1 6563   2.805   2.517   6.758
 1888SOL    HW2 6564   2.853   2.419   6.637
 1889SOL     OW 6565   0.557   2.834   5.761
 1889SOL    HW1 6566   0.643   2.885   5.766
 1889SOL    HW2 6567   0.488   2.891   5.716
 1890SOL     OW 6568   1.483   6.780   4.626
 1890SOL    HW1 6569   1.523   6.694   4.596
 1890SOL    HW2 6570   1.444   6.828   4.547
 1891SOL     OW 6571   5.251   1.616   2.154
 1891SOL    HW1 6572   5.336   1.640   2.200
 1891SOL    HW2 6573   5.215   1.695   2.105
 1892SOL     OW 6574   2.503   1.333   2.237
 1892SOL    HW1 6575   2.410   1.328   2.200
 1892SOL    HW2 6576   2.538   1.425   2.225
 1893SOL     OW 6577   3.671   2.699   6.739
 1893SOL    HW1 6578   3.672   2.674   6.642
 1893SOL    HW2 6579   3.763   2.688   6.777
 1894SOL     OW 6580   3.775   3.699   3.713
 1894SOL    HW1 6581   3.702   3.768   3.710
 1894SOL    HW2 6582   3.776   3.647   3.627
 1895SOL     OW 6583   4.886   0.215   1.684
 1895SOL    HW1 6584   4.806   0.269   1.710
 1895SOL    HW2 6585   4.895   0.215   1.584
 1896SOL     OW 6586   5.695   0.008   1.405
 1896SOL    HW1 6587   5.706   6.980   1.324
 1896SOL    HW2 6588   5.669   0.101   1.377
 1897SOL     OW 6589   1.301   4.282   1.487
 1897SOL    HW1 6590   1.333   4.199   1.534
 1897SOL    HW2 6591   1.222   4.259   1.430
 1898SOL     OW 6592   2.355   5.860   3.110
 1898SOL    HW1 6593   2.334   5.956   3.130
 1898SOL    HW2 6594   2.270   5.812   3.089
 1899SOL     OW 6595   1.197   0.814   2.339
 1899SOL    HW1 6596   1.184   0.729   2.389
 1899SOL    HW2 6597   1.273   0.866   2.379
 1900SOL     OW 6598   1.169   0.498   6.150
 1900SOL    HW1 6599   1.252   0.533   6.193
 1900SOL    HW2 6600   1.193   0.434   6.077
 1901SOL     OW 6601   2.079   1.708   0.895
 1901SOL    HW1 6602   2.024   1.694   0.977
 1901SOL    HW2 6603   2.026   1.762   0.829
 1902SOL     OW 6604   2.062   2.195   4.599
 1902SOL    HW1 6605   2.089   2.108   4.557
 1902SOL    HW2 6606   2.128   2.220   4.669
 1903SOL     OW 6607   6.827   3.369   2.450
 1903SOL    HW1 6608   6.865   3.397   2.538
 1903SOL    HW2 6609   6.745   3.423   2.431
 1904SOL     OW 6610   5.478   5.829   3.622
 1904SOL    HW1 6611   5.424   5.908   3.592
 1904SOL    HW2 6612   5.429   5.745   3.602
 1905SOL     OW 6613   1.669   0.145   3.875
 1905SOL    HW1 6614   1.644   0.102   3.962
 1905SOL    HW2 6615   1.587   0.157   3.819
 1906SOL     OW 6616   2.201   0.359   5.426
 1906SOL    HW1 6617   2.273   0.426   5.442
 1906SOL    HW2 6618   2.138   0.394   5.356
 1907SOL     OW 6619   3.773   0.546   2.058
 1907SOL    HW1 6620   3.707   0.472   2.070
 1907SOL    HW2 6621   3.754   0.618   2.125
 1908SOL     OW 6622   3.771   6.908   5.409
 1908SOL    HW1 6623   3.807   7.001   5.417
 1908SOL    HW2 6624   3.676   6.912   5.379
 1909SOL     OW 6625   0.420   3.542   2.579
 1909SOL    HW1 6626   0.327   3.506   2.574
 1909SOL    HW2 6627   0.419   3.642   2.568
 1910SOL     OW 6628   0.478   3.308   6.620
 1910SOL    HW1 6629   0.430   3.383   6.573
 1910SOL    HW2 6630   0.420   3.226   6.619
 1911SOL     OW 6631   6.482   3.586   5.194
 1911SOL    HW1 6632   6.566   3.583   5.140
 1911SOL    HW2 6633   6.409   3.537   5.146
 1912SOL     OW 6634   3.964   5.617   0.901
 1912SOL    HW1 6635   3.952   5.570   0.988
 1912SOL    HW2 6636   3.879   5.664   0.875
 1913SOL     OW 6637   2.432   6.526   4.768
 1913SOL    HW1 6638   2.343   6.567   4.785
 1913SOL    HW2 6639   2.486   6.586   4.709
 1914SOL     OW 6640   3.956   3.031   5.903
 1914SOL    HW1 6641   3.990   3.124   5.919
 1914SOL    HW2 6642   4.014   2.986   5.834
 1915SOL     OW 6643   3.844   2.013   5.163
 1915SOL    HW1 6644   3.819   2.024   5.067
 1915SOL    HW2 6645   3.934   2.054   5.179
 1916SOL     OW 6646   4.169   5.827   1.481
 1916SOL    HW1 6647   4.269   5.833   1.478
 1916SOL    HW2 6648   4.142   5.734   1.507
 1917SOL     OW 6649   2.675   3.225   5.884
 1917SOL    HW1 6650   2.609   3.301   5.888
 1917SOL    HW2 6651   2.644   3.151   5.943
 1918SOL     OW 6652   1.382   1.368   5.505
 1918SOL    HW1 6653   1.404   1.390   5.600
 1918SOL    HW2 6654   1.425   1.436   5.445
 1919SOL     OW 6655   2.062   0.350   1.966
 1919SOL    HW1 6656   2.025   0.349   2.059
 1919SOL    HW2 6657   2.139   0.414   1.961
 1920SOL     OW 6658   0.565   3.961   3.240
 1920SOL    HW1 6659   0.549   3.862   3.234
 1920SOL    HW2 6660   0.507   4.000   3.311
 1921SOL     OW 6661   1.407   4.204   6.224
 1921SOL    HW1 6662   1.475   4.206   6.150
 1921SOL    HW2 6663   1.452   4.179   6.309
 1922SOL     OW 6664   2.004   3.613   0.896
 1922SOL    HW1 6665   2.021   3.541   0.828
 1922SOL    HW2 6666   1.934   3.675   0.861
 1923SOL     OW 6667   3.777   0.748   5.535
 1923SOL    HW1 6668   3.837   0.674   5.565
 1923SOL    HW2 6669   3.682   0.720   5.546
 1924SOL     OW 6670   4.798   5.649   0.853
 1924SOL    HW1 6671   4.702   5.623   0.847
 1924SOL    HW2 6672   4.825   5.697   0.770
 1925SOL     OW 6673   1.831   4.875   0.976
 1925SOL    HW1 6674   1.918   4.833   0.947
 1925SOL    HW2 6675   1.840   4.974   0.974
 1926SOL     OW 6676   2.611   6.900   3.176
 1926SOL    HW1 6677   2.701   6.868   3.205
 1926SOL    HW2 6678   2.620   6.984   3.123
 1927SOL     OW 6679   2.314   4.519   0.036
 1927SOL    HW1 6680   2.288   4.423   0.022
 1927SOL    HW2 6681   2.273   4.552   0.121
 1928SOL     OW 6682   6.847   4.191   5.567
 1928SOL    HW1 6683   6.849   4.169   5.470
 1928SOL    HW2 6684   6.784   4.129   5.614
 1929SOL     OW 6685   2.070   6.472   1.562
 1929SOL    HW1 6686   2.149   6.410   1.561
 1929SOL    HW2 6687   2.006   6.446   1.489
 1930SOL     OW 6688   3.956   4.086   6.460
 1930SOL    HW1 6689   3.883   4.142   6.421
 1930SOL    HW2 6690   3.949   4.088   6.560
 1931SOL     OW 6691   1.081   2.628   1.617
 1931SOL    HW1 6692   1.010   2.636   1.546
 1931SOL    HW2 6693   1.086   2.533   1.648
 1932SOL     OW 6694   4.546   2.553   3.067
 1932SOL    HW1 6695   4.513   2.560   2.973
 1932SOL    HW2 6696   4.618   2.621   3.082
 1933SOL     OW 6697   1.848   3.133   0.997
 1933SOL    HW1 6698   1.869   3.059   1.061
 1933SOL    HW2 6699   1.891   3.115   0.909
 1934SOL     OW 6700   0.043   6.662   5.441
 1934SOL    HW1 6701   0.084   6.579   5.479
 1934SOL    HW2 6702   7.004   6.638   5.373
 1935SOL     OW 6703   4.315   5.949   3.867
 1935SOL    HW1 6704   4.270   6.012   3.930
 1935SOL    HW2 6705   4.411   5.940   3.891
 1936SOL     OW 6706   5.605   4.036   3.665
 1936SOL    HW1 6707   5.602   3.964   3.735
 1936SOL    HW2 6708   5.688   4.026   3.610
 1937SOL     OW 6709   4.196   6.283   0.946
 1937SOL    HW1 6710   4.209   6.188   0.919
 1937SOL    HW2 6711   4.117   6.321   0.898
 1938SOL     OW 6712   1.802   1.639   1.803
 1938SOL    HW1 6713   1.728   1.603   1.859
 1938SOL    HW2 6714   1.852   1.709   1.855
 1939SOL     OW 6715   6.960   6.661   4.386
 1939SOL    HW1 6716   7.011   6.748   4.384
 1939SOL    HW2 6717   6.880   6.671   4.445
 1940SOL     OW 6718   5.471   5.375   0.991
 1940SOL    HW1 6719   5.461   5.289   1.041
 1940SOL    HW2 6720   5.409   5.374   0.912
 1941SOL     OW 6721   0.858   3.443   4.378
 1941SOL    HW1 6722   0.859   3.515   4.308
 1941SOL    HW2 6723   0.895   3.359   4.339
 1942SOL     OW 6724   5.586   3.328   1.398
 1942SOL    HW1 6725   5.647   3.358   1.471
 1942SOL    HW2 6726   5.618   3.365   1.310
 1943SOL     OW 6727   2.208   0.043   3.503
 1943SOL    HW1 6728   2.279   7.014   3.464
 1943SOL    HW2 6729   2.189   0.015   3.596
 1944SOL     OW 6730   6.309   3.154   0.148
 1944SOL    HW1 6731   6.338   3.245   0.178
 1944SOL    HW2 6732   6.334   3.086   0.217
 1945SOL     OW 6733   3.976   4.996   0.627
 1945SOL    HW1 6734   3.999   4.921   0.689
 1945SOL    HW2 6735   3.881   4.986   0.595
 1946SOL     OW 6736   6.154   6.452   0.934
 1946SOL    HW1 6737   6.232   6.395   0.961
 1946SOL    HW2 6738   6.187   6.542   0.907
 1947SOL     OW 6739   5.450   5.980   4.391
 1947SOL    HW1 6740   5.409   5.929   4.466
 1947SOL    HW2 6741   5.496   6.061   4.428
 1948SOL     OW 6742   6.364   5.308   3.477
 1948SOL    HW1 6743   6.267   5.317   3.500
 1948SOL    HW2 6744   6.415   5.277   3.557
 1949SOL     OW 6745   3.081   3.485   6.266
 1949SOL    HW1 6746   3.165   3.513   6.222
 1949SOL    HW2 6747   3.029   3.425   6.204
 1950SOL     OW 6748   3.884   3.002   1.011
 1950SOL    HW1 6749   3.979   2.972   0.997
 1950SOL    HW2 6750   3.843   2.946   1.083
 1951SOL     OW 6751   6.759   5.145   0.128
 1951SOL    HW1 6752   6.820   5.224   0.135
 1951SOL    HW2 6753   6.803   5.073   0.076
 1952SOL     OW 6754   4.920   3.947   1.161
 1952SOL    HW1 6755   4.873   3.860   1.178
 1952SOL    HW2 6756   5.000   3.954   1.222
 1953SOL     OW 6757   5.939   1.735   5.915
 1953SOL    HW1 6758   5.908   1.828   5.935
 1953SOL    HW2 6759   6.013   1.738   5.849
 1954SOL     OW 6760   7.012   0.348   1.389
 1954SOL    HW1 6761   7.029   0.418   1.459
 1954SOL    HW2 6762   6.924   0.304   1.407
 1955SOL     OW 6763   0.627   0.433   3.348
 1955SOL    HW1 6764   0.637   0.531   3.326
 1955SOL    HW2 6765   0.717   0.390   3.350
 1956SOL     OW 6766   4.918   6.596   1.687
 1956SOL    HW1 6767   4.878   6.570   1.775
 1956SOL    HW2 6768   4.996   6.656   1.702
 1957SOL     OW 6769   5.516   4.249   3.796
 1957SOL    HW1 6770   5.558   4.183   3.733
 1957SOL    HW2 6771   5.546   4.231   3.889
 1958SOL     OW 6772   4.484   1.950   2.138
 1958SOL    HW1 6773   4.479   2.033   2.194
 1958SOL    HW2 6774   4.460   1.972   2.044
 1959SOL     OW 6775   1.409   0.180   3.771
 1959SOL    HW1 6776   1.417   0.231   3.686
 1959SOL    HW2 6777   1.342   0.107   3.761
 1960SOL     OW 6778   0.451   4.151   2.580
 1960SOL    HW1 6779   0.487   4.142   2.487
 1960SOL    HW2 6780   0.374   4.214   2.580
 1961SOL     OW 6781   6.502   4.568   5.183
 1961SOL    HW1 6782   6.585   4.620   5.203
 1961SOL    HW2 6783   6.421   4.624   5.203
 1962SOL     OW 6784   1.451   6.111   2.703
 1962SOL    HW1 6785   1.533   6.168   2.694
 1962SOL    HW2 6786   1.464   6.027   2.651
 1963SOL     OW 6787   0.859   1.661   1.364
 1963SOL    HW1 6788   0.949   1.700   1.346
 1963SOL    HW2 6789   0.788   1.730   1.343
 1964SOL     OW 6790   4.426   4.597   2.064
 1964SOL    HW1 6791   4.505   4.548   2.030
 1964SOL    HW2 6792   4.376   4.639   1.988
 1965SOL     OW 6793   1.410   3.404   4.268
 1965SOL    HW1 6794   1.329   3.348   4.248
 1965SOL    HW2 6795   1.384   3.500   4.267
 1966SOL     OW 6796   0.738   6.035   1.084
 1966SOL    HW1 6797   0.823   6.045   1.136
 1966SOL    HW2 6798   0.682   5.963   1.125
 1967SOL     OW 6799   5.300   2.841   4.402
 1967SOL    HW1 6800   5.356   2.771   4.445
 1967SOL    HW2 6801   5.284   2.916   4.466
 1968SOL     OW 6802   1.849   0.390   5.680
 1968SOL    HW1 6803   1.801   0.342   5.753
 1968SOL    HW2 6804   1.884   0.324   5.614
 1969SOL     OW 6805   2.282   1.650   0.722
 1969SOL    HW1 6806   2.286   1.551   0.726
 1969SOL    HW2 6807   2.215   1.683   0.788
 1970SOL     OW 6808   2.263   6.808   5.957
 1970SOL    HW1 6809   2.226   6.754   5.881
 1970SOL    HW2 6810   2.257   6.905   5.935
 1971SOL     OW 6811   0.364   0.623   5.221
 1971SOL    HW1 6812   0.307   0.598   5.299
 1971SOL    HW2 6813   0.446   0.565   5.219
 1972SOL     OW 6814   5.420   2.209   1.380
 1972SOL    HW1 6815   5.441   2.190   1.476
 1972SOL    HW2 6816   5.487   2.164   1.322
 1973SOL     OW 6817   2.984   3.578   0.610
 1973SOL    HW1 6818   2.955   3.662   0.564
 1973SOL    HW2 6819   2.932   3.501   0.574
 1974SOL     OW 6820   5.029   0.416   4.603
 1974SOL    HW1 6821   5.091   0.480   4.558
 1974SOL    HW2 6822   4.937   0.456   4.607
 1975SOL     OW 6823   1.898   1.838   4.425
 1975SOL    HW1 6824   1.900   1.739   4.440
 1975SOL    HW2 6825   1.831   1.879   4.488
 1976SOL     OW 6826   6.795   6.746   0.394
 1976SOL    HW1 6827   6.740   6.795   0.326
 1976SOL    HW2 6828   6.744   6.667   0.428
 1977SOL     OW 6829   1.876   3.062   4.983
 1977SOL    HW1 6830   1.811   3.056   4.907
 1977SOL    HW2 6831   1.969   3.049   4.948
 1978SOL     OW 6832   1.901   5.879   3.468
 1978SOL    HW1 6833   1.987   5.839   3.438
 1978SOL    HW2 6834   1.912   5.918   3.560
 1979SOL     OW 6835   5.622   4.912   6.819
 1979SOL    HW1 6836   5.665   4.821   6.820
 1979SOL    HW2 6837   5.687   4.979   6.854
 1980SOL     OW 6838   3.472   0.106   4.167
 1980SOL    HW1 6839   3.454   0.054   4.251
 1980SOL    HW2 6840   3.409   0.184   4.162
 1981SOL     OW 6841   6.309   3.475   1.896
 1981SOL    HW1 6842   6.265   3.450   1.982
 1981SOL    HW2 6843   6.387   3.414   1.880
 1982SOL     OW 6844   0.192   4.393   4.309
 1982SOL    HW1 6845   0.133   4.458   4.262
 1982SOL    HW2 6846   0.249   4.441   4.376
 1983SOL     OW 6847   1.869   0.120   1.617
 1983SOL    HW1 6848   1.828   0.040   1.572
 1983SOL    HW2 6849   1.898   0.185   1.548
 1984SOL     OW 6850   5.062   2.902   4.893
 1984SOL    HW1 6851   4.980   2.850   4.871
 1984SOL    HW2 6852   5.132   2.886   4.823
 1985SOL     OW 6853   0.490   6.437   2.687
 1985SOL    HW1 6854   0.585   6.419   2.714
 1985SOL    HW2 6855   0.450   6.504   2.748
 1986SOL     OW 6856   2.828   1.144   6.983
 1986SOL    HW1 6857   2.918   1.162   6.943
 1986SOL    HW2 6858   2.815   1.204   0.032
 1987SOL     OW 6859   2.047   1.700   3.058
 1987SOL    HW1 6860   2.129   1.712   3.002
 1987SOL    HW2 6861   2.060   1.625   3.122
 1988SOL     OW 6862   6.613   3.353   0.503
 1988SOL    HW1 6863   6.609   3.409   0.585
 1988SOL    HW2 6864   6.573   3.263   0.522
 1989SOL     OW 6865   1.965   5.671   5.162
 1989SOL    HW1 6866   2.012   5.589   5.129
 1989SOL    HW2 6867   2.008   5.701   5.247
 1990SOL     OW 6868   4.286   5.685   0.824
 1990SOL    HW1 6869   4.221   5.658   0.753
 1990SOL    HW2 6870   4.258   5.645   0.911
 1991SOL     OW 6871   2.920   5.900   6.757
 1991SOL    HW1 6872   2.889   5.948   6.839
 1991SOL    HW2 6873   2.988   5.955   6.709
 1992SOL     OW 6874   0.296   0.434   0.255
 1992SOL    HW1 6875   0.321   0.417   0.351
 1992SOL    HW2 6876   0.282   0.347   0.208
 1993SOL     OW 6877   3.721   1.995   5.876
 1993SOL    HW1 6878   3.809   2.026   5.911
 1993SOL    HW2 6879   3.694   2.053   5.799
 1994SOL     OW 6880   6.933   2.111   0.583
 1994SOL    HW1 6881   6.985   2.193   0.609
 1994SOL    HW2 6882   6.913   2.115   0.485
 1995SOL     OW 6883   4.775   2.815   3.598
 1995SOL    HW1 6884   4.802   2.899   3.551
 1995SOL    HW2 6885   4.759   2.743   3.531
 1996SOL     OW 6886   2.283   2.345   0.920
 1996SOL    HW1 6887   2.379   2.346   0.894
 1996SOL    HW2 6888   2.249   2.251   0.916
 1997SOL     OW 6889   3.491   2.058   4.907
 1997SOL    HW1 6890   3.410   2.112   4.886
 1997SOL    HW2 6891   3.491   1.974   4.853
 1998SOL     OW 6892   1.772   3.385   0.758
 1998SOL    HW1 6893   1.703   3.369   0.687
 1998SOL    HW2 6894   1.729   3.427   0.837
 1999SOL     OW 6895   2.074   6.119   6.204
 1999SOL    HW1 6896   2.010   6.155   6.137
 1999SOL    HW2 6897   2.071   6.175   6.287
 2000SOL     OW 6898   4.046   2.710   5.937
 2000SOL    HW1 6899   3.986   2.635   5.909
 2000SOL    HW2 6900   4.008   2.756   6.017
 2001SOL     OW 6901   2.178   0.950   1.326
 2001SOL    HW1 6902   2.123   0.902   1.258
 2001SOL    HW2 6903   2.233   0.885   1.377
 2002SOL     OW 6904   0.494   4.310   0.756
 2002SOL    HW1 6905   0.498   4.219   0.716
 2002SOL    HW2 6906   0.433   4.368   0.701
 2003SOL     OW 6907   6.477   5.005   2.469
 2003SOL    HW1 6908   6.496   4.908   2.485
 2003SOL    HW2 6909   6.379   5.019   2.462
 2004SOL     OW 6910   5.539   0.960   4.171
 2004SOL    HW1 6911   5.462   0.899   4.160
 2004SOL    HW2 6912   5.598   0.928   4.245
 2005SOL     OW 6913   0.372   4.484   0.583
 2005SOL    HW1 6914   0.317   4.557   0.625
 2005SOL    HW2 6915   0.432   4.524   0.514
 2006SOL     OW 6916   5.639   0.356   3.193
 2006SOL    HW1 6917   5.566   0.410   3.152
 2006SOL    HW2 6918   5.709   0.416   3.231
 2007SOL     OW 6919   4.961   4.530   1.063
 2007SOL    HW1 6920   4.981   4.502   0.969
 2007SOL    HW2 6921   4.931   4.451   1.116
 2008SOL     OW 6922   2.178   3.913   3.722
 2008SOL    HW1 6923   2.168   3.843   3.792
 2008SOL    HW2 6924   2.116   3.989   3.741
 2009SOL     OW 6925   5.159   0.384   2.671
 2009SOL    HW1 6926   5.244   0.429   2.643
 2009SOL    HW2 6927   5.103   0.364   2.590
 2010SOL     OW 6928   3.300   1.775   1.718
 2010SOL    HW1 6929   3.371   1.829   1.673
 2010SOL    HW2 6930   3.255   1.830   1.788
 2011SOL     OW 6931   0.486   0.803   4.835
 2011SOL    HW1 6932   0.446   0.889   4.803
 2011SOL    HW2 6933   0.533   0.757   4.760
 2012SOL     OW 6934   0.911   3.916   2.267
 2012SOL    HW1 6935   0.920   4.001   2.215
 2012SOL    HW2 6936   0.834   3.863   2.234
 2013SOL     OW 6937   6.113   2.901   3.484
 2013SOL    HW1 6938   6.099   2.949   3.570
 2013SOL    HW2 6939   6.025   2.888   3.438
 2014SOL     OW 6940   2.853   6.810   3.288
 2014SOL    HW1 6941   2.891   6.726   3.248
 2014SOL    HW2 6942   2.866   6.807   3.387
 2015SOL     OW 6943   2.338   0.277   0.928
 2015SOL    HW1 6944   2.261   0.340   0.923
 2015SOL    HW2 6945   2.329   0.206   0.858
 2016SOL     OW 6946   1.660   5.623   6.258
 2016SOL    HW1 6947   1.588   5.678   6.214
 2016SOL    HW2 6948   1.634   5.607   6.354
 2017SOL     OW 6949   4.035   0.440   3.306
 2017SOL    HW1 6950   4.090   0.451   3.389
 2017SOL    HW2 6951   4.008   0.344   3.297
 2018SOL     OW 6952   5.705   2.724   4.102
 2018SOL    HW1 6953   5.792   2.772   4.089
 2018SOL    HW2 6954   5.650   2.773   4.170
 2019SOL     OW 6955   5.459   3.819   6.685
 2019SOL    HW1 6956   5.529   3.816   6.756
 2019SOL    HW2 6957   5.375   3.775   6.717
 2020SOL     OW 6958   2.417   0.056   6.320
 2020SOL    HW1 6959   2.381   0.106   6.398
 2020SOL    HW2 6960   2.495   0.001   6.348
 2021SOL     OW 6961   6.566   6.619   5.025
 2021SOL    HW1 6962   6.554   6.713   5.058
 2021SOL    HW2 6963   6.643   6.616   4.961
 2022SOL     OW 6964   1.998   4.568   3.684
 2022SOL    HW1 6965   1.947   4.484   3.667
 2022SOL    HW2 6966   2.028   4.570   3.779
 2023SOL     OW 6967   0.487   0.263   6.500
 2023SOL    HW1 6968   0.553   0.213   6.444
 2023SOL    HW2 6969   0.494   0.361   6.481
 2024SOL     OW 6970   0.234   5.951   3.454
 2024SOL    HW1 6971   0.138   5.933   3.474
 2024SOL    HW2 6972   0.289   5.871   3.478
 2025SOL     OW 6973   4.048   0.923   3.880
 2025SOL    HW1 6974   4.099   0.874   3.810
 2025SOL    HW2 6975   4.017   0.858   3.950
 2026SOL     OW 6976   6.399   2.789   6.183
 2026SOL    HW1 6977   6.427   2.816   6.091
 2026SOL    HW2 6978   6.478   2.754   6.233
 2027SOL     OW 6979   1.472   0.252   1.165
 2027SOL    HW1 6980   1.391   0.310   1.167
 2027SOL    HW2 6981   1.449   0.164   1.123
 2028SOL     OW 6982   3.510   5.746   4.818
 2028SOL    HW1 6983   3.546   5.720   4.908
 2028SOL    HW2 6984   3.438   5.681   4.791
 2029SOL     OW 6985   6.351   1.774   0.332
 2029SOL    HW1 6986   6.321   1.678   0.325
 2029SOL    HW2 6987   6.277   1.829   0.371
 2030SOL     OW 6988   3.093   0.607   3.536
 2030SOL    HW1 6989   3.131   0.538   3.474
 2030SOL    HW2 6990   3.028   0.664   3.487
 2031SOL     OW 6991   7.011   5.966   1.660
 2031SOL    HW1 6992   6.976   5.913   1.582
 2031SOL    HW2 6993   0.016   5.905   1.730
 2032SOL     OW 6994   3.965   1.184   2.127
 2032SOL    HW1 6995   3.986   1.235   2.044
 2032SOL    HW2 6996   4.005   1.092   2.120
 2033SOL     OW 6997   2.303   2.317   0.105
 2033SOL    HW1 6998   2.211   2.341   0.136
 2033SOL    HW2 6999   2.346   2.397   0.065
 2034SOL     OW 7000   2.881   4.555   5.770
 2034SOL    HW1 7001   2.952   4.497   5.730
 2034SOL    HW2 7002   2.836   4.506   5.845
 2035SOL     OW 7003   6.371   6.618   3.474
 2035SOL    HW1 7004   6.306   6.573   3.413
 2035SOL    HW2 7005   6.344   6.713   3.487
 2036SOL     OW 7006   1.244   3.442   2.660
 2036SOL    HW1 7007   1.250   3.348   2.627
 2036SOL    HW2 7008   1.259   3.505   2.583
 2037SOL     OW 7009   6.255   2.810   5.790
 2037SOL    HW1 7010   6.337   2.866   5.783
 2037SOL    HW2 7011   6.274   2.730   5.847
 2038SOL     OW 7012   1.963   1.498   0.117
 2038SOL    HW1 7013   1.917   1.410   0.109
 2038SOL    HW2 7014   1.949   1.536   0.208
 2039SOL     OW 7015   6.718   6.169   3.388
 2039SOL    HW1 7016   6.638   6.224   3.365
 2039SOL    HW2 7017   6.705   6.076   3.353
 2040SOL     OW 7018   1.544   2.523   6.869
 2040SOL    HW1 7019   1.532   2.472   6.954
 2040SOL    HW2 7020   1.465   2.508   6.810
 2041SOL     OW 7021   1.021   6.817   5.186
 2041SOL    HW1 7022   0.937   6.810   5.240
 2041SOL    HW2 7023   1.001   6.863   5.100
 2042SOL     OW 7024   4.988   6.167   6.703
 2042SOL    HW1 7025   4.933   6.090   6.673
 2042SOL    HW2 7026   5.020   6.153   6.796
 2043SOL     OW 7027   6.493   3.067   3.201
 2043SOL    HW1 7028   6.513   3.159   3.168
 2043SOL    HW2 7029   6.399   3.062   3.234
 2044SOL     OW 7030   6.484   0.476   1.428
 2044SOL    HW1 7031   6.523   0.557   1.471
 2044SOL    HW2 7032   6.435   0.503   1.344
 2045SOL     OW 7033   1.793   4.940   4.380
 2045SOL    HW1 7034   1.712   4.883   4.377
 2045SOL    HW2 7035   1.862   4.904   4.318
 2046SOL     OW 7036   6.284   1.934   4.662
 2046SOL    HW1 7037   6.283   1.907   4.759
 2046SOL    HW2 7038   6.362   1.995   4.645
 2047SOL     OW 7039   6.860   2.578   0.191
 2047SOL    HW1 7040   6.842   2.553   0.096
 2047SOL    HW2 7041   6.834   2.673   0.205
 2048SOL     OW 7042   0.059   0.139   5.441
 2048SOL    HW1 7043   6.994   0.127   5.408
 2048SOL    HW2 7044   0.122   0.123   5.366
 2049SOL     OW 7045   5.607   1.440   4.181
 2049SOL    HW1 7046   5.625   1.445   4.279
 2049SOL    HW2 7047   5.546   1.363   4.162
 2050SOL     OW 7048   6.151   2.752   4.069
 2050SOL    HW1 7049   6.175   2.656   4.059
 2050SOL    HW2 7050   6.205   2.793   4.143
 2051SOL     OW 7051   1.913   5.877   6.476
 2051SOL    HW1 7052   1.995   5.833   6.511
 2051SOL    HW2 7053   1.881   5.829   6.394
 2052SOL     OW 7054   1.553   2.599   1.191
 2052SOL    HW1 7055   1.484   2.615   1.121
 2052SOL    HW2 7056   1.605   2.683   1.207
 2053SOL     OW 7057   6.887   5.600   4.664
 2053SOL    HW1 7058   6.856   5.538   4.736
 2053SOL    HW2 7059   6.950   5.551   4.603
 2054SOL     OW 7060   3.465   4.064   3.145
 2054SOL    HW1 7061   3.556   4.094   3.174
 2054SOL    HW2 7062   3.448   3.972   3.180
 2055SOL     OW 7063   6.393   3.038   4.751
 2055SOL    HW1 7064   6.429   3.007   4.663
 2055SOL    HW2 7065   6.294   3.020   4.755
 2056SOL     OW 7066   4.354   5.287   1.406
 2056SOL    HW1 7067   4.263   5.249   1.391
 2056SOL    HW2 7068   4.368   5.365   1.345
 2057SOL     OW 7069   5.034   3.907   5.698
 2057SOL    HW1 7070   5.067   3.948   5.783
 2057SOL    HW2 7071   4.962   3.965   5.659
 2058SOL     OW 7072   0.196   6.529   2.577
 2058SOL    HW1 7073   0.243   6.471   2.643
 2058SOL    HW2 7074   0.172   6.616   2.620
 2059SOL     OW 7075   2.190   6.184   6.684
 2059SOL    HW1 7076   2.165   6.087   6.686
 2059SOL    HW2 7077   2.108   6.240   6.695
 2060SOL     OW 7078   0.251   3.667   1.793
 2060SOL    HW1 7079   0.250   3.571   1.821
 2060SOL    HW2 7080   0.316   3.679   1.718
 2061SOL     OW 7081   1.603   2.062   2.432
 2061SOL    HW1 7082   1.613   2.141   2.372
 2061SOL    HW2 7083   1.668   1.991   2.406
 2062SOL     OW 7084   0.100   6.095   5.414
 2062SOL    HW1 7085   0.104   6.015   5.355
 2062SOL    HW2 7086   0.006   6.130   5.417
 2063SOL     OW 7087   1.228   6.659   5.122
 2063SOL    HW1 7088   1.154   6.718   5.155
 2063SOL    HW2 7089   1.296   6.715   5.074
 2064SOL     OW 7090   6.956   2.431   5.140
 2064SOL    HW1 7091   6.875   2.479   5.173
 2064SOL    HW2 7092   6.936   2.334   5.128
 2065SOL     OW 7093   5.967   3.146   6.037
 2065SOL    HW1 7094   5.965   3.063   5.982
 2065SOL    HW2 7095   6.020   3.131   6.120
 2066SOL     OW 7096   6.742   4.055   5.302
 2066SOL    HW1 7097   6.666   4.077   5.364
 2066SOL    HW2 7098   6.745   4.121   5.227
 2067SOL     OW 7099   0.089   4.888   0.781
 2067SOL    HW1 7100   0.102   4.984   0.804
 2067SOL    HW2 7101   0.017   4.881   0.712
 2068SOL     OW 7102   3.569   0.515   3.992
 2068SOL    HW1 7103   3.561   0.499   3.893
 2068SOL    HW2 7104   3.547   0.431   4.041
 2069SOL     OW 7105   6.852   2.324   4.404
 2069SOL    HW1 7106   6.795   2.395   4.363
 2069SOL    HW2 7107   6.870   2.253   4.336
 2070SOL     OW 7108   1.086   1.573   0.913
 2070SOL    HW1 7109   1.034   1.593   0.996
 2070SOL    HW2 7110   1.023   1.560   0.836
 2071SOL     OW 7111   6.200   0.834   5.765
 2071SOL    HW1 7112   6.160   0.790   5.845
 2071SOL    HW2 7113   6.127   0.859   5.701
 2072SOL     OW 7114   4.390   5.627   4.804
 2072SOL    HW1 7115   4.448   5.587   4.875
 2072SOL    HW2 7116   4.414   5.587   4.716
 2073SOL     OW 7117   4.149   6.153   5.300
 2073SOL    HW1 7118   4.114   6.170   5.392
 2073SOL    HW2 7119   4.247   6.169   5.298
 2074SOL     OW 7120   1.761   2.634   6.487
 2074SOL    HW1 7121   1.772   2.733   6.498
 2074SOL    HW2 7122   1.714   2.615   6.400
 2075SOL     OW 7123   6.712   2.646   2.761
 2075SOL    HW1 7124   6.671   2.558   2.785
 2075SOL    HW2 7125   6.806   2.649   2.795
 2076SOL     OW 7126   5.387   6.161   6.340
 2076SOL    HW1 7127   5.375   6.255   6.372
 2076SOL    HW2 7128   5.303   6.109   6.357
 2077SOL     OW 7129   6.696   1.995   1.840
 2077SOL    HW1 7130   6.751   2.063   1.888
 2077SOL    HW2 7131   6.696   2.015   1.742
 2078SOL     OW 7132   2.312   5.263   6.489
 2078SOL    HW1 7133   2.395   5.218   6.456
 2078SOL    HW2 7134   2.231   5.212   6.457
 2079SOL     OW 7135   0.015   1.149   2.951
 2079SOL    HW1 7136   0.050   1.230   2.903
 2079SOL    HW2 7137   0.088   1.082   2.961
 2080SOL     OW 7138   2.538   0.927   4.970
 2080SOL    HW1 7139   2.470   0.931   4.896
 2080SOL    HW2 7140   2.576   1.018   4.986
 2081SOL     OW 7141   0.954   6.885   4.938
 2081SOL    HW1 7142   1.041   6.876   4.888
 2081SOL    HW2 7143   0.879   6.889   4.873
 2082SOL     OW 7144   0.976   6.286   3.744
 2082SOL    HW1 7145   0.972   6.315   3.649
 2082SOL    HW2 7146   1.069   6.258   3.767
 2083SOL     OW 7147   1.366   5.929   5.258
 2083SOL    HW1 7148   1.319   5.895   5.177
 2083SOL    HW2 7149   1.465   5.927   5.242
 2084SOL     OW 7150   0.885   2.878   2.102
 2084SOL    HW1 7151   0.791   2.892   2.133
 2084SOL    HW2 7152   0.942   2.955   2.130
 2085SOL     OW 7153   4.838   6.840   1.101
 2085SOL    HW1 7154   4.863   6.830   1.197
 2085SOL    HW2 7155   4.906   6.793   1.044
 2086SOL     OW 7156   3.693   5.799   0.312
 2086SOL    HW1 7157   3.687   5.887   0.265
 2086SOL    HW2 7158   3.675   5.725   0.248
 2087SOL     OW 7159   4.785   2.179   1.210
 2087SOL    HW1 7160   4.721   2.174   1.286
 2087SOL    HW2 7161   4.874   2.144   1.240
 2088SOL     OW 7162   1.135   5.692   6.569
 2088SOL    HW1 7163   1.108   5.621   6.635
 2088SOL    HW2 7164   1.142   5.780   6.616
 2089SOL     OW 7165   4.426   2.393   5.427
 2089SOL    HW1 7166   4.486   2.464   5.464
 2089SOL    HW2 7167   4.420   2.318   5.493
 2090SOL     OW 7168   4.956   3.125   5.798
 2090SOL    HW1 7169   4.937   3.054   5.867
 2090SOL    HW2 7170   4.896   3.203   5.814
 2091SOL     OW 7171   0.021   5.743   1.165
 2091SOL    HW1 7172   7.003   5.676   1.223
 2091SOL    HW2 7173   6.992   5.768   1.088
 2092SOL     OW 7174   5.691   3.354   0.592
 2092SOL    HW1 7175   5.661   3.311   0.507
 2092SOL    HW2 7176   5.773   3.408   0.575
 2093SOL     OW 7177   3.218   2.207   1.822
 2093SOL    HW1 7178   3.155   2.207   1.744
 2093SOL    HW2 7179   3.310   2.230   1.790
 2094SOL     OW 7180   5.317   1.564   1.451
 2094SOL    HW1 7181   5.362   1.609   1.374
 2094SOL    HW2 7182   5.350   1.469   1.457
 2095SOL     OW 7183   6.163   6.572   4.346
 2095SOL    HW1 7184   6.110   6.653   4.322
 2095SOL    HW2 7185   6.235   6.597   4.412
 2096SOL     OW 7186   4.871   5.656   3.406
 2096SOL    HW1 7187   4.879   5.599   3.325
 2096SOL    HW2 7188   4.791   5.716   3.397
 2097SOL     OW 7189   2.901   3.602   6.935
 2097SOL    HW1 7190   2.921   3.581   0.001
 2097SOL    HW2 7191   2.947   3.687   6.910
 2098SOL     OW 7192   4.111   6.334   2.966
 2098SOL    HW1 7193   4.050   6.407   2.938
 2098SOL    HW2 7194   4.098   6.316   3.064
 2099SOL     OW 7195   4.053   1.395   6.597
 2099SOL    HW1 7196   4.098   1.469   6.646
 2099SOL    HW2 7197   4.122   1.332   6.560
 2100SOL     OW 7198   5.170   1.305   0.843
 2100SOL    HW1 7199   5.125   1.221   0.873
 2100SOL    HW2 7200   5.269   1.296   0.854
 2101SOL     OW 7201   0.039   5.962   0.897
 2101SOL    HW1 7202   6.980   5.951   0.942
 2101SOL    HW2 7203   0.101   6.013   0.958
 2102SOL     OW 7204   4.910   3.589   1.562
 2102SOL    HW1 7205   4.971   3.537   1.621
 2102SOL    HW2 7206   4.963   3.632   1.489
 2103SOL     OW 7207   4.036   4.010   0.406
 2103SOL    HW1 7208   4.034   3.911   0.420
 2103SOL    HW2 7209   4.063   4.055   0.491
 2104SOL     OW 7210   1.281   4.528   1.641
 2104SOL    HW1 7211   1.239   4.496   1.726
 2104SOL    HW2 7212   1.284   4.453   1.575
 2105SOL     OW 7213   4.651   5.043   0.077
 2105SOL    HW1 7214   4.646   4.957   0.027
 2105SOL    HW2 7215   4.746   5.075   0.079
 2106SOL     OW 7216   4.770   3.671   1.146
 2106SOL    HW1 7217   4.785   3.588   1.093
 2106SOL    HW2 7218   4.721   3.738   1.090
 2107SOL     OW 7219   6.118   2.588   5.566
 2107SOL    HW1 7220   6.130   2.686   5.582
 2107SOL    HW2 7221   6.171   2.536   5.633
 2108SOL     OW 7222   6.215   5.947   4.811
 2108SOL    HW1 7223   6.146   5.875   4.824
 2108SOL    HW2 7224   6.285   5.914   4.747
 2109SOL     OW 7225   2.998   5.875   2.730
 2109SOL    HW1 7226   2.996   5.972   2.753
 2109SOL    HW2 7227   3.092   5.846   2.713
 2110SOL     OW 7228   3.526   0.720   6.254
 2110SOL    HW1 7229   3.483   0.685   6.337
 2110SOL    HW2 7230   3.524   0.820   6.255
 2111SOL     OW 7231   1.826   3.220   5.287
 2111SOL    HW1 7232   1.860   3.313   5.302
 2111SOL    HW2 7233   1.901   3.155   5.303
 2112SOL     OW 7234   5.097   2.245   0.136
 2112SOL    HW1 7235   5.055   2.264   0.225
 2112SOL    HW2 7236   5.076   2.151   0.109
 2113SOL     OW 7237   2.079   0.203   5.112
 2113SOL    HW1 7238   2.081   0.164   5.020
 2113SOL    HW2 7239   2.163   0.253   5.129
 2114SOL     OW 7240   2.151   2.753   6.686
 2114SOL    HW1 7241   2.206   2.782   6.607
 2114SOL    HW2 7242   2.171   2.657   6.706
 2115SOL     OW 7243   1.034   4.548   2.580
 2115SOL    HW1 7244   1.057   4.641   2.551
 2115SOL    HW2 7245   1.066   4.534   2.674
 2116SOL     OW 7246   1.395   3.172   1.720
 2116SOL    HW1 7247   1.483   3.129   1.697
 2116SOL    HW2 7248   1.321   3.117   1.681
 2117SOL     OW 7249   5.476   3.824   1.380
 2117SOL    HW1 7250   5.410   3.844   1.308
 2117SOL    HW2 7251   5.464   3.730   1.412
 2118SOL     OW 7252   6.549   3.255   2.661
 2118SOL    HW1 7253   6.528   3.352   2.657
 2118SOL    HW2 7254   6.518   3.211   2.577
 2119SOL     OW 7255   1.695   1.320   0.867
 2119SOL    HW1 7256   1.667   1.370   0.949
 2119SOL    HW2 7257   1.683   1.378   0.787
 2120SOL     OW 7258   0.068   3.342   2.079
 2120SOL    HW1 7259   7.018   3.313   2.133
 2120SOL    HW2 7260   0.148   3.290   2.108
 2121SOL     OW 7261   1.734   2.853   5.665
 2121SOL    HW1 7262   1.831   2.849   5.641
 2121SOL    HW2 7263   1.686   2.912   5.601
 2122SOL     OW 7264   5.328   6.126   6.005
 2122SOL    HW1 7265   5.414   6.107   6.054
 2122SOL    HW2 7266   5.260   6.057   6.030
 2123SOL     OW 7267   6.301   6.152   1.845
 2123SOL    HW1 7268   6.296   6.229   1.781
 2123SOL    HW2 7269   6.375   6.168   1.910
 2124SOL     OW 7270   2.904   1.715   0.130
 2124SOL    HW1 7271   2.959   1.799   0.121
 2124SOL    HW2 7272   2.949   1.640   0.081
 2125SOL     OW 7273   0.684   5.296   2.067
 2125SOL    HW1 7274   0.617   5.358   2.026
 2125SOL    HW2 7275   0.767   5.295   2.011
 2126SOL     OW 7276   3.395   2.792   6.276
 2126SOL    HW1 7277   3.339   2.757   6.201
 2126SOL    HW2 7278   3.380   2.890   6.286
 2127SOL     OW 7279   0.918   1.768   5.572
 2127SOL    HW1 7280   0.926   1.868   5.574
 2127SOL    HW2 7281   0.923   1.737   5.477
 2128SOL     OW 7282   5.835   2.547   1.954
 2128SOL    HW1 7283   5.797   2.517   2.042
 2128SOL    HW2 7284   5.857   2.466   1.899
 2129SOL     OW 7285   4.397   4.657   4.697
 2129SOL    HW1 7286   4.474   4.706   4.738
 2129SOL    HW2 7287   4.396   4.563   4.730
 2130SOL     OW 7288   2.600   0.769   1.790
 2130SOL    HW1 7289   2.653   0.707   1.848
 2130SOL    HW2 7290   2.642   0.860   1.791
 2131SOL     OW 7291   4.864   1.357   0.960
 2131SOL    HW1 7292   4.923   1.402   1.026
 2131SOL    HW2 7293   4.870   1.258   0.972
 2132SOL     OW 7294   3.079   1.543   7.003
 2132SOL    HW1 7295   3.012   1.542   6.929
 2132SOL    HW2 7296   3.136   1.461   6.999
 2133SOL     OW 7297   3.584   2.018   0.840
 2133SOL    HW1 7298   3.611   1.965   0.759
 2133SOL    HW2 7299   3.486   2.006   0.856
 2134SOL     OW 7300   0.936   0.989   4.882
 2134SOL    HW1 7301   0.943   0.900   4.927
 2134SOL    HW2 7302   0.940   1.061   4.951
 2135SOL     OW 7303   0.312   1.668   4.779
 2135SOL    HW1 7304   0.362   1.712   4.853
 2135SOL    HW2 7305   0.376   1.644   4.706
 2136SOL     OW 7306   1.320   3.656   4.208
 2136SOL    HW1 7307   1.286   3.728   4.147
 2136SOL    HW2 7308   1.255   3.644   4.284
 2137SOL     OW 7309   0.454   6.629   4.316
 2137SOL    HW1 7310   0.494   6.717   4.341
 2137SOL    HW2 7311   0.507   6.590   4.240
 2138SOL     OW 7312   6.101   2.397   2.158
 2138SOL    HW1 7313   6.084   2.452   2.240
 2138SOL    HW2 7314   6.108   2.457   2.079
 2139SOL     OW 7315   4.109   1.198   3.232
 2139SOL    HW1 7316   4.101   1.279   3.174
 2139SOL    HW2 7317   4.027   1.142   3.221
 2140SOL     OW 7318   3.161   6.367   3.179
 2140SOL    HW1 7319   3.149   6.302   3.105
 2140SOL    HW2 7320   3.123   6.329   3.264
 2141SOL     OW 7321   6.883   3.071   1.101
 2141SOL    HW1 7322   6.973   3.114   1.103
 2141SOL    HW2 7323   6.843   3.080   1.009
 2142SOL     OW 7324   1.277   2.416   3.377
 2142SOL    HW1 7325   1.214   2.477   3.329
 2142SOL    HW2 7326   1.245   2.401   3.471
 2143SOL     OW 7327   3.188   4.736   0.936
 2143SOL    HW1 7328   3.249   4.812   0.917
 2143SOL    HW2 7329   3.098   4.770   0.962
 2144SOL     OW 7330   1.732   0.499   2.570
 2144SOL    HW1 7331   1.704   0.552   2.650
 2144SOL    HW2 7332   1.832   0.495   2.566
 2145SOL     OW 7333   3.526   5.694   4.081
 2145SOL    HW1 7334   3.588   5.654   4.148
 2145SOL    HW2 7335   3.556   5.670   3.989
 2146SOL     OW 7336   3.016   3.718   2.040
 2146SOL    HW1 7337   3.058   3.640   1.993
 2146SOL    HW2 7338   3.012   3.699   2.138
 2147SOL     OW 7339   6.694   0.971   0.139
 2147SOL    HW1 7340   6.759   0.957   0.213
 2147SOL    HW2 7341   6.742   0.969   0.052
 2148SOL     OW 7342   4.784   3.032   4.509
 2148SOL    HW1 7343   4.744   3.114   4.550
 2148SOL    HW2 7344   4.881   3.027   4.529
 2149SOL     OW 7345   3.433   0.259   0.735
 2149SOL    HW1 7346   3.415   0.207   0.651
 2149SOL    HW2 7347   3.530   0.250   0.759
 2150SOL     OW 7348   3.102   2.129   2.586
 2150SOL    HW1 7349   3.122   2.196   2.515
 2150SOL    HW2 7350   3.153   2.045   2.568
 2151SOL     OW 7351   2.549   1.726   4.160
 2151SOL    HW1 7352   2.546   1.693   4.066
 2151SOL    HW2 7353   2.640   1.762   4.180
 2152SOL     OW 7354   3.842   6.361   1.718
 2152SOL    HW1 7355   3.860   6.441   1.661
 2152SOL    HW2 7356   3.860   6.384   1.814
 2153SOL     OW 7357   4.180   0.545   3.559
 2153SOL    HW1 7358   4.087   0.520   3.586
 2153SOL    HW2 7359   4.212   0.620   3.617
 2154SOL     OW 7360   3.551   6.458   4.989
 2154SOL    HW1 7361   3.468   6.504   5.020
 2154SOL    HW2 7362   3.632   6.507   5.021
 2155SOL     OW 7363   1.528   5.408   0.057
 2155SOL    HW1 7364   1.516   5.336   0.125
 2155SOL    HW2 7365   1.615   5.454   0.073
 2156SOL     OW 7366   3.012   0.328   2.052
 2156SOL    HW1 7367   2.961   0.351   2.134
 2156SOL    HW2 7368   3.010   0.229   2.038
 2157SOL     OW 7369   6.881   1.007   3.130
 2157SOL    HW1 7370   6.931   1.069   3.069
 2157SOL    HW2 7371   6.848   0.928   3.077
 2158SOL     OW 7372   3.889   6.508   0.651
 2158SOL    HW1 7373   3.858   6.601   0.670
 2158SOL    HW2 7374   3.920   6.465   0.736
 2159SOL     OW 7375   1.617   6.188   5.476
 2159SOL    HW1 7376   1.597   6.092   5.457
 2159SOL    HW2 7377   1.685   6.194   5.550
 2160SOL     OW 7378   4.356   3.493   1.672
 2160SOL    HW1 7379   4.359   3.396   1.652
 2160SOL    HW2 7380   4.410   3.543   1.604
 2161SOL     OW 7381   5.190   2.895   3.901
 2161SOL    HW1 7382   5.178   2.972   3.838
 2161SOL    HW2 7383   5.128   2.821   3.875
 2162SOL     OW 7384   2.674   0.747   0.623
 2162SOL    HW1 7385   2.574   0.741   0.633
 2162SOL    HW2 7386   2.716   0.745   0.713
 2163SOL     OW 7387   6.865   5.845   5.868
 2163SOL    HW1 7388   6.940   5.786   5.837
 2163SOL    HW2 7389   6.890   5.888   5.955
 2164SOL     OW 7390   1.954   1.664   6.910
 2164SOL    HW1 7391   1.959   1.631   7.004
 2164SOL    HW2 7392   1.921   1.759   6.909
 2165SOL     OW 7393   1.369   1.386   2.948
 2165SOL    HW1 7394   1.271   1.379   2.964
 2165SOL    HW2 7395   1.386   1.395   2.849
 2166SOL     OW 7396   2.174   2.356   5.537
 2166SOL    HW1 7397   2.119   2.358   5.620
 2166SOL    HW2 7398   2.130   2.413   5.467
 2167SOL     OW 7399   2.826   0.165   2.547
 2167SOL    HW1 7400   2.890   0.240   2.559
 2167SOL    HW2 7401   2.752   0.172   2.613
 2168SOL     OW 7402   6.512   2.168   4.291
 2168SOL    HW1 7403   6.459   2.174   4.206
 2168SOL    HW2 7404   6.451   2.142   4.366
 2169SOL     OW 7405   5.616   2.141   6.072
 2169SOL    HW1 7406   5.535   2.186   6.034
 2169SOL    HW2 7407   5.653   2.077   6.004
 2170SOL     OW 7408   5.886   4.961   5.450
 2170SOL    HW1 7409   5.886   5.031   5.379
 2170SOL    HW2 7410   5.930   4.997   5.532
 2171SOL     OW 7411   6.127   2.912   0.737
 2171SOL    HW1 7412   6.088   2.984   0.680
 2171SOL    HW2 7413   6.102   2.928   0.832
 2172SOL     OW 7414   2.866   1.798   0.751
 2172SOL    HW1 7415   2.810   1.809   0.669
 2172SOL    HW2 7416   2.811   1.756   0.823
 2173SOL     OW 7417   3.633   0.344   5.568
 2173SOL    HW1 7418   3.662   0.292   5.648
 2173SOL    HW2 7419   3.590   0.429   5.596
 2174SOL     OW 7420   6.514   5.113   6.056
 2174SOL    HW1 7421   6.581   5.168   6.105
 2174SOL    HW2 7422   6.559   5.030   6.021
 2175SOL     OW 7423   2.840   2.218   3.376
 2175SOL    HW1 7424   2.803   2.295   3.428
 2175SOL    HW2 7425   2.938   2.211   3.392
 2176SOL     OW 7426   0.939   2.094   1.453
 2176SOL    HW1 7427   0.866   2.110   1.519
 2176SOL    HW2 7428   1.005   2.029   1.492
 2177SOL     OW 7429   6.635   0.509   1.923
 2177SOL    HW1 7430   6.541   0.540   1.912
 2177SOL    HW2 7431   6.651   0.483   2.018
 2178SOL     OW 7432   1.107   4.333   0.502
 2178SOL    HW1 7433   1.143   4.362   0.413
 2178SOL    HW2 7434   1.175   4.352   0.573
 2179SOL     OW 7435   2.439   5.426   4.162
 2179SOL    HW1 7436   2.422   5.339   4.116
 2179SOL    HW2 7437   2.530   5.458   4.140
 2180SOL     OW 7438   3.256   3.059   1.982
 2180SOL    HW1 7439   3.229   3.058   1.886
 2180SOL    HW2 7440   3.292   2.970   2.008
 2181SOL     OW 7441   4.429   4.245   5.847
 2181SOL    HW1 7442   4.336   4.228   5.881
 2181SOL    HW2 7443   4.433   4.336   5.805
 2182SOL     OW 7444   6.362   3.283   6.062
 2182SOL    HW1 7445   6.424   3.344   6.012
 2182SOL    HW2 7446   6.316   3.223   5.997
 2183SOL     OW 7447   3.898   3.590   0.565
 2183SOL    HW1 7448   3.820   3.628   0.518
 2183SOL    HW2 7449   3.871   3.560   0.657
 2184SOL     OW 7450   3.251   1.160   5.326
 2184SOL    HW1 7451   3.320   1.233   5.329
 2184SOL    HW2 7452   3.294   1.073   5.352
 2185SOL     OW 7453   1.942   1.610   1.132
 2185SOL    HW1 7454   1.962   1.513   1.117
 2185SOL    HW2 7455   1.843   1.621   1.142
 2186SOL     OW 7456   0.052   4.670   2.272
 2186SOL    HW1 7457   0.023   4.611   2.348
 2186SOL    HW2 7458   0.144   4.704   2.291
 2187SOL     OW 7459   0.479   1.057   2.051
 2187SOL    HW1 7460   0.475   1.123   2.126
 2187SOL    HW2 7461   0.395   1.064   1.997
 2188SOL     OW 7462   4.764   5.674   3.787
 2188SOL    HW1 7463   4.840   5.611   3.769
 2188SOL    HW2 7464   4.746   5.677   3.885
 2189SOL     OW 7465   1.443   6.525   6.127
 2189SOL    HW1 7466   1.358   6.504   6.176
 2189SOL    HW2 7467   1.503   6.578   6.187
 2190SOL     OW 7468   6.450   2.127   1.611
 2190SOL    HW1 7469   6.515   2.198   1.638
 2190SOL    HW2 7470   6.367   2.135   1.665
 2191SOL     OW 7471   3.749   2.037   6.285
 2191SOL    HW1 7472   3.797   2.124   6.292
 2191SOL    HW2 7473   3.742   1.996   6.376
 2192SOL     OW 7474   4.130   0.098   4.669
 2192SOL    HW1 7475   4.112   0.093   4.768
 2192SOL    HW2 7476   4.227   0.119   4.655
 2193SOL     OW 7477   6.200   5.459   5.835
 2193SOL    HW1 7478   6.121   5.449   5.896
 2193SOL    HW2 7479   6.284   5.446   5.888
 2194SOL     OW 7480   2.626   5.272   0.196
 2194SOL    HW1 7481   2.661   5.178   0.202
 2194SOL    HW2 7482   2.530   5.274   0.224
 2195SOL     OW 7483   0.050   6.805   1.982
 2195SOL    HW1 7484   0.069   6.744   1.905
 2195SOL    HW2 7485   6.985   6.837   1.977
 2196SOL     OW 7486   2.234   0.106   5.581
 2196SOL    HW1 7487   2.221   0.176   5.511
 2196SOL    HW2 7488   2.166   0.033   5.568
 2197SOL     OW 7489   5.089   3.900   1.552
 2197SOL    HW1 7490   5.162   3.899   1.620
 2197SOL    HW2 7491   5.097   3.820   1.493
 2198SOL     OW 7492   6.864   2.399   6.675
 2198SOL    HW1 7493   6.944   2.409   6.735
 2198SOL    HW2 7494   6.883   2.331   6.605
 2199SOL     OW 7495   5.374   0.218   1.095
 2199SOL    HW1 7496   5.357   0.283   1.021
 2199SOL    HW2 7497   5.297   0.155   1.102
 2200SOL     OW 7498   4.068   0.474   4.596
 2200SOL    HW1 7499   4.096   0.397   4.540
 2200SOL    HW2 7500   3.989   0.519   4.555
 2201SOL     OW 7501   6.263   3.932   2.450
 2201SOL    HW1 7502   6.212   3.909   2.367
 2201SOL    HW2 7503   6.266   3.853   2.510
 2202SOL     OW 7504   3.458   5.332   4.778
 2202SOL    HW1 7505   3.396   5.408   4.761
 2202SOL    HW2 7506   3.425   5.278   4.855
 2203SOL     OW 7507   2.871   1.886   2.715
 2203SOL    HW1 7508   2.893   1.947   2.790
 2203SOL    HW2 7509   2.950   1.829   2.694
 2204SOL     OW 7510   3.414   1.414   6.546
 2204SOL    HW1 7511   3.356   1.439   6.469
 2204SOL    HW2 7512   3.437   1.496   6.598
 2205SOL     OW 7513   1.296   0.329   6.716
 2205SOL    HW1 7514   1.357   0.289   6.648
 2205SOL    HW2 7515   1.340   0.329   6.805
 2206SOL     OW 7516   3.255   4.218   5.548
 2206SOL    HW1 7517   3.183   4.286   5.563
 2206SOL    HW2 7518   3.216   4.126   5.550
 2207SOL     OW 7519   1.864   4.094   6.455
 2207SOL    HW1 7520   1.964   4.094   6.457
 2207SOL    HW2 7521   1.829   4.167   6.514
 2208SOL     OW 7522   1.710   4.407   1.958
 2208SOL    HW1 7523   1.684   4.429   1.864
 2208SOL    HW2 7524   1.766   4.482   1.995
 2209SOL     OW 7525   1.166   6.111   5.345
 2209SOL    HW1 7526   1.180   6.164   5.428
 2209SOL    HW2 7527   1.254   6.080   5.310
 2210SOL     OW 7528   0.618   4.964   2.954
 2210SOL    HW1 7529   0.566   4.879   2.948
 2210SOL    HW2 7530   0.558   5.042   2.938
 2211SOL     OW 7531   5.419   1.472   6.094
 2211SOL    HW1 7532   5.457   1.548   6.040
 2211SOL    HW2 7533   5.386   1.401   6.032
 2212SOL     OW 7534   0.643   6.533   6.677
 2212SOL    HW1 7535   0.580   6.608   6.658
 2212SOL    HW2 7536   0.593   6.456   6.716
 2213SOL     OW 7537   4.619   2.518   4.812
 2213SOL    HW1 7538   4.674   2.598   4.789
 2213SOL    HW2 7539   4.570   2.486   4.731
 2214SOL     OW 7540   4.886   0.713   5.245
 2214SOL    HW1 7541   4.874   0.803   5.286
 2214SOL    HW2 7542   4.797   0.673   5.223
 2215SOL     OW 7543   6.810   1.215   5.678
 2215SOL    HW1 7544   6.896   1.167   5.661
 2215SOL    HW2 7545   6.746   1.154   5.725
 2216SOL     OW 7546   1.837   0.490   6.699
 2216SOL    HW1 7547   1.742   0.513   6.681
 2216SOL    HW2 7548   1.891   0.574   6.704
 2217SOL     OW 7549   2.766   0.255   1.204
 2217SOL    HW1 7550   2.727   0.163   1.201
 2217SOL    HW2 7551   2.705   0.319   1.156
 2218SOL     OW 7552   1.209   6.348   0.479
 2218SOL    HW1 7553   1.281   6.412   0.453
 2218SOL    HW2 7554   1.168   6.308   0.397
 2219SOL     OW 7555   1.400   3.824   2.956
 2219SOL    HW1 7556   1.483   3.861   2.914
 2219SOL    HW2 7557   1.320   3.851   2.902
 2220SOL     OW 7558   0.570   1.357   4.479
 2220SOL    HW1 7559   0.663   1.359   4.445
 2220SOL    HW2 7560   0.506   1.367   4.403
 2221SOL     OW 7561   0.050   1.368   0.239
 2221SOL    HW1 7562   0.087   1.349   0.329
 2221SOL    HW2 7563   0.022   1.465   0.234
 2222SOL     OW 7564   3.819   1.194   0.810
 2222SOL    HW1 7565   3.863   1.268   0.760
 2222SOL    HW2 7566   3.836   1.107   0.763
 2223SOL     OW 7567   5.750   5.752   3.661
 2223SOL    HW1 7568   5.659   5.790   3.644
 2223SOL    HW2 7569   5.743   5.652   3.668
 2224SOL     OW 7570   1.633   4.496   1.719
 2224SOL    HW1 7571   1.550   4.441   1.708
 2224SOL    HW2 7572   1.708   4.453   1.669
 2225SOL     OW 7573   6.216   5.110   3.158
 2225SOL    HW1 7574   6.192   5.069   3.070
 2225SOL    HW2 7575   6.259   5.041   3.216
 2226SOL     OW 7576   3.757   3.384   0.747
 2226SOL    HW1 7577   3.669   3.383   0.795
 2226SOL    HW2 7578   3.752   3.322   0.669
 2227SOL     OW 7579   6.183   4.346   6.962
 2227SOL    HW1 7580   6.211   4.260   7.005
 2227SOL    HW2 7581   6.159   4.328   6.867
 2228SOL     OW 7582   3.430   5.476   0.970
 2228SOL    HW1 7583   3.399   5.526   1.050
 2228SOL    HW2 7584   3.376   5.503   0.890
 2229SOL     OW 7585   4.330   1.969   3.976
 2229SOL    HW1 7586   4.232   1.965   3.993
 2229SOL    HW2 7587   4.367   1.876   3.973
 2230SOL     OW 7588   1.100   6.397   4.053
 2230SOL    HW1 7589   1.037   6.345   4.111
 2230SOL    HW2 7590   1.136   6.338   3.981
 2231SOL     OW 7591   1.642   1.853   2.118
 2231SOL    HW1 7592   1.683   1.849   2.210
 2231SOL    HW2 7593   1.591   1.769   2.100
 2232SOL     OW 7594   0.732   2.939   4.318
 2232SOL    HW1 7595   0.754   2.921   4.414
 2232SOL    HW2 7596   0.644   2.987   4.312
 2233SOL     OW 7597   3.317   5.131   0.376
 2233SOL    HW1 7598   3.274   5.124   0.285
 2233SOL    HW2 7599   3.402   5.078   0.377
 2234SOL     OW 7600   4.220   2.185   0.792
 2234SOL    HW1 7601   4.311   2.173   0.753
 2234SOL    HW2 7602   4.214   2.275   0.835
 2235SOL     OW 7603   1.606   0.614   0.430
 2235SOL    HW1 7604   1.541   0.603   0.505
 2235SOL    HW2 7605   1.689   0.562   0.450
 2236SOL     OW 7606   0.852   4.673   1.085
 2236SOL    HW1 7607   0.800   4.631   1.010
 2236SOL    HW2 7608   0.846   4.772   1.079
 2237SOL     OW 7609   6.241   3.631   4.843
 2237SOL    HW1 7610   6.223   3.711   4.901
 2237SOL    HW2 7611   6.209   3.548   4.889
 2238SOL     OW 7612   6.979   5.038   2.506
 2238SOL    HW1 7613   6.932   5.090   2.435
 2238SOL    HW2 7614   6.985   5.094   2.589
 2239SOL     OW 7615   4.006   4.853   3.856
 2239SOL    HW1 7616   3.992   4.860   3.954
 2239SOL    HW2 7617   4.093   4.806   3.838
 2240SOL     OW 7618   6.211   5.015   3.595
 2240SOL    HW1 7619   6.130   5.045   3.545
 2240SOL    HW2 7620   6.242   5.088   3.656
 2241SOL     OW 7621   0.017   6.224   2.231
 2241SOL    HW1 7622   0.113   6.199   2.246
 2241SOL    HW2 7623   7.010   6.266   2.314
 2242SOL     OW 7624   5.420   1.624   3.347
 2242SOL    HW1 7625   5.327   1.641   3.380
 2242SOL    HW2 7626   5.422   1.541   3.291
 2243SOL     OW 7627   2.003   6.039   5.347
 2243SOL    HW1 7628   2.051   6.053   5.261
 2243SOL    HW2 7629   2.057   6.077   5.422
 2244SOL     OW 7630   4.213   0.557   3.140
 2244SOL    HW1 7631   4.137   0.501   3.173
 2244SOL    HW2 7632   4.245   0.521   3.053
 2245SOL     OW 7633   0.359   2.109   2.290
 2245SOL    HW1 7634   0.367   2.154   2.379
 2245SOL    HW2 7635   0.313   2.170   2.226
 2246SOL     OW 7636   1.918   2.099   5.455
 2246SOL    HW1 7637   1.858   2.019   5.458
 2246SOL    HW2 7638   1.876   2.175   5.503
 2247SOL     OW 7639   2.519   2.351   6.400
 2247SOL    HW1 7640   2.571   2.428   6.362
 2247SOL    HW2 7641   2.551   2.266   6.357
 2248SOL     OW 7642   4.845   4.474   5.617
 2248SOL    HW1 7643   4.864   4.528   5.699
 2248SOL    HW2 7644   4.892   4.386   5.623
 2249SOL     OW 7645   6.192   6.593   2.626
 2249SOL    HW1 7646   6.157   6.677   2.668
 2249SOL    HW2 7647   6.193   6.520   2.694
 2250SOL     OW 7648   5.446   4.124   1.056
 2250SOL    HW1 7649   5.430   4.050   0.992
 2250SOL    HW2 7650   5.368   4.187   1.055
 2251SOL     OW 7651   5.944   1.632   0.460
 2251SOL    HW1 7652   5.944   1.612   0.558
 2251SOL    HW2 7653   6.031   1.605   0.420
 2252SOL     OW 7654   6.462   2.319   4.969
 2252SOL    HW1 7655   6.419   2.409   4.975
 2252SOL    HW2 7656   6.390   2.248   4.965
 2253SOL     OW 7657   0.869   3.000   6.522
 2253SOL    HW1 7658   0.806   2.924   6.524
 2253SOL    HW2 7659   0.835   3.074   6.581
 2254SOL     OW 7660   2.106   3.115   6.106
 2254SOL    HW1 7661   2.189   3.061   6.124
 2254SOL    HW2 7662   2.050   3.068   6.037
 2255SOL     OW 7663   6.702   2.228   0.869
 2255SOL    HW1 7664   6.700   2.157   0.798
 2255SOL    HW2 7665   6.627   2.212   0.934
 2256SOL     OW 7666   3.779   6.040   2.122
 2256SOL    HW1 7667   3.792   6.068   2.027
 2256SOL    HW2 7668   3.742   6.116   2.175
 2257SOL     OW 7669   0.895   2.569   4.382
 2257SOL    HW1 7670   0.978   2.563   4.438
 2257SOL    HW2 7671   0.916   2.620   4.298
 2258SOL     OW 7672   1.657   5.828   4.137
 2258SOL    HW1 7673   1.718   5.749   4.149
 2258SOL    HW2 7674   1.692   5.905   4.189
 2259SOL     OW 7675   4.999   3.688   6.411
 2259SOL    HW1 7676   5.082   3.634   6.420
 2259SOL    HW2 7677   4.977   3.698   6.313
 2260SOL     OW 7678   4.672   4.273   3.041
 2260SOL    HW1 7679   4.690   4.280   2.943
 2260SOL    HW2 7680   4.648   4.179   3.064
 2261SOL     OW 7681   5.842   6.337   0.759
 2261SOL    HW1 7682   5.901   6.381   0.691
 2261SOL    HW2 7683   5.895   6.271   0.812
 2262SOL     OW 7684   5.949   2.075   2.838
 2262SOL    HW1 7685   5.871   2.110   2.787
 2262SOL    HW2 7686   6.027   2.064   2.776
 2263SOL     OW 7687   2.692   5.735   6.131
 2263SOL    HW1 7688   2.628   5.764   6.203
 2263SOL    HW2 7689   2.653   5.656   6.083
 2264SOL     OW 7690   3.269   4.060   2.333
 2264SOL    HW1 7691   3.325   4.057   2.415
 2264SOL    HW2 7692   3.239   4.154   2.315
 2265SOL     OW 7693   0.453   1.138   3.621
 2265SOL    HW1 7694   0.405   1.051   3.617
 2265SOL    HW2 7695   0.395   1.205   3.668
 2266SOL     OW 7696   6.695   1.493   1.093
 2266SOL    HW1 7697   6.675   1.564   1.160
 2266SOL    HW2 7698   6.775   1.520   1.039
 2267SOL     OW 7699   5.461   2.745   4.611
 2267SOL    HW1 7700   5.522   2.669   4.589
 2267SOL    HW2 7701   5.516   2.827   4.630
 2268SOL     OW 7702   6.745   5.557   0.227
 2268SOL    HW1 7703   6.746   5.604   0.315
 2268SOL    HW2 7704   6.658   5.575   0.180
 2269SOL     OW 7705   5.663   5.865   5.157
 2269SOL    HW1 7706   5.596   5.875   5.230
 2269SOL    HW2 7707   5.656   5.774   5.117
 2270SOL     OW 7708   3.335   3.892   0.987
 2270SOL    HW1 7709   3.389   3.875   0.904
 2270SOL    HW2 7710   3.376   3.844   1.064
 2271SOL     OW 7711   5.965   4.121   0.999
 2271SOL    HW1 7712   5.957   4.026   1.027
 2271SOL    HW2 7713   6.019   4.127   0.915
 2272SOL     OW 7714   5.990   2.011   4.730
 2272SOL    HW1 7715   5.967   1.914   4.730
 2272SOL    HW2 7716   5.907   2.065   4.747
 2273SOL     OW 7717   1.871   1.788   2.701
 2273SOL    HW1 7718   1.777   1.806   2.672
 2273SOL    HW2 7719   1.876   1.699   2.746
 2274SOL     OW 7720   1.624   3.519   4.968
 2274SOL    HW1 7721   1.541   3.489   5.016
 2274SOL    HW2 7722   1.704   3.499   5.024
 2275SOL     OW 7723   4.682   0.002   4.699
 2275SOL    HW1 7724   4.745   7.011   4.624
 2275SOL    HW2 7725   4.598   6.978   4.687
 2276SOL     OW 7726   3.416   5.077   1.049
 2276SOL    HW1 7727   3.416   4.997   1.109
 2276SOL    HW2 7728   3.355   5.147   1.086
 2277SOL     OW 7729   3.090   3.576   4.765
 2277SOL    HW1 7730   3.063   3.481   4.777
 2277SOL    HW2 7731   3.187   3.581   4.741
 2278SOL     OW 7732   4.723   6.745   3.780
 2278SOL    HW1 7733   4.624   6.760   3.774
 2278SOL    HW2 7734   4.747   6.722   3.874
 2279SOL     OW 7735   5.896   4.550   4.252
 2279SOL    HW1 7736   5.971   4.615   4.265
 2279SOL    HW2 7737   5.881   4.498   4.337
 2280SOL     OW 7738   6.426   6.325   5.142
 2280SOL    HW1 7739   6.482   6.408   5.145
 2280SOL    HW2 7740   6.335   6.348   5.108
 2281SOL     OW 7741   3.557   1.345   1.705
 2281SOL    HW1 7742   3.643   1.319   1.659
 2281SOL    HW2 7743   3.554   1.302   1.796
 2282SOL     OW 7744   5.205   5.980   4.803
 2282SOL    HW1 7745   5.298   5.966   4.838
 2282SOL    HW2 7746   5.146   6.008   4.879
 2283SOL     OW 7747   6.906   3.440   1.904
 2283SOL    HW1 7748   6.982   3.391   1.946
 2283SOL    HW2 7749   6.941   3.511   1.844
 2284SOL     OW 7750   2.785   1.739   1.712
 2284SOL    HW1 7751   2.774   1.798   1.793
 2284SOL    HW2 7752   2.743   1.783   1.633
 2285SOL     OW 7753   1.469   3.306   0.020
 2285SOL    HW1 7754   1.567   3.316   0.032
 2285SOL    HW2 7755   1.421   3.377   0.071
 2286SOL     OW 7756   6.751   5.931   4.885
 2286SOL    HW1 7757   6.809   5.904   4.962
 2286SOL    HW2 7758   6.700   6.013   4.909
 2287SOL     OW 7759   2.481   2.797   1.570
 2287SOL    HW1 7760   2.435   2.843   1.494
 2287SOL    HW2 7761   2.487   2.699   1.551
 2288SOL     OW 7762   0.295   6.074   4.250
 2288SOL    HW1 7763   0.233   6.132   4.302
 2288SOL    HW2 7764   0.389   6.106   4.263
 2289SOL     OW 7765   5.775   3.178   1.629
 2289SOL    HW1 7766   5.847   3.162   1.697
 2289SOL    HW2 7767   5.689   3.141   1.663
 2290SOL     OW 7768   2.911   3.185   2.063
 2290SOL    HW1 7769   2.927   3.093   2.098
 2290SOL    HW2 7770   2.868   3.180   1.974
 2291SOL     OW 7771   2.216   2.082   0.895
 2291SOL    HW1 7772   2.119   2.091   0.875
 2291SOL    HW2 7773   2.229   2.014   0.967
 2292SOL     OW 7774   5.232   3.447   3.945
 2292SOL    HW1 7775   5.142   3.485   3.963
 2292SOL    HW2 7776   5.247   3.368   4.005
 2293SOL     OW 7777   5.914   1.189   0.488
 2293SOL    HW1 7778   5.945   1.106   0.441
 2293SOL    HW2 7779   5.936   1.269   0.432
 2294SOL     OW 7780   3.096   1.987   6.233
 2294SOL    HW1 7781   3.074   1.899   6.193
 2294SOL    HW2 7782   3.061   1.990   6.327
 2295SOL     OW 7783   6.674   0.774   2.233
 2295SOL    HW1 7784   6.749   0.837   2.254
 2295SOL    HW2 7785   6.587   0.819   2.249
 2296SOL     OW 7786   2.578   5.047   2.634
 2296SOL    HW1 7787   2.635   4.968   2.654
 2296SOL    HW2 7788   2.622   5.103   2.564
 2297SOL     OW 7789   4.623   4.674   5.831
 2297SOL    HW1 7790   4.680   4.649   5.909
 2297SOL    HW2 7791   4.550   4.735   5.861
 2298SOL     OW 7792   3.497   3.541   3.172
 2298SOL    HW1 7793   3.562   3.617   3.166
 2298SOL    HW2 7794   3.516   3.474   3.101
 2299SOL     OW 7795   4.761   4.068   4.926
 2299SOL    HW1 7796   4.789   4.162   4.909
 2299SOL    HW2 7797   4.737   4.025   4.839
 2300SOL     OW 7798   3.409   6.846   3.425
 2300SOL    HW1 7799   3.467   6.908   3.371
 2300SOL    HW2 7800   3.358   6.900   3.492
 2301SOL     OW 7801   3.547   2.941   4.014
 2301SOL    HW1 7802   3.476   2.971   3.950
 2301SOL    HW2 7803   3.512   2.946   4.108
 2302SOL     OW 7804   3.436   0.449   1.400
 2302SOL    HW1 7805   3.407   0.405   1.316
 2302SOL    HW2 7806   3.362   0.447   1.467
 2303SOL     OW 7807   2.413   3.005   1.362
 2303SOL    HW1 7808   2.406   3.104   1.363
 2303SOL    HW2 7809   2.329   2.966   1.324
 2304SOL     OW 7810   6.112   5.461   3.645
 2304SOL    HW1 7811   6.014   5.480   3.654
 2304SOL    HW2 7812   6.131   5.368   3.677
 2305SOL     OW 7813   1.919   0.448   4.101
 2305SOL    HW1 7814   1.884   0.541   4.091
 2305SOL    HW2 7815   1.936   0.409   4.010
 2306SOL     OW 7816   1.341   5.043   2.112
 2306SOL    HW1 7817   1.316   5.009   2.022
 2306SOL    HW2 7818   1.435   5.016   2.133
 2307SOL     OW 7819   0.998   3.440   5.243
 2307SOL    HW1 7820   1.084   3.398   5.272
 2307SOL    HW2 7821   0.930   3.431   5.316
 2308SOL     OW 7822   2.673   4.719   1.048
 2308SOL    HW1 7823   2.668   4.626   1.086
 2308SOL    HW2 7824   2.665   4.785   1.122
 2309SOL     OW 7825   1.556   0.506   3.939
 2309SOL    HW1 7826   1.596   0.467   3.856
 2309SOL    HW2 7827   1.496   0.581   3.915
 2310SOL     OW 7828   6.235   6.529   1.947
 2310SOL    HW1 7829   6.186   6.531   1.860
 2310SOL    HW2 7830   6.184   6.472   2.013
 2311SOL     OW 7831   2.283   5.931   6.420
 2311SOL    HW1 7832   2.222   5.896   6.349
 2311SOL    HW2 7833   2.256   5.893   6.508
 2312SOL     OW 7834   3.969   5.296   3.600
 2312SOL    HW1 7835   3.895   5.279   3.665
 2312SOL    HW2 7836   3.931   5.330   3.514
 2313SOL     OW 7837   5.049   4.982   2.022
 2313SOL    HW1 7838   5.141   5.009   1.995
 2313SOL    HW2 7839   5.028   4.892   1.985
 2314SOL     OW 7840   3.577   6.350   2.811
 2314SOL    HW1 7841   3.596   6.301   2.896
 2314SOL    HW2 7842   3.493   6.314   2.770
 2315SOL     OW 7843   5.310   3.622   5.916
 2315SOL    HW1 7844   5.296   3.701   5.976
 2315SOL    HW2 7845   5.393   3.635   5.862
 2316SOL     OW 7846   5.061   1.906   3.668
 2316SOL    HW1 7847   5.158   1.925   3.676
 2316SOL    HW2 7848   5.009   1.991   3.666
 2317SOL     OW 7849   0.860   5.056   2.857
 2317SOL    HW1 7850   0.773   5.007   2.871
 2317SOL    HW2 7851   0.859   5.099   2.767
 2318SOL     OW 7852   0.105   2.489   3.864
 2318SOL    HW1 7853   0.193   2.535   3.856
 2318SOL    HW2 7854   0.070   2.469   3.772
 2319SOL     OW 7855   1.852   4.372   5.070
 2319SOL    HW1 7856   1.926   4.412   5.124
 2319SOL    HW2 7857   1.845   4.421   4.983
 2320SOL     OW 7858   6.867   2.603   4.547
 2320SOL    HW1 7859   6.923   2.576   4.626
 2320SOL    HW2 7860   6.925   2.613   4.467
 2321SOL     OW 7861   3.876   0.733   5.154
 2321SOL    HW1 7862   3.877   0.649   5.209
 2321SOL    HW2 7863   3.828   0.805   5.204
 2322SOL     OW 7864   2.336   1.678   5.701
 2322SOL    HW1 7865   2.288   1.717   5.623
 2322SOL    HW2 7866   2.270   1.646   5.769
 2323SOL     OW 7867   3.201   5.357   2.910
 2323SOL    HW1 7868   3.188   5.405   2.997
 2323SOL    HW2 7869   3.112   5.333   2.872
 2324SOL     OW 7870   0.366   6.142   2.606
 2324SOL    HW1 7871   0.362   6.182   2.698
 2324SOL    HW2 7872   0.444   6.181   2.556
 2325SOL     OW 7873   1.141   3.929   1.714
 2325SOL    HW1 7874   1.054   3.945   1.762
 2325SOL    HW2 7875   1.210   3.901   1.781
 2326SOL     OW 7876   2.237   3.912   6.019
 2326SOL    HW1 7877   2.292   3.963   5.953
 2326SOL    HW2 7878   2.276   3.921   6.110
 2327SOL     OW 7879   4.699   2.773   4.688
 2327SOL    HW1 7880   4.632   2.759   4.614
 2327SOL    HW2 7881   4.791   2.778   4.649
 2328SOL     OW 7882   5.182   0.969   3.705
 2328SOL    HW1 7883   5.172   1.067   3.723
 2328SOL    HW2 7884   5.097   0.922   3.728
 2329SOL     OW 7885   1.517   5.335   4.219
 2329SOL    HW1 7886   1.466   5.401   4.164
 2329SOL    HW2 7887   1.513   5.361   4.316
 2330SOL     OW 7888   6.993   5.000   1.806
 2330SOL    HW1 7889   7.012   5.098   1.808
 2330SOL    HW2 7890   6.952   4.972   1.892
 2331SOL     OW 7891   6.713   4.518   6.034
 2331SOL    HW1 7892   6.700   4.595   5.972
 2331SOL    HW2 7893   6.625   4.475   6.052
 2332SOL     OW 7894   5.009   2.099   5.667
 2332SOL    HW1 7895   4.949   2.024   5.640
 2332SOL    HW2 7896   5.091   2.099   5.610
 2333SOL     OW 7897   0.467   5.166   2.643
 2333SOL    HW1 7898   0.564   5.189   2.644
 2333SOL    HW2 7899   0.456   5.067   2.636
 2334SOL     OW 7900   3.339   7.029   6.999
 2334SOL    HW1 7901   3.400   0.048   0.032
 2334SOL    HW2 7902   3.267   6.983   0.023
 2335SOL     OW 7903   6.117   1.270   3.102
 2335SOL    HW1 7904   6.059   1.235   3.028
 2335SOL    HW2 7905   6.204   1.222   3.102
 2336SOL     OW 7906   4.598   1.299   5.462
 2336SOL    HW1 7907   4.632   1.340   5.547
 2336SOL    HW2 7908   4.516   1.349   5.432
 2337SOL     OW 7909   5.003   0.488   3.217
 2337SOL    HW1 7910   5.073   0.423   3.187
 2337SOL    HW2 7911   5.036   0.537   3.298
 2338SOL     OW 7912   0.663   0.078   0.279
 2338SOL    HW1 7913   0.687   0.038   0.190
 2338SOL    HW2 7914   0.690   0.016   0.352
 2339SOL     OW 7915   3.428   3.185   5.592
 2339SOL    HW1 7916   3.452   3.206   5.497
 2339SOL    HW2 7917   3.361   3.110   5.594
 2340SOL     OW 7918   3.802   6.635   5.322
 2340SOL    HW1 7919   3.772   6.574   5.395
 2340SOL    HW2 7920   3.787   6.730   5.349
 2341SOL     OW 7921   5.168   4.348   0.286
 2341SOL    HW1 7922   5.082   4.303   0.312
 2341SOL    HW2 7923   5.234   4.278   0.256
 2342SOL     OW 7924   0.603   6.728   5.590
 2342SOL    HW1 7925   0.609   6.683   5.679
 2342SOL    HW2 7926   0.521   6.784   5.586
 2343SOL     OW 7927   1.673   6.690   1.054
 2343SOL    HW1 7928   1.574   6.672   1.056
 2343SOL    HW2 7929   1.716   6.633   0.984
 2344SOL     OW 7930   2.637   1.816   2.364
 2344SOL    HW1 7931   2.636   1.859   2.455
 2344SOL    HW2 7932   2.643   1.886   2.294
 2345SOL     OW 7933   1.578   7.022   5.304
 2345SOL    HW1 7934   1.498   0.038   5.264
 2345SOL    HW2 7935   1.556   6.926   5.322
 2346SOL     OW 7936   4.822   2.569   5.121
 2346SOL    HW1 7937   4.833   2.666   5.143
 2346SOL    HW2 7938   4.786   2.560   5.028
 2347SOL     OW 7939   1.822   4.253   1.726
 2347SOL    HW1 7940   1.784   4.161   1.738
 2347SOL    HW2 7941   1.916   4.255   1.761
 2348SOL     OW 7942   2.319   6.689   3.449
 2348SOL    HW1 7943   2.306   6.618   3.518
 2348SOL    HW2 7944   2.230   6.719   3.414
 2349SOL     OW 7945   0.175   6.099   6.304
 2349SOL    HW1 7946   0.145   6.178   6.359
 2349SOL    HW2 7947   0.217   6.131   6.219
 2350SOL     OW 7948   3.267   0.601   5.675
 2350SOL    HW1 7949   3.314   0.626   5.760
 2350SOL    HW2 7950   3.211   0.519   5.692
 2351SOL     OW 7951   2.922   5.142   3.528
 2351SOL    HW1 7952   2.985   5.102   3.462
 2351SOL    HW2 7953   2.933   5.241   3.529
 2352SOL     OW 7954   6.333   3.935   3.515
 2352SOL    HW1 7955   6.417   3.937   3.461
 2352SOL    HW2 7956   6.339   4.003   3.588
 2353SOL     OW 7957   2.457   4.074   5.423
 2353SOL    HW1 7958   2.437   4.025   5.338
 2353SOL    HW2 7959   2.505   4.013   5.486
 2354SOL     OW 7960   3.499   2.369   6.938
 2354SOL    HW1 7961   3.533   2.447   6.991
 2354SOL    HW2 7962   3.515   2.384   6.841
 2355SOL     OW 7963   1.252   6.813   0.899
 2355SOL    HW1 7964   1.316   6.829   0.975
 2355SOL    HW2 7965   1.231   6.900   0.855
 2356SOL     OW 7966   2.069   4.559   1.956
 2356SOL    HW1 7967   2.039   4.557   2.052
 2356SOL    HW2 7968   2.005   4.615   1.903
 2357SOL     OW 7969   5.311   4.674   3.951
 2357SOL    HW1 7970   5.213   4.674   3.932
 2357SOL    HW2 7971   5.327   4.664   4.049
 2358SOL     OW 7972   3.028   6.918   3.915
 2358SOL    HW1 7973   2.993   7.009   3.893
 2358SOL    HW2 7974   3.054   6.914   4.012
 2359SOL     OW 7975   2.774   1.283   6.034
 2359SOL    HW1 7976   2.753   1.380   6.024
 2359SOL    HW2 7977   2.763   1.256   6.129
 2360SOL     OW 7978   3.956   4.963   0.051
 2360SOL    HW1 7979   3.929   5.060   0.045
 2360SOL    HW2 7980   4.049   4.952   0.017
 2361SOL     OW 7981   2.855   0.162   3.393
 2361SOL    HW1 7982   2.852   0.247   3.341
 2361SOL    HW2 7983   2.871   0.086   3.330
 2362SOL     OW 7984   4.816   6.031   5.248
 2362SOL    HW1 7985   4.902   6.017   5.199
 2362SOL    HW2 7986   4.760   6.096   5.198
 2363SOL     OW 7987   4.197   1.911   5.390
 2363SOL    HW1 7988   4.151   1.957   5.315
 2363SOL    HW2 7989   4.182   1.962   5.475
 2364SOL     OW 7990   5.638   1.892   1.466
 2364SOL    HW1 7991   5.653   1.809   1.519
 2364SOL    HW2 7992   5.539   1.905   1.452
 2365SOL     OW 7993   6.221   4.540   4.981
 2365SOL    HW1 7994   6.165   4.621   5.001
 2365SOL    HW2 7995   6.306   4.544   5.034
 2366SOL     OW 7996   1.267   4.358   5.517
 2366SOL    HW1 7997   1.194   4.295   5.542
 2366SOL    HW2 7998   1.292   4.344   5.421
 2367SOL     OW 7999   0.733   3.426   5.358
 2367SOL    HW1 8000   0.732   3.498   5.428
 2367SOL    HW2 8001   0.640   3.393   5.343
 2368SOL     OW 8002   4.483   0.799   4.784
 2368SOL    HW1 8003   4.397   0.844   4.806
 2368SOL    HW2 8004   4.555   0.867   4.774
 2369SOL     OW 8005   3.067   2.028   3.641
 2369SOL    HW1 8006   3.004   2.006   3.715
 2369SOL    HW2 8007   3.150   1.974   3.652
 2370SOL     OW 8008   4.353   2.678   0.782
 2370SOL    HW1 8009   4.359   2.696   0.684
 2370SOL    HW2 8010   4.407   2.745   0.832
 2371SOL     OW 8011   1.103   6.513   2.685
 2371SOL    HW1 8012   1.188   6.461   2.695
 2371SOL    HW2 8013   1.055   6.516   2.773
 2372SOL     OW 8014   0.007   0.764   6.910
 2372SOL    HW1 8015   0.089   0.777   6.965
 2372SOL    HW2 8016   7.000   0.673   6.927
 2373SOL     OW 8017   6.403   1.027   6.175
 2373SOL    HW1 8018   6.386   1.118   6.214
 2373SOL    HW2 8019   6.487   0.989   6.215
 2374SOL     OW 8020   5.924   5.755   3.049
 2374SOL    HW1 8021   5.940   5.836   3.105
 2374SOL    HW2 8022   5.968   5.767   2.960
 2375SOL     OW 8023   0.547   0.572   3.599
 2375SOL    HW1 8024   0.551   0.487   3.547
 2375SOL    HW2 8025   0.465   0.572   3.656
 2376SOL     OW 8026   6.441   2.499   3.435
 2376SOL    HW1 8027   6.352   2.521   3.476
 2376SOL    HW2 8028   6.502   2.578   3.444
 2377SOL     OW 8029   3.319   4.157   6.189
 2377SOL    HW1 8030   3.256   4.232   6.168
 2377SOL    HW2 8031   3.267   4.078   6.221
 2378SOL     OW 8032   5.475   2.166   7.007
 2378SOL    HW1 8033   5.494   2.102   0.051
 2378SOL    HW2 8034   5.476   2.118   6.919
 2379SOL     OW 8035   6.779   4.414   0.138
 2379SOL    HW1 8036   6.720   4.441   0.214
 2379SOL    HW2 8037   6.835   4.336   0.164
 2380SOL     OW 8038   6.178   1.651   5.224
 2380SOL    HW1 8039   6.182   1.553   5.206
 2380SOL    HW2 8040   6.106   1.692   5.168
 2381SOL     OW 8041   2.422   5.104   4.957
 2381SOL    HW1 8042   2.501   5.047   4.933
 2381SOL    HW2 8043   2.417   5.113   5.056
 2382SOL     OW 8044   1.875   6.161   2.814
 2382SOL    HW1 8045   1.815   6.102   2.868
 2382SOL    HW2 8046   1.970   6.131   2.824
 2383SOL     OW 8047   5.237   5.366   5.663
 2383SOL    HW1 8048   5.142   5.343   5.642
 2383SOL    HW2 8049   5.284   5.285   5.697
 2384SOL     OW 8050   1.250   2.130   1.317
 2384SOL    HW1 8051   1.234   2.156   1.222
 2384SOL    HW2 8052   1.308   2.049   1.321
 2385SOL     OW 8053   0.926   1.284   6.922
 2385SOL    HW1 8054   0.868   1.307   6.843
 2385SOL    HW2 8055   0.868   1.267   7.001
 2386SOL     OW 8056   3.387   4.949   4.812
 2386SOL    HW1 8057   3.442   4.970   4.731
 2386SOL    HW2 8058   3.290   4.950   4.788
 2387SOL     OW 8059   6.847   3.530   4.145
 2387SOL    HW1 8060   6.769   3.587   4.171
 2387SOL    HW2 8061   6.932   3.577   4.167
 2388SOL     OW 8062   0.246   1.285   5.649
 2388SOL    HW1 8063   0.254   1.332   5.737
 2388SOL    HW2 8064   0.265   1.350   5.575
 2389SOL     OW 8065   5.038   4.533   4.321
 2389SOL    HW1 8066   5.037   4.483   4.235
 2389SOL    HW2 8067   4.988   4.480   4.390
 2390SOL     OW 8068   3.568   3.485   5.269
 2390SOL    HW1 8069   3.660   3.515   5.245
 2390SOL    HW2 8070   3.530   3.545   5.339
 2391SOL     OW 8071   3.807   4.085   5.902
 2391SOL    HW1 8072   3.731   4.148   5.889
 2391SOL    HW2 8073   3.876   4.126   5.961
 2392SOL     OW 8074   3.041   4.156   6.710
 2392SOL    HW1 8075   3.110   4.097   6.668
 2392SOL    HW2 8076   3.013   4.117   6.798
 2393SOL     OW 8077   4.098   5.242   1.293
 2393SOL    HW1 8078   4.151   5.247   1.208
 2393SOL    HW2 8079   4.014   5.190   1.276
 2394SOL     OW 8080   0.588   3.912   3.887
 2394SOL    HW1 8081   0.534   3.845   3.939
 2394SOL    HW2 8082   0.562   3.906   3.791
 2395SOL     OW 8083   0.147   3.142   0.072
 2395SOL    HW1 8084   0.083   3.213   0.102
 2395SOL    HW2 8085   0.110   3.097   7.020
 2396SOL     OW 8086   5.203   0.348   0.574
 2396SOL    HW1 8087   5.240   0.316   0.662
 2396SOL    HW2 8088   5.241   0.438   0.553
 2397SOL     OW 8089   6.924   4.733   0.097
 2397SOL    HW1 8090   6.827   4.736   0.071
 2397SOL    HW2 8091   6.960   4.641   0.080
 2398SOL     OW 8092   2.799   5.062   4.620
 2398SOL    HW1 8093   2.717   5.111   4.591
 2398SOL    HW2 8094   2.873   5.127   4.637
 2399SOL     OW 8095   3.795   2.142   3.875
 2399SOL    HW1 8096   3.713   2.140   3.933
 2399SOL    HW2 8097   3.768   2.163   3.781
 2400SOL     OW 8098   1.531   3.178   0.378
 2400SOL    HW1 8099   1.490   3.125   0.304
 2400SOL    HW2 8100   1.614   3.132   0.410
 2401SOL     OW 8101   3.354   0.088   3.665
 2401SOL    HW1 8102   3.313   0.148   3.596
 2401SOL    HW2 8103   3.443   0.124   3.692
 2402SOL     OW 8104   7.003   1.670   3.638
 2402SOL    HW1 8105   6.956   1.747   3.595
 2402SOL    HW2 8106   6.945   1.631   3.709
 2403SOL     OW 8107   3.773   3.564   1.165
 2403SOL    HW1 8108   3.751   3.659   1.187
 2403SOL    HW2 8109   3.855   3.561   1.109
 2404SOL     OW 8110   5.895   1.884   1.212
 2404SOL    HW1 8111   5.877   1.813   1.281
 2404SOL    HW2 8112   5.987   1.872   1.175
 2405SOL     OW 8113   3.219   5.008   5.700
 2405SOL    HW1 8114   3.289   5.042   5.762
 2405SOL    HW2 8115   3.131   5.003   5.749
 2406SOL     OW 8116   2.661   0.061   3.856
 2406SOL    HW1 8117   2.615   0.115   3.785
 2406SOL    HW2 8118   2.690   7.003   3.819
 2407SOL     OW 8119   4.463   2.195   3.017
 2407SOL    HW1 8120   4.533   2.125   3.031
 2407SOL    HW2 8121   4.408   2.173   2.937
 2408SOL     OW 8122   2.265   5.544   2.892
 2408SOL    HW1 8123   2.224   5.464   2.848
 2408SOL    HW2 8124   2.357   5.522   2.923
 2409SOL     OW 8125   2.598   2.985   0.715
 2409SOL    HW1 8126   2.664   2.972   0.789
 2409SOL    HW2 8127   2.556   3.075   0.723
 2410SOL     OW 8128   6.307   3.210   5.792
 2410SOL    HW1 8129   6.355   3.130   5.757
 2410SOL    HW2 8130   6.365   3.291   5.782
 2411SOL     OW 8131   2.548   4.170   5.896
 2411SOL    HW1 8132   2.485   4.094   5.879
 2411SOL    HW2 8133   2.600   4.188   5.812
 2412SOL     OW 8134   2.337   2.835   0.745
 2412SOL    HW1 8135   2.425   2.866   0.708
 2412SOL    HW2 8136   2.264   2.858   0.681
 2413SOL     OW 8137   5.691   3.539   6.476
 2413SOL    HW1 8138   5.605   3.531   6.425
 2413SOL    HW2 8139   5.759   3.477   6.437
 2414SOL     OW 8140   5.705   2.882   3.789
 2414SOL    HW1 8141   5.607   2.878   3.805
 2414SOL    HW2 8142   5.741   2.968   3.824
 2415SOL     OW 8143   2.295   0.064   1.120
 2415SOL    HW1 8144   2.219   0.000   1.135
 2415SOL    HW2 8145   2.283   0.110   1.033
 2416SOL     OW 8146   1.196   3.026   3.854
 2416SOL    HW1 8147   1.149   2.939   3.868
 2416SOL    HW2 8148   1.178   3.086   3.932
 2417SOL     OW 8149   4.628   1.830   6.736
 2417SOL    HW1 8150   4.713   1.835   6.788
 2417SOL    HW2 8151   4.565   1.901   6.766
 2418SOL     OW 8152   3.763   3.764   4.729
 2418SOL    HW1 8153   3.844   3.799   4.682
 2418SOL    HW2 8154   3.788   3.736   4.822
 2419SOL     OW 8155   1.970   6.858   4.590
 2419SOL    HW1 8156   2.004   6.773   4.628
 2419SOL    HW2 8157   1.896   6.838   4.525
 2420SOL     OW 8158   3.388   5.820   2.046
 2420SOL    HW1 8159   3.482   5.854   2.034
 2420SOL    HW2 8160   3.387   5.752   2.119
 2421SOL     OW 8161   3.829   6.942   4.166
 2421SOL    HW1 8162   3.757   6.873   4.166
 2421SOL    HW2 8163   3.836   6.982   4.074
 2422SOL     OW 8164   3.731   0.124   1.139
 2422SOL    HW1 8165   3.767   0.064   1.211
 2422SOL    HW2 8166   3.771   0.098   1.051
 2423SOL     OW 8167   1.625   5.320   1.123
 2423SOL    HW1 8168   1.612   5.419   1.119
 2423SOL    HW2 8169   1.621   5.282   1.030
 2424SOL     OW 8170   5.689   6.445   7.019
 2424SOL    HW1 8171   5.615   6.432   6.954
 2424SOL    HW2 8172   5.666   6.520   0.052
 2425SOL     OW 8173   4.815   6.275   5.810
 2425SOL    HW1 8174   4.818   6.373   5.789
 2425SOL    HW2 8175   4.900   6.247   5.854
 2426SOL     OW 8176   1.238   5.071   3.930
 2426SOL    HW1 8177   1.199   5.098   4.017
 2426SOL    HW2 8178   1.325   5.118   3.915
 2427SOL     OW 8179   5.259   5.620   0.103
 2427SOL    HW1 8180   5.165   5.653   0.111
 2427SOL    HW2 8181   5.305   5.628   0.191
 2428SOL     OW 8182   0.249   0.462   2.754
 2428SOL    HW1 8183   0.341   0.463   2.714
 2428SOL    HW2 8184   0.255   0.475   2.852
 2429SOL     OW 8185   5.699   4.734   2.765
 2429SOL    HW1 8186   5.779   4.722   2.707
 2429SOL    HW2 8187   5.630   4.665   2.742
 2430SOL     OW 8188   5.322   2.407   0.111
 2430SOL    HW1 8189   5.373   2.362   0.037
 2430SOL    HW2 8190   5.243   2.351   0.135
 2431SOL     OW 8191   5.073   1.484   1.092
 2431SOL    HW1 8192   5.112   1.571   1.123
 2431SOL    HW2 8193   5.145   1.428   1.049
 2432SOL     OW 8194   3.141   6.462   1.575
 2432SOL    HW1 8195   3.182   6.371   1.586
 2432SOL    HW2 8196   3.045   6.458   1.602
 2433SOL     OW 8197   1.344   6.806   0.243
 2433SOL    HW1 8198   1.245   6.821   0.246
 2433SOL    HW2 8199   1.382   6.818   0.335
 2434SOL     OW 8200   5.737   1.875   2.690
 2434SOL    HW1 8201   5.732   1.869   2.790
 2434SOL    HW2 8202   5.787   1.796   2.655
 2435SOL     OW 8203   5.875   5.046   6.971
 2435SOL    HW1 8204   5.863   5.145   6.968
 2435SOL    HW2 8205   5.948   5.019   6.908
 2436SOL     OW 8206   1.580   0.873   1.335
 2436SOL    HW1 8207   1.596   0.962   1.293
 2436SOL    HW2 8208   1.667   0.824   1.344
 2437SOL     OW 8209   5.435   6.666   1.039
 2437SOL    HW1 8210   5.513   6.611   1.070
 2437SOL    HW2 8211   5.446   6.688   0.942
 2438SOL     OW 8212   4.137   1.496   4.255
 2438SOL    HW1 8213   4.067   1.561   4.285
 2438SOL    HW2 8214   4.209   1.544   4.206
 2439SOL     OW 8215   0.632   4.828   0.818
 2439SOL    HW1 8216   0.628   4.792   0.725
 2439SOL    HW2 8217   0.586   4.916   0.821
 2440SOL     OW 8218   3.624   0.059   6.097
 2440SOL    HW1 8219   3.626   6.996   6.059
 2440SOL    HW2 8220   3.685   0.118   6.042
 2441SOL     OW 8221   5.938   1.313   0.204
 2441SOL    HW1 8222   6.028   1.271   0.191
 2441SOL    HW2 8223   5.915   1.369   0.124
 2442SOL     OW 8224   5.456   5.030   2.988
 2442SOL    HW1 8225   5.419   5.123   2.982
 2442SOL    HW2 8226   5.470   4.993   2.896
 2443SOL     OW 8227   2.629   0.779   0.092
 2443SOL    HW1 8228   2.678   0.751   0.175
 2443SOL    HW2 8229   2.581   0.864   0.109
 2444SOL     OW 8230   3.923   4.657   0.490
 2444SOL    HW1 8231   3.999   4.704   0.536
 2444SOL    HW2 8232   3.842   4.716   0.492
 2445SOL     OW 8233   5.547   1.423   1.771
 2445SOL    HW1 8234   5.453   1.417   1.739
 2445SOL    HW2 8235   5.559   1.369   1.854
 2446SOL     OW 8236   1.003   2.813   3.902
 2446SOL    HW1 8237   0.941   2.884   3.933
 2446SOL    HW2 8238   1.039   2.763   3.982
 2447SOL     OW 8239   2.428   0.902   0.965
 2447SOL    HW1 8240   2.382   0.945   0.887
 2447SOL    HW2 8241   2.411   0.956   1.048
 2448SOL     OW 8242   6.363   1.306   4.149
 2448SOL    HW1 8243   6.339   1.385   4.092
 2448SOL    HW2 8244   6.454   1.274   4.125
 2449SOL     OW 8245   1.537   3.638   1.349
 2449SOL    HW1 8246   1.464   3.706   1.360
 2449SOL    HW2 8247   1.507   3.551   1.386
 2450SOL     OW 8248   3.039   5.174   6.463
 2450SOL    HW1 8249   2.992   5.256   6.428
 2450SOL    HW2 8250   3.084   5.127   6.387
 2451SOL     OW 8251   1.495   0.503   3.324
 2451SOL    HW1 8252   1.552   0.422   3.306
 2451SOL    HW2 8253   1.549   0.586   3.306
 2452SOL     OW 8254   2.802   1.835   4.210
 2452SOL    HW1 8255   2.848   1.785   4.283
 2452SOL    HW2 8256   2.814   1.933   4.224
 2453SOL     OW 8257   0.285   3.041   0.295
 2453SOL    HW1 8258   0.383   3.053   0.282
 2453SOL    HW2 8259   0.236   3.087   0.220
 2454SOL     OW 8260   2.926   6.602   0.181
 2454SOL    HW1 8261   3.025   6.597   0.166
 2454SOL    HW2 8262   2.879   6.582   0.095
 2455SOL     OW 8263   4.491   0.919   0.735
 2455SOL    HW1 8264   4.568   0.924   0.671
 2455SOL    HW2 8265   4.492   0.830   0.782
 2456SOL     OW 8266   0.347   2.516   6.619
 2456SOL    HW1 8267   0.314   2.490   6.709
 2456SOL    HW2 8268   0.345   2.615   6.609
 2457SOL     OW 8269   6.547   0.949   6.490
 2457SOL    HW1 8270   6.628   0.920   6.541
 2457SOL    HW2 8271   6.550   1.047   6.476
 2458SOL     OW 8272   1.857   6.479   3.987
 2458SOL    HW1 8273   1.953   6.468   3.965
 2458SOL    HW2 8274   1.806   6.499   3.903
 2459SOL     OW 8275   2.690   6.652   5.819
 2459SOL    HW1 8276   2.752   6.651   5.740
 2459SOL    HW2 8277   2.667   6.746   5.842
 2460SOL     OW 8278   1.449   1.425   0.757
 2460SOL    HW1 8279   1.372   1.366   0.733
 2460SOL    HW2 8280   1.509   1.435   0.677
 2461SOL     OW 8281   5.364   0.470   3.935
 2461SOL    HW1 8282   5.296   0.442   4.002
 2461SOL    HW2 8283   5.341   0.432   3.845
 2462SOL     OW 8284   1.861   4.746   6.576
 2462SOL    HW1 8285   1.829   4.819   6.636
 2462SOL    HW2 8286   1.790   4.676   6.568
 2463SOL     OW 8287   5.750   2.105   6.749
 2463SOL    HW1 8288   5.751   2.136   6.843
 2463SOL    HW2 8289   5.723   2.008   6.745
 2464SOL     OW 8290   2.071   3.343   2.863
 2464SOL    HW1 8291   2.061   3.367   2.960
 2464SOL    HW2 8292   2.121   3.257   2.856
 2465SOL     OW 8293   1.021   6.640   6.341
 2465SOL    HW1 8294   0.925   6.617   6.357
 2465SOL    HW2 8295   1.028   6.736   6.314
 2466SOL     OW 8296   2.416   1.703   2.721
 2466SOL    HW1 8297   2.346   1.641   2.756
 2466SOL    HW2 8298   2.430   1.778   2.786
 2467SOL     OW 8299   5.021   1.764   5.197
 2467SOL    HW1 8300   5.117   1.744   5.217
 2467SOL    HW2 8301   4.979   1.685   5.153
 2468SOL     OW 8302   4.257   0.200   1.071
 2468SOL    HW1 8303   4.222   0.148   0.993
 2468SOL    HW2 8304   4.265   0.297   1.047
 2469SOL     OW 8305   4.140   3.499   4.708
 2469SOL    HW1 8306   4.160   3.567   4.779
 2469SOL    HW2 8307   4.217   3.436   4.699
 2470SOL     OW 8308   4.109   4.370   5.762
 2470SOL    HW1 8309   4.166   4.450   5.740
 2470SOL    HW2 8310   4.166   4.300   5.805
 2471SOL     OW 8311   3.115   6.128   0.557
 2471SOL    HW1 8312   3.154   6.218   0.539
 2471SOL    HW2 8313   3.180   6.057   0.530
 2472SOL     OW 8314   5.067   2.176   3.444
 2472SOL    HW1 8315   4.981   2.206   3.404
 2472SOL    HW2 8316   5.052   2.149   3.540
 2473SOL     OW 8317   0.864   3.638   4.570
 2473SOL    HW1 8318   0.894   3.721   4.523
 2473SOL    HW2 8319   0.842   3.568   4.503
 2474SOL     OW 8320   0.295   5.661   1.702
 2474SOL    HW1 8321   0.332   5.647   1.794
 2474SOL    HW2 8322   0.196   5.673   1.707
 2475SOL     OW 8323   3.968   1.035   2.430
 2475SOL    HW1 8324   4.022   1.072   2.505
 2475SOL    HW2 8325   3.875   1.072   2.433
 2476SOL     OW 8326   6.154   1.285   2.632
 2476SOL    HW1 8327   6.114   1.241   2.552
 2476SOL    HW2 8328   6.211   1.219   2.682
 2477SOL     OW 8329   4.539   1.415   2.974
 2477SOL    HW1 8330   4.452   1.442   3.015
 2477SOL    HW2 8331   4.610   1.417   3.044
 2478SOL     OW 8332   6.166   1.678   1.123
 2478SOL    HW1 8333   6.259   1.686   1.088
 2478SOL    HW2 8334   6.167   1.672   1.223
 2479SOL     OW 8335   0.947   2.922   2.583
 2479SOL    HW1 8336   1.035   2.879   2.564
 2479SOL    HW2 8337   0.961   3.013   2.621
 2480SOL     OW 8338   4.783   4.273   0.797
 2480SOL    HW1 8339   4.842   4.353   0.797
 2480SOL    HW2 8340   4.812   4.211   0.870
 2481SOL     OW 8341   4.005   6.503   0.388
 2481SOL    HW1 8342   3.987   6.475   0.483
 2481SOL    HW2 8343   4.015   6.421   0.331
 2482SOL     OW 8344   5.340   3.745   5.549
 2482SOL    HW1 8345   5.393   3.677   5.499
 2482SOL    HW2 8346   5.243   3.735   5.526
 2483SOL     OW 8347   1.893   1.629   0.357
 2483SOL    HW1 8348   1.952   1.611   0.436
 2483SOL    HW2 8349   1.932   1.704   0.303
 2484SOL     OW 8350   3.926   0.460   6.961
 2484SOL    HW1 8351   3.963   0.448   6.869
 2484SOL    HW2 8352   3.982   0.526   7.011
 2485SOL     OW 8353   6.064   3.637   1.554
 2485SOL    HW1 8354   6.018   3.551   1.578
 2485SOL    HW2 8355   6.062   3.699   1.633
 2486SOL     OW 8356   2.328   4.698   5.213
 2486SOL    HW1 8357   2.424   4.677   5.198
 2486SOL    HW2 8358   2.272   4.620   5.184
 2487SOL     OW 8359   4.321   6.205   0.276
 2487SOL    HW1 8360   4.331   6.260   0.359
 2487SOL    HW2 8361   4.361   6.114   0.290
 2488SOL     OW 8362   1.436   4.489   2.135
 2488SOL    HW1 8363   1.374   4.535   2.198
 2488SOL    HW2 8364   1.515   4.454   2.185
 2489SOL     OW 8365   1.118   6.899   3.537
 2489SOL    HW1 8366   1.082   6.814   3.576
 2489SOL    HW2 8367   1.139   6.963   3.610
 2490SOL     OW 8368   6.975   5.553   1.343
 2490SOL    HW1 8369   6.901   5.498   1.304
 2490SOL    HW2 8370   0.024   5.495   1.361
 2491SOL     OW 8371   1.959   4.756   0.370
 2491SOL    HW1 8372   2.031   4.697   0.336
 2491SOL    HW2 8373   1.984   4.792   0.460
 2492SOL     OW 8374   4.824   3.473   0.964
 2492SOL    HW1 8375   4.765   3.396   0.940
 2492SOL    HW2 8376   4.915   3.458   0.926
 2493SOL     OW 8377   5.858   0.064   2.050
 2493SOL    HW1 8378   5.954   0.067   2.077
 2493SOL    HW2 8379   5.849   0.101   1.957
 2494SOL     OW 8380   5.361   4.684   2.890
 2494SOL    HW1 8381   5.326   4.689   2.984
 2494SOL    HW2 8382   5.317   4.609   2.841
 2495SOL     OW 8383   5.168   6.722   4.395
 2495SOL    HW1 8384   5.151   6.812   4.355
 2495SOL    HW2 8385   5.251   6.726   4.451
 2496SOL     OW 8386   0.071   2.730   5.746
 2496SOL    HW1 8387   0.031   2.727   5.654
 2496SOL    HW2 8388   0.162   2.688   5.744
 2497SOL     OW 8389   0.517   0.559   0.637
 2497SOL    HW1 8390   0.478   0.504   0.563
 2497SOL    HW2 8391   0.596   0.513   0.676
 2498SOL     OW 8392   2.946   1.741   4.443
 2498SOL    HW1 8393   3.015   1.801   4.484
 2498SOL    HW2 8394   2.866   1.736   4.503
 2499SOL     OW 8395   6.393   2.382   2.091
 2499SOL    HW1 8396   6.439   2.463   2.054
 2499SOL    HW2 8397   6.299   2.378   2.057
 2500SOL     OW 8398   4.648   3.798   6.621
 2500SOL    HW1 8399   4.690   3.889   6.616
 2500SOL    HW2 8400   4.559   3.801   6.576
 2501SOL     OW 8401   5.929   5.222   0.729
 2501SOL    HW1 8402   5.906   5.125   0.733
 2501SOL    HW2 8403   5.876   5.266   0.657
 2502SOL     OW 8404   0.944   6.809   3.259
 2502SOL    HW1 8405   0.891   6.766   3.332
 2502SOL    HW2 8406   0.913   6.903   3.245
 2503SOL     OW 8407   2.369   5.815   4.471
 2503SOL    HW1 8408   2.447   5.871   4.442
 2503SOL    HW2 8409   2.390   5.773   4.560
 2504SOL     OW 8410   3.551   5.409   4.533
 2504SOL    HW1 8411   3.557   5.369   4.624
 2504SOL    HW2 8412   3.639   5.451   4.509
 2505SOL     OW 8413   0.994   6.426   2.940
 2505SOL    HW1 8414   0.947   6.363   3.001
 2505SOL    HW2 8415   0.999   6.517   2.982
 2506SOL     OW 8416   5.680   4.186   5.848
 2506SOL    HW1 8417   5.599   4.173   5.905
 2506SOL    HW2 8418   5.751   4.122   5.878
 2507SOL     OW 8419   0.221   3.680   0.546
 2507SOL    HW1 8420   0.198   3.665   0.642
 2507SOL    HW2 8421   0.320   3.691   0.536
 2508SOL     OW 8422   2.191   1.495   3.434
 2508SOL    HW1 8423   2.288   1.493   3.410
 2508SOL    HW2 8424   2.168   1.413   3.486
 2509SOL     OW 8425   0.131   3.596   0.817
 2509SOL    HW1 8426   0.072   3.514   0.821
 2509SOL    HW2 8427   0.222   3.572   0.849
 2510SOL     OW 8428   2.658   4.536   1.367
 2510SOL    HW1 8429   2.670   4.437   1.355
 2510SOL    HW2 8430   2.732   4.572   1.423
 2511SOL     OW 8431   3.783   2.165   4.606
 2511SOL    HW1 8432   3.704   2.103   4.609
 2511SOL    HW2 8433   3.751   2.259   4.616
 2512SOL     OW 8434   5.210   3.796   4.951
 2512SOL    HW1 8435   5.229   3.698   4.958
 2512SOL    HW2 8436   5.112   3.812   4.965
 2513SOL     OW 8437   1.939   4.337   5.374
 2513SOL    HW1 8438   1.972   4.420   5.330
 2513SOL    HW2 8439   1.942   4.261   5.308
 2514SOL     OW 8440   6.733   3.005   4.976
 2514SOL    HW1 8441   6.698   3.042   5.062
 2514SOL    HW2 8442   6.706   2.909   4.969
 2515SOL     OW 8443   1.680   6.898   0.646
 2515SOL    HW1 8444   1.777   6.921   0.635
 2515SOL    HW2 8445   1.652   6.921   0.739
 2516SOL     OW 8446   6.007   1.635   2.342
 2516SOL    HW1 8447   6.080   1.592   2.396
 2516SOL    HW2 8448   6.048   1.683   2.264
 2517SOL     OW 8449   1.157   6.221   5.602
 2517SOL    HW1 8450   1.062   6.251   5.600
 2517SOL    HW2 8451   1.172   6.161   5.681
 2518SOL     OW 8452   1.010   4.330   6.705
 2518SOL    HW1 8453   0.989   4.427   6.693
 2518SOL    HW2 8454   1.109   4.317   6.709
 2519SOL     OW 8455   3.957   6.628   3.090
 2519SOL    HW1 8456   3.935   6.540   3.132
 2519SOL    HW2 8457   4.056   6.643   3.093
 2520SOL     OW 8458   3.001   2.084   0.615
 2520SOL    HW1 8459   2.982   2.115   0.708
 2520SOL    HW2 8460   2.982   1.986   0.609
 2521SOL     OW 8461   1.837   1.154   5.212
 2521SOL    HW1 8462   1.788   1.239   5.235
 2521SOL    HW2 8463   1.805   1.121   5.123
 2522SOL     OW 8464   0.257   3.523   4.869
 2522SOL    HW1 8465   0.268   3.594   4.940
 2522SOL    HW2 8466   0.338   3.523   4.810
 2523SOL     OW 8467   0.211   3.162   1.492
 2523SOL    HW1 8468   0.112   3.153   1.480
 2523SOL    HW2 8469   0.257   3.087   1.445
 2524SOL     OW 8470   1.260   6.006   4.984
 2524SOL    HW1 8471   1.229   6.093   5.023
 2524SOL    HW2 8472   1.278   6.017   4.887
 2525SOL     OW 8473   0.665   2.601   5.906
 2525SOL    HW1 8474   0.617   2.576   5.990
 2525SOL    HW2 8475   0.605   2.659   5.851
 2526SOL     OW 8476   1.287   4.637   6.354
 2526SOL    HW1 8477   1.380   4.667   6.377
 2526SOL    HW2 8478   1.270   4.547   6.394
 2527SOL     OW 8479   5.171   5.666   4.808
 2527SOL    HW1 8480   5.108   5.738   4.782
 2527SOL    HW2 8481   5.257   5.677   4.757
 2528SOL     OW 8482   5.931   4.722   0.582
 2528SOL    HW1 8483   6.024   4.706   0.547
 2528SOL    HW2 8484   5.875   4.762   0.509
 2529SOL     OW 8485   6.316   6.309   6.545
 2529SOL    HW1 8486   6.402   6.299   6.596
 2529SOL    HW2 8487   6.327   6.380   6.475
 2530SOL     OW 8488   2.828   6.612   5.329
 2530SOL    HW1 8489   2.870   6.580   5.244
 2530SOL    HW2 8490   2.832   6.712   5.333
 2531SOL     OW 8491   5.179   6.078   4.297
 2531SOL    HW1 8492   5.276   6.066   4.315
 2531SOL    HW2 8493   5.127   6.013   4.353
 2532SOL     OW 8494   0.776   6.385   0.728
 2532SOL    HW1 8495   0.876   6.392   0.727
 2532SOL    HW2 8496   0.741   6.391   0.634
 2533SOL     OW 8497   3.246   6.454   4.070
 2533SOL    HW1 8498   3.165   6.427   4.018
 2533SOL    HW2 8499   3.322   6.468   4.008
 2534SOL     OW 8500   3.869   0.683   3.265
 2534SOL    HW1 8501   3.810   0.672   3.345
 2534SOL    HW2 8502   3.907   0.594   3.239
 2535SOL     OW 8503   3.622   2.234   5.306
 2535SOL    HW1 8504   3.604   2.152   5.251
 2535SOL    HW2 8505   3.540   2.290   5.311
 2536SOL     OW 8506   1.084   2.094   5.005
 2536SOL    HW1 8507   1.010   2.094   4.939
 2536SOL    HW2 8508   1.057   2.145   5.087
 2537SOL     OW 8509   4.105   0.357   6.730
 2537SOL    HW1 8510   4.145   0.408   6.806
 2537SOL    HW2 8511   4.175   0.301   6.686
 2538SOL     OW 8512   1.368   4.662   3.777
 2538SOL    HW1 8513   1.416   4.597   3.719
 2538SOL    HW2 8514   1.318   4.613   3.848
 2539SOL     OW 8515   5.228   1.430   5.463
 2539SOL    HW1 8516   5.147   1.386   5.426
 2539SOL    HW2 8517   5.202   1.486   5.542
 2540SOL     OW 8518   4.382   1.535   2.725
 2540SOL    HW1 8519   4.421   1.454   2.682
 2540SOL    HW2 8520   4.348   1.510   2.816
 2541SOL     OW 8521   2.496   7.008   5.231
 2541SOL    HW1 8522   2.499   6.925   5.176
 2541SOL    HW2 8523   2.465   6.984   5.324
 2542SOL     OW 8524   3.560   1.345   6.286
 2542SOL    HW1 8525   3.516   1.426   6.324
 2542SOL    HW2 8526   3.491   1.286   6.244
 2543SOL     OW 8527   1.394   1.305   3.249
 2543SOL    HW1 8528   1.331   1.365   3.300
 2543SOL    HW2 8529   1.360   1.295   3.155
 2544SOL     OW 8530   0.589   6.224   1.473
 2544SOL    HW1 8531   0.504   6.274   1.490
 2544SOL    HW2 8532   0.567   6.131   1.441
 2545SOL     OW 8533   1.154   7.026   1.463
 2545SOL    HW1 8534   1.066   0.028   1.500
 2545SOL    HW2 8535   1.225   0.010   1.532
 2546SOL     OW 8536   0.268   1.580   1.454
 2546SOL    HW1 8537   0.298   1.487   1.472
 2546SOL    HW2 8538   0.310   1.642   1.520
 2547SOL     OW 8539   6.063   5.466   0.538
 2547SOL    HW1 8540   5.965   5.465   0.558
 2547SOL    HW2 8541   6.114   5.480   0.623
 2548SOL     OW 8542   1.928   6.494   5.999
 2548SOL    HW1 8543   1.956   6.573   6.054
 2548SOL    HW2 8544   1.857   6.443   6.047
 2549SOL     OW 8545   2.310   1.049   0.782
 2549SOL    HW1 8546   2.282   1.119   0.848
 2549SOL    HW2 8547   2.282   1.077   0.690
 2550SOL     OW 8548   0.261   6.972   6.206
 2550SOL    HW1 8549   0.359   6.955   6.220
 2550SOL    HW2 8550   0.247   0.039   6.183
 2551SOL     OW 8551   3.239   5.371   0.533
 2551SOL    HW1 8552   3.172   5.420   0.478
 2551SOL    HW2 8553   3.262   5.284   0.489
 2552SOL     OW 8554   2.257   5.644   5.577
 2552SOL    HW1 8555   2.285   5.653   5.672
 2552SOL    HW2 8556   2.274   5.550   5.546
 2553SOL     OW 8557   5.269   2.852   5.107
 2553SOL    HW1 8558   5.196   2.838   5.041
 2553SOL    HW2 8559   5.256   2.940   5.153
 2554SOL     OW 8560   2.197   6.393   0.792
 2554SOL    HW1 8561   2.196   6.492   0.803
 2554SOL    HW2 8562   2.126   6.366   0.727
 2555SOL     OW 8563   5.991   6.880   5.672
 2555SOL    HW1 8564   5.916   6.822   5.640
 2555SOL    HW2 8565   5.959   6.974   5.681
 2556SOL     OW 8566   4.529   5.573   0.765
 2556SOL    HW1 8567   4.441   5.597   0.805
 2556SOL    HW2 8568   4.522   5.486   0.717
 2557SOL     OW 8569   2.621   3.656   6.837
 2557SOL    HW1 8570   2.685   3.584   6.865
 2557SOL    HW2 8571   2.546   3.615   6.784
 2558SOL     OW 8572   5.056   1.949   5.011
 2558SOL    HW1 8573   5.040   1.858   5.048
 2558SOL    HW2 8574   4.999   2.015   5.058
 2559SOL     OW 8575   6.775   3.935   4.318
 2559SOL    HW1 8576   6.702   3.992   4.356
 2559SOL    HW2 8577   6.747   3.839   4.321
 2560SOL     OW 8578   5.788   3.383   4.440
 2560SOL    HW1 8579   5.818   3.475   4.465
 2560SOL    HW2 8580   5.688   3.378   4.443
 2561SOL     OW 8581   3.569   6.193   4.994
 2561SOL    HW1 8582   3.551   6.288   5.021
 2561SOL    HW2 8583   3.648   6.158   5.044
 2562SOL     OW 8584   1.534   5.273   2.185
 2562SOL    HW1 8585   1.505   5.361   2.222
 2562SOL    HW2 8586   1.503   5.265   2.090
 2563SOL     OW 8587   4.506   2.482   0.238
 2563SOL    HW1 8588   4.495   2.382   0.242
 2563SOL    HW2 8589   4.514   2.512   0.143
 2564SOL     OW 8590   2.231   6.157   5.787
 2564SOL    HW1 8591   2.215   6.099   5.867
 2564SOL    HW2 8592   2.329   6.164   5.770
 2565SOL     OW 8593   0.824   0.495   6.803
 2565SOL    HW1 8594   0.867   0.576   6.763
 2565SOL    HW2 8595   0.859   0.413   6.757
 2566SOL     OW 8596   2.642   6.915   0.802
 2566SOL    HW1 8597   2.653   7.010   0.834
 2566SOL    HW2 8598   2.692   6.902   0.717
 2567SOL     OW 8599   0.583   0.978   1.569
 2567SOL    HW1 8600   0.580   0.887   1.529
 2567SOL    HW2 8601   0.611   1.044   1.500
 2568SOL     OW 8602   4.256   0.127   0.244
 2568SOL    HW1 8603   4.286   0.033   0.260
 2568SOL    HW2 8604   4.167   0.142   0.287
 2569SOL     OW 8605   3.286   1.366   1.683
 2569SOL    HW1 8606   3.255   1.277   1.648
 2569SOL    HW2 8607   3.386   1.372   1.675
 2570SOL     OW 8608   5.557   0.266   6.471
 2570SOL    HW1 8609   5.601   0.178   6.459
 2570SOL    HW2 8610   5.463   0.261   6.437
 2571SOL     OW 8611   2.300   4.238   5.281
 2571SOL    HW1 8612   2.356   4.181   5.341
 2571SOL    HW2 8613   2.241   4.180   5.225
 2572SOL     OW 8614   1.989   4.945   0.188
 2572SOL    HW1 8615   1.956   5.023   0.242
 2572SOL    HW2 8616   1.961   4.860   0.232
 2573SOL     OW 8617   6.460   2.621   1.959
 2573SOL    HW1 8618   6.536   2.668   2.004
 2573SOL    HW2 8619   6.470   2.631   1.860
 2574SOL     OW 8620   6.524   3.783   0.111
 2574SOL    HW1 8621   6.542   3.716   0.039
 2574SOL    HW2 8622   6.533   3.738   0.200
 2575SOL     OW 8623   5.306   5.218   0.850
 2575SOL    HW1 8624   5.304   5.282   0.773
 2575SOL    HW2 8625   5.370   5.144   0.830
 2576SOL     OW 8626   3.623   6.748   4.424
 2576SOL    HW1 8627   3.597   6.750   4.327
 2576SOL    HW2 8628   3.563   6.684   4.472
 2577SOL     OW 8629   3.728   6.668   2.054
 2577SOL    HW1 8630   3.727   6.701   1.960
 2577SOL    HW2 8631   3.637   6.680   2.095
 2578SOL     OW 8632   4.861   1.130   4.297
 2578SOL    HW1 8633   4.935   1.160   4.358
 2578SOL    HW2 8634   4.898   1.067   4.229
 2579SOL     OW 8635   1.607   6.161   3.446
 2579SOL    HW1 8636   1.635   6.076   3.403
 2579SOL    HW2 8637   1.641   6.239   3.392
 2580SOL     OW 8638   2.900   3.536   6.475
 2580SOL    HW1 8639   2.950   3.497   6.398
 2580SOL    HW2 8640   2.833   3.602   6.441
 2581SOL     OW 8641   0.569   4.734   1.355
 2581SOL    HW1 8642   0.644   4.674   1.381
 2581SOL    HW2 8643   0.565   4.742   1.255
 2582SOL     OW 8644   0.591   4.542   2.429
 2582SOL    HW1 8645   0.595   4.577   2.336
 2582SOL    HW2 8646   0.676   4.494   2.450
 2583SOL     OW 8647   0.665   1.178   0.603
 2583SOL    HW1 8648   0.626   1.140   0.518
 2583SOL    HW2 8649   0.765   1.183   0.594
 2584SOL     OW 8650   4.436   5.596   6.686
 2584SOL    HW1 8651   4.499   5.622   6.613
 2584SOL    HW2 8652   4.350   5.646   6.675
 2585SOL     OW 8653   4.368   2.730   6.957
 2585SOL    HW1 8654   4.421   2.645   6.948
 2585SOL    HW2 8655   4.334   2.738   0.021
 2586SOL     OW 8656   3.625   1.404   3.390
 2586SOL    HW1 8657   3.703   1.393   3.328
 2586SOL    HW2 8658   3.566   1.323   3.383
 2587SOL     OW 8659   0.282   0.938   3.590
 2587SOL    HW1 8660   0.261   0.858   3.646
 2587SOL    HW2 8661   0.212   1.008   3.603
 2588SOL     OW 8662   4.250   1.040   6.710
 2588SOL    HW1 8663   4.283   1.133   6.698
 2588SOL    HW2 8664   4.321   0.986   6.756
 2589SOL     OW 8665   0.848   6.153   5.967
 2589SOL    HW1 8666   0.795   6.159   5.882
 2589SOL    HW2 8667   0.873   6.057   5.984
 2590SOL     OW 8668   3.407   5.844   1.258
 2590SOL    HW1 8669   3.376   5.779   1.189
 2590SOL    HW2 8670   3.475   5.802   1.316
 2591SOL     OW 8671   0.022   4.642   3.180
 2591SOL    HW1 8672   0.047   4.682   3.092
 2591SOL    HW2 8673   7.029   4.715   3.244
 2592SOL     OW 8674   3.812   5.788   6.983
 2592SOL    HW1 8675   3.757   5.710   7.014
 2592SOL    HW2 8676   3.886   5.804   0.019
 2593SOL     OW 8677   3.897   5.407   1.103
 2593SOL    HW1 8678   3.833   5.423   1.028
 2593SOL    HW2 8679   3.877   5.319   1.145
 2594SOL     OW 8680   2.112   4.461   6.643
 2594SOL    HW1 8681   2.070   4.521   6.711
 2594SOL    HW2 8682   2.128   4.512   6.558
 2595SOL     OW 8683   6.835   1.453   3.803
 2595SOL    HW1 8684   6.793   1.375   3.755
 2595SOL    HW2 8685   6.783   1.536   3.783
 2596SOL     OW 8686   3.129   1.608   1.605
 2596SOL    HW1 8687   3.164   1.523   1.566
 2596SOL    HW2 8688   3.202   1.653   1.657
 2597SOL     OW 8689   1.451   4.924   6.079
 2597SOL    HW1 8690   1.376   4.861   6.102
 2597SOL    HW2 8691   1.413   5.010   6.045
 2598SOL     OW 8692   0.120   1.180   3.554
 2598SOL    HW1 8693   0.053   1.237   3.507
 2598SOL    HW2 8694   0.120   1.202   3.652
 2599SOL     OW 8695   2.036   6.238   0.960
 2599SOL    HW1 8696   2.088   6.272   0.882
 2599SOL    HW2 8697   1.938   6.243   0.940
 2600SOL     OW 8698   5.630   2.953   4.730
 2600SOL    HW1 8699   5.542   3.000   4.734
 2600SOL    HW2 8700   5.702   3.020   4.708
 2601SOL     OW 8701   2.027   1.294   2.140
 2601SOL    HW1 8702   1.934   1.313   2.111
 2601SOL    HW2 8703   2.028   1.208   2.192
 2602SOL     OW 8704   1.262   4.696   4.906
 2602SOL    HW1 8705   1.352   4.664   4.937
 2602SOL    HW2 8706   1.272   4.739   4.816
 2603SOL     OW 8707   3.317   0.900   4.262
 2603SOL    HW1 8708   3.316   0.847   4.177
 2603SOL    HW2 8709   3.364   0.848   4.333
 2604SOL     OW 8710   4.920   1.906   2.505
 2604SOL    HW1 8711   4.956   1.998   2.521
 2604SOL    HW2 8712   4.838   1.892   2.559
 2605SOL     OW 8713   2.018   3.391   3.972
 2605SOL    HW1 8714   2.056   3.331   3.902
 2605SOL    HW2 8715   1.968   3.466   3.928
 2606SOL     OW 8716   5.391   4.653   1.712
 2606SOL    HW1 8717   5.411   4.685   1.805
 2606SOL    HW2 8718   5.360   4.558   1.715
 2607SOL     OW 8719   1.326   1.658   1.883
 2607SOL    HW1 8720   1.278   1.645   1.970
 2607SOL    HW2 8721   1.259   1.662   1.809
 2608SOL     OW 8722   4.904   5.162   0.030
 2608SOL    HW1 8723   4.994   5.121   0.013
 2608SOL    HW2 8724   4.906   5.213   0.116
 2609SOL     OW 8725   6.123   1.195   1.355
 2609SOL    HW1 8726   6.062   1.217   1.279
 2609SOL    HW2 8727   6.203   1.254   1.352
 2610SOL     OW 8728   1.164   4.656   4.392
 2610SOL    HW1 8729   1.192   4.673   4.298
 2610SOL    HW2 8730   1.088   4.590   4.393
 2611SOL     OW 8731   4.120   6.416   1.171
 2611SOL    HW1 8732   4.165   6.419   1.260
 2611SOL    HW2 8733   4.178   6.366   1.106
 2612SOL     OW 8734   6.338   6.897   4.576
 2612SOL    HW1 8735   6.293   6.954   4.644
 2612SOL    HW2 8736   6.269   6.855   4.516
 2613SOL     OW 8737   2.690   5.454   6.595
 2613SOL    HW1 8738   2.750   5.520   6.640
 2613SOL    HW2 8739   2.605   5.498   6.570
 2614SOL     OW 8740   6.043   1.869   6.567
 2614SOL    HW1 8741   6.065   1.836   6.659
 2614SOL    HW2 8742   5.966   1.818   6.531
 2615SOL     OW 8743   0.693   3.095   2.456
 2615SOL    HW1 8744   0.767   3.111   2.521
 2615SOL    HW2 8745   0.682   3.176   2.398
 2616SOL     OW 8746   2.817   2.919   5.634
 2616SOL    HW1 8747   2.758   2.990   5.595
 2616SOL    HW2 8748   2.873   2.880   5.561
 2617SOL     OW 8749   4.196   0.024   0.819
 2617SOL    HW1 8750   4.210   0.096   0.751
 2617SOL    HW2 8751   4.269   6.987   0.812
 2618SOL     OW 8752   6.542   0.393   3.152
 2618SOL    HW1 8753   6.553   0.460   3.078
 2618SOL    HW2 8754   6.620   0.400   3.214
 2619SOL     OW 8755   4.461   2.147   2.346
 2619SOL    HW1 8756   4.401   2.223   2.320
 2619SOL    HW2 8757   4.556   2.176   2.336
 2620SOL     OW 8758   6.378   6.499   3.721
 2620SOL    HW1 8759   6.471   6.512   3.756
 2620SOL    HW2 8760   6.374   6.524   3.624
 2621SOL     OW 8761   0.879   5.133   1.758
 2621SOL    HW1 8762   0.897   5.210   1.820
 2621SOL    HW2 8763   0.965   5.105   1.715
 2622SOL     OW 8764   1.328   3.834   5.539
 2622SOL    HW1 8765   1.243   3.782   5.550
 2622SOL    HW2 8766   1.335   3.903   5.611
 2623SOL     OW 8767   0.001   0.935   5.170
 2623SOL    HW1 8768   6.936   0.968   5.176
 2623SOL    HW2 8769   0.006   0.842   5.208
 2624SOL     OW 8770   0.286   1.052   4.592
 2624SOL    HW1 8771   0.239   1.129   4.550
 2624SOL    HW2 8772   0.384   1.058   4.574
 2625SOL     OW 8773   2.461   3.748   5.331
 2625SOL    HW1 8774   2.552   3.760   5.371
 2625SOL    HW2 8775   2.443   3.822   5.266
 2626SOL     OW 8776   0.019   0.432   6.266
 2626SOL    HW1 8777   7.011   0.477   6.185
 2626SOL    HW2 8778   0.064   0.500   6.324
 2627SOL     OW 8779   1.249   1.359   6.109
 2627SOL    HW1 8780   1.166   1.304   6.110
 2627SOL    HW2 8781   1.225   1.456   6.115
 2628SOL     OW 8782   2.211   3.712   5.577
 2628SOL    HW1 8783   2.132   3.665   5.618
 2628SOL    HW2 8784   2.258   3.650   5.514
 2629SOL     OW 8785   3.975   3.109   2.343
 2629SOL    HW1 8786   4.018   3.111   2.252
 2629SOL    HW2 8787   4.032   3.158   2.408
 2630SOL     OW 8788   3.253   1.761   2.916
 2630SOL    HW1 8789   3.241   1.858   2.893
 2630SOL    HW2 8790   3.204   1.705   2.850
 2631SOL     OW 8791   5.520   0.737   6.019
 2631SOL    HW1 8792   5.438   0.784   6.054
 2631SOL    HW2 8793   5.596   0.802   6.016
 2632SOL     OW 8794   5.148   3.107   0.285
 2632SOL    HW1 8795   5.102   3.129   0.199
 2632SOL    HW2 8796   5.083   3.118   0.360
 2633SOL     OW 8797   0.528   1.607   4.604
 2633SOL    HW1 8798   0.544   1.514   4.569
 2633SOL    HW2 8799   0.560   1.674   4.537
 2634SOL     OW 8800   0.763   5.168   4.057
 2634SOL    HW1 8801   0.704   5.104   4.009
 2634SOL    HW2 8802   0.788   5.243   3.996
 2635SOL     OW 8803   0.008   6.352   4.696
 2635SOL    HW1 8804   0.058   6.372   4.611
 2635SOL    HW2 8805   0.060   6.386   4.774
 2636SOL     OW 8806   4.196   0.249   5.524
 2636SOL    HW1 8807   4.250   0.165   5.526
 2636SOL    HW2 8808   4.165   0.266   5.430
 2637SOL     OW 8809   6.037   1.912   3.415
 2637SOL    HW1 8810   6.049   1.896   3.513
 2637SOL    HW2 8811   5.973   1.988   3.402
 2638SOL     OW 8812   7.027   0.142   4.126
 2638SOL    HW1 8813   0.052   0.142   4.210
 2638SOL    HW2 8814   0.031   0.071   4.064
 2639SOL     OW 8815   0.709   6.020   0.625
 2639SOL    HW1 8816   0.745   6.055   0.538
 2639SOL    HW2 8817   0.784   6.006   0.689
 2640SOL     OW 8818   6.773   6.459   5.464
 2640SOL    HW1 8819   6.849   6.441   5.401
 2640SOL    HW2 8820   6.761   6.557   5.475
 2641SOL     OW 8821   5.943   2.979   2.206
 2641SOL    HW1 8822   5.949   2.950   2.111
 2641SOL    HW2 8823   5.969   3.076   2.213
 2642SOL     OW 8824   5.808   0.682   3.808
 2642SOL    HW1 8825   5.885   0.660   3.868
 2642SOL    HW2 8826   5.741   0.736   3.858
 2643SOL     OW 8827   1.214   3.822   3.193
 2643SOL    HW1 8828   1.258   3.785   3.275
 2643SOL    HW2 8829   1.271   3.800   3.113
 2644SOL     OW 8830   4.760   5.425   4.712
 2644SOL    HW1 8831   4.749   5.457   4.807
 2644SOL    HW2 8832   4.678   5.449   4.659
 2645SOL     OW 8833   4.170   5.790   3.458
 2645SOL    HW1 8834   4.151   5.700   3.497
 2645SOL    HW2 8835   4.091   5.850   3.474
 2646SOL     OW 8836   6.124   1.696   6.824
 2646SOL    HW1 8837   6.138   1.786   6.866
 2646SOL    HW2 8838   6.034   1.660   6.849
 2647SOL     OW 8839   5.987   0.033   1.437
 2647SOL    HW1 8840   5.888   0.042   1.428
 2647SOL    HW2 8841   6.029   0.124   1.431
 2648SOL     OW 8842   0.983   6.747   3.882
 2648SOL    HW1 8843   1.077   6.776   3.895
 2648SOL    HW2 8844   0.921   6.822   3.904
 2649SOL     OW 8845   6.850   3.269   0.856
 2649SOL    HW1 8846   6.763   3.223   0.872
 2649SOL    HW2 8847   6.865   3.277   0.757
 2650SOL     OW 8848   1.863   4.901   3.415
 2650SOL    HW1 8849   1.802   4.946   3.480
 2650SOL    HW2 8850   1.958   4.918   3.442
 2651SOL     OW 8851   2.484   1.736   1.360
 2651SOL    HW1 8852   2.390   1.706   1.352
 2651SOL    HW2 8853   2.487   1.829   1.399
 2652SOL     OW 8854   4.260   3.267   5.326
 2652SOL    HW1 8855   4.256   3.327   5.246
 2652SOL    HW2 8856   4.264   3.322   5.409
 2653SOL     OW 8857   4.728   6.864   5.960
 2653SOL    HW1 8858   4.729   6.807   6.043
 2653SOL    HW2 8859   4.740   6.960   5.986
 2654SOL     OW 8860   4.312   0.112   1.349
 2654SOL    HW1 8861   4.274   0.125   1.257
 2654SOL    HW2 8862   4.328   0.201   1.391
 2655SOL     OW 8863   5.458   6.119   3.746
 2655SOL    HW1 8864   5.419   6.204   3.781
 2655SOL    HW2 8865   5.552   6.135   3.716
 2656SOL     OW 8866   3.452   5.031   4.543
 2656SOL    HW1 8867   3.438   5.002   4.448
 2656SOL    HW2 8868   3.394   5.110   4.562
 2657SOL     OW 8869   1.357   4.107   6.812
 2657SOL    HW1 8870   1.331   4.024   6.763
 2657SOL    HW2 8871   1.302   4.184   6.779
 2658SOL     OW 8872   5.504   4.808   0.562
 2658SOL    HW1 8873   5.505   4.785   0.465
 2658SOL    HW2 8874   5.542   4.899   0.575
 2659SOL     OW 8875   4.843   2.874   5.089
 2659SOL    HW1 8876   4.819   2.918   5.002
 2659SOL    HW2 8877   4.912   2.929   5.136
 2660SOL     OW 8878   1.623   0.045   1.855
 2660SOL    HW1 8879   1.678   0.114   1.807
 2660SOL    HW2 8880   1.562   0.091   1.920
 2661SOL     OW 8881   2.062   6.811   1.410
 2661SOL    HW1 8882   2.058   6.867   1.493
 2661SOL    HW2 8883   1.993   6.739   1.415
 2662SOL     OW 8884   3.217   6.571   5.456
 2662SOL    HW1 8885   3.266   6.638   5.400
 2662SOL    HW2 8886   3.281   6.529   5.520
 2663SOL     OW 8887   3.838   4.399   6.685
 2663SOL    HW1 8888   3.869   4.306   6.707
 2663SOL    HW2 8889   3.903   4.442   6.623
 2664SOL     OW 8890   4.608   3.333   5.829
 2664SOL    HW1 8891   4.544   3.391   5.879
 2664SOL    HW2 8892   4.586   3.334   5.732
 2665SOL     OW 8893   2.886   3.445   5.051
 2665SOL    HW1 8894   2.965   3.504   5.034
 2665SOL    HW2 8895   2.845   3.468   5.139
 2666SOL     OW 8896   0.704   4.812   1.595
 2666SOL    HW1 8897   0.633   4.880   1.573
 2666SOL    HW2 8898   0.694   4.783   1.690
 2667SOL     OW 8899   1.331   5.697   3.925
 2667SOL    HW1 8900   1.327   5.641   3.843
 2667SOL    HW2 8901   1.349   5.793   3.900
 2668SOL     OW 8902   0.208   2.976   4.898
 2668SOL    HW1 8903   0.117   2.971   4.858
 2668SOL    HW2 8904   0.253   3.060   4.868
 2669SOL     OW 8905   3.048   5.229   5.959
 2669SOL    HW1 8906   3.022   5.255   5.865
 2669SOL    HW2 8907   3.128   5.282   5.987
 2670SOL     OW 8908   5.946   3.830   4.875
 2670SOL    HW1 8909   5.946   3.732   4.896
 2670SOL    HW2 8910   5.958   3.882   4.959
 2671SOL     OW 8911   4.388   5.331   0.312
 2671SOL    HW1 8912   4.430   5.243   0.332
 2671SOL    HW2 8913   4.444   5.381   0.245
 2672SOL     OW 8914   2.854   5.740   1.195
 2672SOL    HW1 8915   2.886   5.789   1.276
 2672SOL    HW2 8916   2.795   5.664   1.224
 2673SOL     OW 8917   6.428   1.915   1.461
 2673SOL    HW1 8918   6.455   1.922   1.365
 2673SOL    HW2 8919   6.425   2.006   1.501
 2674SOL     OW 8920   1.422   4.500   4.154
 2674SOL    HW1 8921   1.372   4.442   4.088
 2674SOL    HW2 8922   1.361   4.572   4.187
 2675SOL     OW 8923   6.678   5.617   3.982
 2675SOL    HW1 8924   6.681   5.609   4.082
 2675SOL    HW2 8925   6.764   5.584   3.944
 2676SOL     OW 8926   3.003   3.270   1.448
 2676SOL    HW1 8927   3.070   3.228   1.387
 2676SOL    HW2 8928   2.954   3.199   1.498
 2677SOL     OW 8929   2.929   4.288   0.012
 2677SOL    HW1 8930   2.992   4.364   0.026
 2677SOL    HW2 8931   2.872   4.276   0.093
 2678SOL     OW 8932   0.323   2.256   2.512
 2678SOL    HW1 8933   0.380   2.214   2.583
 2678SOL    HW2 8934   0.260   2.321   2.553
 2679SOL     OW 8935   2.247   5.021   2.127
 2679SOL    HW1 8936   2.309   5.031   2.204
 2679SOL    HW2 8937   2.156   5.054   2.152
 2680SOL     OW 8938   1.377   1.877   1.354
 2680SOL    HW1 8939   1.463   1.840   1.318
 2680SOL    HW2 8940   1.377   1.870   1.454
 2681SOL     OW 8941   1.236   2.321   4.934
 2681SOL    HW1 8942   1.192   2.233   4.948
 2681SOL    HW2 8943   1.270   2.327   4.839
 2682SOL     OW 8944   4.803   4.665   3.976
 2682SOL    HW1 8945   4.890   4.619   3.961
 2682SOL    HW2 8946   4.786   4.672   4.074
 2683SOL     OW 8947   2.519   4.576   2.068
 2683SOL    HW1 8948   2.607   4.598   2.025
 2683SOL    HW2 8949   2.531   4.500   2.132
 2684SOL     OW 8950   4.378   6.725   2.100
 2684SOL    HW1 8951   4.353   6.628   2.105
 2684SOL    HW2 8952   4.419   6.745   2.011
 2685SOL     OW 8953   5.931   5.848   5.861
 2685SOL    HW1 8954   5.897   5.773   5.917
 2685SOL    HW2 8955   6.031   5.848   5.860
 2686SOL     OW 8956   1.823   1.929   5.904
 2686SOL    HW1 8957   1.773   1.931   5.990
 2686SOL    HW2 8958   1.798   1.848   5.852
 2687SOL     OW 8959   4.753   5.780   1.084
 2687SOL    HW1 8960   4.786   5.741   0.998
 2687SOL    HW2 8961   4.670   5.733   1.112
 2688SOL     OW 8962   2.847   2.724   0.131
 2688SOL    HW1 8963   2.877   2.818   0.111
 2688SOL    HW2 8964   2.834   2.714   0.230
 2689SOL     OW 8965   0.071   3.561   2.283
 2689SOL    HW1 8966   0.125   3.631   2.237
 2689SOL    HW2 8967   0.038   3.495   2.215
 2690SOL     OW 8968   3.529   3.227   5.314
 2690SOL    HW1 8969   3.613   3.181   5.339
 2690SOL    HW2 8970   3.546   3.325   5.303
 2691SOL     OW 8971   0.585   5.456   3.351
 2691SOL    HW1 8972   0.509   5.413   3.303
 2691SOL    HW2 8973   0.645   5.502   3.286
 2692SOL     OW 8974   2.716   6.843   3.729
 2692SOL    HW1 8975   2.633   6.861   3.675
 2692SOL    HW2 8976   2.791   6.819   3.668
 2693SOL     OW 8977   2.383   4.693   3.911
 2693SOL    HW1 8978   2.469   4.736   3.882
 2693SOL    HW2 8979   2.321   4.763   3.946
 2694SOL     OW 8980   4.210   6.628   3.144
 2694SOL    HW1 8981   4.232   6.726   3.150
 2694SOL    HW2 8982   4.285   6.575   3.184
 2695SOL     OW 8983   6.007   0.558   2.556
 2695SOL    HW1 8984   5.930   0.598   2.607
 2695SOL    HW2 8985   5.985   0.556   2.459
 2696SOL     OW 8986   3.689   3.241   5.984
 2696SOL    HW1 8987   3.603   3.213   6.027
 2696SOL    HW2 8988   3.714   3.174   5.913
 2697SOL     OW 8989   3.097   1.550   3.103
 2697SOL    HW1 8990   3.154   1.498   3.167
 2697SOL    HW2 8991   3.156   1.610   3.048
 2698SOL     OW 8992   1.303   4.644   0.712
 2698SOL    HW1 8993   1.333   4.657   0.617
 2698SOL    HW2 8994   1.317   4.729   0.763
 2699SOL     OW 8995   2.551   5.932   1.574
 2699SOL    HW1 8996   2.512   5.896   1.488
 2699SOL    HW2 8997   2.480   5.979   1.625
 2700SOL     OW 8998   2.602   2.379   0.799
 2700SOL    HW1 8999   2.543   2.443   0.749
 2700SOL    HW2 9000   2.600   2.290   0.752
 2701SOL     OW 9001   4.923   2.110   6.040
 2701SOL    HW1 9002   5.008   2.122   5.989
 2701SOL    HW2 9003   4.883   2.200   6.059
 2702SOL     OW 9004   0.687   2.531   3.653
 2702SOL    HW1 9005   0.644   2.442   3.642
 2702SOL    HW2 9006   0.758   2.543   3.584
 2703SOL     OW 9007   0.919   6.194   0.472
 2703SOL    HW1 9008   0.933   6.131   0.548
 2703SOL    HW2 9009   0.831   6.240   0.482
 2704SOL     OW 9010   6.860   6.023   1.888
 2704SOL    HW1 9011   6.805   5.944   1.912
 2704SOL    HW2 9012   6.902   6.008   1.798
 2705SOL     OW 9013   6.088   7.011   4.949
 2705SOL    HW1 9014   6.052   6.954   4.874
 2705SOL    HW2 9015   6.108   6.953   5.028
 2706SOL     OW 9016   6.563   5.127   3.288
 2706SOL    HW1 9017   6.554   5.097   3.382
 2706SOL    HW2 9018   6.493   5.195   3.267
 2707SOL     OW 9019   3.442   6.953   4.374
 2707SOL    HW1 9020   3.392   6.976   4.457
 2707SOL    HW2 9021   3.540   6.948   4.393
 2708SOL     OW 9022   6.405   2.606   1.191
 2708SOL    HW1 9023   6.313   2.596   1.154
 2708SOL    HW2 9024   6.451   2.683   1.147
 2709SOL     OW 9025   5.253   0.224   0.125
 2709SOL    HW1 9026   5.197   0.229   0.042
 2709SOL    HW2 9027   5.288   0.131   0.135
 2710SOL     OW 9028   0.967   3.315   3.900
 2710SOL    HW1 9029   0.896   3.333   3.969
 2710SOL    HW2 9030   1.056   3.309   3.946
 2711SOL     OW 9031   2.730   0.768   3.535
 2711SOL    HW1 9032   2.773   0.811   3.615
 2711SOL    HW2 9033   2.661   0.830   3.497
 2712SOL     OW 9034   2.684   4.986   1.582
 2712SOL    HW1 9035   2.609   4.928   1.613
 2712SOL    HW2 9036   2.711   4.959   1.490
 2713SOL     OW 9037   2.518   3.748   6.020
 2713SOL    HW1 9038   2.480   3.725   5.930
 2713SOL    HW2 9039   2.469   3.697   6.091
 2714SOL     OW 9040   3.998   2.703   0.033
 2714SOL    HW1 9041   4.065   2.765   0.075
 2714SOL    HW2 9042   4.043   2.617   0.008
 2715SOL     OW 9043   5.769   2.418   0.807
 2715SOL    HW1 9044   5.731   2.464   0.888
 2715SOL    HW2 9045   5.697   2.364   0.763
 2716SOL     OW 9046   4.933   3.131   3.989
 2716SOL    HW1 9047   4.877   3.091   4.061
 2716SOL    HW2 9048   4.880   3.197   3.937
 2717SOL     OW 9049   0.873   0.082   2.192
 2717SOL    HW1 9050   0.858   0.159   2.128
 2717SOL    HW2 9051   0.785   0.041   2.215
 2718SOL     OW 9052   1.810   1.557   5.465
 2718SOL    HW1 9053   1.883   1.550   5.533
 2718SOL    HW2 9054   1.765   1.646   5.473
 2719SOL     OW 9055   0.705   4.795   1.891
 2719SOL    HW1 9056   0.665   4.823   1.978
 2719SOL    HW2 9057   0.753   4.709   1.903
 2720SOL     OW 9058   1.834   0.046   2.446
 2720SOL    HW1 9059   1.783   7.023   2.514
 2720SOL    HW2 9060   1.860   0.135   2.484
 2721SOL     OW 9061   2.922   6.232   3.259
 2721SOL    HW1 9062   2.834   6.219   3.213
 2721SOL    HW2 9063   2.926   6.172   3.339
 2722SOL     OW 9064   5.953   5.050   0.438
 2722SOL    HW1 9065   6.005   5.010   0.362
 2722SOL    HW2 9066   5.999   5.132   0.470
 2723SOL     OW 9067   1.123   5.421   6.356
 2723SOL    HW1 9068   1.029   5.399   6.384
 2723SOL    HW2 9069   1.122   5.462   6.265
 2724SOL     OW 9070   1.693   5.980   6.621
 2724SOL    HW1 9071   1.645   5.906   6.667
 2724SOL    HW2 9072   1.767   5.943   6.565
 2725SOL     OW 9073   5.084   4.475   4.634
 2725SOL    HW1 9074   5.116   4.552   4.689
 2725SOL    HW2 9075   4.985   4.482   4.621
 2726SOL     OW 9076   0.347   2.556   2.053
 2726SOL    HW1 9077   0.359   2.634   1.992
 2726SOL    HW2 9078   0.393   2.575   2.140
 2727SOL     OW 9079   0.904   4.757   3.908
 2727SOL    HW1 9080   1.001   4.778   3.919
 2727SOL    HW2 9081   0.852   4.796   3.985
 2728SOL     OW 9082   4.488   6.683   5.299
 2728SOL    HW1 9083   4.552   6.757   5.280
 2728SOL    HW2 9084   4.465   6.636   5.214
 2729SOL     OW 9085   0.379   6.428   0.601
 2729SOL    HW1 9086   0.295   6.474   0.632
 2729SOL    HW2 9087   0.370   6.330   0.617
 2730SOL     OW 9088   1.241   5.441   1.972
 2730SOL    HW1 9089   1.304   5.485   2.037
 2730SOL    HW2 9090   1.224   5.347   2.000
 2731SOL     OW 9091   3.049   3.678   3.599
 2731SOL    HW1 9092   3.020   3.708   3.690
 2731SOL    HW2 9093   2.975   3.692   3.534
 2732SOL     OW 9094   5.891   2.138   1.042
 2732SOL    HW1 9095   5.859   2.175   1.130
 2732SOL    HW2 9096   5.953   2.062   1.059
 2733SOL     OW 9097   6.414   1.703   4.882
 2733SOL    HW1 9098   6.396   1.615   4.838
 2733SOL    HW2 9099   6.328   1.745   4.910
 2734SOL     OW 9100   3.106   4.885   1.197
 2734SOL    HW1 9101   3.203   4.868   1.180
 2734SOL    HW2 9102   3.054   4.868   1.114
 2735SOL     OW 9103   1.891   2.693   2.013
 2735SOL    HW1 9104   1.819   2.736   2.068
 2735SOL    HW2 9105   1.898   2.596   2.037
 2736SOL     OW 9106   6.510   6.115   4.294
 2736SOL    HW1 9107   6.536   6.142   4.387
 2736SOL    HW2 9108   6.588   6.069   4.250
 2737SOL     OW 9109   2.824   4.118   5.443
 2737SOL    HW1 9110   2.786   4.054   5.377
 2737SOL    HW2 9111   2.906   4.161   5.405
 2738SOL     OW 9112   5.192   6.320   1.870
 2738SOL    HW1 9113   5.174   6.409   1.829
 2738SOL    HW2 9114   5.248   6.332   1.952
 2739SOL     OW 9115   1.295   4.920   0.752
 2739SOL    HW1 9116   1.394   4.932   0.741
 2739SOL    HW2 9117   1.255   5.004   0.787
 2740SOL     OW 9118   6.032   4.565   1.674
 2740SOL    HW1 9119   6.047   4.514   1.590
 2740SOL    HW2 9120   6.101   4.539   1.742
 2741SOL     OW 9121   6.244   0.480   4.211
 2741SOL    HW1 9122   6.287   0.404   4.260
 2741SOL    HW2 9123   6.163   0.448   4.162
 2742SOL     OW 9124   1.410   4.993   0.378
 2742SOL    HW1 9125   1.320   4.951   0.390
 2742SOL    HW2 9126   1.466   4.935   0.319
 2743SOL     OW 9127   0.196   4.287   2.558
 2743SOL    HW1 9128   0.200   4.362   2.493
 2743SOL    HW2 9129   0.148   4.316   2.641
 2744SOL     OW 9130   4.763   2.467   0.349
 2744SOL    HW1 9131   4.667   2.464   0.322
 2744SOL    HW2 9132   4.800   2.559   0.332
 2745SOL     OW 9133   0.041   0.949   4.668
 2745SOL    HW1 9134   0.128   0.998   4.663
 2745SOL    HW2 9135   0.058   0.851   4.678
 2746SOL     OW 9136   0.878   2.476   5.118
 2746SOL    HW1 9137   0.945   2.550   5.118
 2746SOL    HW2 9138   0.913   2.399   5.172
 2747SOL     OW 9139   4.892   5.262   0.320
 2747SOL    HW1 9140   4.984   5.285   0.351
 2747SOL    HW2 9141   4.845   5.210   0.391
 2748SOL     OW 9142   4.445   1.292   2.571
 2748SOL    HW1 9143   4.542   1.271   2.583
 2748SOL    HW2 9144   4.429   1.324   2.478
 2749SOL     OW 9145   6.740   4.393   0.899
 2749SOL    HW1 9146   6.658   4.336   0.895
 2749SOL    HW2 9147   6.811   4.345   0.952
 2750SOL     OW 9148   1.762   3.765   1.262
 2750SOL    HW1 9149   1.828   3.700   1.226
 2750SOL    HW2 9150   1.677   3.718   1.285
 2751SOL     OW 9151   1.169   3.010   1.650
 2751SOL    HW1 9152   1.238   2.944   1.621
 2751SOL    HW2 9153   1.109   2.967   1.719
 2752SOL     OW 9154   3.551   5.066   5.969
 2752SOL    HW1 9155   3.566   4.999   5.896
 2752SOL    HW2 9156   3.480   5.131   5.941
 2753SOL     OW 9157   6.784   6.648   4.847
 2753SOL    HW1 9158   6.884   6.650   4.858
 2753SOL    HW2 9159   6.758   6.566   4.797
 2754SOL     OW 9160   0.559   0.228   0.930
 2754SOL    HW1 9161   0.588   0.228   1.026
 2754SOL    HW2 9162   0.460   0.239   0.926
 2755SOL     OW 9163   3.269   6.577   2.149
 2755SOL    HW1 9164   3.284   6.479   2.156
 2755SOL    HW2 9165   3.206   6.606   2.222
 2756SOL     OW 9166   5.502   5.406   0.228
 2756SOL    HW1 9167   5.570   5.336   0.251
 2756SOL    HW2 9168   5.546   5.481   0.179
 2757SOL     OW 9169   2.760   6.623   6.693
 2757SOL    HW1 9170   2.697   6.701   6.686
 2757SOL    HW2 9171   2.708   6.538   6.689
 2758SOL     OW 9172   3.869   6.403   3.809
 2758SOL    HW1 9173   3.789   6.384   3.752
 2758SOL    HW2 9174   3.902   6.319   3.851
 2759SOL     OW 9175   5.216   6.713   6.019
 2759SOL    HW1 9176   5.188   6.647   5.948
 2759SOL    HW2 9177   5.193   6.677   6.109
 2760SOL     OW 9178   0.575   6.002   1.871
 2760SOL    HW1 9179   0.498   6.012   1.809
 2760SOL    HW2 9180   0.543   5.967   1.959
 2761SOL     OW 9181   2.051   5.287   4.330
 2761SOL    HW1 9182   2.139   5.241   4.316
 2761SOL    HW2 9183   1.977   5.229   4.295
 2762SOL     OW 9184   1.779   1.266   5.727
 2762SOL    HW1 9185   1.812   1.202   5.796
 2762SOL    HW2 9186   1.811   1.237   5.637
 2763SOL     OW 9187   5.146   1.686   3.854
 2763SOL    HW1 9188   5.217   1.635   3.804
 2763SOL    HW2 9189   5.083   1.728   3.788
 2764SOL     OW 9190   5.722   0.928   0.639
 2764SOL    HW1 9191   5.769   1.007   0.679
 2764SOL    HW2 9192   5.717   0.854   0.706
 2765SOL     OW 9193   5.852   6.593   0.933
 2765SOL    HW1 9194   5.819   6.670   0.879
 2765SOL    HW2 9195   5.866   6.514   0.873
 2766SOL     OW 9196   4.709   2.398   0.037
 2766SOL    HW1 9197   4.797   2.445   0.042
 2766SOL    HW2 9198   4.706   2.325   0.105
 2767SOL     OW 9199   6.934   5.344   0.257
 2767SOL    HW1 9200   6.845   5.385   0.277
 2767SOL    HW2 9201   6.986   5.405   0.198
 2768SOL     OW 9202   4.181   1.083   0.985
 2768SOL    HW1 9203   4.246   1.130   0.925
 2768SOL    HW2 9204   4.169   0.989   0.954
 2769SOL     OW 9205   1.000   4.389   4.085
 2769SOL    HW1 9206   1.063   4.313   4.099
 2769SOL    HW2 9207   0.975   4.428   4.173
 2770SOL     OW 9208   3.197   5.415   5.320
 2770SOL    HW1 9209   3.223   5.510   5.339
 2770SOL    HW2 9210   3.113   5.393   5.370
 2771SOL     OW 9211   6.964   0.959   3.420
 2771SOL    HW1 9212   7.014   1.027   3.473
 2771SOL    HW2 9213   6.931   1.000   3.335
 2772SOL     OW 9214   4.420   1.664   0.997
 2772SOL    HW1 9215   4.376   1.735   0.943
 2772SOL    HW2 9216   4.427   1.580   0.942
 2773SOL     OW 9217   6.201   2.203   5.656
 2773SOL    HW1 9218   6.236   2.129   5.715
 2773SOL    HW2 9219   6.248   2.288   5.679
 2774SOL     OW 9220   5.452   3.594   3.181
 2774SOL    HW1 9221   5.510   3.617   3.259
 2774SOL    HW2 9222   5.470   3.658   3.106
 2775SOL     OW 9223   6.820   5.999   6.382
 2775SOL    HW1 9224   6.760   6.075   6.359
 2775SOL    HW2 9225   6.900   6.033   6.431
 2776SOL     OW 9226   4.272   4.874   6.125
 2776SOL    HW1 9227   4.282   4.851   6.222
 2776SOL    HW2 9228   4.234   4.796   6.076
 2777SOL     OW 9229   2.661   1.273   2.002
 2777SOL    HW1 9230   2.628   1.243   2.092
 2777SOL    HW2 9231   2.668   1.373   2.001
 2778SOL     OW 9232   1.544   0.110   5.631
 2778SOL    HW1 9233   1.528   0.204   5.601
 2778SOL    HW2 9234   1.534   0.048   5.554
 2779SOL     OW 9235   4.794   6.425   1.035
 2779SOL    HW1 9236   4.779   6.499   0.969
 2779SOL    HW2 9237   4.721   6.425   1.103
 2780SOL     OW 9238   6.244   6.050   6.728
 2780SOL    HW1 9239   6.336   6.088   6.732
 2780SOL    HW2 9240   6.177   6.123   6.739
 2781SOL     OW 9241   5.229   6.541   1.709
 2781SOL    HW1 9242   5.324   6.544   1.678
 2781SOL    HW2 9243   5.198   6.633   1.734
 2782SOL     OW 9244   4.135   1.854   5.711
 2782SOL    HW1 9245   4.162   1.946   5.682
 2782SOL    HW2 9246   4.152   1.843   5.809
 2783SOL     OW 9247   5.036   4.348   4.078
 2783SOL    HW1 9248   4.960   4.298   4.037
 2783SOL    HW2 9249   5.118   4.290   4.080
 2784SOL     OW 9250   3.783   1.656   1.679
 2784SOL    HW1 9251   3.740   1.691   1.762
 2784SOL    HW2 9252   3.720   1.666   1.602
 2785SOL     OW 9253   4.689   1.239   0.595
 2785SOL    HW1 9254   4.697   1.326   0.644
 2785SOL    HW2 9255   4.643   1.254   0.507
 2786SOL     OW 9256   5.124   6.586   2.002
 2786SOL    HW1 9257   5.135   6.645   2.082
 2786SOL    HW2 9258   5.129   6.641   1.919
 2787SOL     OW 9259   3.715   1.922   6.519
 2787SOL    HW1 9260   3.658   1.993   6.559
 2787SOL    HW2 9261   3.769   1.878   6.591
 2788SOL     OW 9262   2.608   4.671   6.288
 2788SOL    HW1 9263   2.666   4.752   6.297
 2788SOL    HW2 9264   2.655   4.604   6.230
 2789SOL     OW 9265   1.896   2.616   3.730
 2789SOL    HW1 9266   1.859   2.563   3.807
 2789SOL    HW2 9267   1.990   2.644   3.751
 2790SOL     OW 9268   3.203   5.985   2.188
 2790SOL    HW1 9269   3.290   5.946   2.158
 2790SOL    HW2 9270   3.145   6.002   2.109
 2791SOL     OW 9271   1.068   3.539   2.833
 2791SOL    HW1 9272   1.143   3.509   2.773
 2791SOL    HW2 9273   1.006   3.462   2.849
 2792SOL     OW 9274   1.832   0.017   4.227
 2792SOL    HW1 9275   1.758   0.037   4.163
 2792SOL    HW2 9276   1.915   0.063   4.197
 2793SOL     OW 9277   5.232   3.219   3.343
 2793SOL    HW1 9278   5.211   3.276   3.263
 2793SOL    HW2 9279   5.157   3.224   3.408
 2794SOL     OW 9280   0.510   2.880   0.091
 2794SOL    HW1 9281   0.597   2.833   0.107
 2794SOL    HW2 9282   0.435   2.824   0.127
 2795SOL     OW 9283   1.845   2.533   0.720
 2795SOL    HW1 9284   1.940   2.534   0.753
 2795SOL    HW2 9285   1.804   2.444   0.740
 2796SOL     OW 9286   6.904   5.940   2.278
 2796SOL    HW1 9287   6.839   6.011   2.253
 2796SOL    HW2 9288   6.997   5.972   2.262
 2797SOL     OW 9289   5.919   5.448   4.668
 2797SOL    HW1 9290   5.837   5.480   4.717
 2797SOL    HW2 9291   5.903   5.452   4.570
 2798SOL     OW 9292   0.488   5.056   2.115
 2798SOL    HW1 9293   0.533   5.145   2.111
 2798SOL    HW2 9294   0.512   5.010   2.201
 2799SOL     OW 9295   6.250   6.208   0.014
 2799SOL    HW1 9296   6.161   6.248   7.022
 2799SOL    HW2 9297   6.317   6.281   0.029
 2800SOL     OW 9298   4.650   5.490   0.446
 2800SOL    HW1 9299   4.560   5.450   0.458
 2800SOL    HW2 9300   4.683   5.473   0.353
 2801SOL     OW 9301   5.867   5.431   5.698
 2801SOL    HW1 9302   5.803   5.362   5.732
 2801SOL    HW2 9303   5.816   5.513   5.672
 2802SOL     OW 9304   4.737   1.217   5.035
 2802SOL    HW1 9305   4.784   1.129   5.025
 2802SOL    HW2 9306   4.788   1.274   5.098
 2803SOL     OW 9307   3.829   6.277   6.805
 2803SOL    HW1 9308   3.739   6.279   6.848
 2803SOL    HW2 9309   3.869   6.186   6.814
 2804SOL     OW 9310   0.409   4.762   4.791
 2804SOL    HW1 9311   0.335   4.745   4.856
 2804SOL    HW2 9312   0.372   4.802   4.707
 2805SOL     OW 9313   5.351   3.252   1.703
 2805SOL    HW1 9314   5.275   3.201   1.742
 2805SOL    HW2 9315   5.327   3.284   1.611
 2806SOL     OW 9316   6.487   5.190   5.404
 2806SOL    HW1 9317   6.534   5.257   5.347
 2806SOL    HW2 9318   6.490   5.219   5.499
 2807SOL     OW 9319   5.048   5.771   3.588
 2807SOL    HW1 9320   4.993   5.727   3.517
 2807SOL    HW2 9321   4.999   5.850   3.624
 2808SOL     OW 9322   5.493   3.542   2.452
 2808SOL    HW1 9323   5.503   3.485   2.370
 2808SOL    HW2 9324   5.493   3.638   2.426
 2809SOL     OW 9325   5.994   3.021   0.996
 2809SOL    HW1 9326   5.959   2.929   0.978
 2809SOL    HW2 9327   5.942   3.087   0.942
 2810SOL     OW 9328   3.217   5.579   3.830
 2810SOL    HW1 9329   3.281   5.514   3.871
 2810SOL    HW2 9330   3.238   5.591   3.733
 2811SOL     OW 9331   1.037   1.754   3.608
 2811SOL    HW1 9332   1.116   1.693   3.597
 2811SOL    HW2 9333   1.064   1.848   3.591
 2812SOL     OW 9334   5.024   3.957   6.494
 2812SOL    HW1 9335   5.112   3.985   6.532
 2812SOL    HW2 9336   5.030   3.864   6.459
 2813SOL     OW 9337   6.669   6.894   5.879
 2813SOL    HW1 9338   6.593   6.879   5.942
 2813SOL    HW2 9339   6.634   6.908   5.786
 2814SOL     OW 9340   4.304   3.431   5.582
 2814SOL    HW1 9341   4.295   3.528   5.561
 2814SOL    HW2 9342   4.400   3.404   5.573
 2815SOL     OW 9343   6.265   0.450   5.466
 2815SOL    HW1 9344   6.362   0.473   5.455
 2815SOL    HW2 9345   6.209   0.515   5.415
 2816SOL     OW 9346   6.764   5.659   3.622
 2816SOL    HW1 9347   6.678   5.709   3.638
 2816SOL    HW2 9348   6.807   5.693   3.539
 2817SOL     OW 9349   2.664   6.709   1.313
 2817SOL    HW1 9350   2.670   6.784   1.379
 2817SOL    HW2 9351   2.588   6.726   1.250
 2818SOL     OW 9352   7.015   0.495   0.797
 2818SOL    HW1 9353   0.027   0.452   0.717
 2818SOL    HW2 9354   0.015   0.448   0.880
 2819SOL     OW 9355   0.462   1.195   1.687
 2819SOL    HW1 9356   0.513   1.112   1.666
 2819SOL    HW2 9357   0.427   1.189   1.781
 2820SOL     OW 9358   0.650   2.639   2.872
 2820SOL    HW1 9359   0.666   2.629   2.970
 2820SOL    HW2 9360   0.681   2.729   2.842
 2821SOL     OW 9361   4.100   3.452   0.285
 2821SOL    HW1 9362   4.084   3.473   0.189
 2821SOL    HW2 9363   4.032   3.385   0.317
 2822SOL     OW 9364   4.432   1.634   0.107
 2822SOL    HW1 9365   4.512   1.692   0.123
 2822SOL    HW2 9366   4.352   1.691   0.088
 2823SOL     OW 9367   4.621   6.594   0.037
 2823SOL    HW1 9368   4.599   6.624   6.973
 2823SOL    HW2 9369   4.536   6.583   0.089
 2824SOL     OW 9370   3.243   1.208   3.253
 2824SOL    HW1 9371   3.228   1.177   3.159
 2824SOL    HW2 9372   3.253   1.307   3.254
 2825SOL     OW 9373   6.554   0.151   6.442
 2825SOL    HW1 9374   6.486   0.078   6.444
 2825SOL    HW2 9375   6.554   0.200   6.529
 2826SOL     OW 9376   4.798   1.154   6.873
 2826SOL    HW1 9377   4.759   1.062   6.869
 2826SOL    HW2 9378   4.790   1.198   6.783
 2827SOL     OW 9379   6.956   0.495   5.041
 2827SOL    HW1 9380   6.974   0.542   4.955
 2827SOL    HW2 9381   6.980   0.399   5.032
 2828SOL     OW 9382   3.127   0.944   0.130
 2828SOL    HW1 9383   3.184   0.981   0.057
 2828SOL    HW2 9384   3.050   0.894   0.090
 2829SOL     OW 9385   3.450   3.697   5.409
 2829SOL    HW1 9386   3.430   3.765   5.338
 2829SOL    HW2 9387   3.366   3.648   5.433
 2830SOL     OW 9388   1.507   3.168   5.700
 2830SOL    HW1 9389   1.480   3.258   5.666
 2830SOL    HW2 9390   1.602   3.150   5.676
 2831SOL     OW 9391   0.423   5.283   3.699
 2831SOL    HW1 9392   0.492   5.353   3.683
 2831SOL    HW2 9393   0.374   5.263   3.614
 2832SOL     OW 9394   0.992   1.752   2.393
 2832SOL    HW1 9395   1.002   1.840   2.438
 2832SOL    HW2 9396   0.896   1.738   2.368
 2833SOL     OW 9397   3.928   2.165   2.498
 2833SOL    HW1 9398   3.991   2.131   2.428
 2833SOL    HW2 9399   3.835   2.138   2.474
 2834SOL     OW 9400   3.644   5.549   6.905
 2834SOL    HW1 9401   3.546   5.562   6.892
 2834SOL    HW2 9402   3.695   5.603   6.838
 2835SOL     OW 9403   0.276   0.337   1.353
 2835SOL    HW1 9404   0.192   0.285   1.336
 2835SOL    HW2 9405   0.268   0.427   1.310
 2836SOL     OW 9406   6.169   0.081   2.034
 2836SOL    HW1 9407   6.195   0.018   2.107
 2836SOL    HW2 9408   6.133   0.166   2.075
 2837SOL     OW 9409   5.442   4.108   2.862
 2837SOL    HW1 9410   5.470   4.184   2.922
 2837SOL    HW2 9411   5.431   4.143   2.769
 2838SOL     OW 9412   2.348   4.407   1.110
 2838SOL    HW1 9413   2.333   4.500   1.076
 2838SOL    HW2 9414   2.333   4.404   1.208
 2839SOL     OW 9415   6.812   1.460   1.809
 2839SOL    HW1 9416   6.768   1.378   1.774
 2839SOL    HW2 9417   6.819   1.528   1.735
 2840SOL     OW 9418   2.088   0.856   3.073
 2840SOL    HW1 9419   2.088   0.761   3.040
 2840SOL    HW2 9420   2.141   0.861   3.157
 2841SOL     OW 9421   0.275   1.060   6.328
 2841SOL    HW1 9422   0.367   1.074   6.365
 2841SOL    HW2 9423   0.208   1.067   6.402
 2842SOL     OW 9424   0.177   4.139   4.140
 2842SOL    HW1 9425   0.169   4.223   4.193
 2842SOL    HW2 9426   0.199   4.063   4.201
 2843SOL     OW 9427   2.689   1.638   2.809
 2843SOL    HW1 9428   2.673   1.722   2.756
 2843SOL    HW2 9429   2.682   1.559   2.748
 2844SOL     OW 9430   0.138   5.063   0.464
 2844SOL    HW1 9431   0.222   5.089   0.511
 2844SOL    HW2 9432   0.160   5.016   0.379
 2845SOL     OW 9433   6.092   2.772   1.391
 2845SOL    HW1 9434   6.152   2.739   1.318
 2845SOL    HW2 9435   6.067   2.867   1.374
 2846SOL     OW 9436   3.989   1.118   6.686
 2846SOL    HW1 9437   4.083   1.087   6.692
 2846SOL    HW2 9438   3.987   1.212   6.653
 2847SOL     OW 9439   4.997   3.477   3.508
 2847SOL    HW1 9440   4.965   3.558   3.460
 2847SOL    HW2 9441   5.048   3.504   3.590
 2848SOL     OW 9442   1.416   2.885   5.118
 2848SOL    HW1 9443   1.452   2.882   5.024
 2848SOL    HW2 9444   1.483   2.928   5.178
 2849SOL     OW 9445   3.802   5.995   0.775
 2849SOL    HW1 9446   3.791   6.073   0.714
 2849SOL    HW2 9447   3.842   6.025   0.861
 2850SOL     OW 9448   2.135   0.284   2.329
 2850SOL    HW1 9449   2.050   0.325   2.295
 2850SOL    HW2 9450   2.119   0.243   2.418
 2851SOL     OW 9451   6.166   1.631   6.034
 2851SOL    HW1 9452   6.081   1.662   5.992
 2851SOL    HW2 9453   6.226   1.709   6.051
 2852SOL     OW 9454   6.114   4.752   7.001
 2852SOL    HW1 9455   6.026   4.709   7.018
 2852SOL    HW2 9456   6.102   4.830   6.939
 2853SOL     OW 9457   1.522   2.803   6.655
 2853SOL    HW1 9458   1.528   2.831   6.751
 2853SOL    HW2 9459   1.588   2.855   6.601
 2854SOL     OW 9460   4.178   1.321   5.650
 2854SOL    HW1 9461   4.209   1.227   5.662
 2854SOL    HW2 9462   4.079   1.324   5.657
 2855SOL     OW 9463   2.628   1.714   0.221
 2855SOL    HW1 9464   2.723   1.736   0.200
 2855SOL    HW2 9465   2.569   1.749   0.148
 2856SOL     OW 9466   1.445   3.060   5.440
 2856SOL    HW1 9467   1.445   3.096   5.534
 2856SOL    HW2 9468   1.466   3.134   5.376
 2857SOL     OW 9469   2.910   1.951   2.275
 2857SOL    HW1 9470   2.811   1.957   2.262
 2857SOL    HW2 9471   2.950   2.042   2.268
 2858SOL     OW 9472   4.726   4.226   2.446
 2858SOL    HW1 9473   4.738   4.133   2.413
 2858SOL    HW2 9474   4.672   4.279   2.381
 2859SOL     OW 9475   4.979   1.622   6.619
 2859SOL    HW1 9476   5.034   1.539   6.620
 2859SOL    HW2 9477   5.031   1.697   6.661
 2860SOL     OW 9478   3.495   1.592   1.797
 2860SOL    HW1 9479   3.422   1.647   1.756
 2860SOL    HW2 9480   3.514   1.513   1.739
 2861SOL     OW 9481   3.697   3.880   5.329
 2861SOL    HW1 9482   3.602   3.886   5.298
 2861SOL    HW2 9483   3.709   3.937   5.410
 2862SOL     OW 9484   5.565   1.651   3.020
 2862SOL    HW1 9485   5.472   1.670   3.051
 2862SOL    HW2 9486   5.603   1.576   3.074
 2863SOL     OW 9487   5.199   0.910   6.559
 2863SOL    HW1 9488   5.119   0.881   6.507
 2863SOL    HW2 9489   5.254   0.830   6.582
 2864SOL     OW 9490   4.430   1.731   1.883
 2864SOL    HW1 9491   4.500   1.702   1.817
 2864SOL    HW2 9492   4.425   1.664   1.958
 2865SOL     OW 9493   4.090   4.231   6.953
 2865SOL    HW1 9494   4.115   4.223   0.020
 2865SOL    HW2 9495   4.144   4.303   6.910
 2866SOL     OW 9496   6.636   5.378   0.488
 2866SOL    HW1 9497   6.635   5.473   0.519
 2866SOL    HW2 9498   6.623   5.376   0.389
 2867SOL     OW 9499   5.935   4.746   2.638
 2867SOL    HW1 9500   5.969   4.717   2.548
 2867SOL    HW2 9501   5.985   4.827   2.667
 2868SOL     OW 9502   0.806   1.643   5.323
 2868SOL    HW1 9503   0.807   1.560   5.379
 2868SOL    HW2 9504   0.755   1.626   5.239
 2869SOL     OW 9505   6.508   1.109   2.862
 2869SOL    HW1 9506   6.459   1.133   2.946
 2869SOL    HW2 9507   6.605   1.128   2.873
 2870SOL     OW 9508   0.060   1.643   4.917
 2870SOL    HW1 9509   0.075   1.549   4.949
 2870SOL    HW2 9510   0.136   1.672   4.860
 2871SOL     OW 9511   0.608   1.940   6.945
 2871SOL    HW1 9512   0.550   1.965   6.868
 2871SOL    HW2 9513   0.626   1.841   6.942
 2872SOL     OW 9514   2.683   1.349   2.676
 2872SOL    HW1 9515   2.683   1.301   2.588
 2872SOL    HW2 9516   2.666   1.284   2.749
 2873SOL     OW 9517   0.002   5.465   3.069
 2873SOL    HW1 9518   6.964   5.464   3.143
 2873SOL    HW2 9519   6.988   5.492   2.984
 2874SOL     OW 9520   3.904   6.386   3.203
 2874SOL    HW1 9521   3.927   6.391   3.300
 2874SOL    HW2 9522   3.824   6.326   3.191
 2875SOL     OW 9523   4.827   6.802   0.512
 2875SOL    HW1 9524   4.788   6.842   0.595
 2875SOL    HW2 9525   4.808   6.703   0.511
 2876SOL     OW 9526   1.130   6.857   1.743
 2876SOL    HW1 9527   1.160   6.762   1.748
 2876SOL    HW2 9528   1.069   6.877   1.820
 2877SOL     OW 9529   3.236   2.526   5.335
 2877SOL    HW1 9530   3.217   2.451   5.271
 2877SOL    HW2 9531   3.181   2.514   5.417
 2878SOL     OW 9532   4.481   5.051   4.725
 2878SOL    HW1 9533   4.521   5.109   4.796
 2878SOL    HW2 9534   4.387   5.078   4.709
 2879SOL     OW 9535   5.057   5.063   0.836
 2879SOL    HW1 9536   5.067   4.979   0.888
 2879SOL    HW2 9537   5.101   5.138   0.885
 2880SOL     OW 9538   6.733   0.302   1.446
 2880SOL    HW1 9539   6.635   0.285   1.431
 2880SOL    HW2 9540   6.752   0.400   1.432
 2881SOL     OW 9541   5.432   5.687   6.937
 2881SOL    HW1 9542   5.370   5.667   7.013
 2881SOL    HW2 9543   5.445   5.786   6.930
 2882SOL     OW 9544   0.696   4.348   2.734
 2882SOL    HW1 9545   0.736   4.372   2.646
 2882SOL    HW2 9546   0.695   4.248   2.744
 2883SOL     OW 9547   5.857   0.082   3.472
 2883SOL    HW1 9548   5.857   0.152   3.400
 2883SOL    HW2 9549   5.948   0.041   3.478
 2884SOL     OW 9550   0.915   6.846   2.833
 2884SOL    HW1 9551   0.943   6.871   2.740
 2884SOL    HW2 9552   0.834   6.900   2.858
 2885SOL     OW 9553   0.434   2.931   2.840
 2885SOL    HW1 9554   0.532   2.923   2.819
 2885SOL    HW2 9555   0.387   2.976   2.764
 2886SOL     OW 9556   2.378   4.234   5.635
 2886SOL    HW1 9557   2.409   4.208   5.544
 2886SOL    HW2 9558   2.414   4.325   5.657
 2887SOL     OW 9559   0.456   0.614   4.639
 2887SOL    HW1 9560   0.429   0.665   4.557
 2887SOL    HW2 9561   0.440   0.516   4.624
 2888SOL     OW 9562   0.498   4.243   7.022
 2888SOL    HW1 9563   0.530   4.155   6.987
 2888SOL    HW2 9564   0.558   4.316   6.991
 2889SOL     OW 9565   1.936   0.049   2.128
 2889SOL    HW1 9566   1.982   0.036   2.040
 2889SOL    HW2 9567   1.867   7.008   2.140
 2890SOL     OW 9568   2.256   5.948   0.665
 2890SOL    HW1 9569   2.232   5.910   0.754
 2890SOL    HW2 9570   2.179   6.000   0.628
 2891SOL     OW 9571   1.329   4.282   3.734
 2891SOL    HW1 9572   1.245   4.313   3.690
 2891SOL    HW2 9573   1.315   4.191   3.772
 2892SOL     OW 9574   4.812   3.082   0.286
 2892SOL    HW1 9575   4.714   3.075   0.307
 2892SOL    HW2 9576   4.830   3.169   0.240
 2893SOL     OW 9577   0.742   6.629   4.554
 2893SOL    HW1 9578   0.691   6.553   4.595
 2893SOL    HW2 9579   0.829   6.595   4.519
 2894SOL     OW 9580   1.748   2.451   1.756
 2894SOL    HW1 9581   1.650   2.440   1.744
 2894SOL    HW2 9582   1.768   2.471   1.852
 2895SOL     OW 9583   4.347   2.310   5.979
 2895SOL    HW1 9584   4.334   2.211   5.984
 2895SOL    HW2 9585   4.390   2.342   6.063
 2896SOL     OW 9586   4.489   5.400   5.931
 2896SOL    HW1 9587   4.432   5.421   6.011
 2896SOL    HW2 9588   4.458   5.455   5.853
 2897SOL     OW 9589   3.807   4.888   3.227
 2897SOL    HW1 9590   3.863   4.830   3.286
 2897SOL    HW2 9591   3.838   4.983   3.234
 2898SOL     OW 9592   3.747   5.654   4.313
 2898SOL    HW1 9593   3.775   5.599   4.235
 2898SOL    HW2 9594   3.782   5.747   4.303
 2899SOL     OW 9595   0.920   1.778   0.542
 2899SOL    HW1 9596   0.903   1.778   0.443
 2899SOL    HW2 9597   0.874   1.856   0.584
 2900SOL     OW 9598   1.652   4.529   5.433
 2900SOL    HW1 9599   1.613   4.515   5.524
 2900SOL    HW2 9600   1.640   4.447   5.378
 2901SOL     OW 9601   2.961   5.938   3.718
 2901SOL    HW1 9602   3.011   5.882   3.784
 2901SOL    HW2 9603   2.917   5.879   3.651
 2902SOL     OW 9604   4.848   6.542   2.297
 2902SOL    HW1 9605   4.921   6.474   2.293
 2902SOL    HW2 9606   4.772   6.506   2.351
 2903SOL     OW 9607   3.945   1.082   0.404
 2903SOL    HW1 9608   4.027   1.062   0.352
 2903SOL    HW2 9609   3.905   1.168   0.373
 2904SOL     OW 9610   2.112   4.036   5.259
 2904SOL    HW1 9611   2.050   4.060   5.184
 2904SOL    HW2 9612   2.183   3.975   5.224
 2905SOL     OW 9613   1.336   2.767   3.889
 2905SOL    HW1 9614   1.285   2.681   3.883
 2905SOL    HW2 9615   1.421   2.759   3.837
 2906SOL     OW 9616   4.345   5.812   2.441
 2906SOL    HW1 9617   4.306   5.812   2.349
 2906SOL    HW2 9618   4.276   5.843   2.507
 2907SOL     OW 9619   0.756   1.801   3.577
 2907SOL    HW1 9620   0.723   1.721   3.526
 2907SOL    HW2 9621   0.856   1.796   3.586
 2908SOL     OW 9622   4.497   6.152   4.151
 2908SOL    HW1 9623   4.445   6.206   4.085
 2908SOL    HW2 9624   4.544   6.213   4.215
 2909SOL     OW 9625   1.372   6.526   3.229
 2909SOL    HW1 9626   1.297   6.589   3.247
 2909SOL    HW2 9627   1.437   6.569   3.166
 2910SOL     OW 9628   4.502   6.388   4.805
 2910SOL    HW1 9629   4.598   6.392   4.831
 2910SOL    HW2 9630   4.495   6.377   4.706
 2911SOL     OW 9631   0.912   5.526   3.397
 2911SOL    HW1 9632   0.853   5.581   3.338
 2911SOL    HW2 9633   1.006   5.559   3.389
 2912SOL     OW 9634   4.897   0.509   6.953
 2912SOL    HW1 9635   4.854   0.571   7.019
 2912SOL    HW2 9636   4.976   0.554   6.911
 2913SOL     OW 9637   2.764   4.688   2.934
 2913SOL    HW1 9638   2.693   4.644   2.990
 2913SOL    HW2 9639   2.851   4.686   2.984
 2914SOL     OW 9640   5.559   6.092   6.127
 2914SOL    HW1 9641   5.505   6.080   6.210
 2914SOL    HW2 9642   5.643   6.143   6.148
 2915SOL     OW 9643   5.520   1.805   4.483
 2915SOL    HW1 9644   5.606   1.853   4.497
 2915SOL    HW2 9645   5.516   1.768   4.390
 2916SOL     OW 9646   0.802   6.511   6.452
 2916SOL    HW1 9647   0.887   6.461   6.467
 2916SOL    HW2 9648   0.746   6.506   6.534
 2917SOL     OW 9649   2.935   6.922   2.826
 2917SOL    HW1 9650   2.959   7.019   2.829
 2917SOL    HW2 9651   2.906   6.898   2.733
 2918SOL     OW 9652   0.037   5.127   4.283
 2918SOL    HW1 9653   7.014   5.092   4.206
 2918SOL    HW2 9654   7.012   5.119   4.367
 2919SOL     OW 9655   6.638   1.102   0.973
 2919SOL    HW1 9656   6.604   1.146   0.889
 2919SOL    HW2 9657   6.724   1.145   1.000
 2920SOL     OW 9658   2.735   2.192   1.859
 2920SOL    HW1 9659   2.706   2.100   1.886
 2920SOL    HW2 9660   2.789   2.233   1.933
 2921SOL     OW 9661   1.181   0.891   3.213
 2921SOL    HW1 9662   1.275   0.917   3.236
 2921SOL    HW2 9663   1.158   0.805   3.259
 2922SOL     OW 9664   5.081   0.774   0.544
 2922SOL    HW1 9665   5.038   0.863   0.530
 2922SOL    HW2 9666   5.165   0.769   0.491
 2923SOL     OW 9667   6.913   5.532   2.134
 2923SOL    HW1 9668   6.957   5.480   2.207
 2923SOL    HW2 9669   6.956   5.622   2.127
 2924SOL     OW 9670   6.972   1.529   6.388
 2924SOL    HW1 9671   6.875   1.515   6.408
 2924SOL    HW2 9672   6.987   1.625   6.365
 2925SOL     OW 9673   4.131   1.157   2.616
 2925SOL    HW1 9674   4.180   1.100   2.683
 2925SOL    HW2 9675   4.147   1.253   2.638
 2926SOL     OW 9676   6.136   1.672   4.675
 2926SOL    HW1 9677   6.213   1.610   4.687
 2926SOL    HW2 9678   6.169   1.766   4.668
 2927SOL     OW 9679   0.719   2.094   2.352
 2927SOL    HW1 9680   0.815   2.123   2.348
 2927SOL    HW2 9681   0.665   2.164   2.399
 2928SOL     OW 9682   6.970   1.375   6.162
 2928SOL    HW1 9683   6.977   1.453   6.224
 2928SOL    HW2 9684   7.003   1.401   6.071
 2929SOL     OW 9685   0.929   1.966   6.995
 2929SOL    HW1 9686   0.867   2.002   0.035
 2929SOL    HW2 9687   0.908   2.008   6.907
 2930SOL     OW 9688   4.713   6.236   5.096
 2930SOL    HW1 9689   4.742   6.232   5.000
 2930SOL    HW2 9690   4.714   6.331   5.127
 2931SOL     OW 9691   5.568   4.629   0.339
 2931SOL    HW1 9692   5.528   4.554   0.391
 2931SOL    HW2 9693   5.667   4.628   0.349
 2932SOL     OW 9694   0.424   5.027   1.167
 2932SOL    HW1 9695   0.406   4.998   1.261
 2932SOL    HW2 9696   0.450   4.948   1.112
 2933SOL     OW 9697   5.954   4.613   3.220
 2933SOL    HW1 9698   6.045   4.633   3.185
 2933SOL    HW2 9699   5.938   4.664   3.304
 2934SOL     OW 9700   4.615   1.295   0.005
 2934SOL    HW1 9701   4.680   1.237   6.985
 2934SOL    HW2 9702   4.628   1.391   7.007
 2935SOL     OW 9703   6.149   2.768   0.527
 2935SOL    HW1 9704   6.127   2.783   0.623
 2935SOL    HW2 9705   6.067   2.782   0.471
 2936SOL     OW 9706   3.604   5.894   1.787
 2936SOL    HW1 9707   3.618   5.967   1.720
 2936SOL    HW2 9708   3.692   5.863   1.822
 2937SOL     OW 9709   4.867   4.471   0.427
 2937SOL    HW1 9710   4.867   4.380   0.468
 2937SOL    HW2 9711   4.774   4.508   0.426
 2938SOL     OW 9712   4.549   5.705   6.915
 2938SOL    HW1 9713   4.598   5.622   6.941
 2938SOL    HW2 9714   4.508   5.693   6.825
 2939SOL     OW 9715   1.427   0.974   3.290
 2939SOL    HW1 9716   1.481   0.894   3.264
 2939SOL    HW2 9717   1.489   1.045   3.326
 2940SOL     OW 9718   6.006   5.428   6.009
 2940SOL    HW1 9719   5.928   5.481   5.977
 2940SOL    HW2 9720   5.979   5.332   6.017
 2941SOL     OW 9721   1.467   3.393   4.573
 2941SOL    HW1 9722   1.459   3.384   4.473
 2941SOL    HW2 9723   1.398   3.456   4.606
 2942SOL     OW 9724   3.264   2.919   1.113
 2942SOL    HW1 9725   3.216   2.840   1.151
 2942SOL    HW2 9726   3.279   2.905   1.015
 2943SOL     OW 9727   4.852   4.680   2.862
 2943SOL    HW1 9728   4.758   4.712   2.861
 2943SOL    HW2 9729   4.881   4.663   2.956
 2944SOL     OW 9730   2.835   5.459   5.061
 2944SOL    HW1 9731   2.921   5.482   5.107
 2944SOL    HW2 9732   2.800   5.540   5.014
 2945SOL     OW 9733   3.594   4.175   4.072
 2945SOL    HW1 9734   3.547   4.162   4.159
 2945SOL    HW2 9735   3.689   4.202   4.089
 2946SOL     OW 9736   0.528   4.867   6.525
 2946SOL    HW1 9737   0.488   4.827   6.443
 2946SOL    HW2 9738   0.460   4.924   6.571
 2947SOL     OW 9739   0.285   3.363   0.367
 2947SOL    HW1 9740   0.297   3.456   0.403
 2947SOL    HW2 9741   0.277   3.367   0.267
 2948SOL     OW 9742   0.669   4.807   5.714
 2948SOL    HW1 9743   0.688   4.851   5.802
 2948SOL    HW2 9744   0.688   4.709   5.720
 2949SOL     OW 9745   2.942   4.848   0.988
 2949SOL    HW1 9746   2.861   4.790   0.989
 2949SOL    HW2 9747   2.916   4.941   0.960
 2950SOL     OW 9748   5.484   3.652   4.299
 2950SOL    HW1 9749   5.522   3.692   4.216
 2950SOL    HW2 9750   5.384   3.657   4.296
 2951SOL     OW 9751   5.729   1.448   0.943
 2951SOL    HW1 9752   5.679   1.501   1.011
 2951SOL    HW2 9753   5.823   1.432   0.975
 2952SOL     OW 9754   1.113   5.496   4.975
 2952SOL    HW1 9755   1.069   5.546   4.901
 2952SOL    HW2 9756   1.061   5.414   4.997
 2953SOL     OW 9757   5.046   3.750   3.009
 2953SOL    HW1 9758   4.991   3.688   2.953
 2953SOL    HW2 9759   5.102   3.697   3.072
 2954SOL     OW 9760   0.544   6.030   2.320
 2954SOL    HW1 9761   0.474   6.101   2.326
 2954SOL    HW2 9762   0.535   5.968   2.398
 2955SOL     OW 9763   1.131   3.974   1.456
 2955SOL    HW1 9764   1.150   3.982   1.554
 2955SOL    HW2 9765   1.033   3.985   1.439
 2956SOL     OW 9766   5.569   6.568   3.098
 2956SOL    HW1 9767   5.545   6.533   3.188
 2956SOL    HW2 9768   5.486   6.594   3.049
 2957SOL     OW 9769   6.003   2.963   2.480
 2957SOL    HW1 9770   6.002   2.956   2.380
 2957SOL    HW2 9771   6.039   3.053   2.506
 2958SOL     OW 9772   2.211   4.341   4.649
 2958SOL    HW1 9773   2.231   4.267   4.712
 2958SOL    HW2 9774   2.253   4.426   4.683
 2959SOL     OW 9775   5.004   4.441   0.775
 2959SOL    HW1 9776   4.989   4.537   0.751
 2959SOL    HW2 9777   5.096   4.413   0.747
 2960SOL     OW 9778   4.116   0.218   6.113
 2960SOL    HW1 9779   4.112   0.286   6.186
 2960SOL    HW2 9780   4.032   0.223   6.059
 2961SOL     OW 9781   4.983   3.161   3.022
 2961SOL    HW1 9782   5.072   3.134   3.059
 2961SOL    HW2 9783   4.941   3.229   3.082
 2962SOL     OW 9784   4.148   0.803   3.394
 2962SOL    HW1 9785   4.143   0.703   3.397
 2962SOL    HW2 9786   4.060   0.839   3.363
 2963SOL     OW 9787   2.288   0.256   7.008
 2963SOL    HW1 9788   2.217   0.222   6.946
 2963SOL    HW2 9789   2.249   0.271   0.069
 2964SOL     OW 9790   0.659   0.074   2.631
 2964SOL    HW1 9791   0.600   7.024   2.643
 2964SOL    HW2 9792   0.749   0.044   2.597
 2965SOL     OW 9793   6.210   1.060   4.517
 2965SOL    HW1 9794   6.154   1.121   4.459
 2965SOL    HW2 9795   6.283   1.021   4.462
 2966SOL     OW 9796   6.729   5.971   4.217
 2966SOL    HW1 9797   6.756   5.944   4.309
 2966SOL    HW2 9798   6.768   5.907   4.151
 2967SOL     OW 9799   5.914   1.011   4.697
 2967SOL    HW1 9800   5.976   1.041   4.625
 2967SOL    HW2 9801   5.940   0.920   4.728
 2968SOL     OW 9802   0.573   3.395   6.294
 2968SOL    HW1 9803   0.520   3.454   6.354
 2968SOL    HW2 9804   0.648   3.354   6.345
 2969SOL     OW 9805   5.450   1.166   4.526
 2969SOL    HW1 9806   5.456   1.067   4.514
 2969SOL    HW2 9807   5.417   1.186   4.619
 2970SOL     OW 9808   1.644   4.558   6.076
 2970SOL    HW1 9809   1.616   4.599   6.163
 2970SOL    HW2 9810   1.563   4.541   6.020
 2971SOL     OW 9811   5.615   4.286   6.671
 2971SOL    HW1 9812   5.550   4.221   6.630
 2971SOL    HW2 9813   5.568   4.372   6.691
 2972SOL     OW 9814   6.058   4.383   6.259
 2972SOL    HW1 9815   6.049   4.317   6.185
 2972SOL    HW2 9816   5.968   4.399   6.301
 2973SOL     OW 9817   5.660   0.874   3.922
 2973SOL    HW1 9818   5.657   0.931   4.004
 2973SOL    HW2 9819   5.590   0.906   3.857
 2974SOL     OW 9820   0.766   4.316   3.206
 2974SOL    HW1 9821   0.773   4.376   3.285
 2974SOL    HW2 9822   0.807   4.361   3.126
 2975SOL     OW 9823   6.381   2.584   4.971
 2975SOL    HW1 9824   6.332   2.617   5.051
 2975SOL    HW2 9825   6.467   2.634   4.961
 2976SOL     OW 9826   4.127   2.249   3.157
 2976SOL    HW1 9827   4.084   2.238   3.247
 2976SOL    HW2 9828   4.211   2.302   3.166
 2977SOL     OW 9829   2.376   6.998   3.304
 2977SOL    HW1 9830   2.344   0.045   3.249
 2977SOL    HW2 9831   2.454   6.955   3.260
 2978SOL     OW 9832   4.696   4.520   0.130
 2978SOL    HW1 9833   4.735   4.598   0.080
 2978SOL    HW2 9834   4.642   4.553   0.207
 2979SOL     OW 9835   4.612   1.065   4.412
 2979SOL    HW1 9836   4.577   1.151   4.449
 2979SOL    HW2 9837   4.707   1.077   4.382
 2980SOL     OW 9838   1.809   6.841   3.884
 2980SOL    HW1 9839   1.822   6.808   3.791
 2980SOL    HW2 9840   1.861   6.784   3.947
 2981SOL     OW 9841   2.119   0.976   6.081
 2981SOL    HW1 9842   2.160   0.887   6.099
 2981SOL    HW2 9843   2.034   0.986   6.133
 2982SOL     OW 9844   3.863   5.396   3.335
 2982SOL    HW1 9845   3.936   5.418   3.270
 2982SOL    HW2 9846   3.829   5.480   3.378
 2983SOL     OW 9847   1.106   2.008   3.510
 2983SOL    HW1 9848   1.144   2.034   3.421
 2983SOL    HW2 9849   1.153   2.059   3.582
 2984SOL     OW 9850   5.617   5.677   1.419
 2984SOL    HW1 9851   5.545   5.699   1.484
 2984SOL    HW2 9852   5.576   5.644   1.334
 2985SOL     OW 9853   1.259   2.526   5.693
 2985SOL    HW1 9854   1.317   2.445   5.703
 2985SOL    HW2 9855   1.212   2.523   5.605
 2986SOL     OW 9856   3.548   3.829   5.654
 2986SOL    HW1 9857   3.497   3.803   5.736
 2986SOL    HW2 9858   3.519   3.771   5.577
 2987SOL     OW 9859   5.928   1.055   4.404
 2987SOL    HW1 9860   5.988   1.003   4.344
 2987SOL    HW2 9861   5.888   1.131   4.353
 2988SOL     OW 9862   0.828   6.238   3.105
 2988SOL    HW1 9863   0.896   6.166   3.114
 2988SOL    HW2 9864   0.737   6.199   3.108
 2989SOL     OW 9865   6.747   6.308   6.658
 2989SOL    HW1 9866   6.818   6.250   6.698
 2989SOL    HW2 9867   6.787   6.365   6.587
 2990SOL     OW 9868   4.286   1.831   4.309
 2990SOL    HW1 9869   4.364   1.894   4.306
 2990SOL    HW2 9870   4.230   1.844   4.228
 2991SOL     OW 9871   6.380   4.190   5.717
 2991SOL    HW1 9872   6.303   4.238   5.760
 2991SOL    HW2 9873   6.451   4.172   5.785
 2992SOL     OW 9874   2.665   5.155   5.466
 2992SOL    HW1 9875   2.676   5.189   5.373
 2992SOL    HW2 9876   2.569   5.163   5.493
 2993SOL     OW 9877   0.564   5.248   1.493
 2993SOL    HW1 9878   0.562   5.194   1.578
 2993SOL    HW2 9879   0.477   5.235   1.444
 2994SOL     OW 9880   3.776   6.596   0.075
 2994SOL    HW1 9881   3.732   6.561   0.158
 2994SOL    HW2 9882   3.848   6.533   0.046
 2995SOL     OW 9883   1.909   2.830   6.827
 2995SOL    HW1 9884   2.003   2.821   6.793
 2995SOL    HW2 9885   1.862   2.742   6.820
 2996SOL     OW 9886   2.321   0.269   3.876
 2996SOL    HW1 9887   2.390   0.334   3.844
 2996SOL    HW2 9888   2.230   0.311   3.870
 2997SOL     OW 9889   6.052   0.982   2.373
 2997SOL    HW1 9890   5.969   0.966   2.319
 2997SOL    HW2 9891   6.037   0.951   2.467
 2998SOL     OW 9892   4.616   0.013   4.281
 2998SOL    HW1 9893   4.608   0.098   4.229
 2998SOL    HW2 9894   4.546   0.012   4.353
 2999SOL     OW 9895   2.880   4.839   4.490
 2999SOL    HW1 9896   2.852   4.928   4.525
 2999SOL    HW2 9897   2.816   4.769   4.523
 3000SOL     OW 9898   2.217   3.421   6.835
 3000SOL    HW1 9899   2.205   3.465   6.924
 3000SOL    HW2 9900   2.128   3.408   6.791
 3001SOL     OW 9901   5.005   6.256   6.067
 3001SOL    HW1 9902   4.976   6.174   6.117
 3001SOL    HW2 9903   4.933   6.326   6.074
 3002SOL     OW 9904   4.037   0.722   6.404
 3002SOL    HW1 9905   3.990   0.634   6.415
 3002SOL    HW2 9906   4.107   0.714   6.333
 3003SOL     OW 9907   2.572   6.650   6.992
 3003SOL    HW1 9908   2.566   6.682   6.897
 3003SOL    HW2 9909   2.497   6.688   0.015
 3004SOL     OW 9910   1.565   4.917   3.239
 3004SOL    HW1 9911   1.642   4.877   3.188
 3004SOL    HW2 9912   1.599   4.986   3.303
 3005SOL     OW 9913   3.274   2.806   6.609
 3005SOL    HW1 9914   3.348   2.863   6.574
 3005SOL    HW2 9915   3.263   2.726   6.550
 3006SOL     OW 9916   5.144   2.134   5.892
 3006SOL    HW1 9917   5.220   2.070   5.900
 3006SOL    HW2 9918   5.089   2.110   5.812
 3007SOL     OW 9919   5.982   5.579   0.973
 3007SOL    HW1 9920   5.984   5.678   0.958
 3007SOL    HW2 9921   5.996   5.560   1.071
 3008SOL     OW 9922   3.744   1.490   6.798
 3008SOL    HW1 9923   3.783   1.555   6.734
 3008SOL    HW2 9924   3.654   1.522   6.827
 3009SOL     OW 9925   1.141   1.072   3.005
 3009SOL    HW1 9926   1.153   1.001   3.075
 3009SOL    HW2 9927   1.188   1.045   2.922
 3010SOL     OW 9928   3.075   5.918   3.197
 3010SOL    HW1 9929   2.998   5.941   3.255
 3010SOL    HW2 9930   3.151   5.884   3.253
 3011SOL     OW 9931   5.171   1.176   1.334
 3011SOL    HW1 9932   5.103   1.248   1.341
 3011SOL    HW2 9933   5.126   1.087   1.346
 3012SOL     OW 9934   1.411   3.875   5.001
 3012SOL    HW1 9935   1.382   3.780   4.993
 3012SOL    HW2 9936   1.402   3.905   5.096
 3013SOL     OW 9937   5.389   5.704   4.650
 3013SOL    HW1 9938   5.339   5.781   4.611
 3013SOL    HW2 9939   5.460   5.674   4.586
 3014SOL     OW 9940   4.932   2.653   4.846
 3014SOL    HW1 9941   4.963   2.626   4.937
 3014SOL    HW2 9942   4.933   2.574   4.785
 3015SOL     OW 9943   3.226   2.425   6.915
 3015SOL    HW1 9944   3.199   2.521   6.927
 3015SOL    HW2 9945   3.320   2.414   6.946
 3016SOL     OW 9946   2.422   6.251   4.449
 3016SOL    HW1 9947   2.416   6.233   4.547
 3016SOL    HW2 9948   2.452   6.168   4.402
 3017SOL     OW 9949   0.213   5.271   1.975
 3017SOL    HW1 9950   0.127   5.311   1.945
 3017SOL    HW2 9951   0.277   5.265   1.898
 3018SOL     OW 9952   2.649   6.395   6.142
 3018SOL    HW1 9953   2.676   6.302   6.168
 3018SOL    HW2 9954   2.589   6.432   6.213
 3019SOL     OW 9955   1.077   0.230   6.952
 3019SOL    HW1 9956   1.167   0.209   6.916
 3019SOL    HW2 9957   1.007   0.204   6.886
 3020SOL     OW 9958   4.018   3.153   2.089
 3020SOL    HW1 9959   4.081   3.196   2.025
 3020SOL    HW2 9960   3.952   3.097   2.039
 3021SOL     OW 9961   3.270   0.211   6.762
 3021SOL    HW1 9962   3.225   0.291   6.801
 3021SOL    HW2 9963   3.245   0.130   6.814
 3022SOL     OW 9964   3.718   5.062   4.660
 3022SOL    HW1 9965   3.763   5.026   4.579
 3022SOL    HW2 9966   3.618   5.052   4.651
 3023SOL     OW 9967   4.194   0.492   2.820
 3023SOL    HW1 9968   4.269   0.427   2.812
 3023SOL    HW2 9969   4.231   0.585   2.826
 3024SOL     OW 9970   4.029   6.237   5.549
 3024SOL    HW1 9971   4.062   6.328   5.521
 3024SOL    HW2 9972   3.989   6.242   5.640
 3025SOL     OW 9973   3.456   1.092   0.458
 3025SOL    HW1 9974   3.502   1.156   0.521
 3025SOL    HW2 9975   3.472   1.122   0.364
 3026SOL     OW 9976   1.241   1.262   0.692
 3026SOL    HW1 9977   1.207   1.238   0.601
 3026SOL    HW2 9978   1.252   1.178   0.746
 3027SOL     OW 9979   4.234   0.833   3.083
 3027SOL    HW1 9980   4.209   0.912   3.139
 3027SOL    HW2 9981   4.217   0.749   3.134
 3028SOL     OW 9982   1.202   4.629   5.395
 3028SOL    HW1 9983   1.260   4.586   5.463
 3028SOL    HW2 9984   1.255   4.696   5.343
 3029SOL     OW 9985   6.966   3.053   4.860
 3029SOL    HW1 9986   6.960   3.136   4.805
 3029SOL    HW2 9987   6.882   3.043   4.914
 3030SOL     OW 9988   0.835   3.158   6.142
 3030SOL    HW1 9989   0.797   3.075   6.183
 3030SOL    HW2 9990   0.903   3.133   6.073
 3031SOL     OW 9991   0.486   2.660   0.603
 3031SOL    HW1 9992   0.440   2.748   0.588
 3031SOL    HW2 9993   0.472   2.630   0.697
 3032SOL     OW 9994   3.953   6.334   1.425
 3032SOL    HW1 9995   3.931   6.306   1.519
 3032SOL    HW2 9996   3.879   6.392   1.390
 3033SOL     OW 9997   6.734   1.910   1.496
 3033SOL    HW1 9998   6.685   1.916   1.409
 3033SOL    HW2 9999   6.762   2.001   1.525
 3034SOL     OW10000   1.450   5.819   3.429
 3034SOL    HW110001   1.458   5.857   3.522
 3034SOL    HW210002   1.407   5.886   3.369
 3035SOL     OW10003   6.858   3.099   0.188
 3035SOL    HW110004   6.841   3.192   0.157
 3035SOL    HW210005   6.819   3.087   0.280
 3036SOL     OW10006   1.245   2.461   6.289
 3036SOL    HW110007   1.319   2.401   6.257
 3036SOL    HW210008   1.233   2.536   6.224
 3037SOL     OW10009   6.895   6.211   5.140
 3037SOL    HW110010   6.959   6.154   5.088
 3037SOL    HW210011   6.822   6.154   5.176
 3038SOL     OW10012   5.741   5.981   5.747
 3038SOL    HW110013   5.727   6.071   5.789
 3038SOL    HW210014   5.827   5.942   5.780
 3039SOL     OW10015   6.636   3.867   1.484
 3039SOL    HW110016   6.545   3.826   1.492
 3039SOL    HW210017   6.645   3.912   1.395
 3040SOL     OW10018   3.841   3.391   6.209
 3040SOL    HW110019   3.815   3.338   6.128
 3040SOL    HW210020   3.815   3.487   6.196
 3041SOL     OW10021   1.989   2.979   4.455
 3041SOL    HW110022   2.075   3.021   4.485
 3041SOL    HW210023   1.964   2.906   4.519
 3042SOL     OW10024   4.930   6.350   2.061
 3042SOL    HW110025   4.962   6.257   2.039
 3042SOL    HW210026   5.001   6.416   2.035
 3043SOL     OW10027   0.864   5.599   1.705
 3043SOL    HW110028   0.864   5.562   1.612
 3043SOL    HW210029   0.773   5.631   1.729
 3044SOL     OW10030   3.118   3.687   5.869
 3044SOL    HW110031   3.042   3.622   5.857
 3044SOL    HW210032   3.081   3.775   5.900
 3045SOL     OW10033   4.806   0.692   2.899
 3045SOL    HW110034   4.794   0.779   2.946
 3045SOL    HW210035   4.897   0.690   2.856
 3046SOL     OW10036   2.518   1.225   6.446
 3046SOL    HW110037   2.518   1.144   6.505
 3046SOL    HW210038   2.425   1.246   6.418
 3047SOL     OW10039   5.630   0.299   2.680
 3047SOL    HW110040   5.582   0.237   2.617
 3047SOL    HW210041   5.582   0.387   2.682
 3048SOL     OW10042   4.168   2.683   1.457
 3048SOL    HW110043   4.222   2.601   1.438
 3048SOL    HW210044   4.083   2.657   1.503
 3049SOL     OW10045   0.972   6.914   1.950
 3049SOL    HW110046   0.913   6.843   1.988
 3049SOL    HW210047   0.952   7.002   1.994
 3050SOL     OW10048   3.054   0.879   2.500
 3050SOL    HW110049   3.064   0.978   2.513
 3050SOL    HW210050   3.007   0.861   2.413
 3051SOL     OW10051   1.911   4.199   0.230
 3051SOL    HW110052   1.841   4.264   0.201
 3051SOL    HW210053   1.868   4.117   0.269
 3052SOL     OW10054   5.766   0.351   2.169
 3052SOL    HW110055   5.754   0.252   2.169
 3052SOL    HW210056   5.676   0.395   2.158
 3053SOL     OW10057   0.148   1.984   6.907
 3053SOL    HW110058   0.190   2.054   6.850
 3053SOL    HW210059   0.176   1.893   6.875
 3054SOL     OW10060   6.634   1.699   1.250
 3054SOL    HW110061   6.552   1.720   1.197
 3054SOL    HW210062   6.706   1.765   1.229
 3055SOL     OW10063   5.064   6.763   3.964
 3055SOL    HW110064   5.119   6.700   4.019
 3055SOL    HW210065   5.062   6.731   3.869
 3056SOL     OW10066   6.060   1.088   5.212
 3056SOL    HW110067   6.065   1.153   5.287
 3056SOL    HW210068   6.050   1.136   5.126
 3057SOL     OW10069   3.746   6.064   3.514
 3057SOL    HW110070   3.808   6.142   3.518
 3057SOL    HW210071   3.796   5.980   3.534
 3058SOL     OW10072   6.844   5.610   0.871
 3058SOL    HW110073   6.909   5.598   0.796
 3058SOL    HW210074   6.802   5.522   0.892
 3059SOL     OW10075   2.546   2.021   4.215
 3059SOL    HW110076   2.580   2.069   4.134
 3059SOL    HW210077   2.551   1.922   4.200
 3060SOL     OW10078   0.351   5.215   0.542
 3060SOL    HW110079   0.322   5.259   0.457
 3060SOL    HW210080   0.352   5.282   0.616
 3061SOL     OW10081   6.368   0.061   5.636
 3061SOL    HW110082   6.320   0.143   5.667
 3061SOL    HW210083   6.382   0.066   5.537
 3062SOL     OW10084   1.615   6.478   6.708
 3062SOL    HW110085   1.582   6.391   6.746
 3062SOL    HW210086   1.710   6.467   6.678
 3063SOL     OW10087   2.733   5.545   1.298
 3063SOL    HW110088   2.640   5.568   1.328
 3063SOL    HW210089   2.753   5.450   1.323
 3064SOL     OW10090   5.852   4.140   3.114
 3064SOL    HW110091   5.877   4.114   3.021
 3064SOL    HW210092   5.933   4.142   3.172
 3065SOL     OW10093   2.444   0.969   0.135
 3065SOL    HW110094   2.450   1.063   0.102
 3065SOL    HW210095   2.351   0.950   0.166
 3066SOL     OW10096   5.497   4.988   0.859
 3066SOL    HW110097   5.593   4.996   0.882
 3066SOL    HW210098   5.485   4.915   0.791
 3067SOL     OW10099   3.784   1.914   5.405
 3067SOL    HW110100   3.717   1.969   5.454
 3067SOL    HW210101   3.814   1.963   5.323
 3068SOL     OW10102   6.328   6.362   1.686
 3068SOL    HW110103   6.388   6.408   1.620
 3068SOL    HW210104   6.243   6.414   1.695
 3069SOL     OW10105   6.549   6.510   1.896
 3069SOL    HW110106   6.483   6.448   1.853
 3069SOL    HW210107   6.518   6.534   1.988
 3070SOL     OW10108   1.387   1.168   1.507
 3070SOL    HW110109   1.366   1.117   1.424
 3070SOL    HW210110   1.455   1.118   1.561
 3071SOL     OW10111   6.494   6.285   2.666
 3071SOL    HW110112   6.593   6.289   2.649
 3071SOL    HW210113   6.478   6.268   2.763
 3072SOL     OW10114   1.764   6.828   6.813
 3072SOL    HW110115   1.744   6.908   6.756
 3072SOL    HW210116   1.830   6.853   6.883
 3073SOL     OW10117   6.362   2.772   4.434
 3073SOL    HW110118   6.411   2.718   4.501
 3073SOL    HW210119   6.395   2.867   4.436
 3074SOL     OW10120   6.068   3.252   1.125
 3074SOL    HW110121   6.056   3.153   1.118
 3074SOL    HW210122   6.068   3.278   1.222
 3075SOL     OW10123   2.379   6.094   1.926
 3075SOL    HW110124   2.455   6.086   1.991
 3075SOL    HW210125   2.307   6.029   1.950
 3076SOL     OW10126   6.616   0.549   4.163
 3076SOL    HW110127   6.574   0.468   4.201
 3076SOL    HW210128   6.713   0.532   4.146
 3077SOL     OW10129   4.836   5.890   2.234
 3077SOL    HW110130   4.899   5.944   2.177
 3077SOL    HW210131   4.886   5.816   2.278
 3078SOL     OW10132   1.139   3.310   2.383
 3078SOL    HW110133   1.224   3.286   2.337
 3078SOL    HW210134   1.115   3.405   2.361
 3079SOL     OW10135   2.286   2.230   4.187
 3079SOL    HW110136   2.385   2.216   4.191
 3079SOL    HW210137   2.247   2.167   4.120
 3080SOL     OW10138   4.900   3.688   3.796
 3080SOL    HW110139   4.968   3.749   3.756
 3080SOL    HW210140   4.809   3.728   3.786
 3081SOL     OW10141   0.529   2.497   6.115
 3081SOL    HW110142   0.603   2.430   6.119
 3081SOL    HW210143   0.520   2.542   6.204
 3082SOL     OW10144   2.815   6.833   4.257
 3082SOL    HW110145   2.723   6.829   4.297
 3082SOL    HW210146   2.848   6.740   4.241
 3083SOL     OW10147   3.983   6.244   3.515
 3083SOL    HW110148   3.996   6.342   3.501
 3083SOL    HW210149   4.068   6.202   3.545
 3084SOL     OW10150   5.537   3.844   4.500
 3084SOL    HW110151   5.617   3.856   4.558
 3084SOL    HW210152   5.550   3.763   4.442
 3085SOL     OW10153   6.715   4.600   1.905
 3085SOL    HW110154   6.721   4.637   1.997
 3085SOL    HW210155   6.804   4.606   1.861
 3086SOL     OW10156   3.879   1.992   1.599
 3086SOL    HW110157   3.842   2.081   1.626
 3086SOL    HW210158   3.818   1.920   1.632
 3087SOL     OW10159   0.359   5.586   4.105
 3087SOL    HW110160   0.359   5.654   4.178
 3087SOL    HW210161   0.442   5.530   4.112
 3088SOL     OW10162   2.121   4.326   5.641
 3088SOL    HW110163   2.108   4.352   5.545
 3088SOL    HW210164   2.213   4.289   5.652
 3089SOL     OW10165   1.129   3.233   0.277
 3089SOL    HW110166   1.136   3.292   0.196
 3089SOL    HW210167   1.151   3.287   0.359
 3090SOL     OW10168   1.602   2.105   2.044
 3090SOL    HW110169   1.694   2.136   2.024
 3090SOL    HW210170   1.605   2.012   2.079
 3091SOL     OW10171   1.780   1.005   1.206
 3091SOL    HW110172   1.828   0.960   1.131
 3091SOL    HW210173   1.846   1.054   1.263
 3092SOL     OW10174   5.078   6.761   0.596
 3092SOL    HW110175   4.992   6.785   0.551
 3092SOL    HW210176   5.113   6.840   0.646
 3093SOL     OW10177   5.102   6.127   5.494
 3093SOL    HW110178   5.146   6.213   5.520
 3093SOL    HW210179   5.006   6.144   5.471
 3094SOL     OW10180   2.545   6.551   4.417
 3094SOL    HW110181   2.471   6.485   4.425
 3094SOL    HW210182   2.628   6.505   4.385
 3095SOL     OW10183   1.947   5.476   5.859
 3095SOL    HW110184   1.865   5.503   5.808
 3095SOL    HW210185   2.009   5.554   5.866
 3096SOL     OW10186   1.761   6.201   4.929
 3096SOL    HW110187   1.663   6.188   4.947
 3096SOL    HW210188   1.798   6.119   4.886
 3097SOL     OW10189   6.523   2.661   0.743
 3097SOL    HW110190   6.620   2.642   0.726
 3097SOL    HW210191   6.478   2.578   0.774
 3098SOL     OW10192   2.988   3.154   1.047
 3098SOL    HW110193   3.010   3.110   1.134
 3098SOL    HW210194   2.922   3.227   1.062
 3099SOL     OW10195   0.630   6.707   3.082
 3099SOL    HW110196   0.695   6.641   3.119
 3099SOL    HW210197   0.679   6.789   3.052
 3100SOL     OW10198   6.475   6.990   4.849
 3100SOL    HW110199   6.571   6.982   4.823
 3100SOL    HW210200   6.423   7.028   4.772
 3101SOL     OW10201   4.729   6.665   6.328
 3101SOL    HW110202   4.701   6.732   6.396
 3101SOL    HW210203   4.685   6.684   6.241
 3102SOL     OW10204   0.259   4.495   2.385
 3102SOL    HW110205   0.314   4.535   2.459
 3102SOL    HW210206   0.315   4.486   2.303
 3103SOL     OW10207   4.177   0.497   2.557
 3103SOL    HW110208   4.254   0.443   2.522
 3103SOL    HW210209   4.182   0.502   2.656
 3104SOL     OW10210   5.350   6.550   5.281
 3104SOL    HW110211   5.423   6.618   5.277
 3104SOL    HW210212   5.361   6.485   5.206
 3105SOL     OW10213   6.061   4.522   2.078
 3105SOL    HW110214   6.087   4.435   2.038
 3105SOL    HW210215   5.966   4.543   2.055
 3106SOL     OW10216   6.117   1.782   2.789
 3106SOL    HW110217   6.047   1.717   2.758
 3106SOL    HW210218   6.134   1.849   2.716
 3107SOL     OW10219   4.097   0.956   4.478
 3107SOL    HW110220   4.177   0.998   4.520
 3107SOL    HW210221   4.024   0.948   4.547
 3108SOL     OW10222   0.688   0.136   4.297
 3108SOL    HW110223   0.679   0.170   4.390
 3108SOL    HW210224   0.744   0.053   4.297
 3109SOL     OW10225   5.400   0.061   2.729
 3109SOL    HW110226   5.332   7.019   2.711
 3109SOL    HW210227   5.492   0.022   2.724
 3110SOL     OW10228   1.632   2.040   3.283
 3110SOL    HW110229   1.635   2.098   3.365
 3110SOL    HW210230   1.709   1.977   3.283
 3111SOL     OW10231   5.721   6.147   3.619
 3111SOL    HW110232   5.809   6.131   3.662
 3111SOL    HW210233   5.727   6.125   3.521
 3112SOL     OW10234   4.734   2.429   6.342
 3112SOL    HW110235   4.711   2.354   6.403
 3112SOL    HW210236   4.700   2.515   6.379
 3113SOL     OW10237   2.139   6.259   3.733
 3113SOL    HW110238   2.044   6.262   3.701
 3113SOL    HW210239   2.192   6.198   3.676
 3114SOL     OW10240   4.164   2.056   0.517
 3114SOL    HW110241   4.247   2.094   0.557
 3114SOL    HW210242   4.085   2.111   0.547
 3115SOL     OW10243   4.281   3.277   6.490
 3115SOL    HW110244   4.201   3.330   6.463
 3115SOL    HW210245   4.261   3.231   6.577
 3116SOL     OW10246   0.353   2.710   0.261
 3116SOL    HW110247   0.416   2.723   0.338
 3116SOL    HW210248   0.263   2.746   0.285
 3117SOL     OW10249   4.237   3.496   5.155
 3117SOL    HW110250   4.194   3.454   5.074
 3117SOL    HW210251   4.168   3.511   5.225
 3118SOL     OW10252   0.203   4.577   1.322
 3118SOL    HW110253   0.118   4.620   1.351
 3118SOL    HW210254   0.206   4.483   1.358
 3119SOL     OW10255   1.591   3.606   5.877
 3119SOL    HW110256   1.566   3.631   5.970
 3119SOL    HW210257   1.618   3.687   5.826
 3120SOL     OW10258   3.211   6.736   4.703
 3120SOL    HW110259   3.121   6.697   4.685
 3120SOL    HW210260   3.203   6.812   4.768
 3121SOL     OW10261   6.792   1.505   3.437
 3121SOL    HW110262   6.696   1.475   3.440
 3121SOL    HW210263   6.800   1.584   3.375
 3122SOL     OW10264   3.342   6.772   5.997
 3122SOL    HW110265   3.283   6.820   6.062
 3122SOL    HW210266   3.362   6.680   6.031
 3123SOL     OW10267   4.319   1.601   4.097
 3123SOL    HW110268   4.321   1.524   4.033
 3123SOL    HW210269   4.371   1.677   4.058
 3124SOL     OW10270   4.001   6.587   4.534
 3124SOL    HW110271   3.995   6.670   4.477
 3124SOL    HW210272   3.909   6.564   4.567
 3125SOL     OW10273   6.593   1.980   5.237
 3125SOL    HW110274   6.618   1.886   5.211
 3125SOL    HW210275   6.599   1.989   5.336
 3126SOL     OW10276   4.302   4.935   6.589
 3126SOL    HW110277   4.255   4.858   6.546
 3126SOL    HW210278   4.280   4.938   6.686
 3127SOL     OW10279   0.991   3.561   3.729
 3127SOL    HW110280   0.969   3.467   3.755
 3127SOL    HW210281   1.042   3.560   3.643
 3128SOL     OW10282   2.127   0.715   6.945
 3128SOL    HW110283   2.213   0.675   6.914
 3128SOL    HW210284   2.134   0.815   6.941
 3129SOL     OW10285   0.612   4.091   6.207
 3129SOL    HW110286   0.516   4.100   6.177
 3129SOL    HW210287   0.617   4.098   6.306
 3130SOL     OW10288   1.982   4.301   1.414
 3130SOL    HW110289   1.891   4.270   1.384
 3130SOL    HW210290   2.052   4.251   1.364
 3131SOL     OW10291   6.929   2.823   1.198
 3131SOL    HW110292   6.901   2.778   1.113
 3131SOL    HW210293   6.912   2.922   1.190
 3132SOL     OW10294   4.608   5.702   5.719
 3132SOL    HW110295   4.681   5.710   5.787
 3132SOL    HW210296   4.630   5.759   5.639
 3133SOL     OW10297   3.563   2.114   4.045
 3133SOL    HW110298   3.482   2.128   4.102
 3133SOL    HW210299   3.542   2.048   3.973
 3134SOL     OW10300   4.994   4.736   1.210
 3134SOL    HW110301   4.974   4.668   1.139
 3134SOL    HW210302   5.084   4.719   1.249
 3135SOL     OW10303   5.385   0.401   5.230
 3135SOL    HW110304   5.393   0.343   5.149
 3135SOL    HW210305   5.476   0.415   5.270
 3136SOL     OW10306   5.728   0.390   1.037
 3136SOL    HW110307   5.794   0.409   0.964
 3136SOL    HW210308   5.705   0.475   1.083
 3137SOL     OW10309   5.988   0.715   2.913
 3137SOL    HW110310   6.008   0.621   2.886
 3137SOL    HW210311   6.064   0.774   2.884
 3138SOL     OW10312   6.234   3.425   3.944
 3138SOL    HW110313   6.187   3.355   3.996
 3138SOL    HW210314   6.332   3.406   3.943
 3139SOL     OW10315   5.053   6.445   0.438
 3139SOL    HW110316   4.969   6.494   0.415
 3139SOL    HW210317   5.094   6.486   0.519
 3140SOL     OW10318   6.229   0.126   6.582
 3140SOL    HW110319   6.321   0.159   6.602
 3140SOL    HW210320   6.234   0.028   6.559
 3141SOL     OW10321   6.877   6.446   6.464
 3141SOL    HW110322   6.850   6.439   6.368
 3141SOL    HW210323   6.948   6.515   6.473
 3142SOL     OW10324   3.888   6.703   1.516
 3142SOL    HW110325   3.900   6.663   1.425
 3142SOL    HW210326   3.975   6.742   1.547
 3143SOL     OW10327   6.978   1.756   6.621
 3143SOL    HW110328   0.038   1.779   6.658
 3143SOL    HW210329   6.981   1.758   6.521
 3144SOL     OW10330   4.243   4.548   1.532
 3144SOL    HW110331   4.170   4.511   1.475
 3144SOL    HW210332   4.254   4.492   1.614
 3145SOL     OW10333   1.453   5.476   1.694
 3145SOL    HW110334   1.471   5.388   1.650
 3145SOL    HW210335   1.375   5.467   1.755
 3146SOL     OW10336   1.532   0.314   2.659
 3146SOL    HW110337   1.528   0.414   2.654
 3146SOL    HW210338   1.540   0.277   2.566
 3147SOL     OW10339   2.929   4.927   0.528
 3147SOL    HW110340   2.986   4.938   0.447
 3147SOL    HW210341   2.949   4.839   0.571
 3148SOL     OW10342   4.940   6.020   4.589
 3148SOL    HW110343   4.912   5.958   4.662
 3148SOL    HW210344   4.859   6.055   4.542
 3149SOL     OW10345   2.458   1.347   5.898
 3149SOL    HW110346   2.437   1.438   5.932
 3149SOL    HW210347   2.531   1.352   5.830
 3150SOL     OW10348   6.747   6.188   4.018
 3150SOL    HW110349   6.707   6.114   3.963
 3150SOL    HW210350   6.782   6.151   4.103
 3151SOL     OW10351   4.229   1.564   6.241
 3151SOL    HW110352   4.289   1.515   6.304
 3151SOL    HW210353   4.231   1.519   6.151
 3152SOL     OW10354   1.427   6.081   0.334
 3152SOL    HW110355   1.408   6.134   0.417
 3152SOL    HW210356   1.394   5.988   0.346
 3153SOL     OW10357   6.561   4.738   2.489
 3153SOL    HW110358   6.539   4.697   2.577
 3153SOL    HW210359   6.551   4.670   2.417
 3154SOL     OW10360   6.906   1.168   6.816
 3154SOL    HW110361   6.825   1.210   6.774
 3154SOL    HW210362   6.883   1.078   6.851
 3155SOL     OW10363   6.467   4.251   1.324
 3155SOL    HW110364   6.372   4.277   1.309
 3155SOL    HW210365   6.518   4.329   1.361
 3156SOL     OW10366   3.223   3.486   3.335
 3156SOL    HW110367   3.307   3.509   3.286
 3156SOL    HW210368   3.193   3.395   3.307
 3157SOL     OW10369   2.314   2.898   4.782
 3157SOL    HW110370   2.351   2.925   4.871
 3157SOL    HW210371   2.327   2.800   4.768
 3158SOL     OW10372   4.179   6.926   2.163
 3158SOL    HW110373   4.163   6.904   2.260
 3158SOL    HW210374   4.250   6.866   2.126
 3159SOL     OW10375   5.495   1.499   0.129
 3159SOL    HW110376   5.460   1.505   0.222
 3159SOL    HW210377   5.569   1.432   0.124
 3160SOL     OW10378   0.492   6.207   5.098
 3160SOL    HW110379   0.396   6.210   5.127
 3160SOL    HW210380   0.548   6.172   5.173
 3161SOL     OW10381   1.702   2.253   3.966
 3161SOL    HW110382   1.745   2.339   3.995
 3161SOL    HW210383   1.635   2.225   4.035
 3162SOL     OW10384   1.049   6.620   1.523
 3162SOL    HW110385   1.034   6.718   1.531
 3162SOL    HW210386   1.087   6.584   1.609
 3163SOL     OW10387   3.533   1.907   6.200
 3163SOL    HW110388   3.490   1.970   6.135
 3163SOL    HW210389   3.622   1.943   6.227
 3164SOL     OW10390   4.522   4.497   1.527
 3164SOL    HW110391   4.429   4.533   1.518
 3164SOL    HW210392   4.518   4.398   1.546
 3165SOL     OW10393   0.923   5.823   1.003
 3165SOL    HW110394   0.953   5.864   1.089
 3165SOL    HW210395   0.941   5.725   1.004
 3166SOL     OW10396   4.786   1.106   5.728
 3166SOL    HW110397   4.696   1.108   5.771
 3166SOL    HW210398   4.789   1.035   5.658
 3167SOL     OW10399   6.854   4.024   1.550
 3167SOL    HW110400   6.791   3.950   1.527
 3167SOL    HW210401   6.844   4.098   1.482
 3168SOL     OW10402   4.922   2.733   6.516
 3168SOL    HW110403   4.925   2.809   6.452
 3168SOL    HW210404   5.003   2.736   6.576
 3169SOL     OW10405   1.731   3.336   4.598
 3169SOL    HW110406   1.777   3.416   4.635
 3169SOL    HW210407   1.642   3.363   4.562
 3170SOL     OW10408   4.035   0.641   1.425
 3170SOL    HW110409   4.053   0.728   1.379
 3170SOL    HW210410   4.045   0.653   1.524
 3171SOL     OW10411   0.714   6.445   1.201
 3171SOL    HW110412   0.671   6.422   1.113
 3171SOL    HW210413   0.652   6.503   1.254
 3172SOL     OW10414   0.383   5.067   6.153
 3172SOL    HW110415   0.323   5.099   6.079
 3172SOL    HW210416   0.362   4.972   6.175
 3173SOL     OW10417   2.950   2.117   0.885
 3173SOL    HW110418   3.019   2.070   0.939
 3173SOL    HW210419   2.963   2.216   0.894
 3174SOL     OW10420   2.713   3.201   6.329
 3174SOL    HW110421   2.741   3.176   6.237
 3174SOL    HW210422   2.633   3.261   6.325
 3175SOL     OW10423   0.404   6.787   0.245
 3175SOL    HW110424   0.340   6.716   0.273
 3175SOL    HW210425   0.468   6.749   0.177
 3176SOL     OW10426   1.895   5.132   5.204
 3176SOL    HW110427   1.945   5.215   5.228
 3176SOL    HW210428   1.960   5.059   5.182
 3177SOL     OW10429   4.843   4.627   4.638
 3177SOL    HW110430   4.775   4.625   4.564
 3177SOL    HW210431   4.796   4.626   4.726
 3178SOL     OW10432   6.652   2.002   0.702
 3178SOL    HW110433   6.728   1.941   0.720
 3178SOL    HW210434   6.616   1.984   0.610
 3179SOL     OW10435   1.695   2.760   2.202
 3179SOL    HW110436   1.684   2.855   2.173
 3179SOL    HW210437   1.725   2.757   2.297
 3180SOL     OW10438   4.456   0.891   6.819
 3180SOL    HW110439   4.452   0.810   6.761
 3180SOL    HW210440   4.550   0.906   6.849
 3181SOL     OW10441   1.524   1.086   2.946
 3181SOL    HW110442   1.574   1.172   2.950
 3181SOL    HW210443   1.465   1.078   3.027
 3182SOL     OW10444   2.096   1.374   5.234
 3182SOL    HW110445   2.154   1.453   5.253
 3182SOL    HW210446   2.006   1.389   5.276
 3183SOL     OW10447   4.349   3.797   1.329
 3183SOL    HW110448   4.388   3.715   1.288
 3183SOL    HW210449   4.288   3.771   1.404
 3184SOL     OW10450   1.178   2.694   3.158
 3184SOL    HW110451   1.155   2.742   3.243
 3184SOL    HW210452   1.277   2.696   3.145
 3185SOL     OW10453   5.746   6.812   6.873
 3185SOL    HW110454   5.682   6.771   6.938
 3185SOL    HW210455   5.819   6.859   6.924
 3186SOL     OW10456   3.784   1.813   2.596
 3186SOL    HW110457   3.863   1.804   2.535
 3186SOL    HW210458   3.808   1.873   2.672
 3187SOL     OW10459   4.682   4.069   0.627
 3187SOL    HW110460   4.586   4.059   0.652
 3187SOL    HW210461   4.722   4.146   0.677
 3188SOL     OW10462   3.773   6.604   5.048
 3188SOL    HW110463   3.746   6.693   5.012
 3188SOL    HW210464   3.804   6.614   5.143
 3189SOL     OW10465   1.963   1.108   1.817
 3189SOL    HW110466   1.953   1.207   1.820
 3189SOL    HW210467   1.933   1.074   1.727
 3190SOL     OW10468   0.307   5.885   1.543
 3190SOL    HW110469   0.296   5.951   1.617
 3190SOL    HW210470   0.326   5.795   1.581
 3191SOL     OW10471   4.592   6.309   0.516
 3191SOL    HW110472   4.629   6.299   0.608
 3191SOL    HW210473   4.493   6.321   0.521
 3192SOL     OW10474   0.012   2.353   1.271
 3192SOL    HW110475   0.108   2.370   1.247
 3192SOL    HW210476   6.989   2.437   1.259
 3193SOL     OW10477   4.242   1.496   5.969
 3193SOL    HW110478   4.175   1.423   5.955
 3193SOL    HW210479   4.310   1.492   5.896
 3194SOL     OW10480   0.856   3.476   5.825
 3194SOL    HW110481   0.942   3.431   5.846
 3194SOL    HW210482   0.801   3.484   5.908
 3195SOL     OW10483   2.194   2.567   3.090
 3195SOL    HW110484   2.274   2.617   3.057
 3195SOL    HW210485   2.198   2.473   3.057
 3196SOL     OW10486   7.003   0.648   5.262
 3196SOL    HW110487   6.915   0.675   5.300
 3196SOL    HW210488   6.988   0.589   5.182
 3197SOL     OW10489   2.004   6.179   3.462
 3197SOL    HW110490   1.992   6.152   3.366
 3197SOL    HW210491   1.980   6.102   3.522
 3198SOL     OW10492   6.668   2.153   6.002
 3198SOL    HW110493   6.610   2.186   6.076
 3198SOL    HW210494   6.676   2.054   6.008
 3199SOL     OW10495   4.716   2.882   1.642
 3199SOL    HW110496   4.689   2.925   1.556
 3199SOL    HW210497   4.661   2.919   1.716
 3200SOL     OW10498   0.009   2.409   2.068
 3200SOL    HW110499   0.078   2.337   2.075
 3200SOL    HW210500   0.038   2.488   2.121
 3201SOL     OW10501   5.435   4.953   4.572
 3201SOL    HW110502   5.473   4.900   4.648
 3201SOL    HW210503   5.343   4.984   4.596
 3202SOL     OW10504   1.563   4.743   1.959
 3202SOL    HW110505   1.545   4.662   2.015
 3202SOL    HW210506   1.499   4.746   1.883
 3203SOL     OW10507   6.228   2.211   0.002
 3203SOL    HW110508   6.140   2.186   0.041
 3203SOL    HW210509   6.300   2.204   0.072
 3204SOL     OW10510   5.046   6.371   1.543
 3204SOL    HW110511   5.032   6.413   1.453
 3204SOL    HW210512   5.061   6.443   1.611
 3205SOL     OW10513   0.439   3.579   6.489
 3205SOL    HW110514   0.356   3.634   6.491
 3205SOL    HW210515   0.508   3.620   6.548
 3206SOL     OW10516   6.779   6.469   6.200
 3206SOL    HW110517   6.862   6.434   6.157
 3206SOL    HW210518   6.699   6.426   6.158
 3207SOL     OW10519   0.169   1.322   5.919
 3207SOL    HW110520   0.110   1.403   5.917
 3207SOL    HW210521   0.115   1.242   5.943
 3208SOL     OW10522   4.820   6.144   5.486
 3208SOL    HW110523   4.808   6.095   5.399
 3208SOL    HW210524   4.773   6.232   5.481
 3209SOL     OW10525   3.347   5.147   3.431
 3209SOL    HW110526   3.402   5.181   3.355
 3209SOL    HW210527   3.328   5.222   3.495
 3210SOL     OW10528   0.754   3.687   2.177
 3210SOL    HW110529   0.673   3.679   2.234
 3210SOL    HW210530   0.797   3.597   2.166
 3211SOL     OW10531   2.558   3.407   0.974
 3211SOL    HW110532   2.602   3.408   0.885
 3211SOL    HW210533   2.461   3.431   0.964
 3212SOL     OW10534   3.558   1.415   7.007
 3212SOL    HW110535   3.470   1.454   0.005
 3212SOL    HW210536   3.610   1.388   0.058
 3213SOL     OW10537   6.172   6.214   2.579
 3213SOL    HW110538   6.237   6.169   2.518
 3213SOL    HW210539   6.140   6.299   2.537
 3214SOL     OW10540   5.155   5.321   0.332
 3214SOL    HW110541   5.169   5.331   0.234
 3214SOL    HW210542   5.221   5.256   0.369
 3215SOL     OW10543   0.194   2.944   1.046
 3215SOL    HW110544   0.273   2.883   1.042
 3215SOL    HW210545   0.153   2.952   0.955
 3216SOL     OW10546   5.384   5.579   1.792
 3216SOL    HW110547   5.442   5.515   1.742
 3216SOL    HW210548   5.370   5.546   1.885
 3217SOL     OW10549   0.709   5.521   2.513
 3217SOL    HW110550   0.764   5.583   2.457
 3217SOL    HW210551   0.759   5.497   2.596
 3218SOL     OW10552   3.613   6.422   3.640
 3218SOL    HW110553   3.677   6.446   3.568
 3218SOL    HW210554   3.565   6.504   3.672
 3219SOL     OW10555   6.853   1.694   3.236
 3219SOL    HW110556   6.769   1.706   3.182
 3219SOL    HW210557   6.865   1.772   3.297
 3220SOL     OW10558   6.419   6.112   5.937
 3220SOL    HW110559   6.447   6.173   5.864
 3220SOL    HW210560   6.333   6.144   5.976
 3221SOL     OW10561   3.624   0.289   2.078
 3221SOL    HW110562   3.657   0.252   2.164
 3221SOL    HW210563   3.531   0.324   2.090
 3222SOL     OW10564   4.079   1.783   3.721
 3222SOL    HW110565   4.145   1.857   3.721
 3222SOL    HW210566   4.075   1.741   3.811
 3223SOL     OW10567   1.798   4.972   6.725
 3223SOL    HW110568   1.730   5.040   6.750
 3223SOL    HW210569   1.848   4.943   6.807
 3224SOL     OW10570   3.973   5.070   6.340
 3224SOL    HW110571   3.901   5.139   6.346
 3224SOL    HW210572   4.052   5.100   6.393
 3225SOL     OW10573   4.624   2.832   5.269
 3225SOL    HW110574   4.693   2.855   5.201
 3225SOL    HW210575   4.637   2.888   5.350
 3226SOL     OW10576   1.305   1.758   4.615
 3226SOL    HW110577   1.205   1.749   4.611
 3226SOL    HW210578   1.344   1.684   4.670
 3227SOL     OW10579   3.146   2.219   6.121
 3227SOL    HW110580   3.133   2.138   6.178
 3227SOL    HW210581   3.057   2.252   6.089
 3228SOL     OW10582   5.581   3.269   3.789
 3228SOL    HW110583   5.531   3.253   3.704
 3228SOL    HW210584   5.620   3.361   3.788
 3229SOL     OW10585   3.410   1.884   5.582
 3229SOL    HW110586   3.416   1.832   5.667
 3229SOL    HW210587   3.443   1.828   5.506
 3230SOL     OW10588   0.859   3.033   3.972
 3230SOL    HW110589   0.762   3.020   3.989
 3230SOL    HW210590   0.877   3.129   3.953
 3231SOL     OW10591   3.092   6.681   2.300
 3231SOL    HW110592   3.017   6.622   2.329
 3231SOL    HW210593   3.103   6.755   2.367
 3232SOL     OW10594   4.214   5.025   4.180
 3232SOL    HW110595   4.272   4.945   4.164
 3232SOL    HW210596   4.118   4.997   4.184
 3233SOL     OW10597   2.163   3.158   1.194
 3233SOL    HW110598   2.255   3.195   1.186
 3233SOL    HW210599   2.125   3.182   1.284
 3234SOL     OW10600   0.007   2.322   0.086
 3234SOL    HW110601   7.022   2.413   0.123
 3234SOL    HW210602   0.105   2.301   0.084
 3235SOL     OW10603   4.519   6.751   1.091
 3235SOL    HW110604   4.586   6.795   1.150
 3235SOL    HW210605   4.512   6.654   1.114
 3236SOL     OW10606   1.150   3.387   1.121
 3236SOL    HW110607   1.092   3.306   1.108
 3236SOL    HW210608   1.221   3.388   1.051
 3237SOL     OW10609   5.545   1.640   4.015
 3237SOL    HW110610   5.546   1.580   4.095
 3237SOL    HW210611   5.563   1.587   3.933
 3238SOL     OW10612   0.116   4.714   0.279
 3238SOL    HW110613   0.190   4.729   0.214
 3238SOL    HW210614   0.028   4.732   0.234
 3239SOL     OW10615   5.744   1.828   0.320
 3239SOL    HW110616   5.732   1.922   0.286
 3239SOL    HW210617   5.833   1.793   0.292
 3240SOL     OW10618   0.850   6.314   4.882
 3240SOL    HW110619   0.842   6.287   4.978
 3240SOL    HW210620   0.903   6.398   4.875
 3241SOL     OW10621   5.128   1.208   4.383
 3241SOL    HW110622   5.189   1.148   4.434
 3241SOL    HW210623   5.167   1.227   4.293
 3242SOL     OW10624   3.206   4.662   1.385
 3242SOL    HW110625   3.117   4.706   1.381
 3242SOL    HW210626   3.204   4.577   1.332
 3243SOL     OW10627   6.243   5.117   0.053
 3243SOL    HW110628   6.291   5.203   0.040
 3243SOL    HW210629   6.255   5.060   7.001
 3244SOL     OW10630   5.023   5.756   0.170
 3244SOL    HW110631   5.089   5.829   0.184
 3244SOL    HW210632   4.931   5.790   0.189
 3245SOL     OW10633   4.953   2.375   5.753
 3245SOL    HW110634   4.997   2.442   5.692
 3245SOL    HW210635   4.972   2.283   5.719
 3246SOL     OW10636   6.463   0.841   2.942
 3246SOL    HW110637   6.394   0.812   3.007
 3246SOL    HW210638   6.469   0.941   2.941
 3247SOL     OW10639   6.623   5.183   3.628
 3247SOL    HW110640   6.678   5.251   3.579
 3247SOL    HW210641   6.621   5.097   3.576
 3248SOL     OW10642   6.215   3.350   1.648
 3248SOL    HW110643   6.286   3.419   1.658
 3248SOL    HW210644   6.228   3.278   1.716
 3249SOL     OW10645   3.708   4.111   5.489
 3249SOL    HW110646   3.625   4.110   5.545
 3249SOL    HW210647   3.788   4.105   5.549
 3250SOL     OW10648   5.719   0.688   2.473
 3250SOL    HW110649   5.656   0.623   2.517
 3250SOL    HW210650   5.767   0.740   2.544
 3251SOL     OW10651   3.982   1.160   2.944
 3251SOL    HW110652   3.902   1.100   2.944
 3251SOL    HW210653   3.986   1.210   2.857
 3252SOL     OW10654   3.020   1.117   2.346
 3252SOL    HW110655   2.927   1.082   2.336
 3252SOL    HW210656   3.059   1.134   2.255
 3253SOL     OW10657   4.921   3.492   2.601
 3253SOL    HW110658   4.919   3.401   2.644
 3253SOL    HW210659   4.952   3.484   2.507
 3254SOL     OW10660   4.004   5.131   5.281
 3254SOL    HW110661   3.961   5.166   5.197
 3254SOL    HW210662   3.933   5.115   5.349
 3255SOL     OW10663   4.469   6.122   1.654
 3255SOL    HW110664   4.374   6.130   1.682
 3255SOL    HW210665   4.525   6.188   1.705
 3256SOL     OW10666   5.496   0.347   6.735
 3256SOL    HW110667   5.519   0.319   6.642
 3256SOL    HW210668   5.413   0.299   6.765
 3257SOL     OW10669   1.291   1.619   1.547
 3257SOL    HW110670   1.381   1.610   1.588
 3257SOL    HW210671   1.277   1.546   1.480
 3258SOL     OW10672   4.199   5.428   2.264
 3258SOL    HW110673   4.115   5.380   2.290
 3258SOL    HW210674   4.249   5.453   2.347
 3259SOL     OW10675   4.814   5.957   4.280
 3259SOL    HW110676   4.892   5.938   4.339
 3259SOL    HW210677   4.772   6.044   4.307
 3260SOL     OW10678   2.092   1.550   1.953
 3260SOL    HW110679   2.098   1.649   1.954
 3260SOL    HW210680   2.172   1.511   1.999
 3261SOL     OW10681   4.432   5.939   0.382
 3261SOL    HW110682   4.485   5.938   0.298
 3261SOL    HW210683   4.481   5.889   0.453
 3262SOL     OW10684   3.522   2.102   2.275
 3262SOL    HW110685   3.437   2.053   2.297
 3262SOL    HW210686   3.501   2.180   2.216
 3263SOL     OW10687   4.971   0.430   3.756
 3263SOL    HW110688   4.955   0.369   3.834
 3263SOL    HW210689   5.004   0.376   3.678
 3264SOL     OW10690   1.084   5.005   1.054
 3264SOL    HW110691   0.986   4.992   1.042
 3264SOL    HW210692   1.119   4.939   1.120
 3265SOL     OW10693   4.225   2.024   6.096
 3265SOL    HW110694   4.198   1.930   6.112
 3265SOL    HW210695   4.313   2.043   6.140
 3266SOL     OW10696   1.462   2.554   0.645
 3266SOL    HW110697   1.509   2.506   0.571
 3266SOL    HW210698   1.422   2.639   0.610
 3267SOL     OW10699   3.487   2.150   0.500
 3267SOL    HW110700   3.388   2.151   0.484
 3267SOL    HW210701   3.524   2.060   0.478
 3268SOL     OW10702   0.941   3.731   6.466
 3268SOL    HW110703   0.858   3.714   6.413
 3268SOL    HW210704   1.021   3.699   6.416
 3269SOL     OW10705   4.414   5.379   1.812
 3269SOL    HW110706   4.398   5.474   1.785
 3269SOL    HW210707   4.492   5.342   1.762
 3270SOL     OW10708   1.611   4.701   4.991
 3270SOL    HW110709   1.608   4.684   4.892
 3270SOL    HW210710   1.618   4.799   5.008
 3271SOL     OW10711   5.647   3.271   2.508
 3271SOL    HW110712   5.632   3.196   2.573
 3271SOL    HW210713   5.563   3.288   2.457
 3272SOL     OW10714   3.212   4.446   0.529
 3272SOL    HW110715   3.180   4.355   0.553
 3272SOL    HW210716   3.137   4.498   0.489
 3273SOL     OW10717   1.038   6.583   2.220
 3273SOL    HW110718   0.995   6.669   2.247
 3273SOL    HW210719   1.081   6.541   2.300
 3274SOL     OW10720   3.929   1.875   0.063
 3274SOL    HW110721   3.921   1.887   0.162
 3274SOL    HW210722   3.859   1.929   0.017
 3275SOL     OW10723   1.388   0.789   6.733
 3275SOL    HW110724   1.469   0.816   6.784
 3275SOL    HW210725   1.350   0.705   6.773
 3276SOL     OW10726   3.217   5.347   6.954
 3276SOL    HW110727   3.284   5.278   6.981
 3276SOL    HW210728   3.255   5.404   6.881
 3277SOL     OW10729   5.442   6.427   6.434
 3277SOL    HW110730   5.414   6.477   6.353
 3277SOL    HW210731   5.512   6.478   6.483
 3278SOL     OW10732   6.583   1.463   5.764
 3278SOL    HW110733   6.658   1.481   5.701
 3278SOL    HW210734   6.620   1.426   5.850
 3279SOL     OW10735   0.402   0.933   1.018
 3279SOL    HW110736   0.448   0.844   1.029
 3279SOL    HW210737   0.304   0.921   1.033
 3280SOL     OW10738   3.267   5.335   6.070
 3280SOL    HW110739   3.298   5.329   6.165
 3280SOL    HW210740   3.343   5.317   6.009
 3281SOL     OW10741   1.546   5.567   1.029
 3281SOL    HW110742   1.454   5.552   0.993
 3281SOL    HW210743   1.578   5.658   1.002
 3282SOL     OW10744   2.570   5.069   4.347
 3282SOL    HW110745   2.575   4.969   4.352
 3282SOL    HW210746   2.629   5.103   4.274
 3283SOL     OW10747   2.907   0.979   1.760
 3283SOL    HW110748   2.960   0.916   1.816
 3283SOL    HW210749   2.943   1.072   1.770
 3284SOL     OW10750   6.165   6.504   6.699
 3284SOL    HW110751   6.066   6.512   6.688
 3284SOL    HW210752   6.194   6.412   6.675
 3285SOL     OW10753   6.215   2.630   3.549
 3285SOL    HW110754   6.232   2.574   3.630
 3285SOL    HW210755   6.217   2.727   3.575
 3286SOL     OW10756   4.018   3.382   3.725
 3286SOL    HW110757   3.928   3.354   3.692
 3286SOL    HW210758   4.038   3.334   3.811
 3287SOL     OW10759   1.266   5.840   0.341
 3287SOL    HW110760   1.304   5.800   0.258
 3287SOL    HW210761   1.195   5.906   0.316
 3288SOL     OW10762   0.699   4.767   6.732
 3288SOL    HW110763   0.640   4.829   6.681
 3288SOL    HW210764   0.653   4.679   6.743
 3289SOL     OW10765   1.956   7.020   5.561
 3289SOL    HW110766   1.912   6.976   5.639
 3289SOL    HW210767   1.923   6.979   5.476
 3290SOL     OW10768   0.478   6.786   2.184
 3290SOL    HW110769   0.384   6.799   2.152
 3290SOL    HW210770   0.526   6.723   2.122
 3291SOL     OW10771   1.301   6.321   6.546
 3291SOL    HW110772   1.328   6.307   6.451
 3291SOL    HW210773   1.340   6.408   6.579
 3292SOL     OW10774   0.270   1.442   0.110
 3292SOL    HW110775   0.353   1.435   0.165
 3292SOL    HW210776   0.192   1.408   0.162
 3293SOL     OW10777   6.037   3.127   2.733
 3293SOL    HW110778   6.033   3.185   2.652
 3293SOL    HW210779   6.115   3.064   2.725
 3294SOL     OW10780   0.276   0.678   6.233
 3294SOL    HW110781   0.227   0.684   6.146
 3294SOL    HW210782   0.213   0.653   6.306
 3295SOL     OW10783   1.882   2.544   1.529
 3295SOL    HW110784   1.826   2.512   1.605
 3295SOL    HW210785   1.835   2.526   1.443
 3296SOL     OW10786   2.282   6.242   1.389
 3296SOL    HW110787   2.297   6.230   1.291
 3296SOL    HW210788   2.342   6.315   1.423
 3297SOL     OW10789   2.557   0.516   4.884
 3297SOL    HW110790   2.547   0.485   4.979
 3297SOL    HW210791   2.623   0.591   4.880
 3298SOL     OW10792   5.957   2.427   3.640
 3298SOL    HW110793   5.939   2.431   3.542
 3298SOL    HW210794   5.920   2.509   3.685
 3299SOL     OW10795   2.208   6.976   3.756
 3299SOL    HW110796   2.249   6.886   3.745
 3299SOL    HW210797   2.212   7.004   3.852
 3300SOL     OW10798   6.910   0.784   5.879
 3300SOL    HW110799   6.849   0.857   5.910
 3300SOL    HW210800   6.879   0.751   5.789
 3301SOL     OW10801   2.185   3.930   3.456
 3301SOL    HW110802   2.090   3.912   3.430
 3301SOL    HW210803   2.199   3.903   3.551
 3302SOL     OW10804   1.456   6.173   4.323
 3302SOL    HW110805   1.528   6.115   4.285
 3302SOL    HW210806   1.448   6.256   4.268
 3303SOL     OW10807   3.528   3.208   1.465
 3303SOL    HW110808   3.616   3.167   1.486
 3303SOL    HW210809   3.540   3.279   1.396
 3304SOL     OW10810   1.663   5.092   3.409
 3304SOL    HW110811   1.749   5.111   3.456
 3304SOL    HW210812   1.588   5.139   3.457
 3305SOL     OW10813   2.511   2.186   2.979
 3305SOL    HW110814   2.584   2.223   3.037
 3305SOL    HW210815   2.487   2.253   2.909
 3306SOL     OW10816   2.673   5.101   3.834
 3306SOL    HW110817   2.656   5.015   3.881
 3306SOL    HW210818   2.651   5.091   3.737
 3307SOL     OW10819   0.600   5.457   6.505
 3307SOL    HW110820   0.566   5.400   6.430
 3307SOL    HW210821   0.533   5.458   6.579
 3308SOL     OW10822   4.768   5.851   6.928
 3308SOL    HW110823   4.768   5.885   7.022
 3308SOL    HW210824   4.684   5.801   6.910
 3309SOL     OW10825   0.704   5.265   2.338
 3309SOL    HW110826   0.668   5.355   2.361
 3309SOL    HW210827   0.722   5.260   2.239
 3310SOL     OW10828   0.180   4.139   4.476
 3310SOL    HW110829   0.162   4.223   4.426
 3310SOL    HW210830   0.101   4.078   4.470
 3311SOL     OW10831   2.834   4.692   1.528
 3311SOL    HW110832   2.777   4.685   1.610
 3311SOL    HW210833   2.923   4.649   1.545
 3312SOL     OW10834   3.171   4.446   6.155
 3312SOL    HW110835   3.161   4.509   6.078
 3312SOL    HW210836   3.219   4.492   6.230
 3313SOL     OW10837   0.328   5.303   2.408
 3313SOL    HW110838   0.236   5.269   2.390
 3313SOL    HW210839   0.373   5.243   2.474
 3314SOL     OW10840   1.812   2.257   4.969
 3314SOL    HW110841   1.824   2.355   4.954
 3314SOL    HW210842   1.715   2.237   4.982
 3315SOL     OW10843   6.316   3.039   4.198
 3315SOL    HW110844   6.366   3.125   4.205
 3315SOL    HW210845   6.378   2.967   4.165
 3316SOL     OW10846   3.562   1.668   6.060
 3316SOL    HW110847   3.649   1.689   6.015
 3316SOL    HW210848   3.533   1.746   6.115
 3317SOL     OW10849   4.922   2.928   1.822
 3317SOL    HW110850   4.869   2.986   1.885
 3317SOL    HW210851   4.865   2.906   1.742
 3318SOL     OW10852   2.963   0.414   0.087
 3318SOL    HW110853   2.991   0.496   0.136
 3318SOL    HW210854   3.025   0.339   0.108
 3319SOL     OW10855   5.996   6.888   3.814
 3319SOL    HW110856   5.934   6.964   3.791
 3319SOL    HW210857   5.962   6.804   3.773
 3320SOL     OW10858   5.328   1.256   5.775
 3320SOL    HW110859   5.232   1.237   5.798
 3320SOL    HW210860   5.387   1.193   5.825
 3321SOL     OW10861   3.446   2.296   1.721
 3321SOL    HW110862   3.479   2.269   1.631
 3321SOL    HW210863   3.523   2.328   1.776
 3322SOL     OW10864   5.170   2.634   1.775
 3322SOL    HW110865   5.128   2.580   1.701
 3322SOL    HW210866   5.151   2.590   1.862
 3323SOL     OW10867   2.048   3.901   6.763
 3323SOL    HW110868   2.085   3.961   6.834
 3323SOL    HW210869   1.964   3.941   6.726
 3324SOL     OW10870   0.852   3.609   6.713
 3324SOL    HW110871   0.884   3.630   6.621
 3324SOL    HW210872   0.901   3.529   6.748
 3325SOL     OW10873   2.259   3.294   6.537
 3325SOL    HW110874   2.170   3.327   6.568
 3325SOL    HW210875   2.257   3.194   6.528
 3326SOL     OW10876   4.909   1.767   1.680
 3326SOL    HW110877   4.945   1.688   1.729
 3326SOL    HW210878   4.877   1.835   1.746
 3327SOL     OW10879   2.802   6.121   1.223
 3327SOL    HW110880   2.809   6.057   1.146
 3327SOL    HW210881   2.882   6.112   1.282
 3328SOL     OW10882   4.292   1.536   2.988
 3328SOL    HW110883   4.328   1.619   3.031
 3328SOL    HW210884   4.206   1.510   3.031
 3329SOL     OW10885   4.519   0.046   5.206
 3329SOL    HW110886   4.564   6.988   5.221
 3329SOL    HW210887   4.577   0.120   5.242
 3330SOL     OW10888   5.337   6.345   2.112
 3330SOL    HW110889   5.433   6.369   2.101
 3330SOL    HW210890   5.299   6.395   2.190
 3331SOL     OW10891   1.632   2.931   2.606
 3331SOL    HW110892   1.691   2.861   2.566
 3331SOL    HW210893   1.571   2.967   2.536
 3332SOL     OW10894   6.957   4.320   6.826
 3332SOL    HW110895   7.027   4.320   6.898
 3332SOL    HW210896   6.897   4.399   6.837
 3333SOL     OW10897   2.578   3.364   6.969
 3333SOL    HW110898   2.550   3.269   6.955
 3333SOL    HW210899   2.554   3.418   6.889
 3334SOL     OW10900   2.119   3.255   2.103
 3334SOL    HW110901   2.134   3.353   2.094
 3334SOL    HW210902   2.076   3.219   2.020
 3335SOL     OW10903   4.898   5.953   6.022
 3335SOL    HW110904   4.834   6.023   5.989
 3335SOL    HW210905   4.877   5.865   5.979
 3336SOL     OW10906   2.003   0.075   4.475
 3336SOL    HW110907   1.909   0.082   4.441
 3336SOL    HW210908   2.014   7.020   4.527
 3337SOL     OW10909   3.121   3.801   1.359
 3337SOL    HW110910   3.093   3.773   1.267
 3337SOL    HW210911   3.220   3.810   1.362
 3338SOL     OW10912   0.186   2.479   1.808
 3338SOL    HW110913   0.138   2.517   1.887
 3338SOL    HW210914   0.280   2.454   1.834
 3339SOL     OW10915   1.679   0.033   6.680
 3339SOL    HW110916   1.587   0.033   6.640
 3339SOL    HW210917   1.724   0.120   6.660
 3340SOL     OW10918   4.182   1.258   4.342
 3340SOL    HW110919   4.165   1.351   4.309
 3340SOL    HW210920   4.105   1.229   4.399
 3341SOL     OW10921   2.181   4.249   3.943
 3341SOL    HW110922   2.105   4.314   3.957
 3341SOL    HW210923   2.259   4.297   3.903
 3342SOL     OW10924   0.859   0.570   2.754
 3342SOL    HW110925   0.842   0.627   2.674
 3342SOL    HW210926   0.896   0.482   2.725
 3343SOL     OW10927   5.552   4.927   6.458
 3343SOL    HW110928   5.594   5.002   6.406
 3343SOL    HW210929   5.498   4.871   6.397
 3344SOL     OW10930   6.157   3.056   3.967
 3344SOL    HW110931   6.063   3.023   3.977
 3344SOL    HW210932   6.209   3.034   4.050
 3345SOL     OW10933   0.917   3.981   6.033
 3345SOL    HW110934   0.910   3.890   5.991
 3345SOL    HW210935   0.830   4.029   6.022
 3346SOL     OW10936   1.642   0.825   6.848
 3346SOL    HW110937   1.664   0.805   6.943
 3346SOL    HW210938   1.698   0.902   6.817
 3347SOL     OW10939   1.296   2.775   6.237
 3347SOL    HW110940   1.239   2.847   6.199
 3347SOL    HW210941   1.289   2.776   6.337
 3348SOL     OW10942   4.104   3.340   4.954
 3348SOL    HW110943   4.081   3.326   4.858
 3348SOL    HW210944   4.021   3.335   5.009
 3349SOL     OW10945   2.178   4.826   3.030
 3349SOL    HW110946   2.276   4.812   3.047
 3349SOL    HW210947   2.126   4.751   3.071
 3350SOL     OW10948   0.461   2.673   6.303
 3350SOL    HW110949   0.431   2.707   6.214
 3350SOL    HW210950   0.406   2.715   6.375
 3351SOL     OW10951   4.590   1.141   1.876
 3351SOL    HW110952   4.641   1.197   1.810
 3351SOL    HW210953   4.573   1.195   1.959
 3352SOL     OW10954   5.538   2.521   1.266
 3352SOL    HW110955   5.521   2.570   1.351
 3352SOL    HW210956   5.451   2.494   1.225
 3353SOL     OW10957   2.231   5.874   0.924
 3353SOL    HW110958   2.136   5.877   0.954
 3353SOL    HW210959   2.282   5.949   0.966
 3354SOL     OW10960   4.322   2.780   5.294
 3354SOL    HW110961   4.263   2.700   5.288
 3354SOL    HW210962   4.397   2.772   5.228
 3355SOL     OW10963   2.318   1.314   6.162
 3355SOL    HW110964   2.408   1.288   6.130
 3355SOL    HW210965   2.268   1.360   6.088
 3356SOL     OW10966   1.449   5.960   5.964
 3356SOL    HW110967   1.421   6.052   5.992
 3356SOL    HW210968   1.467   5.904   6.045
 3357SOL     OW10969   3.530   3.266   1.874
 3357SOL    HW110970   3.504   3.211   1.954
 3357SOL    HW210971   3.622   3.241   1.845
 3358SOL     OW10972   5.067   1.265   3.527
 3358SOL    HW110973   5.016   1.284   3.611
 3358SOL    HW210974   5.048   1.337   3.460
 3359SOL     OW10975   6.762   5.911   3.206
 3359SOL    HW110976   6.670   5.910   3.247
 3359SOL    HW210977   6.772   5.991   3.148
 3360SOL     OW10978   0.953   2.176   6.372
 3360SOL    HW110979   0.974   2.206   6.279
 3360SOL    HW210980   0.996   2.088   6.389
 3361SOL     OW10981   1.024   6.552   4.930
 3361SOL    HW110982   1.069   6.563   5.019
 3361SOL    HW210983   1.047   6.630   4.871
 3362SOL     OW10984   3.822   1.654   2.828
 3362SOL    HW110985   3.811   1.678   2.731
 3362SOL    HW210986   3.912   1.684   2.859
 3363SOL     OW10987   6.897   2.635   1.652
 3363SOL    HW110988   6.959   2.573   1.605
 3363SOL    HW210989   6.922   2.640   1.748
 3364SOL     OW10990   2.373   4.759   2.711
 3364SOL    HW110991   2.449   4.775   2.646
 3364SOL    HW210992   2.410   4.745   2.802
 3365SOL     OW10993   0.504   2.844   4.790
 3365SOL    HW110994   0.419   2.830   4.739
 3365SOL    HW210995   0.482   2.870   4.884
 3366SOL     OW10996   6.335   5.026   3.980
 3366SOL    HW110997   6.257   5.001   4.038
 3366SOL    HW210998   6.347   4.957   3.909
 3367SOL     OW10999   2.975   3.380   2.915
 3367SOL    HW111000   3.042   3.451   2.938
 3367SOL    HW211001   2.930   3.404   2.829
 3368SOL     OW11002   0.884   5.427   6.518
 3368SOL    HW111003   0.917   5.477   6.599
 3368SOL    HW211004   0.786   5.444   6.507
 3369SOL     OW11005   4.633   1.594   1.724
 3369SOL    HW111006   4.674   1.578   1.814
 3369SOL    HW211007   4.705   1.617   1.659
 3370SOL     OW11008   5.874   6.278   1.683
 3370SOL    HW111009   5.918   6.237   1.763
 3370SOL    HW211010   5.913   6.238   1.599
 3371SOL     OW11011   2.216   3.573   1.646
 3371SOL    HW111012   2.256   3.538   1.731
 3371SOL    HW211013   2.265   3.655   1.617
 3372SOL     OW11014   0.754   2.109   6.787
 3372SOL    HW111015   0.671   2.142   6.741
 3372SOL    HW211016   0.729   2.042   6.857
 3373SOL     OW11017   6.891   2.136   3.830
 3373SOL    HW111018   6.853   2.169   3.917
 3373SOL    HW211019   6.824   2.150   3.757
 3374SOL     OW11020   1.205   0.447   3.672
 3374SOL    HW111021   1.170   0.506   3.745
 3374SOL    HW211022   1.135   0.437   3.601
 3375SOL     OW11023   0.174   4.242   0.724
 3375SOL    HW111024   0.085   4.223   0.766
 3375SOL    HW211025   0.233   4.162   0.735
 3376SOL     OW11026   3.378   2.980   4.743
 3376SOL    HW111027   3.390   2.945   4.650
 3376SOL    HW211028   3.437   2.929   4.806
 3377SOL     OW11029   6.585   5.386   5.233
 3377SOL    HW111030   6.664   5.332   5.204
 3377SOL    HW211031   6.616   5.476   5.264
 3378SOL     OW11032   1.174   6.444   6.208
 3378SOL    HW111033   1.139   6.451   6.115
 3378SOL    HW211034   1.124   6.507   6.267
 3379SOL     OW11035   0.661   2.621   4.741
 3379SOL    HW111036   0.592   2.691   4.755
 3379SOL    HW211037   0.731   2.654   4.678
 3380SOL     OW11038   4.362   5.606   5.624
 3380SOL    HW111039   4.451   5.644   5.649
 3380SOL    HW211040   4.292   5.644   5.685
 3381SOL     OW11041   6.806   2.662   1.405
 3381SOL    HW111042   6.835   2.733   1.340
 3381SOL    HW211043   6.855   2.674   1.491
 3382SOL     OW11044   0.395   2.928   0.541
 3382SOL    HW111045   0.478   2.984   0.530
 3382SOL    HW211046   0.327   2.957   0.474
 3383SOL     OW11047   3.354   4.968   0.691
 3383SOL    HW111048   3.349   5.028   0.771
 3383SOL    HW211049   3.322   5.018   0.610
 3384SOL     OW11050   2.306   3.376   0.507
 3384SOL    HW111051   2.365   3.452   0.478
 3384SOL    HW211052   2.221   3.412   0.544
 3385SOL     OW11053   6.446   3.266   4.277
 3385SOL    HW111054   6.543   3.267   4.254
 3385SOL    HW211055   6.411   3.360   4.275
 3386SOL     OW11056   6.309   4.606   6.728
 3386SOL    HW111057   6.230   4.639   6.780
 3386SOL    HW211058   6.289   4.514   6.692
 3387SOL     OW11059   5.011   0.147   2.813
 3387SOL    HW111060   4.916   0.122   2.829
 3387SOL    HW211061   5.014   0.227   2.753
 3388SOL     OW11062   5.131   3.900   2.717
 3388SOL    HW111063   5.194   3.848   2.659
 3388SOL    HW211064   5.179   3.978   2.756
 3389SOL     OW11065   6.374   5.789   6.240
 3389SOL    HW111066   6.393   5.804   6.337
 3389SOL    HW211067   6.441   5.839   6.184
 3390SOL     OW11068   4.448   6.623   6.574
 3390SOL    HW111069   4.352   6.596   6.578
 3390SOL    HW211070   4.455   6.712   6.527
 3391SOL     OW11071   5.119   2.447   3.081
 3391SOL    HW111072   5.069   2.435   2.995
 3391SOL    HW211073   5.170   2.363   3.101
 3392SOL     OW11074   3.133   0.172   4.730
 3392SOL    HW111075   3.070   0.248   4.749
 3392SOL    HW211076   3.167   0.180   4.636
 3393SOL     OW11077   6.059   6.199   0.840
 3393SOL    HW111078   6.070   6.140   0.921
 3393SOL    HW211079   6.085   6.292   0.863
 3394SOL     OW11080   4.147   4.137   0.632
 3394SOL    HW111081   4.060   4.134   0.680
 3394SOL    HW211082   4.202   4.213   0.668
 3395SOL     OW11083   5.310   1.791   3.051
 3395SOL    HW111084   5.338   1.873   3.100
 3395SOL    HW211085   5.210   1.783   3.053
 3396SOL     OW11086   5.646   1.468   3.744
 3396SOL    HW111087   5.739   1.496   3.724
 3396SOL    HW211088   5.583   1.508   3.678
 3397SOL     OW11089   3.412   5.487   6.315
 3397SOL    HW111090   3.356   5.568   6.334
 3397SOL    HW211091   3.467   5.504   6.233
 3398SOL     OW11092   0.712   6.822   5.265
 3398SOL    HW111093   0.684   6.739   5.215
 3398SOL    HW211094   0.733   6.895   5.200
 3399SOL     OW11095   6.194   4.733   3.027
 3399SOL    HW111096   6.279   4.767   3.066
 3399SOL    HW211097   6.133   4.811   3.009
 3400SOL     OW11098   5.972   3.454   6.988
 3400SOL    HW111099   6.049   3.400   6.953
 3400SOL    HW211100   5.982   3.549   6.959
 3401SOL     OW11101   6.438   4.051   6.863
 3401SOL    HW111102   6.450   4.147   6.888
 3401SOL    HW211103   6.497   4.029   6.786
 3402SOL     OW11104   6.274   5.631   0.448
 3402SOL    HW111105   6.277   5.687   0.531
 3402SOL    HW211106   6.192   5.574   0.450
 3403SOL     OW11107   5.064   5.408   6.418
 3403SOL    HW111108   5.089   5.504   6.410
 3403SOL    HW211109   5.002   5.382   6.344
 3404SOL     OW11110   4.927   2.975   6.725
 3404SOL    HW111111   4.971   3.053   6.769
 3404SOL    HW211112   4.992   2.929   6.665
 3405SOL     OW11113   6.089   4.694   6.308
 3405SOL    HW111114   6.067   4.603   6.343
 3405SOL    HW211115   6.178   4.692   6.263
 3406SOL     OW11116   1.520   3.778   2.095
 3406SOL    HW111117   1.506   3.867   2.138
 3406SOL    HW211118   1.614   3.771   2.062
 3407SOL     OW11119   2.394   4.611   0.404
 3407SOL    HW111120   2.394   4.711   0.403
 3407SOL    HW211121   2.473   4.578   0.455
 3408SOL     OW11122   5.024   3.166   4.986
 3408SOL    HW111123   5.002   3.137   5.079
 3408SOL    HW211124   5.074   3.093   4.939
 3409SOL     OW11125   3.744   5.733   0.745
 3409SOL    HW111126   3.673   5.728   0.674
 3409SOL    HW211127   3.747   5.826   0.781
 3410SOL     OW11128   5.872   6.510   2.281
 3410SOL    HW111129   5.785   6.460   2.281
 3410SOL    HW211130   5.883   6.558   2.194
 3411SOL     OW11131   0.661   2.645   0.400
 3411SOL    HW111132   0.587   2.637   0.467
 3411SOL    HW211133   0.737   2.587   0.428
 3412SOL     OW11134   5.175   3.791   1.006
 3412SOL    HW111135   5.142   3.845   1.084
 3412SOL    HW211136   5.176   3.694   1.032
 3413SOL     OW11137   6.064   2.353   6.739
 3413SOL    HW111138   6.018   2.367   6.826
 3413SOL    HW211139   6.060   2.256   6.713
 3414SOL     OW11140   3.064   2.141   5.638
 3414SOL    HW111141   3.039   2.050   5.604
 3414SOL    HW211142   3.003   2.210   5.598
 3415SOL     OW11143   2.706   2.414   4.128
 3415SOL    HW111144   2.658   2.476   4.065
 3415SOL    HW211145   2.720   2.460   4.215
 3416SOL     OW11146   6.092   0.532   6.743
 3416SOL    HW111147   6.058   0.465   6.809
 3416SOL    HW211148   6.102   0.621   6.788
 3417SOL     OW11149   6.454   6.923   3.200
 3417SOL    HW111150   6.492   7.015   3.186
 3417SOL    HW211151   6.508   6.856   3.149
 3418SOL     OW11152   3.888   5.665   3.896
 3418SOL    HW111153   3.983   5.682   3.870
 3418SOL    HW211154   3.848   5.750   3.931
 3419SOL     OW11155   3.975   5.658   6.307
 3419SOL    HW111156   3.947   5.583   6.246
 3419SOL    HW211157   3.946   5.745   6.267
 3420SOL     OW11158   5.201   3.663   4.279
 3420SOL    HW111159   5.173   3.690   4.187
 3420SOL    HW211160   5.129   3.607   4.321
 3421SOL     OW11161   5.626   1.809   3.281
 3421SOL    HW111162   5.551   1.744   3.286
 3421SOL    HW211163   5.684   1.787   3.202
 3422SOL     OW11164   2.396   0.676   0.700
 3422SOL    HW111165   2.400   0.610   0.625
 3422SOL    HW211166   2.434   0.635   0.783
 3423SOL     OW11167   0.462   4.050   5.765
 3423SOL    HW111168   0.418   4.130   5.805
 3423SOL    HW211169   0.507   3.997   5.837
 3424SOL     OW11170   3.056   0.630   1.404
 3424SOL    HW111171   3.079   0.533   1.392
 3424SOL    HW211172   3.139   0.685   1.395
 3425SOL     OW11173   4.789   4.358   2.009
 3425SOL    HW111174   4.696   4.345   2.044
 3425SOL    HW211175   4.815   4.280   1.952
 3426SOL     OW11176   4.994   2.517   0.707
 3426SOL    HW111177   4.897   2.519   0.727
 3426SOL    HW211178   5.040   2.590   0.758
 3427SOL     OW11179   0.681   2.434   2.186
 3427SOL    HW111180   0.709   2.339   2.196
 3427SOL    HW211181   0.755   2.487   2.144
 3428SOL     OW11182   4.146   4.439   6.742
 3428SOL    HW111183   4.111   4.460   6.650
 3428SOL    HW211184   4.121   4.513   6.804
 3429SOL     OW11185   0.623   1.079   1.170
 3429SOL    HW111186   0.683   1.066   1.092
 3429SOL    HW211187   0.530   1.050   1.146
 3430SOL     OW11188   2.177   5.304   5.828
 3430SOL    HW111189   2.101   5.366   5.843
 3430SOL    HW211190   2.260   5.342   5.869
 3431SOL     OW11191   1.622   6.226   1.615
 3431SOL    HW111192   1.588   6.201   1.524
 3431SOL    HW211193   1.719   6.203   1.621
 3432SOL     OW11194   2.516   4.914   6.761
 3432SOL    HW111195   2.516   5.002   6.713
 3432SOL    HW211196   2.581   4.852   6.717
 3433SOL     OW11197   1.823   1.523   5.873
 3433SOL    HW111198   1.859   1.502   5.963
 3433SOL    HW211199   1.798   1.439   5.825
 3434SOL     OW11200   3.742   2.082   1.281
 3434SOL    HW111201   3.663   2.123   1.235
 3434SOL    HW211202   3.820   2.144   1.276
 3435SOL     OW11203   2.783   0.965   0.494
 3435SOL    HW111204   2.748   0.883   0.539
 3435SOL    HW211205   2.707   1.015   0.454
 3436SOL     OW11206   3.545   5.786   0.548
 3436SOL    HW111207   3.491   5.702   0.545
 3436SOL    HW211208   3.593   5.799   0.461
 3437SOL     OW11209   2.281   6.579   5.784
 3437SOL    HW111210   2.361   6.532   5.819
 3437SOL    HW211211   2.210   6.512   5.762
 3438SOL     OW11212   0.901   3.973   1.137
 3438SOL    HW111213   0.850   3.911   1.197
 3438SOL    HW211214   0.927   3.924   1.053
 3439SOL     OW11215   3.113   6.092   4.101
 3439SOL    HW111216   3.115   6.000   4.062
 3439SOL    HW211217   3.207   6.121   4.121
 3440SOL     OW11218   4.133   3.449   2.968
 3440SOL    HW111219   4.135   3.436   3.067
 3440SOL    HW211220   4.131   3.547   2.947
 3441SOL     OW11221   0.332   5.855   6.650
 3441SOL    HW111222   0.261   5.799   6.606
 3441SOL    HW211223   0.421   5.830   6.613
 3442SOL     OW11224   2.579   3.719   0.816
 3442SOL    HW111225   2.588   3.743   0.720
 3442SOL    HW211226   2.483   3.706   0.839
 3443SOL     OW11227   3.289   6.285   2.151
 3443SOL    HW111228   3.211   6.224   2.134
 3443SOL    HW211229   3.371   6.245   2.111
 3444SOL     OW11230   5.176   5.686   1.132
 3444SOL    HW111231   5.116   5.688   1.212
 3444SOL    HW211232   5.132   5.633   1.059
 3445SOL     OW11233   6.952   5.489   3.705
 3445SOL    HW111234   6.874   5.548   3.683
 3445SOL    HW211235   6.930   5.433   3.784
 3446SOL     OW11236   5.704   0.667   1.592
 3446SOL    HW111237   5.728   0.624   1.680
 3446SOL    HW211238   5.614   0.636   1.564
 3447SOL     OW11239   4.892   0.240   0.468
 3447SOL    HW111240   4.986   0.270   0.447
 3447SOL    HW211241   4.884   0.224   0.566
 3448SOL     OW11242   3.268   6.552   6.174
 3448SOL    HW111243   3.168   6.558   6.181
 3448SOL    HW211244   3.293   6.475   6.115
 3449SOL     OW11245   6.169   5.342   4.645
 3449SOL    HW111246   6.197   5.320   4.738
 3449SOL    HW211247   6.076   5.380   4.646
 3450SOL     OW11248   1.605   1.067   6.542
 3450SOL    HW111249   1.672   1.040   6.611
 3450SOL    HW211250   1.614   1.007   6.462
 3451SOL     OW11251   1.661   5.817   7.024
 3451SOL    HW111252   1.603   5.778   0.066
 3451SOL    HW211253   1.606   5.832   6.941
 3452SOL     OW11254   6.068   0.218   6.065
 3452SOL    HW111255   6.046   0.266   6.150
 3452SOL    HW211256   5.985   0.184   6.023
 3453SOL     OW11257   5.830   5.627   6.003
 3453SOL    HW111258   5.745   5.590   5.965
 3453SOL    HW211259   5.812   5.668   6.092
 3454SOL     OW11260   1.387   3.997   4.697
 3454SOL    HW111261   1.458   3.928   4.711
 3454SOL    HW211262   1.311   3.980   4.759
 3455SOL     OW11263   2.710   1.253   4.641
 3455SOL    HW111264   2.760   1.235   4.725
 3455SOL    HW211265   2.613   1.264   4.661
 3456SOL     OW11266   4.340   4.925   1.972
 3456SOL    HW111267   4.434   4.927   2.004
 3456SOL    HW211268   4.325   4.843   1.917
 3457SOL     OW11269   4.063   5.351   4.837
 3457SOL    HW111270   4.091   5.437   4.794
 3457SOL    HW211271   3.990   5.309   4.783
 3458SOL     OW11272   4.669   1.668   2.364
 3458SOL    HW111273   4.589   1.640   2.311
 3458SOL    HW211274   4.656   1.761   2.399
 3459SOL     OW11275   5.025   1.958   3.274
 3459SOL    HW111276   4.928   1.936   3.259
 3459SOL    HW211277   5.033   2.022   3.350
 3460SOL     OW11278   3.151   2.095   5.885
 3460SOL    HW111279   3.163   2.157   5.963
 3460SOL    HW211280   3.118   2.147   5.806
 3461SOL     OW11281   5.859   4.194   6.719
 3461SOL    HW111282   5.760   4.202   6.703
 3461SOL    HW211283   5.881   4.232   6.809
 3462SOL     OW11284   0.737   3.842   5.147
 3462SOL    HW111285   0.639   3.841   5.170
 3462SOL    HW211286   0.767   3.748   5.127
 3463SOL     OW11287   0.756   4.193   0.870
 3463SOL    HW111288   0.695   4.267   0.843
 3463SOL    HW211289   0.704   4.125   0.922
 3464SOL     OW11290   0.513   4.507   6.339
 3464SOL    HW111291   0.606   4.484   6.369
 3464SOL    HW211292   0.515   4.528   6.241
 3465SOL     OW11293   2.503   2.553   2.240
 3465SOL    HW111294   2.522   2.513   2.330
 3465SOL    HW211295   2.568   2.518   2.173
 3466SOL     OW11296   0.042   5.499   5.977
 3466SOL    HW111297   0.063   5.592   5.946
 3466SOL    HW211298   0.106   5.473   6.050
 3467SOL     OW11299   1.535   2.224   6.815
 3467SOL    HW111300   1.593   2.273   6.750
 3467SOL    HW211301   1.585   2.210   6.901
 3468SOL     OW11302   3.685   5.434   3.036
 3468SOL    HW111303   3.597   5.411   3.078
 3468SOL    HW211304   3.722   5.354   2.989
 3469SOL     OW11305   6.312   1.515   3.982
 3469SOL    HW111306   6.323   1.613   3.999
 3469SOL    HW211307   6.217   1.497   3.954
 3470SOL     OW11308   6.996   4.941   1.093
 3470SOL    HW111309   6.908   4.910   1.131
 3470SOL    HW211310   0.019   4.862   1.063
 3471SOL     OW11311   3.928   5.180   5.021
 3471SOL    HW111312   3.988   5.233   4.961
 3471SOL    HW211313   3.876   5.114   4.967
 3472SOL     OW11314   2.648   0.772   3.905
 3472SOL    HW111315   2.608   0.824   3.980
 3472SOL    HW211316   2.719   0.827   3.861
 3473SOL     OW11317   5.638   1.399   5.831
 3473SOL    HW111318   5.568   1.469   5.847
 3473SOL    HW211319   5.727   1.433   5.861
 3474SOL     OW11320   2.939   5.004   1.755
 3474SOL    HW111321   2.849   5.030   1.720
 3474SOL    HW211322   2.956   5.052   1.841
 3475SOL     OW11323   1.159   6.751   4.778
 3475SOL    HW111324   1.143   6.698   4.694
 3475SOL    HW211325   1.257   6.758   4.794
 3476SOL     OW11326   3.642   1.034   4.149
 3476SOL    HW111327   3.652   0.955   4.209
 3476SOL    HW211328   3.726   1.088   4.151
 3477SOL     OW11329   2.918   5.590   2.013
 3477SOL    HW111330   2.890   5.508   1.963
 3477SOL    HW211331   2.990   5.638   1.963
 3478SOL     OW11332   3.003   6.413   5.811
 3478SOL    HW111333   2.961   6.337   5.762
 3478SOL    HW211334   2.943   6.443   5.885
 3479SOL     OW11335   0.229   0.201   3.099
 3479SOL    HW111336   0.265   0.148   3.176
 3479SOL    HW211337   0.301   0.259   3.063
 3480SOL     OW11338   6.624   1.131   4.676
 3480SOL    HW111339   6.645   1.037   4.648
 3480SOL    HW211340   6.559   1.129   4.752
 3481SOL     OW11341   4.816   6.916   6.480
 3481SOL    HW111342   4.914   6.907   6.463
 3481SOL    HW211343   4.791   6.864   6.562
 3482SOL     OW11344   5.364   1.178   1.147
 3482SOL    HW111345   5.281   1.161   1.201
 3482SOL    HW211346   5.372   1.108   1.076
 3483SOL     OW11347   3.002   0.397   1.106
 3483SOL    HW111348   2.993   0.433   1.014
 3483SOL    HW211349   2.924   0.338   1.127
 3484SOL     OW11350   2.766   3.202   1.799
 3484SOL    HW111351   2.701   3.220   1.872
 3484SOL    HW211352   2.718   3.196   1.712
 3485SOL     OW11353   1.340   1.046   4.975
 3485SOL    HW111354   1.309   1.073   4.884
 3485SOL    HW211355   1.407   0.972   4.967
 3486SOL     OW11356   3.500   1.739   2.028
 3486SOL    HW111357   3.449   1.823   2.008
 3486SOL    HW211358   3.529   1.697   1.942
 3487SOL     OW11359   5.496   2.095   6.341
 3487SOL    HW111360   5.495   2.153   6.422
 3487SOL    HW211361   5.502   2.153   6.259
 3488SOL     OW11362   5.890   3.216   4.134
 3488SOL    HW111363   5.839   3.197   4.050
 3488SOL    HW211364   5.939   3.134   4.163
 3489SOL     OW11365   3.023   0.060   0.462
 3489SOL    HW111366   2.998   0.130   0.396
 3489SOL    HW211367   2.940   0.018   0.500
 3490SOL     OW11368   4.567   4.398   6.970
 3490SOL    HW111369   4.613   4.445   0.015
 3490SOL    HW211370   4.543   4.305   6.999
 3491SOL     OW11371   6.811   2.888   5.563
 3491SOL    HW111372   6.722   2.877   5.518
 3491SOL    HW211373   6.809   2.841   5.652
 3492SOL     OW11374   0.674   5.830   0.833
 3492SOL    HW111375   0.742   5.862   0.899
 3492SOL    HW211376   0.655   5.903   0.767
 3493SOL     OW11377   6.636   5.196   6.688
 3493SOL    HW111378   6.602   5.215   6.781
 3493SOL    HW211379   6.728   5.235   6.678
 3494SOL     OW11380   4.248   0.232   0.615
 3494SOL    HW111381   4.326   0.199   0.562
 3494SOL    HW211382   4.271   0.319   0.658
 3495SOL     OW11383   4.340   4.880   2.328
 3495SOL    HW111384   4.358   4.880   2.426
 3495SOL    HW211385   4.291   4.796   2.303
 3496SOL     OW11386   1.063   2.930   1.353
 3496SOL    HW111387   1.103   2.987   1.425
 3496SOL    HW211388   1.103   2.838   1.357
 3497SOL     OW11389   3.897   0.710   2.720
 3497SOL    HW111390   3.866   0.629   2.671
 3497SOL    HW211391   3.870   0.703   2.816
 3498SOL     OW11392   2.995   2.379   0.939
 3498SOL    HW111393   3.085   2.345   0.968
 3498SOL    HW211394   2.995   2.479   0.939
 3499SOL     OW11395   5.288   3.072   4.546
 3499SOL    HW111396   5.300   3.148   4.483
 3499SOL    HW211397   5.360   3.075   4.616
 3500SOL     OW11398   6.838   4.207   5.898
 3500SOL    HW111399   6.900   4.134   5.868
 3500SOL    HW211400   6.873   4.295   5.866
 3501SOL     OW11401   0.616   5.242   4.665
 3501SOL    HW111402   0.662   5.174   4.608
 3501SOL    HW211403   0.647   5.333   4.640
 3502SOL     OW11404   6.817   2.190   1.994
 3502SOL    HW111405   6.733   2.190   2.047
 3502SOL    HW211406   6.853   2.284   1.988
 3503SOL     OW11407   5.252   5.545   5.257
 3503SOL    HW111408   5.330   5.494   5.221
 3503SOL    HW211409   5.265   5.560   5.355
 3504SOL     OW11410   2.557   2.876   1.182
 3504SOL    HW111411   2.640   2.829   1.215
 3504SOL    HW211412   2.521   2.934   1.254
 3505SOL     OW11413   5.849   5.110   5.228
 3505SOL    HW111414   5.885   5.201   5.248
 3505SOL    HW211415   5.758   5.119   5.186
 3506SOL     OW11416   3.855   5.917   4.388
 3506SOL    HW111417   3.816   5.885   4.474
 3506SOL    HW211418   3.943   5.961   4.405
 3507SOL     OW11419   1.803   0.989   6.725
 3507SOL    HW111420   1.871   0.916   6.730
 3507SOL    HW211421   1.847   1.077   6.745
 3508SOL     OW11422   4.674   2.221   6.482
 3508SOL    HW111423   4.714   2.129   6.483
 3508SOL    HW211424   4.586   2.219   6.529
 3509SOL     OW11425   5.473   5.733   6.523
 3509SOL    HW111426   5.435   5.784   6.446
 3509SOL    HW211427   5.403   5.721   6.593
 3510SOL     OW11428   1.900   2.221   1.758
 3510SOL    HW111429   1.971   2.249   1.693
 3510SOL    HW211430   1.823   2.284   1.751
 3511SOL     OW11431   1.872   3.721   6.891
 3511SOL    HW111432   1.916   3.760   6.810
 3511SOL    HW211433   1.847   3.626   6.873
 3512SOL     OW11434   0.717   4.511   0.902
 3512SOL    HW111435   0.621   4.490   0.915
 3512SOL    HW211436   0.740   4.504   0.805
 3513SOL     OW11437   6.207   4.016   0.473
 3513SOL    HW111438   6.290   4.052   0.515
 3513SOL    HW211439   6.138   4.000   0.543
 3514SOL     OW11440   0.975   0.791   2.038
 3514SOL    HW111441   1.052   0.847   2.069
 3514SOL    HW211442   0.891   0.845   2.043
 3515SOL     OW11443   3.583   6.118   2.536
 3515SOL    HW111444   3.635   6.102   2.620
 3515SOL    HW211445   3.631   6.183   2.478
 3516SOL     OW11446   3.687   1.250   1.486
 3516SOL    HW111447   3.768   1.298   1.453
 3516SOL    HW211448   3.610   1.270   1.425
 3517SOL     OW11449   0.554   1.210   0.281
 3517SOL    HW111450   0.538   1.303   0.314
 3517SOL    HW211451   0.504   1.196   0.195
 3518SOL     OW11452   4.591   4.027   5.449
 3518SOL    HW111453   4.576   4.125   5.460
 3518SOL    HW211454   4.564   3.979   5.532
 3519SOL     OW11455   1.574   0.551   6.637
 3519SOL    HW111456   1.517   0.599   6.704
 3519SOL    HW211457   1.521   0.476   6.596
 3520SOL     OW11458   3.654   4.221   1.541
 3520SOL    HW111459   3.638   4.319   1.558
 3520SOL    HW211460   3.716   4.185   1.611
 3521SOL     OW11461   5.922   3.023   1.413
 3521SOL    HW111462   5.855   3.075   1.467
 3521SOL    HW211463   5.876   2.979   1.336
 3522SOL     OW11464   3.198   5.339   2.029
 3522SOL    HW111465   3.196   5.388   2.116
 3522SOL    HW211466   3.281   5.365   1.978
 3523SOL     OW11467   3.192   4.722   5.681
 3523SOL    HW111468   3.228   4.813   5.665
 3523SOL    HW211469   3.092   4.725   5.681
 3524SOL     OW11470   2.776   0.738   1.386
 3524SOL    HW111471   2.764   0.830   1.425
 3524SOL    HW211472   2.871   0.710   1.395
 3525SOL     OW11473   0.785   3.440   2.041
 3525SOL    HW111474   0.698   3.430   1.991
 3525SOL    HW211475   0.853   3.378   2.003
 3526SOL     OW11476   1.221   0.516   4.162
 3526SOL    HW111477   1.288   0.473   4.102
 3526SOL    HW211478   1.228   0.615   4.155
 3527SOL     OW11479   5.087   2.581   5.644
 3527SOL    HW111480   5.176   2.596   5.601
 3527SOL    HW211481   5.078   2.642   5.723
 3528SOL     OW11482   1.075   6.630   3.663
 3528SOL    HW111483   1.004   6.582   3.612
 3528SOL    HW211484   1.038   6.664   3.749
 3529SOL     OW11485   3.636   0.178   5.807
 3529SOL    HW111486   3.554   0.236   5.798
 3529SOL    HW211487   3.608   0.083   5.821
 3530SOL     OW11488   1.864   5.383   2.825
 3530SOL    HW111489   1.957   5.377   2.788
 3530SOL    HW211490   1.817   5.296   2.811
 3531SOL     OW11491   5.183   3.773   0.523
 3531SOL    HW111492   5.157   3.738   0.613
 3531SOL    HW211493   5.105   3.817   0.479
 3532SOL     OW11494   3.359   0.677   0.142
 3532SOL    HW111495   3.270   0.640   0.168
 3532SOL    HW211496   3.373   0.766   0.185
 3533SOL     OW11497   1.413   2.012   3.506
 3533SOL    HW111498   1.390   1.977   3.415
 3533SOL    HW211499   1.481   2.085   3.498
 3534SOL     OW11500   5.626   1.572   5.493
 3534SOL    HW111501   5.574   1.487   5.504
 3534SOL    HW211502   5.584   1.628   5.422
 3535SOL     OW11503   0.282   5.970   0.714
 3535SOL    HW111504   0.216   5.915   0.765
 3535SOL    HW211505   0.266   5.960   0.616
 3536SOL     OW11506   1.904   3.677   3.411
 3536SOL    HW111507   1.826   3.659   3.350
 3536SOL    HW211508   1.870   3.721   3.495
 3537SOL     OW11509   2.245   4.380   0.607
 3537SOL    HW111510   2.194   4.397   0.522
 3537SOL    HW211511   2.204   4.301   0.654
 3538SOL     OW11512   3.242   1.015   3.659
 3538SOL    HW111513   3.224   0.996   3.562
 3538SOL    HW211514   3.217   0.935   3.714
 3539SOL     OW11515   6.243   3.346   5.478
 3539SOL    HW111516   6.316   3.415   5.477
 3539SOL    HW211517   6.155   3.391   5.464
 3540SOL     OW11518   2.102   2.773   6.322
 3540SOL    HW111519   2.177   2.812   6.375
 3540SOL    HW211520   2.049   2.711   6.379
 3541SOL     OW11521   2.579   3.035   0.408
 3541SOL    HW111522   2.605   3.037   0.504
 3541SOL    HW211523   2.482   3.012   0.400
 3542SOL     OW11524   5.653   2.335   0.229
 3542SOL    HW111525   5.713   2.394   0.283
 3542SOL    HW211526   5.646   2.371   0.136
 3543SOL     OW11527   1.427   3.363   2.943
 3543SOL    HW111528   1.414   3.318   3.031
 3543SOL    HW211529   1.339   3.373   2.896
 3544SOL     OW11530   2.574   4.544   6.921
 3544SOL    HW111531   2.554   4.479   6.848
 3544SOL    HW211532   2.492   4.595   6.945
 3545SOL     OW11533   3.717   4.832   0.488
 3545SOL    HW111534   3.682   4.812   0.580
 3545SOL    HW211535   3.643   4.872   0.433
 3546SOL     OW11536   6.146   4.735   3.578
 3546SOL    HW111537   6.047   4.728   3.585
 3546SOL    HW211538   6.174   4.828   3.599
 3547SOL     OW11539   6.443   3.943   4.826
 3547SOL    HW111540   6.363   3.976   4.876
 3547SOL    HW211541   6.462   3.848   4.851
 3548SOL     OW11542   5.449   0.663   5.484
 3548SOL    HW111543   5.520   0.622   5.426
 3548SOL    HW211544   5.474   0.651   5.580
 3549SOL     OW11545   1.956   5.136   6.574
 3549SOL    HW111546   1.932   5.066   6.643
 3549SOL    HW211547   1.906   5.118   6.490
 3550SOL     OW11548   5.891   2.871   5.320
 3550SOL    HW111549   5.953   2.930   5.372
 3550SOL    HW211550   5.926   2.858   5.228
 3551SOL     OW11551   3.574   1.743   5.168
 3551SOL    HW111552   3.641   1.747   5.095
 3551SOL    HW211553   3.558   1.835   5.205
 3552SOL     OW11554   6.139   5.328   2.504
 3552SOL    HW111555   6.100   5.335   2.596
 3552SOL    HW211556   6.072   5.288   2.442
 3553SOL     OW11557   3.339   5.845   6.463
 3553SOL    HW111558   3.266   5.800   6.412
 3553SOL    HW211559   3.410   5.778   6.485
 3554SOL     OW11560   4.124   3.801   0.659
 3554SOL    HW111561   4.148   3.775   0.566
 3554SOL    HW211562   4.038   3.852   0.658
 3555SOL     OW11563   1.956   2.611   4.340
 3555SOL    HW111564   1.960   2.513   4.323
 3555SOL    HW211565   1.994   2.661   4.262
 3556SOL     OW11566   3.818   1.502   4.371
 3556SOL    HW111567   3.718   1.504   4.369
 3556SOL    HW211568   3.852   1.477   4.280
 3557SOL     OW11569   0.658   0.694   3.128
 3557SOL    HW111570   0.560   0.681   3.112
 3557SOL    HW211571   0.670   0.750   3.210
 3558SOL     OW11572   2.715   5.124   1.018
 3558SOL    HW111573   2.731   5.222   1.008
 3558SOL    HW211574   2.629   5.100   0.972
 3559SOL     OW11575   2.487   6.969   4.744
 3559SOL    HW111576   2.519   7.001   4.833
 3559SOL    HW211577   2.560   6.979   4.676
 3560SOL     OW11578   2.017   4.652   3.421
 3560SOL    HW111579   1.940   4.713   3.400
 3560SOL    HW211580   2.014   4.628   3.518
 3561SOL     OW11581   5.198   4.680   5.856
 3561SOL    HW111582   5.197   4.751   5.785
 3561SOL    HW211583   5.134   4.703   5.928
 3562SOL     OW11584   3.538   2.056   4.566
 3562SOL    HW111585   3.542   1.996   4.646
 3562SOL    HW211586   3.442   2.071   4.541
 3563SOL     OW11587   5.586   2.374   6.196
 3563SOL    HW111588   5.619   2.282   6.173
 3563SOL    HW211589   5.545   2.416   6.115
 3564SOL     OW11590   0.376   5.453   2.717
 3564SOL    HW111591   0.380   5.414   2.625
 3564SOL    HW211592   0.413   5.546   2.715
 3565SOL     OW11593   3.592   4.931   2.735
 3565SOL    HW111594   3.627   5.016   2.774
 3565SOL    HW211595   3.517   4.951   2.673
 3566SOL     OW11596   6.650   1.059   5.851
 3566SOL    HW111597   6.561   1.097   5.827
 3566SOL    HW211598   6.644   1.010   5.937
 3567SOL     OW11599   0.246   2.865   6.279
 3567SOL    HW111600   0.274   2.847   6.185
 3567SOL    HW211601   0.148   2.889   6.280
 3568SOL     OW11602   6.235   4.025   5.569
 3568SOL    HW111603   6.143   4.062   5.583
 3568SOL    HW211604   6.303   4.087   5.608
 3569SOL     OW11605   2.911   1.816   5.158
 3569SOL    HW111606   2.832   1.856   5.112
 3569SOL    HW211607   2.956   1.886   5.213
 3570SOL     OW11608   5.004   0.636   6.203
 3570SOL    HW111609   4.906   0.648   6.186
 3570SOL    HW211610   5.042   0.573   6.135
 3571SOL     OW11611   0.534   5.706   0.143
 3571SOL    HW111612   0.512   5.758   0.226
 3571SOL    HW211613   0.597   5.759   0.086
 3572SOL     OW11614   5.369   3.889   3.617
 3572SOL    HW111615   5.442   3.957   3.619
 3572SOL    HW211616   5.408   3.797   3.613
 3573SOL     OW11617   0.293   4.596   4.015
 3573SOL    HW111618   0.203   4.555   4.002
 3573SOL    HW211619   0.309   4.613   4.112
 3574SOL     OW11620   0.354   4.763   0.144
 3574SOL    HW111621   0.336   4.725   0.053
 3574SOL    HW211622   0.409   4.846   0.135
 3575SOL     OW11623   5.601   4.702   3.359
 3575SOL    HW111624   5.599   4.684   3.261
 3575SOL    HW211625   5.508   4.695   3.396
 3576SOL     OW11626   2.159   1.504   5.951
 3576SOL    HW111627   2.082   1.492   6.014
 3576SOL    HW211628   2.160   1.429   5.885
 3577SOL     OW11629   1.087   3.035   6.108
 3577SOL    HW111630   1.158   3.063   6.044
 3577SOL    HW211631   1.044   2.950   6.076
 3578SOL     OW11632   3.907   3.004   0.295
 3578SOL    HW111633   3.921   2.944   0.374
 3578SOL    HW211634   3.874   2.951   0.217
 3579SOL     OW11635   0.462   4.132   4.494
 3579SOL    HW111636   0.454   4.038   4.462
 3579SOL    HW211637   0.370   4.172   4.505
 3580SOL     OW11638   5.841   1.368   1.227
 3580SOL    HW111639   5.882   1.427   1.297
 3580SOL    HW211640   5.742   1.362   1.242
 3581SOL     OW11641   6.074   0.131   4.188
 3581SOL    HW111642   6.057   0.206   4.251
 3581SOL    HW211643   6.169   0.100   4.196
 3582SOL     OW11644   0.603   1.625   6.098
 3582SOL    HW111645   0.547   1.555   6.142
 3582SOL    HW211646   0.571   1.639   6.005
 3583SOL     OW11647   0.586   3.677   6.720
 3583SOL    HW111648   0.534   3.648   6.801
 3583SOL    HW211649   0.678   3.639   6.725
 3584SOL     OW11650   6.017   6.035   6.202
 3584SOL    HW111651   6.060   5.974   6.136
 3584SOL    HW211652   5.987   5.982   6.282
 3585SOL     OW11653   3.731   5.370   5.280
 3585SOL    HW111654   3.810   5.402   5.228
 3585SOL    HW211655   3.651   5.368   5.220
 3586SOL     OW11656   6.819   1.843   5.413
 3586SOL    HW111657   6.759   1.863   5.490
 3586SOL    HW211658   6.763   1.813   5.335
 3587SOL     OW11659   2.241   5.045   0.190
 3587SOL    HW111660   2.153   4.998   0.191
 3587SOL    HW211661   2.231   5.132   0.142
 3588SOL     OW11662   1.030   2.899   5.304
 3588SOL    HW111663   1.105   2.919   5.367
 3588SOL    HW211664   0.943   2.909   5.352
 3589SOL     OW11665   3.583   1.621   4.000
 3589SOL    HW111666   3.658   1.637   4.064
 3589SOL    HW211667   3.602   1.668   3.914
 3590SOL     OW11668   0.138   3.775   6.021
 3590SOL    HW111669   0.128   3.864   6.066
 3590SOL    HW211670   0.056   3.720   6.039
 3591SOL     OW11671   4.672   3.295   6.219
 3591SOL    HW111672   4.596   3.359   6.230
 3591SOL    HW211673   4.697   3.257   6.308
 3592SOL     OW11674   5.708   3.921   3.181
 3592SOL    HW111675   5.780   3.868   3.135
 3592SOL    HW211676   5.721   4.018   3.161
 3593SOL     OW11677   2.280   5.810   4.865
 3593SOL    HW111678   2.206   5.834   4.928
 3593SOL    HW211679   2.328   5.729   4.899
 3594SOL     OW11680   3.899   0.505   2.498
 3594SOL    HW111681   3.997   0.522   2.514
 3594SOL    HW211682   3.889   0.429   2.434
 3595SOL     OW11683   2.510   5.803   6.344
 3595SOL    HW111684   2.562   5.803   6.429
 3595SOL    HW211685   2.427   5.858   6.355
 3596SOL     OW11686   6.377   2.108   2.742
 3596SOL    HW111687   6.414   2.050   2.815
 3596SOL    HW211688   6.292   2.150   2.771
 3597SOL     OW11689   2.650   6.363   4.868
 3597SOL    HW111690   2.559   6.384   4.833
 3597SOL    HW211691   2.709   6.331   4.794
 3598SOL     OW11692   1.286   6.603   5.844
 3598SOL    HW111693   1.322   6.590   5.936
 3598SOL    HW211694   1.338   6.548   5.779
 3599SOL     OW11695   0.737   2.174   5.466
 3599SOL    HW111696   0.701   2.258   5.427
 3599SOL    HW211697   0.677   2.097   5.442
 3600SOL     OW11698   0.953   3.015   0.635
 3600SOL    HW111699   0.945   3.106   0.597
 3600SOL    HW211700   0.964   2.948   0.561
 3601SOL     OW11701   6.988   4.192   0.190
 3601SOL    HW111702   7.007   4.105   0.236
 3601SOL    HW211703   0.035   4.255   0.204
 3602SOL     OW11704   1.329   1.673   0.832
 3602SOL    HW111705   1.241   1.642   0.867
 3602SOL    HW211706   1.396   1.599   0.840
 3603SOL     OW11707   3.429   6.418   4.276
 3603SOL    HW111708   3.524   6.446   4.258
 3603SOL    HW211709   3.372   6.445   4.199
 3604SOL     OW11710   6.667   4.912   3.999
 3604SOL    HW111711   6.576   4.953   4.009
 3604SOL    HW211712   6.729   4.979   3.958
 3605SOL     OW11713   5.294   4.515   5.570
 3605SOL    HW111714   5.332   4.439   5.518
 3605SOL    HW211715   5.195   4.518   5.557
 3606SOL     OW11716   6.906   5.619   5.286
 3606SOL    HW111717   6.937   5.611   5.380
 3606SOL    HW211718   6.962   5.561   5.227
 3607SOL     OW11719   5.225   6.523   0.979
 3607SOL    HW111720   5.308   6.566   1.013
 3607SOL    HW211721   5.210   6.436   1.028
 3608SOL     OW11722   6.456   1.886   1.772
 3608SOL    HW111723   6.541   1.906   1.820
 3608SOL    HW211724   6.473   1.887   1.673
 3609SOL     OW11725   0.211   0.345   3.857
 3609SOL    HW111726   0.123   0.323   3.814
 3609SOL    HW211727   0.196   0.373   3.951
 3610SOL     OW11728   0.768   0.748   5.718
 3610SOL    HW111729   0.739   0.708   5.804
 3610SOL    HW211730   0.769   0.678   5.646
 3611SOL     OW11731   3.934   5.758   5.685
 3611SOL    HW111732   3.932   5.659   5.672
 3611SOL    HW211733   3.883   5.782   5.768
 3612SOL     OW11734   6.187   0.392   5.923
 3612SOL    HW111735   6.161   0.483   5.956
 3612SOL    HW211736   6.133   0.323   5.972
 3613SOL     OW11737   5.352   5.357   1.347
 3613SOL    HW111738   5.264   5.366   1.299
 3613SOL    HW211739   5.418   5.418   1.304
 3614SOL     OW11740   3.369   3.096   2.982
 3614SOL    HW111741   3.415   3.126   2.899
 3614SOL    HW211742   3.272   3.123   2.978
 3615SOL     OW11743   5.236   5.914   6.705
 3615SOL    HW111744   5.333   5.907   6.680
 3615SOL    HW211745   5.225   5.981   6.778
 3616SOL     OW11746   6.967   1.790   6.349
 3616SOL    HW111747   7.022   1.868   6.379
 3616SOL    HW211748   6.883   1.823   6.307
 3617SOL     OW11749   5.096   0.958   6.893
 3617SOL    HW111750   5.041   1.001   6.822
 3617SOL    HW211751   5.180   1.009   6.906
 3618SOL     OW11752   2.116   1.747   5.052
 3618SOL    HW111753   2.055   1.762   4.975
 3618SOL    HW211754   2.158   1.833   5.080
 3619SOL     OW11755   6.193   3.074   3.698
 3619SOL    HW111756   6.179   3.163   3.655
 3619SOL    HW211757   6.192   3.084   3.798
 3620SOL     OW11758   6.168   5.814   6.050
 3620SOL    HW111759   6.261   5.828   6.083
 3620SOL    HW211760   6.167   5.739   5.984
 3621SOL     OW11761   2.908   2.582   5.663
 3621SOL    HW111762   2.892   2.609   5.758
 3621SOL    HW211763   2.897   2.483   5.654
 3622SOL     OW11764   1.923   2.541   3.156
 3622SOL    HW111765   1.915   2.549   3.255
 3622SOL    HW211766   2.017   2.558   3.128
 3623SOL     OW11767   5.971   6.110   3.748
 3623SOL    HW111768   6.063   6.138   3.721
 3623SOL    HW211769   5.976   6.049   3.827
 3624SOL     OW11770   1.487   0.204   2.399
 3624SOL    HW111771   1.511   0.114   2.361
 3624SOL    HW211772   1.388   0.215   2.398
 3625SOL     OW11773   5.787   3.299   6.870
 3625SOL    HW111774   5.761   3.219   6.924
 3625SOL    HW211775   5.862   3.347   6.914
 3626SOL     OW11776   1.701   3.546   5.257
 3626SOL    HW111777   1.799   3.542   5.278
 3626SOL    HW211778   1.650   3.560   5.342
 3627SOL     OW11779   3.482   2.908   3.355
 3627SOL    HW111780   3.474   2.808   3.364
 3627SOL    HW211781   3.496   2.948   3.446
 3628SOL     OW11782   1.756   6.926   1.431
 3628SOL    HW111783   1.820   6.860   1.393
 3628SOL    HW211784   1.692   6.880   1.492
 3629SOL     OW11785   6.092   2.305   4.324
 3629SOL    HW111786   6.117   2.224   4.377
 3629SOL    HW211787   6.174   2.362   4.311
 3630SOL     OW11788   5.007   2.630   3.258
 3630SOL    HW111789   4.997   2.596   3.352
 3630SOL    HW211790   5.052   2.559   3.202
 3631SOL     OW11791   2.097   0.113   4.136
 3631SOL    HW111792   2.064   0.164   4.056
 3631SOL    HW211793   2.192   0.086   4.121
 3632SOL     OW11794   5.009   6.951   0.373
 3632SOL    HW111795   4.939   6.896   0.420
 3632SOL    HW211796   5.050   7.015   0.438
 3633SOL     OW11797   3.153   1.740   5.852
 3633SOL    HW111798   3.149   1.800   5.773
 3633SOL    HW211799   3.128   1.647   5.826
 3634SOL     OW11800   0.946   5.405   4.706
 3634SOL    HW111801   0.994   5.492   4.712
 3634SOL    HW211802   0.878   5.398   4.779
 3635SOL     OW11803   2.676   0.005   6.373
 3635SOL    HW111804   2.771   7.021   6.343
 3635SOL    HW211805   2.655   0.102   6.374
 3636SOL     OW11806   0.559   5.767   6.523
 3636SOL    HW111807   0.642   5.821   6.511
 3636SOL    HW211808   0.579   5.671   6.505
 3637SOL     OW11809   6.436   2.171   1.007
 3637SOL    HW111810   6.377   2.150   0.929
 3637SOL    HW211811   6.381   2.219   1.077
 3638SOL     OW11812   6.909   4.744   4.141
 3638SOL    HW111813   6.879   4.746   4.236
 3638SOL    HW211814   6.847   4.688   4.087
 3639SOL     OW11815   3.863   4.057   1.408
 3639SOL    HW111816   3.809   4.137   1.434
 3639SOL    HW211817   3.949   4.087   1.367
 3640SOL     OW11818   3.677   0.596   6.932
 3640SOL    HW111819   3.647   0.608   6.837
 3640SOL    HW211820   3.758   0.537   6.934
 3641SOL     OW11821   4.700   2.762   3.894
 3641SOL    HW111822   4.668   2.809   3.812
 3641SOL    HW211823   4.715   2.828   3.968
 3642SOL     OW11824   5.366   1.175   0.336
 3642SOL    HW111825   5.407   1.265   0.351
 3642SOL    HW211826   5.434   1.104   0.354
 3643SOL     OW11827   3.399   6.009   4.843
 3643SOL    HW111828   3.468   6.071   4.882
 3643SOL    HW211829   3.432   5.915   4.847
 3644SOL     OW11830   6.292   1.238   1.589
 3644SOL    HW111831   6.212   1.207   1.538
 3644SOL    HW211832   6.308   1.176   1.666
 3645SOL     OW11833   6.700   1.823   3.982
 3645SOL    HW111834   6.674   1.910   3.938
 3645SOL    HW211835   6.773   1.840   4.047
 3646SOL     OW11836   6.640   3.806   6.642
 3646SOL    HW111837   6.631   3.901   6.612
 3646SOL    HW211838   6.550   3.767   6.657
 3647SOL     OW11839   1.849   3.143   0.133
 3647SOL    HW111840   1.931   3.097   0.099
 3647SOL    HW211841   1.835   3.120   0.229
 3648SOL     OW11842   2.877   5.055   2.869
 3648SOL    HW111843   2.804   5.001   2.827
 3648SOL    HW211844   2.960   5.047   2.814
 3649SOL     OW11845   5.119   3.095   1.725
 3649SOL    HW111846   5.047   3.030   1.748
 3649SOL    HW211847   5.085   3.158   1.655
 3650SOL     OW11848   0.485   4.657   0.390
 3650SOL    HW111849   0.567   4.663   0.334
 3650SOL    HW211850   0.404   4.670   0.333
 3651SOL     OW11851   0.329   6.856   3.940
 3651SOL    HW111852   0.377   6.890   3.860
 3651SOL    HW211853   0.364   6.902   4.022
 3652SOL     OW11854   6.161   6.398   2.792
 3652SOL    HW111855   6.171   6.317   2.734
 3652SOL    HW211856   6.068   6.432   2.787
 3653SOL     OW11857   0.436   1.353   4.245
 3653SOL    HW111858   0.359   1.393   4.196
 3653SOL    HW211859   0.435   1.254   4.232
 3654SOL     OW11860   2.698   5.656   0.548
 3654SOL    HW111861   2.751   5.710   0.615
 3654SOL    HW211862   2.729   5.679   0.456
 3655SOL     OW11863   2.389   0.259   3.492
 3655SOL    HW111864   2.376   0.325   3.566
 3655SOL    HW211865   2.309   0.199   3.487
 3656SOL     OW11866   0.636   3.336   2.322
 3656SOL    HW111867   0.664   3.362   2.230
 3656SOL    HW211868   0.695   3.382   2.389
 3657SOL     OW11869   5.234   4.836   6.122
 3657SOL    HW111870   5.305   4.810   6.187
 3657SOL    HW211871   5.275   4.863   6.036
 3658SOL     OW11872   2.040   6.469   4.231
 3658SOL    HW111873   2.063   6.565   4.219
 3658SOL    HW211874   1.965   6.445   4.169
 3659SOL     OW11875   2.315   3.289   5.822
 3659SOL    HW111876   2.398   3.338   5.848
 3659SOL    HW211877   2.297   3.303   5.725
 3660SOL     OW11878   4.557   0.574   2.832
 3660SOL    HW111879   4.513   0.568   2.921
 3660SOL    HW211880   4.654   0.595   2.843
 3661SOL     OW11881   4.712   1.588   5.911
 3661SOL    HW111882   4.765   1.614   5.992
 3661SOL    HW211883   4.685   1.670   5.861
 3662SOL     OW11884   4.430   0.391   3.569
 3662SOL    HW111885   4.337   0.428   3.561
 3662SOL    HW211886   4.495   0.466   3.580
 3663SOL     OW11887   1.672   1.898   0.134
 3663SOL    HW111888   1.734   1.967   0.170
 3663SOL    HW211889   1.667   1.907   0.034
 3664SOL     OW11890   4.801   1.959   1.833
 3664SOL    HW111891   4.872   2.019   1.870
 3664SOL    HW211892   4.756   1.910   1.908
 3665SOL     OW11893   1.847   6.300   5.309
 3665SOL    HW111894   1.878   6.311   5.215
 3665SOL    HW211895   1.825   6.204   5.326
 3666SOL     OW11896   1.675   3.773   3.084
 3666SOL    HW111897   1.660   3.860   3.131
 3666SOL    HW211898   1.693   3.701   3.152
 3667SOL     OW11899   6.965   0.710   0.998
 3667SOL    HW111900   6.972   0.626   0.944
 3667SOL    HW211901   6.868   0.731   1.014
 3668SOL     OW11902   1.506   1.257   2.235
 3668SOL    HW111903   1.519   1.356   2.231
 3668SOL    HW211904   1.521   1.217   2.145
 3669SOL     OW11905   5.869   1.391   3.445
 3669SOL    HW111906   5.832   1.311   3.492
 3669SOL    HW211907   5.914   1.450   3.512
 3670SOL     OW11908   2.144   4.554   0.286
 3670SOL    HW111909   2.237   4.579   0.312
 3670SOL    HW211910   2.126   4.460   0.317
 3671SOL     OW11911   5.923   0.300   3.634
 3671SOL    HW111912   5.902   0.275   3.729
 3671SOL    HW211913   5.880   0.235   3.572
 3672SOL     OW11914   5.588   2.062   1.954
 3672SOL    HW111915   5.530   1.981   1.950
 3672SOL    HW211916   5.555   2.122   2.027
 3673SOL     OW11917   4.191   0.389   6.348
 3673SOL    HW111918   4.098   0.415   6.371
 3673SOL    HW211919   4.213   0.302   6.392
 3674SOL     OW11920   0.331   6.752   5.000
 3674SOL    HW111921   0.316   6.851   5.009
 3674SOL    HW211922   0.260   6.703   5.051
 3675SOL     OW11923   1.486   3.319   4.826
 3675SOL    HW111924   1.536   3.377   4.890
 3675SOL    HW211925   1.473   3.369   4.740
 3676SOL     OW11926   4.909   4.316   4.429
 3676SOL    HW111927   4.825   4.307   4.482
 3676SOL    HW211928   4.980   4.259   4.469
 3677SOL     OW11929   2.163   6.317   3.170
 3677SOL    HW111930   2.088   6.251   3.163
 3677SOL    HW211931   2.132   6.396   3.224
 3678SOL     OW11932   0.270   3.142   4.155
 3678SOL    HW111933   0.282   3.221   4.215
 3678SOL    HW211934   0.288   3.169   4.060
 3679SOL     OW11935   1.582   0.318   2.924
 3679SOL    HW111936   1.628   0.403   2.949
 3679SOL    HW211937   1.549   0.325   2.829
 3680SOL     OW11938   5.576   2.289   3.176
 3680SOL    HW111939   5.643   2.269   3.105
 3680SOL    HW211940   5.601   2.375   3.222
 3681SOL     OW11941   0.458   0.881   5.261
 3681SOL    HW111942   0.535   0.872   5.198
 3681SOL    HW211943   0.432   0.791   5.295
 3682SOL     OW11944   5.634   2.374   6.964
 3682SOL    HW111945   5.573   2.295   6.953
 3682SOL    HW211946   5.606   2.448   6.903
 3683SOL     OW11947   0.082   6.613   3.219
 3683SOL    HW111948   7.014   6.608   3.241
 3683SOL    HW211949   0.132   6.547   3.275
 3684SOL     OW11950   1.304   4.809   7.011
 3684SOL    HW111951   1.404   4.810   7.000
 3684SOL    HW211952   1.273   4.898   0.014
 3685SOL     OW11953   6.319   6.489   6.364
 3685SOL    HW111954   6.336   6.503   6.267
 3685SOL    HW211955   6.259   6.562   6.398
 3686SOL     OW11956   5.790   6.597   2.933
 3686SOL    HW111957   5.717   6.581   2.999
 3686SOL    HW211958   5.802   6.696   2.920
 3687SOL     OW11959   3.965   5.970   5.289
 3687SOL    HW111960   3.885   5.993   5.232
 3687SOL    HW211961   4.037   6.037   5.272
 3688SOL     OW11962   0.056   2.962   6.547
 3688SOL    HW111963   7.029   3.008   6.616
 3688SOL    HW211964   0.002   2.946   6.465
 3689SOL     OW11965   1.946   1.027   0.118
 3689SOL    HW111966   1.877   0.957   0.099
 3689SOL    HW211967   1.900   1.113   0.141
 3690SOL     OW11968   5.044   6.803   0.012
 3690SOL    HW111969   5.019   6.773   0.104
 3690SOL    HW211970   5.118   6.745   7.007
 3691SOL     OW11971   2.881   2.641   6.875
 3691SOL    HW111972   2.873   2.676   6.968
 3691SOL    HW211973   2.972   2.661   6.839
 3692SOL     OW11974   0.761   5.863   5.009
 3692SOL    HW111975   0.738   5.956   4.982
 3692SOL    HW211976   0.860   5.850   5.004
 3693SOL     OW11977   1.914   3.020   2.853
 3693SOL    HW111978   1.873   3.098   2.902
 3693SOL    HW211979   1.898   3.031   2.755
 3694SOL     OW11980   1.351   5.188   2.751
 3694SOL    HW111981   1.301   5.273   2.767
 3694SOL    HW211982   1.362   5.174   2.652
 3695SOL     OW11983   6.649   2.895   2.340
 3695SOL    HW111984   6.622   2.823   2.403
 3695SOL    HW211985   6.685   2.973   2.392
 3696SOL     OW11986   3.023   5.679   5.157
 3696SOL    HW111987   3.112   5.723   5.144
 3696SOL    HW211988   2.973   5.724   5.230
 3697SOL     OW11989   0.187   6.440   3.410
 3697SOL    HW111990   0.251   6.513   3.436
 3697SOL    HW211991   0.223   6.352   3.440
 3698SOL     OW11992   2.103   0.022   4.776
 3698SOL    HW111993   2.069   0.111   4.744
 3698SOL    HW211994   2.030   6.984   4.769
 3699SOL     OW11995   0.134   3.313   3.466
 3699SOL    HW111996   0.201   3.385   3.483
 3699SOL    HW211997   0.162   3.258   3.387
 3700SOL     OW11998   0.241   0.373   4.691
 3700SOL    HW111999   0.254   0.410   4.783
 3700SOL    HW212000   0.145   0.380   4.665
 3701SOL     OW12001   1.030   0.514   3.472
 3701SOL    HW112002   1.097   0.539   3.402
 3701SOL    HW212003   0.945   0.485   3.428
 3702SOL     OW12004   6.098   6.331   2.106
 3702SOL    HW112005   6.174   6.271   2.132
 3702SOL    HW212006   6.035   6.341   2.183
 3703SOL     OW12007   4.179   2.035   6.516
 3703SOL    HW112008   4.163   1.982   6.433
 3703SOL    HW212009   4.107   2.103   6.527
 3704SOL     OW12010   3.494   1.335   1.324
 3704SOL    HW112011   3.432   1.257   1.332
 3704SOL    HW212012   3.449   1.417   1.359
 3705SOL     OW12013   4.845   5.944   3.727
 3705SOL    HW112014   4.816   5.849   3.734
 3705SOL    HW212015   4.854   5.984   3.818
 3706SOL     OW12016   1.645   3.782   5.119
 3706SOL    HW112017   1.638   3.685   5.140
 3706SOL    HW212018   1.572   3.808   5.056
 3707SOL     OW12019   5.555   4.152   5.545
 3707SOL    HW112020   5.612   4.172   5.625
 3707SOL    HW212021   5.481   4.089   5.573
 3708SOL     OW12022   6.848   1.239   6.473
 3708SOL    HW112023   6.865   1.151   6.429
 3708SOL    HW212024   6.893   1.312   6.420
 3709SOL     OW12025   3.545   0.728   0.846
 3709SOL    HW112026   3.467   0.698   0.791
 3709SOL    HW212027   3.552   0.828   0.840
 3710SOL     OW12028   6.967   5.720   6.804
 3710SOL    HW112029   7.000   5.782   6.875
 3710SOL    HW212030   6.896   5.766   6.750
 3711SOL     OW12031   0.323   0.021   2.605
 3711SOL    HW112032   0.395   6.982   2.595
 3711SOL    HW212033   0.235   7.004   2.615
 3712SOL     OW12034   0.125   6.315   6.866
 3712SOL    HW112035   0.162   6.354   6.781
 3712SOL    HW212036   0.198   6.267   6.914
 3713SOL     OW12037   1.878   5.968   4.794
 3713SOL    HW112038   1.915   5.998   4.707
 3713SOL    HW212039   1.834   5.879   4.783
 3714SOL     OW12040   4.521   5.510   5.071
 3714SOL    HW112041   4.471   5.595   5.088
 3714SOL    HW212042   4.467   5.432   5.103
 3715SOL     OW12043   5.755   3.761   2.746
 3715SOL    HW112044   5.701   3.831   2.699
 3715SOL    HW212045   5.714   3.671   2.730
 3716SOL     OW12046   6.215   6.887   5.453
 3716SOL    HW112047   6.198   6.985   5.463
 3716SOL    HW212048   6.159   6.837   5.519
 3717SOL     OW12049   5.506   5.538   6.030
 3717SOL    HW112050   5.493   5.552   5.931
 3717SOL    HW212051   5.500   5.626   6.077
 3718SOL     OW12052   1.940   0.622   0.104
 3718SOL    HW112053   1.869   0.693   0.099
 3718SOL    HW212054   2.000   0.630   0.024
 3719SOL     OW12055   5.611   4.721   0.897
 3719SOL    HW112056   5.673   4.659   0.848
 3719SOL    HW212057   5.665   4.794   0.939
 3720SOL     OW12058   6.274   1.970   5.789
 3720SOL    HW112059   6.355   1.917   5.814
 3720SOL    HW212060   6.198   1.908   5.766
 3721SOL     OW12061   5.148   4.389   1.374
 3721SOL    HW112062   5.051   4.386   1.348
 3721SOL    HW212063   5.177   4.484   1.384
 3722SOL     OW12064   6.455   6.316   1.310
 3722SOL    HW112065   6.427   6.240   1.368
 3722SOL    HW212066   6.402   6.398   1.333
 3723SOL     OW12067   6.544   6.168   2.019
 3723SOL    HW112068   6.624   6.209   1.975
 3723SOL    HW212069   6.575   6.106   2.092
 3724SOL     OW12070   2.002   4.776   6.117
 3724SOL    HW112071   2.091   4.819   6.127
 3724SOL    HW212072   1.969   4.788   6.023
 3725SOL     OW12073   5.894   5.324   0.981
 3725SOL    HW112074   5.914   5.422   0.968
 3725SOL    HW212075   5.911   5.275   0.896
 3726SOL     OW12076   6.346   5.122   0.594
 3726SOL    HW112077   6.446   5.121   0.599
 3726SOL    HW212078   6.318   5.172   0.511
 3727SOL     OW12079   6.982   1.777   5.899
 3727SOL    HW112080   6.962   1.862   5.948
 3727SOL    HW212081   6.951   1.786   5.804
 3728SOL     OW12082   0.813   4.201   6.865
 3728SOL    HW112083   0.808   4.101   6.860
 3728SOL    HW212084   0.891   4.233   6.811
 3729SOL     OW12085   0.972   2.272   3.450
 3729SOL    HW112086   0.992   2.199   3.515
 3729SOL    HW212087   0.937   2.232   3.365
 3730SOL     OW12088   2.613   5.168   6.636
 3730SOL    HW112089   2.665   5.253   6.646
 3730SOL    HW212090   2.623   5.132   6.544
 3731SOL     OW12091   4.992   0.437   0.967
 3731SOL    HW112092   5.011   0.409   1.061
 3731SOL    HW212093   4.957   0.531   0.966
 3732SOL     OW12094   1.764   2.140   6.157
 3732SOL    HW112095   1.691   2.193   6.115
 3732SOL    HW212096   1.750   2.042   6.138
 3733SOL     OW12097   1.378   3.499   2.123
 3733SOL    HW112098   1.449   3.567   2.104
 3733SOL    HW212099   1.294   3.522   2.075
 3734SOL     OW12100   4.662   1.003   2.089
 3734SOL    HW112101   4.572   1.004   2.132
 3734SOL    HW212102   4.658   1.050   2.002
 3735SOL     OW12103   2.413   0.744   3.721
 3735SOL    HW112104   2.384   0.825   3.669
 3735SOL    HW212105   2.493   0.766   3.776
 3736SOL     OW12106   6.586   1.913   0.439
 3736SOL    HW112107   6.595   1.985   0.370
 3736SOL    HW212108   6.511   1.852   0.415
 3737SOL     OW12109   4.811   0.331   3.351
 3737SOL    HW112110   4.748   0.396   3.308
 3737SOL    HW212111   4.904   0.346   3.316
 3738SOL     OW12112   0.036   5.753   2.118
 3738SOL    HW112113   0.115   5.746   2.179
 3738SOL    HW212114   7.010   5.832   2.144
 3739SOL     OW12115   2.451   4.843   1.650
 3739SOL    HW112116   2.424   4.766   1.592
 3739SOL    HW212117   2.389   4.849   1.728
 3740SOL     OW12118   5.700   0.032   0.576
 3740SOL    HW112119   5.619   0.036   0.518
 3740SOL    HW212120   5.686   0.088   0.657
 3741SOL     OW12121   4.884   3.251   1.204
 3741SOL    HW112122   4.790   3.275   1.180
 3741SOL    HW212123   4.904   3.157   1.175
 3742SOL     OW12124   2.600   2.046   6.617
 3742SOL    HW112125   2.589   2.069   6.520
 3742SOL    HW212126   2.586   2.128   6.673
 3743SOL     OW12127   5.047   3.334   0.846
 3743SOL    HW112128   5.112   3.308   0.918
 3743SOL    HW212129   5.094   3.385   0.775
 3744SOL     OW12130   0.679   6.286   2.856
 3744SOL    HW112131   0.762   6.288   2.913
 3744SOL    HW212132   0.700   6.244   2.768
 3745SOL     OW12133   4.026   5.214   2.059
 3745SOL    HW112134   4.118   5.239   2.090
 3745SOL    HW212135   4.009   5.117   2.079
 3746SOL     OW12136   5.435   1.622   2.732
 3746SOL    HW112137   5.449   1.633   2.830
 3746SOL    HW212138   5.376   1.696   2.698
 3747SOL     OW12139   2.814   0.179   5.375
 3747SOL    HW112140   2.716   0.188   5.361
 3747SOL    HW212141   2.860   0.261   5.339
 3748SOL     OW12142   5.841   0.179   1.801
 3748SOL    HW112143   5.764   0.131   1.760
 3748SOL    HW212144   5.827   0.278   1.793
 3749SOL     OW12145   2.034   6.823   4.190
 3749SOL    HW112146   2.089   6.815   4.273
 3749SOL    HW212147   2.008   6.919   4.176
 3750SOL     OW12148   1.169   3.613   0.825
 3750SOL    HW112149   1.243   3.671   0.791
 3750SOL    HW212150   1.207   3.526   0.857
 3751SOL     OW12151   6.706   3.496   2.068
 3751SOL    HW112152   6.635   3.456   2.011
 3751SOL    HW212153   6.796   3.483   2.025
 3752SOL     OW12154   5.615   0.610   6.738
 3752SOL    HW112155   5.598   0.512   6.748
 3752SOL    HW212156   5.553   0.647   6.668
 3753SOL     OW12157   6.130   0.748   5.421
 3753SOL    HW112158   6.034   0.754   5.396
 3753SOL    HW212159   6.142   0.780   5.515
 3754SOL     OW12160   2.183   0.216   1.486
 3754SOL    HW112161   2.232   0.130   1.475
 3754SOL    HW212162   2.248   0.289   1.507
 3755SOL     OW12163   4.782   5.548   4.946
 3755SOL    HW112164   4.689   5.526   4.976
 3755SOL    HW212165   4.825   5.608   5.013
 3756SOL     OW12166   3.048   5.511   6.526
 3756SOL    HW112167   3.004   5.564   6.598
 3756SOL    HW212168   2.978   5.466   6.470
 3757SOL     OW12169   5.931   5.146   2.288
 3757SOL    HW112170   5.904   5.223   2.230
 3757SOL    HW212171   6.002   5.093   2.241
 3758SOL     OW12172   2.246   1.369   4.302
 3758SOL    HW112173   2.195   1.455   4.298
 3758SOL    HW212174   2.343   1.388   4.316
 3759SOL     OW12175   3.902   0.131   5.864
 3759SOL    HW112176   3.962   0.170   5.794
 3759SOL    HW212177   3.810   0.171   5.854
 3760SOL     OW12178   0.658   1.761   4.422
 3760SOL    HW112179   0.727   1.708   4.371
 3760SOL    HW212180   0.580   1.779   4.362
 3761SOL     OW12181   6.391   1.117   5.536
 3761SOL    HW112182   6.340   1.073   5.462
 3761SOL    HW212183   6.444   1.193   5.499
 3762SOL     OW12184   1.465   4.343   1.273
 3762SOL    HW112185   1.563   4.328   1.269
 3762SOL    HW212186   1.426   4.291   1.349
 3763SOL     OW12187   0.112   3.614   0.116
 3763SOL    HW112188   0.073   3.678   0.050
 3763SOL    HW212189   0.202   3.645   0.145
 3764SOL     OW12190   1.605   6.990   2.279
 3764SOL    HW112191   1.625   6.921   2.210
 3764SOL    HW212192   1.676   6.988   2.349
 3765SOL     OW12193   5.952   1.139   1.139
 3765SOL    HW112194   5.895   1.220   1.145
 3765SOL    HW212195   5.900   1.059   1.170
 3766SOL     OW12196   1.871   2.487   4.028
 3766SOL    HW112197   1.921   2.447   4.105
 3766SOL    HW212198   1.795   2.541   4.063
 3767SOL     OW12199   3.200   4.547   6.566
 3767SOL    HW112200   3.123   4.539   6.502
 3767SOL    HW212201   3.184   4.624   6.627
 3768SOL     OW12202   0.769   6.981   4.594
 3768SOL    HW112203   0.742   6.935   4.678
 3768SOL    HW212204   0.784   0.049   4.612
 3769SOL     OW12205   6.201   5.574   5.007
 3769SOL    HW112206   6.262   5.641   5.048
 3769SOL    HW212207   6.156   5.615   4.927
 3770SOL     OW12208   1.263   0.562   6.830
 3770SOL    HW112209   1.213   0.544   6.914
 3770SOL    HW212210   1.251   0.485   6.767
 3771SOL     OW12211   5.455   4.510   6.733
 3771SOL    HW112212   5.427   4.603   6.712
 3771SOL    HW212213   5.382   4.463   6.782
 3772SOL     OW12214   0.718   0.425   0.380
 3772SOL    HW112215   0.800   0.441   0.434
 3772SOL    HW212216   0.743   0.384   0.292
 3773SOL     OW12217   6.295   3.386   5.121
 3773SOL    HW112218   6.304   3.359   5.025
 3773SOL    HW212219   6.198   3.385   5.146
 3774SOL     OW12220   5.828   5.523   1.747
 3774SOL    HW112221   5.760   5.528   1.675
 3774SOL    HW212222   5.865   5.614   1.765
 3775SOL     OW12223   4.375   5.200   2.944
 3775SOL    HW112224   4.278   5.197   2.920
 3775SOL    HW212225   4.413   5.288   2.916
 3776SOL     OW12226   3.491   2.462   6.680
 3776SOL    HW112227   3.467   2.551   6.639
 3776SOL    HW212228   3.512   2.397   6.607
 3777SOL     OW12229   2.632   5.115   3.551
 3777SOL    HW112230   2.605   5.019   3.554
 3777SOL    HW212231   2.682   5.133   3.466
 3778SOL     OW12232   2.480   5.803   3.370
 3778SOL    HW112233   2.442   5.854   3.447
 3778SOL    HW212234   2.424   5.820   3.289
 3779SOL     OW12235   0.834   4.909   1.000
 3779SOL    HW112236   0.813   5.006   1.013
 3779SOL    HW212237   0.772   4.870   0.931
 3780SOL     OW12238   6.372   3.934   4.571
 3780SOL    HW112239   6.422   3.940   4.657
 3780SOL    HW212240   6.288   3.987   4.577
 3781SOL     OW12241   0.363   0.104   3.850
 3781SOL    HW112242   0.298   0.180   3.841
 3781SOL    HW212243   0.387   0.093   3.946
 3782SOL     OW12244   3.704   7.002   2.811
 3782SOL    HW112245   3.727   6.914   2.854
 3782SOL    HW212246   3.630   6.988   2.745
 3783SOL     OW12247   6.166   5.302   4.304
 3783SOL    HW112248   6.236   5.281   4.372
 3783SOL    HW212249   6.209   5.338   4.221
 3784SOL     OW12250   5.386   3.143   2.703
 3784SOL    HW112251   5.375   3.104   2.794
 3784SOL    HW212252   5.320   3.217   2.691
 3785SOL     OW12253   1.504   2.955   4.887
 3785SOL    HW112254   1.437   3.024   4.860
 3785SOL    HW212255   1.587   2.966   4.831
 3786SOL     OW12256   2.234   4.018   3.049
 3786SOL    HW112257   2.195   3.926   3.049
 3786SOL    HW212258   2.328   4.014   3.083
 3787SOL     OW12259   5.710   0.896   1.839
 3787SOL    HW112260   5.706   0.966   1.910
 3787SOL    HW212261   5.662   0.928   1.757
 3788SOL     OW12262   6.653   4.362   4.695
 3788SOL    HW112263   6.592   4.323   4.764
 3788SOL    HW212264   6.625   4.456   4.675
 3789SOL     OW12265   0.066   3.747   3.718
 3789SOL    HW112266   0.125   3.820   3.753
 3789SOL    HW212267   0.120   3.666   3.697
 3790SOL     OW12268   0.817   4.879   6.200
 3790SOL    HW112269   0.892   4.928   6.156
 3790SOL    HW212270   0.778   4.936   6.272
 3791SOL     OW12271   4.809   1.651   6.157
 3791SOL    HW112272   4.777   1.642   6.251
 3791SOL    HW212273   4.877   1.724   6.151
 3792SOL     OW12274   1.493   1.711   3.885
 3792SOL    HW112275   1.418   1.706   3.951
 3792SOL    HW212276   1.548   1.629   3.892
 3793SOL     OW12277   4.561   6.372   1.859
 3793SOL    HW112278   4.629   6.441   1.884
 3793SOL    HW212279   4.536   6.383   1.763
 3794SOL     OW12280   2.730   2.829   1.677
 3794SOL    HW112281   2.755   2.744   1.724
 3794SOL    HW212282   2.632   2.826   1.655
 3795SOL     OW12283   4.414   5.811   1.143
 3795SOL    HW112284   4.389   5.889   1.200
 3795SOL    HW212285   4.400   5.833   1.047
 3796SOL     OW12286   4.221   2.318   2.513
 3796SOL    HW112287   4.123   2.298   2.521
 3796SOL    HW212288   4.238   2.366   2.427
 3797SOL     OW12289   0.554   3.508   3.084
 3797SOL    HW112290   0.622   3.580   3.090
 3797SOL    HW212291   0.477   3.529   3.145
 3798SOL     OW12292   2.475   6.318   2.707
 3798SOL    HW112293   2.553   6.358   2.756
 3798SOL    HW212294   2.474   6.352   2.613
 3799SOL     OW12295   6.608   2.780   3.836
 3799SOL    HW112296   6.606   2.728   3.751
 3799SOL    HW212297   6.686   2.749   3.892
 3800SOL     OW12298   5.550   1.650   3.572
 3800SOL    HW112299   5.642   1.670   3.537
 3800SOL    HW212300   5.484   1.662   3.499
 3801SOL     OW12301   5.796   6.513   1.834
 3801SOL    HW112302   5.791   6.424   1.788
 3801SOL    HW212303   5.790   6.586   1.765
 3802SOL     OW12304   1.045   1.445   1.770
 3802SOL    HW112305   0.980   1.465   1.696
 3802SOL    HW212306   1.114   1.381   1.736
 3803SOL     OW12307   4.032   3.794   3.234
 3803SOL    HW112308   4.001   3.860   3.303
 3803SOL    HW212309   4.079   3.843   3.160
 3804SOL     OW12310   4.284   1.340   4.014
 3804SOL    HW112311   4.304   1.242   4.014
 3804SOL    HW212312   4.215   1.360   4.084
 3805SOL     OW12313   1.775   2.882   1.812
 3805SOL    HW112314   1.781   2.885   1.712
 3805SOL    HW212315   1.832   2.808   1.846
 3806SOL     OW12316   3.207   3.708   5.585
 3806SOL    HW112317   3.147   3.642   5.540
 3806SOL    HW212318   3.197   3.701   5.684
 3807SOL     OW12319   2.431   5.315   3.029
 3807SOL    HW112320   2.471   5.407   3.027
 3807SOL    HW212321   2.419   5.286   3.124
 3808SOL     OW12322   4.156   0.981   0.262
 3808SOL    HW112323   4.241   0.989   0.210
 3808SOL    HW212324   4.096   0.915   0.217
 3809SOL     OW12325   5.611   3.032   1.431
 3809SOL    HW112326   5.645   3.012   1.339
 3809SOL    HW212327   5.612   3.131   1.446
 3810SOL     OW12328   5.813   2.623   3.811
 3810SOL    HW112329   5.780   2.706   3.765
 3810SOL    HW212330   5.853   2.648   3.899
 3811SOL     OW12331   0.151   6.848   4.688
 3811SOL    HW112332   0.146   6.895   4.599
 3811SOL    HW212333   0.244   6.817   4.704
 3812SOL     OW12334   3.644   4.843   5.758
 3812SOL    HW112335   3.716   4.903   5.722
 3812SOL    HW212336   3.626   4.770   5.693
 3813SOL     OW12337   5.913   3.791   0.142
 3813SOL    HW112338   5.972   3.758   0.067
 3813SOL    HW212339   5.837   3.843   0.103
 3814SOL     OW12340   6.373   0.215   5.010
 3814SOL    HW112341   6.404   0.121   5.012
 3814SOL    HW212342   6.451   0.277   5.014
 3815SOL     OW12343   3.906   2.175   0.609
 3815SOL    HW112344   3.969   2.247   0.579
 3815SOL    HW212345   3.885   2.187   0.706
 3816SOL     OW12346   1.059   4.957   6.427
 3816SOL    HW112347   1.046   5.042   6.479
 3816SOL    HW212348   0.974   4.903   6.431
 3817SOL     OW12349   5.054   3.357   2.135
 3817SOL    HW112350   5.020   3.365   2.228
 3817SOL    HW212351   5.018   3.432   2.080
 3818SOL     OW12352   6.551   1.322   0.240
 3818SOL    HW112353   6.647   1.310   0.213
 3818SOL    HW212354   6.543   1.403   0.298
 3819SOL     OW12355   5.891   5.138   2.771
 3819SOL    HW112356   5.818   5.133   2.703
 3819SOL    HW212357   5.978   5.115   2.728
 3820SOL     OW12358   5.368   6.635   4.588
 3820SOL    HW112359   5.384   6.733   4.589
 3820SOL    HW212360   5.389   6.596   4.678
 3821SOL     OW12361   1.198   0.726   1.774
 3821SOL    HW112362   1.101   0.719   1.748
 3821SOL    HW212363   1.212   0.679   1.861
 3822SOL     OW12364   1.976   6.306   0.653
 3822SOL    HW112365   1.989   6.217   0.609
 3822SOL    HW212366   1.908   6.297   0.726
 3823SOL     OW12367   3.903   3.794   6.443
 3823SOL    HW112368   3.933   3.887   6.424
 3823SOL    HW212369   3.806   3.793   6.465
 3824SOL     OW12370   0.568   2.366   0.629
 3824SOL    HW112371   0.561   2.431   0.554
 3824SOL    HW212372   0.653   2.384   0.680
 3825SOL     OW12373   0.396   4.604   6.941
 3825SOL    HW112374   0.355   4.626   6.852
 3825SOL    HW212375   0.459   4.527   6.931
 3826SOL     OW12376   0.374   3.588   0.974
 3826SOL    HW112377   0.367   3.488   0.970
 3826SOL    HW212378   0.361   3.618   1.069
 3827SOL     OW12379   1.077   0.867   1.436
 3827SOL    HW112380   1.046   0.911   1.351
 3827SOL    HW212381   1.007   0.880   1.507
 3828SOL     OW12382   3.354   3.600   3.692
 3828SOL    HW112383   3.389   3.507   3.699
 3828SOL    HW212384   3.412   3.661   3.747
 3829SOL     OW12385   0.565   4.158   2.320
 3829SOL    HW112386   0.661   4.133   2.306
 3829SOL    HW212387   0.546   4.245   2.274
 3830SOL     OW12388   0.985   1.196   5.368
 3830SOL    HW112389   1.042   1.119   5.340
 3830SOL    HW212390   0.981   1.200   5.468
 3831SOL     OW12391   4.475   1.869   2.488
 3831SOL    HW112392   4.399   1.805   2.486
 3831SOL    HW212393   4.457   1.945   2.425
 3832SOL     OW12394   6.785   0.766   3.028
 3832SOL    HW112395   6.714   0.734   2.966
 3832SOL    HW212396   6.858   0.698   3.034
 3833SOL     OW12397   0.457   6.112   6.544
 3833SOL    HW112398   0.443   6.135   6.447
 3833SOL    HW212399   0.423   6.019   6.561
 3834SOL     OW12400   3.600   4.215   0.759
 3834SOL    HW112401   3.613   4.298   0.704
 3834SOL    HW212402   3.590   4.136   0.699
 3835SOL     OW12403   4.100   6.009   4.502
 3835SOL    HW112404   4.145   5.934   4.551
 3835SOL    HW212405   4.135   6.013   4.409
 3836SOL     OW12406   6.917   5.029   5.923
 3836SOL    HW112407   6.860   5.071   5.993
 3836SOL    HW212408   6.963   5.100   5.870
 3837SOL     OW12409   4.800   4.431   6.133
 3837SOL    HW112410   4.816   4.430   6.231
 3837SOL    HW212411   4.736   4.358   6.108
 3838SOL     OW12412   0.610   2.921   3.896
 3838SOL    HW112413   0.706   2.904   3.874
 3838SOL    HW212414   0.552   2.890   3.820
 3839SOL     OW12415   5.675   1.900   2.969
 3839SOL    HW112416   5.760   1.935   3.007
 3839SOL    HW212417   5.667   1.803   2.989
 3840SOL     OW12418   2.817   1.348   6.586
 3840SOL    HW112419   2.818   1.305   6.496
 3840SOL    HW212420   2.741   1.312   6.640
 3841SOL     OW12421   0.193   3.246   4.572
 3841SOL    HW112422   0.245   3.305   4.510
 3841SOL    HW212423   0.199   3.151   4.541
 3842SOL     OW12424   1.561   2.290   2.244
 3842SOL    HW112425   1.556   2.209   2.186
 3842SOL    HW212426   1.553   2.372   2.188
 3843SOL     OW12427   5.553   3.916   2.667
 3843SOL    HW112428   5.548   3.973   2.748
 3843SOL    HW212429   5.591   3.969   2.591
 3844SOL     OW12430   0.971   2.692   4.950
 3844SOL    HW112431   1.015   2.657   4.868
 3844SOL    HW212432   1.040   2.728   5.013
 3845SOL     OW12433   3.294   4.442   5.830
 3845SOL    HW112434   3.349   4.365   5.800
 3845SOL    HW212435   3.354   4.516   5.861
 3846SOL     OW12436   0.330   4.692   3.363
 3846SOL    HW112437   0.256   4.658   3.304
 3846SOL    HW212438   0.407   4.629   3.358
 3847SOL     OW12439   5.031   3.105   4.604
 3847SOL    HW112440   5.021   3.173   4.677
 3847SOL    HW212441   5.128   3.085   4.591
 3848SOL     OW12442   4.588   4.551   2.673
 3848SOL    HW112443   4.513   4.593   2.623
 3848SOL    HW212444   4.551   4.495   2.748
 3849SOL     OW12445   1.060   1.773   5.834
 3849SOL    HW112446   0.980   1.755   5.777
 3849SOL    HW212447   1.121   1.694   5.833
 3850SOL     OW12448   2.614   3.509   1.695
 3850SOL    HW112449   2.558   3.483   1.773
 3850SOL    HW212450   2.710   3.514   1.722
 3851SOL     OW12451   1.037   3.963   3.062
 3851SOL    HW112452   0.964   4.019   3.103
 3851SOL    HW212453   1.112   3.954   3.128
 3852SOL     OW12454   4.058   6.478   3.995
 3852SOL    HW112455   4.024   6.449   4.084
 3852SOL    HW212456   3.993   6.452   3.924
 3853SOL     OW12457   0.854   4.583   3.702
 3853SOL    HW112458   0.758   4.562   3.722
 3853SOL    HW212459   0.887   4.651   3.767
 3854SOL     OW12460   1.170   2.249   2.790
 3854SOL    HW112461   1.082   2.296   2.787
 3854SOL    HW212462   1.240   2.311   2.826
 3855SOL     OW12463   4.800   6.466   6.513
 3855SOL    HW112464   4.753   6.536   6.459
 3855SOL    HW212465   4.879   6.507   6.559
 3856SOL     OW12466   6.879   0.608   6.102
 3856SOL    HW112467   6.891   0.672   6.026
 3856SOL    HW212468   6.835   0.525   6.068
 3857SOL     OW12469   1.038   6.347   6.478
 3857SOL    HW112470   1.120   6.368   6.424
 3857SOL    HW212471   1.062   6.344   6.575
 3858SOL     OW12472   2.501   0.814   5.736
 3858SOL    HW112473   2.600   0.804   5.738
 3858SOL    HW212474   2.476   0.902   5.778
 3859SOL     OW12475   5.390   1.304   1.469
 3859SOL    HW112476   5.318   1.273   1.407
 3859SOL    HW212477   5.362   1.285   1.564
 3860SOL     OW12478   2.174   1.398   3.699
 3860SOL    HW112479   2.139   1.491   3.694
 3860SOL    HW212480   2.112   1.341   3.753
 3861SOL     OW12481   4.473   5.195   3.274
 3861SOL    HW112482   4.458   5.269   3.208
 3861SOL    HW212483   4.538   5.226   3.343
 3862SOL     OW12484   0.263   0.425   4.979
 3862SOL    HW112485   0.239   0.408   5.074
 3862SOL    HW212486   0.270   0.524   4.964
 3863SOL     OW12487   5.909   2.413   6.964
 3863SOL    HW112488   5.813   2.386   6.970
 3863SOL    HW212489   5.939   2.449   0.023
 3864SOL     OW12490   2.101   0.636   5.938
 3864SOL    HW112491   2.011   0.679   5.952
 3864SOL    HW212492   2.102   0.589   5.850
 3865SOL     OW12493   4.028   0.830   0.777
 3865SOL    HW112494   3.982   0.822   0.866
 3865SOL    HW212495   3.964   0.864   0.709
 3866SOL     OW12496   4.047   0.067   0.537
 3866SOL    HW112497   3.975   0.122   0.496
 3866SOL    HW212498   4.118   0.127   0.575
 3867SOL     OW12499   1.051   5.452   4.297
 3867SOL    HW112500   0.978   5.510   4.335
 3867SOL    HW212501   1.138   5.477   4.338
 3868SOL     OW12502   2.741   6.249   0.286
 3868SOL    HW112503   2.808   6.323   0.294
 3868SOL    HW212504   2.785   6.169   0.246
 3869SOL     OW12505   6.359   3.834   4.218
 3869SOL    HW112506   6.438   3.835   4.157
 3869SOL    HW212507   6.337   3.928   4.246
 3870SOL     OW12508   5.958   6.597   6.902
 3870SOL    HW112509   5.875   6.543   6.919
 3870SOL    HW212510   5.937   6.670   6.838
 3871SOL     OW12511   3.887   0.963   3.292
 3871SOL    HW112512   3.905   1.012   3.377
 3871SOL    HW212513   3.812   0.897   3.306
 3872SOL     OW12514   3.828   2.987   3.993
 3872SOL    HW112515   3.858   2.970   4.087
 3872SOL    HW212516   3.729   2.985   3.989
 3873SOL     OW12517   6.703   2.889   0.787
 3873SOL    HW112518   6.798   2.920   0.782
 3873SOL    HW212519   6.663   2.889   0.696
 3874SOL     OW12520   4.610   6.107   6.800
 3874SOL    HW112521   4.662   6.145   6.877
 3874SOL    HW212522   4.635   6.011   6.787
 3875SOL     OW12523   2.153   3.050   2.468
 3875SOL    HW112524   2.206   3.129   2.499
 3875SOL    HW212525   2.161   3.041   2.369
 3876SOL     OW12526   4.138   5.937   1.223
 3876SOL    HW112527   4.143   5.838   1.241
 3876SOL    HW212528   4.159   5.987   1.306
 3877SOL     OW12529   5.672   2.888   0.614
 3877SOL    HW112530   5.580   2.926   0.616
 3877SOL    HW212531   5.676   2.817   0.544
 3878SOL     OW12532   3.365   0.195   4.872
 3878SOL    HW112533   3.274   0.189   4.832
 3878SOL    HW212534   3.433   0.156   4.809
 3879SOL     OW12535   5.776   5.292   1.243
 3879SOL    HW112536   5.810   5.321   1.153
 3879SOL    HW212537   5.696   5.233   1.231
 3880SOL     OW12538   5.729   4.772   4.534
 3880SOL    HW112539   5.795   4.706   4.572
 3880SOL    HW212540   5.650   4.779   4.595
 3881SOL     OW12541   1.366   3.427   1.524
 3881SOL    HW112542   1.270   3.445   1.502
 3881SOL    HW212543   1.373   3.341   1.575
 3882SOL     OW12544   1.553   1.078   5.576
 3882SOL    HW112545   1.551   1.177   5.563
 3882SOL    HW212546   1.519   1.057   5.668
 3883SOL     OW12547   4.351   1.041   3.306
 3883SOL    HW112548   4.291   1.120   3.300
 3883SOL    HW212549   4.300   0.963   3.342
 3884SOL     OW12550   0.209   5.789   2.860
 3884SOL    HW112551   0.267   5.772   2.780
 3884SOL    HW212552   0.245   5.741   2.939
 3885SOL     OW12553   6.476   6.869   2.739
 3885SOL    HW112554   6.407   6.938   2.761
 3885SOL    HW212555   6.521   6.892   2.653
 3886SOL     OW12556   5.914   5.824   4.580
 3886SOL    HW112557   5.915   5.800   4.483
 3886SOL    HW212558   5.830   5.875   4.601
 3887SOL     OW12559   0.580   0.570   6.788
 3887SOL    HW112560   0.668   0.526   6.806
 3887SOL    HW212561   0.586   0.666   6.815
 3888SOL     OW12562   6.504   0.717   4.988
 3888SOL    HW112563   6.415   0.736   4.947
 3888SOL    HW212564   6.573   0.774   4.944
 3889SOL     OW12565   0.376   3.674   0.201
 3889SOL    HW112566   0.427   3.705   0.281
 3889SOL    HW212567   0.439   3.629   0.136
 3890SOL     OW12568   5.552   5.522   2.979
 3890SOL    HW112569   5.543   5.614   3.018
 3890SOL    HW212570   5.621   5.524   2.906
 3891SOL     OW12571   5.880   4.591   4.645
 3891SOL    HW112572   5.852   4.496   4.662
 3891SOL    HW212573   5.872   4.643   4.730
 3892SOL     OW12574   0.025   2.186   1.755
 3892SOL    HW112575   0.112   2.163   1.710
 3892SOL    HW212576   0.027   2.282   1.783
 3893SOL     OW12577   4.534   4.371   0.880
 3893SOL    HW112578   4.545   4.449   0.941
 3893SOL    HW212579   4.617   4.361   0.825
 3894SOL     OW12580   3.591   1.611   1.228
 3894SOL    HW112581   3.568   1.515   1.212
 3894SOL    HW212582   3.590   1.630   1.326
 3895SOL     OW12583   1.487   0.706   5.327
 3895SOL    HW112584   1.487   0.637   5.400
 3895SOL    HW212585   1.440   0.669   5.247
 3896SOL     OW12586   0.107   0.643   6.440
 3896SOL    HW112587   0.022   0.690   6.414
 3896SOL    HW212588   0.144   0.685   6.523
 3897SOL     OW12589   3.400   5.166   2.900
 3897SOL    HW112590   3.465   5.167   2.976
 3897SOL    HW212591   3.333   5.239   2.913
 3898SOL     OW12592   3.419   3.575   5.056
 3898SOL    HW112593   3.369   3.490   5.041
 3898SOL    HW212594   3.497   3.559   5.116
 3899SOL     OW12595   5.700   0.076   4.782
 3899SOL    HW112596   5.790   0.119   4.786
 3899SOL    HW212597   5.683   0.026   4.867
 3900SOL     OW12598   4.852   3.323   3.768
 3900SOL    HW112599   4.796   3.398   3.734
 3900SOL    HW212600   4.914   3.291   3.695
 3901SOL     OW12601   2.887   0.303   6.143
 3901SOL    HW112602   2.884   0.231   6.075
 3901SOL    HW212603   2.908   0.390   6.099
 3902SOL     OW12604   5.431   3.781   2.176
 3902SOL    HW112605   5.523   3.806   2.209
 3902SOL    HW212606   5.409   3.837   2.095
 3903SOL     OW12607   3.929   6.083   0.046
 3903SOL    HW112608   4.009   6.023   0.049
 3903SOL    HW212609   3.886   6.078   6.985
 3904SOL     OW12610   2.338   0.706   5.023
 3904SOL    HW112611   2.266   0.774   5.035
 3904SOL    HW212612   2.424   0.751   5.000
 3905SOL     OW12613   6.947   0.157   6.111
 3905SOL    HW112614   6.896   0.135   6.027
 3905SOL    HW212615   6.892   0.217   6.168
 3906SOL     OW12616   3.773   5.122   5.420
 3906SOL    HW112617   3.742   5.029   5.399
 3906SOL    HW212618   3.708   5.188   5.382
 3907SOL     OW12619   5.293   0.265   4.977
 3907SOL    HW112620   5.217   0.324   4.950
 3907SOL    HW212621   5.369   0.278   4.914
 3908SOL     OW12622   0.908   1.303   0.513
 3908SOL    HW112623   0.982   1.272   0.452
 3908SOL    HW212624   0.868   1.387   0.476
 3909SOL     OW12625   0.228   5.277   5.295
 3909SOL    HW112626   0.225   5.311   5.201
 3909SOL    HW212627   0.290   5.334   5.350
 3910SOL     OW12628   3.421   3.843   1.949
 3910SOL    HW112629   3.373   3.927   1.974
 3910SOL    HW212630   3.356   3.767   1.947
 3911SOL     OW12631   4.394   1.364   0.152
 3911SOL    HW112632   4.471   1.318   0.108
 3911SOL    HW212633   4.394   1.461   0.127
 3912SOL     OW12634   3.844   0.292   6.214
 3912SOL    HW112635   3.821   0.204   6.257
 3912SOL    HW212636   3.760   0.344   6.200
 3913SOL     OW12637   2.524   6.066   5.983
 3913SOL    HW112638   2.435   6.037   5.950
 3913SOL    HW212639   2.581   5.987   6.001
 3914SOL     OW12640   4.129   1.188   1.228
 3914SOL    HW112641   4.163   1.158   1.139
 3914SOL    HW212642   4.200   1.239   1.276
 3915SOL     OW12643   3.621   6.266   2.186
 3915SOL    HW112644   3.681   6.342   2.211
 3915SOL    HW212645   3.539   6.267   2.243
 3916SOL     OW12646   1.587   6.150   3.733
 3916SOL    HW112647   1.592   6.141   3.633
 3916SOL    HW212648   1.546   6.238   3.756
 3917SOL     OW12649   1.102   4.831   6.754
 3917SOL    HW112650   1.189   4.860   6.714
 3917SOL    HW212651   1.120   4.780   6.838
 3918SOL     OW12652   4.933   0.287   2.495
 3918SOL    HW112653   4.900   0.363   2.551
 3918SOL    HW212654   4.859   0.221   2.481
 3919SOL     OW12655   2.588   5.868   6.882
 3919SOL    HW112656   2.533   5.937   6.834
 3919SOL    HW212657   2.677   5.907   6.904
 3920SOL     OW12658   2.417   2.794   6.515
 3920SOL    HW112659   2.459   2.770   6.428
 3920SOL    HW212660   2.478   2.856   6.565
 3921SOL     OW12661   6.945   2.957   0.743
 3921SOL    HW112662   0.014   2.972   0.746
 3921SOL    HW212663   6.900   3.038   0.704
 3922SOL     OW12664   6.030   4.542   0.934
 3922SOL    HW112665   6.119   4.560   0.892
 3922SOL    HW212666   6.035   4.461   0.991
 3923SOL     OW12667   6.703   1.987   6.881
 3923SOL    HW112668   6.662   2.079   6.875
 3923SOL    HW212669   6.747   1.976   6.969
 3924SOL     OW12670   0.176   5.616   3.371
 3924SOL    HW112671   0.170   5.612   3.271
 3924SOL    HW212672   0.265   5.653   3.398
 3925SOL     OW12673   3.849   4.581   1.247
 3925SOL    HW112674   3.807   4.490   1.250
 3925SOL    HW212675   3.803   4.637   1.178
 3926SOL     OW12676   6.697   5.592   2.766
 3926SOL    HW112677   6.763   5.661   2.794
 3926SOL    HW212678   6.644   5.625   2.688
 3927SOL     OW12679   6.916   3.893   3.578
 3927SOL    HW112680   6.983   3.824   3.606
 3927SOL    HW212681   6.837   3.889   3.638
 3928SOL     OW12682   2.332   5.404   5.508
 3928SOL    HW112683   2.365   5.314   5.537
 3928SOL    HW212684   2.404   5.451   5.457
 3929SOL     OW12685   0.516   1.698   5.418
 3929SOL    HW112686   0.503   1.686   5.516
 3929SOL    HW212687   0.610   1.672   5.394
 3930SOL     OW12688   1.954   1.563   4.114
 3930SOL    HW112689   1.962   1.598   4.020
 3930SOL    HW212690   2.020   1.611   4.172
 3931SOL     OW12691   1.336   2.035   2.785
 3931SOL    HW112692   1.264   2.103   2.772
 3931SOL    HW212693   1.388   2.056   2.868
 3932SOL     OW12694   1.848   3.845   2.630
 3932SOL    HW112695   1.833   3.786   2.709
 3932SOL    HW212696   1.829   3.940   2.655
 3933SOL     OW12697   2.286   0.007   6.792
 3933SOL    HW112698   2.262   0.008   6.889
 3933SOL    HW212699   2.383   0.031   6.781
 3934SOL     OW12700   0.115   0.902   1.086
 3934SOL    HW112701   0.108   0.886   1.185
 3934SOL    HW212702   0.052   0.841   1.038
 3935SOL     OW12703   2.121   6.827   6.671
 3935SOL    HW112704   2.045   6.876   6.629
 3935SOL    HW212705   2.194   6.891   6.693
 3936SOL     OW12706   0.291   4.975   5.292
 3936SOL    HW112707   0.359   4.915   5.249
 3936SOL    HW212708   0.275   5.054   5.233
 3937SOL     OW12709   0.013   0.480   2.306
 3937SOL    HW112710   6.942   0.484   2.299
 3937SOL    HW212711   0.040   0.493   2.401
 3938SOL     OW12712   6.787   2.352   3.579
 3938SOL    HW112713   6.744   2.390   3.661
 3938SOL    HW212714   6.886   2.353   3.590
 3939SOL     OW12715   3.153   1.707   2.031
 3939SOL    HW112716   3.084   1.756   1.977
 3939SOL    HW212717   3.230   1.768   2.049
 3940SOL     OW12718   4.501   5.443   2.125
 3940SOL    HW112719   4.470   5.365   2.070
 3940SOL    HW212720   4.422   5.486   2.168
 3941SOL     OW12721   5.045   1.267   6.271
 3941SOL    HW112722   5.134   1.231   6.299
 3941SOL    HW212723   4.982   1.267   6.349
 3942SOL     OW12724   0.012   0.387   5.862
 3942SOL    HW112725   0.078   0.396   5.937
 3942SOL    HW212726   7.019   0.290   5.850
 3943SOL     OW12727   0.900   3.703   2.681
 3943SOL    HW112728   0.946   3.635   2.738
 3943SOL    HW212729   0.964   3.741   2.615
 3944SOL     OW12730   5.865   3.873   5.425
 3944SOL    HW112731   5.902   3.788   5.388
 3944SOL    HW212732   5.769   3.881   5.400
 3945SOL     OW12733   0.716   2.135   1.994
 3945SOL    HW112734   0.691   2.076   1.917
 3945SOL    HW212735   0.717   2.081   2.078
 3946SOL     OW12736   6.239   4.897   5.933
 3946SOL    HW112737   6.165   4.840   5.898
 3946SOL    HW212738   6.239   4.985   5.885
 3947SOL     OW12739   6.083   5.122   1.588
 3947SOL    HW112740   6.128   5.144   1.502
 3947SOL    HW212741   6.109   5.030   1.618
 3948SOL     OW12742   0.601   5.110   1.737
 3948SOL    HW112743   0.589   5.066   1.826
 3948SOL    HW212744   0.695   5.096   1.705
 3949SOL     OW12745   5.757   0.686   3.064
 3949SOL    HW112746   5.842   0.708   3.016
 3949SOL    HW212747   5.685   0.668   2.997
 3950SOL     OW12748   2.910   4.038   1.695
 3950SOL    HW112749   2.940   4.133   1.702
 3950SOL    HW212750   2.877   4.020   1.603
 3951SOL     OW12751   0.489   0.136   0.646
 3951SOL    HW112752   0.444   0.190   0.717
 3951SOL    HW212753   0.561   0.080   0.687
 3952SOL     OW12754   6.838   4.118   3.847
 3952SOL    HW112755   6.829   4.060   3.928
 3952SOL    HW212756   6.766   4.094   3.782
 3953SOL     OW12757   3.666   4.697   1.076
 3953SOL    HW112758   3.582   4.648   1.100
 3953SOL    HW212759   3.669   4.710   0.977
 3954SOL     OW12760   5.537   5.450   5.238
 3954SOL    HW112761   5.561   5.401   5.155
 3954SOL    HW212762   5.601   5.525   5.253
 3955SOL     OW12763   3.775   6.467   6.119
 3955SOL    HW112764   3.761   6.539   6.187
 3955SOL    HW212765   3.770   6.377   6.163
 3956SOL     OW12766   0.398   1.302   2.752
 3956SOL    HW112767   0.458   1.382   2.746
 3956SOL    HW212768   0.452   1.223   2.783
 3957SOL     OW12769   5.088   6.642   3.701
 3957SOL    HW112770   5.013   6.651   3.636
 3957SOL    HW212771   5.087   6.550   3.741
 3958SOL     OW12772   5.580   0.364   6.129
 3958SOL    HW112773   5.487   0.400   6.134
 3958SOL    HW212774   5.640   0.418   6.189
 3959SOL     OW12775   3.944   6.600   1.243
 3959SOL    HW112776   3.959   6.687   1.196
 3959SOL    HW212777   4.022   6.539   1.228
 3960SOL     OW12778   4.567   1.465   6.758
 3960SOL    HW112779   4.649   1.498   6.806
 3960SOL    HW212780   4.545   1.527   6.683
 3961SOL     OW12781   5.420   2.540   1.882
 3961SOL    HW112782   5.472   2.508   1.803
 3961SOL    HW212783   5.330   2.572   1.852
 3962SOL     OW12784   1.958   4.651   0.087
 3962SOL    HW112785   1.997   4.647   7.025
 3962SOL    HW212786   2.030   4.640   0.155
 3963SOL     OW12787   4.705   4.404   4.230
 3963SOL    HW112788   4.729   4.501   4.228
 3963SOL    HW212789   4.783   4.350   4.263
 3964SOL     OW12790   4.456   4.964   3.807
 3964SOL    HW112791   4.495   4.906   3.878
 3964SOL    HW212792   4.528   5.020   3.766
 3965SOL     OW12793   4.261   2.901   6.111
 3965SOL    HW112794   4.204   2.968   6.158
 3965SOL    HW212795   4.253   2.913   6.013
 3966SOL     OW12796   5.512   5.726   0.522
 3966SOL    HW112797   5.475   5.788   0.591
 3966SOL    HW212798   5.535   5.638   0.565
 3967SOL     OW12799   1.306   4.313   2.573
 3967SOL    HW112800   1.311   4.304   2.672
 3967SOL    HW212801   1.324   4.408   2.547
 3968SOL     OW12802   6.036   0.141   1.051
 3968SOL    HW112803   6.079   0.070   1.106
 3968SOL    HW212804   6.103   0.181   0.988
 3969SOL     OW12805   1.627   3.640   2.534
 3969SOL    HW112806   1.705   3.694   2.566
 3969SOL    HW212807   1.555   3.639   2.603
 3970SOL     OW12808   5.813   5.361   3.924
 3970SOL    HW112809   5.774   5.438   3.875
 3970SOL    HW212810   5.752   5.335   3.999
 3971SOL     OW12811   2.594   5.206   1.728
 3971SOL    HW112812   2.539   5.153   1.792
 3971SOL    HW212813   2.638   5.145   1.662
 3972SOL     OW12814   1.333   5.525   0.789
 3972SOL    HW112815   1.325   5.619   0.755
 3972SOL    HW212816   1.418   5.485   0.755
 3973SOL     OW12817   1.088   4.316   5.760
 3973SOL    HW112818   1.122   4.325   5.854
 3973SOL    HW212819   1.151   4.363   5.698
 3974SOL     OW12820   1.112   0.642   4.723
 3974SOL    HW112821   1.050   0.646   4.801
 3974SOL    HW212822   1.059   0.631   4.639
 3975SOL     OW12823   5.172   0.130   6.113
 3975SOL    HW112824   5.156   0.211   6.056
 3975SOL    HW212825   5.116   0.054   6.080
 3976SOL     OW12826   1.404   5.392   1.310
 3976SOL    HW112827   1.471   5.346   1.252
 3976SOL    HW212828   1.441   5.480   1.341
 3977SOL     OW12829   2.923   4.168   5.870
 3977SOL    HW112830   2.977   4.084   5.869
 3977SOL    HW212831   2.949   4.225   5.948
 3978SOL     OW12832   5.380   6.687   4.877
 3978SOL    HW112833   5.459   6.634   4.907
 3978SOL    HW212834   5.303   6.626   4.859
 3979SOL     OW12835   2.945   5.947   1.839
 3979SOL    HW112836   2.904   5.971   1.751
 3979SOL    HW212837   2.883   5.973   1.912
 3980SOL     OW12838   0.171   5.852   6.205
 3980SOL    HW112839   0.092   5.794   6.221
 3980SOL    HW212840   0.164   5.934   6.261
 3981SOL     OW12841   1.875   1.904   6.498
 3981SOL    HW112842   1.966   1.870   6.520
 3981SOL    HW212843   1.875   2.004   6.502
 3982SOL     OW12844   2.358   0.292   4.213
 3982SOL    HW112845   2.382   0.388   4.200
 3982SOL    HW212846   2.349   0.247   4.124
 3983SOL     OW12847   4.594   5.234   4.212
 3983SOL    HW112848   4.541   5.177   4.149
 3983SOL    HW212849   4.663   5.177   4.258
 3984SOL     OW12850   0.917   0.674   2.990
 3984SOL    HW112851   0.826   0.681   3.032
 3984SOL    HW212852   0.908   0.651   2.893
 3985SOL     OW12853   3.800   4.791   6.309
 3985SOL    HW112854   3.888   4.837   6.292
 3985SOL    HW212855   3.747   4.844   6.375
 3986SOL     OW12856   6.523   2.164   2.484
 3986SOL    HW112857   6.502   2.163   2.582
 3986SOL    HW212858   6.596   2.098   2.464
 3987SOL     OW12859   2.928   5.259   4.274
 3987SOL    HW112860   2.970   5.245   4.363
 3987SOL    HW212861   2.999   5.273   4.205
 3988SOL     OW12862   3.932   3.718   6.725
 3988SOL    HW112863   3.936   3.735   6.626
 3988SOL    HW212864   3.984   3.789   6.773
 3989SOL     OW12865   6.811   1.671   0.101
 3989SOL    HW112866   6.711   1.669   0.100
 3989SOL    HW212867   6.846   1.616   0.025
 3990SOL     OW12868   5.728   2.298   2.913
 3990SOL    HW112869   5.739   2.261   2.820
 3990SOL    HW212870   5.770   2.389   2.917
 3991SOL     OW12871   5.839   1.686   1.944
 3991SOL    HW112872   5.828   1.780   1.976
 3991SOL    HW212873   5.766   1.629   1.981
 3992SOL     OW12874   3.511   2.200   0.130
 3992SOL    HW112875   3.438   2.133   0.139
 3992SOL    HW212876   3.482   2.273   0.067
 3993SOL     OW12877   0.292   2.625   3.302
 3993SOL    HW112878   0.385   2.605   3.269
 3993SOL    HW212879   0.225   2.591   3.236
 3994SOL     OW12880   0.747   1.373   6.300
 3994SOL    HW112881   0.672   1.398   6.237
 3994SOL    HW212882   0.753   1.442   6.373
 3995SOL     OW12883   1.677   4.180   4.511
 3995SOL    HW112884   1.694   4.144   4.420
 3995SOL    HW212885   1.625   4.266   4.505
 3996SOL     OW12886   0.964   1.165   4.469
 3996SOL    HW112887   0.986   1.069   4.451
 3996SOL    HW212888   1.040   1.223   4.440
 3997SOL     OW12889   5.334   2.110   3.460
 3997SOL    HW112890   5.235   2.119   3.445
 3997SOL    HW212891   5.380   2.100   3.372
 3998SOL     OW12892   3.733   1.080   2.609
 3998SOL    HW112893   3.711   1.099   2.514
 3998SOL    HW212894   3.711   1.159   2.666
 3999SOL     OW12895   5.411   3.157   3.983
 3999SOL    HW112896   5.422   3.059   3.965
 3999SOL    HW212897   5.452   3.209   3.908
 4000SOL     OW12898   2.952   5.373   3.049
 4000SOL    HW112899   2.900   5.300   3.094
 4000SOL    HW212900   2.907   5.460   3.065
 4001SOL     OW12901   2.284   1.805   4.161
 4001SOL    HW112902   2.378   1.775   4.176
 4001SOL    HW212903   2.284   1.889   4.107
 4002SOL     OW12904   2.837   2.703   0.415
 4002SOL    HW112905   2.912   2.638   0.420
 4002SOL    HW212906   2.854   2.780   0.476
 4003SOL     OW12907   2.927   5.957   4.794
 4003SOL    HW112908   2.952   6.019   4.720
 4003SOL    HW212909   2.846   5.992   4.841
 4004SOL     OW12910   5.757   2.184   3.952
 4004SOL    HW112911   5.720   2.112   3.893
 4004SOL    HW212912   5.704   2.268   3.941
 4005SOL     OW12913   5.452   5.848   0.973
 4005SOL    HW112914   5.366   5.801   0.954
 4005SOL    HW212915   5.528   5.799   0.929
 4006SOL     OW12916   3.760   5.210   2.923
 4006SOL    HW112917   3.839   5.179   2.871
 4006SOL    HW212918   3.761   5.168   3.014
 4007SOL     OW12919   0.933   2.939   1.798
 4007SOL    HW112920   0.918   2.883   1.880
 4007SOL    HW212921   0.867   2.913   1.728
 4008SOL     OW12922   3.364   2.065   4.251
 4008SOL    HW112923   3.332   2.101   4.339
 4008SOL    HW212924   3.348   1.966   4.248
 4009SOL     OW12925   4.977   3.262   0.137
 4009SOL    HW112926   4.934   3.259   0.047
 4009SOL    HW212927   4.970   3.355   0.174
 4010SOL     OW12928   2.141   2.995   1.770
 4010SOL    HW112929   2.096   2.995   1.681
 4010SOL    HW212930   2.208   3.069   1.774
 4011SOL     OW12931   0.445   0.730   1.761
 4011SOL    HW112932   0.423   0.756   1.855
 4011SOL    HW212933   0.531   0.680   1.760
 4012SOL     OW12934   4.151   5.580   1.576
 4012SOL    HW112935   4.232   5.559   1.630
 4012SOL    HW212936   4.085   5.505   1.584
 4013SOL     OW12937   3.241   6.747   0.169
 4013SOL    HW112938   3.333   6.782   0.153
 4013SOL    HW212939   3.212   6.772   0.262
 4014SOL     OW12940   3.791   6.132   3.221
 4014SOL    HW112941   3.857   6.066   3.184
 4014SOL    HW212942   3.757   6.099   3.309
 4015SOL     OW12943   4.531   5.470   6.376
 4015SOL    HW112944   4.567   5.409   6.446
 4015SOL    HW212945   4.604   5.529   6.343
 4016SOL     OW12946   2.096   5.947   6.777
 4016SOL    HW112947   2.027   5.877   6.758
 4016SOL    HW212948   2.137   5.929   6.867
 4017SOL     OW12949   0.428   6.404   0.909
 4017SOL    HW112950   0.512   6.350   0.917
 4017SOL    HW212951   0.412   6.426   0.813
 4018SOL     OW12952   5.013   6.385   3.096
 4018SOL    HW112953   4.969   6.310   3.046
 4018SOL    HW212954   5.038   6.458   3.033
 4019SOL     OW12955   5.598   3.556   2.694
 4019SOL    HW112956   5.518   3.577   2.749
 4019SOL    HW212957   5.571   3.543   2.599
 4020SOL     OW12958   5.425   2.361   5.961
 4020SOL    HW112959   5.399   2.457   5.948
 4020SOL    HW212960   5.449   2.321   5.872
 4021SOL     OW12961   3.138   2.995   5.911
 4021SOL    HW112962   3.097   2.922   5.856
 4021SOL    HW212963   3.215   2.958   5.964
 4022SOL     OW12964   4.119   0.476   0.366
 4022SOL    HW112965   4.076   0.451   0.453
 4022SOL    HW212966   4.191   0.410   0.345
 4023SOL     OW12967   6.379   1.712   5.402
 4023SOL    HW112968   6.305   1.693   5.338
 4023SOL    HW212969   6.365   1.660   5.486
 4024SOL     OW12970   3.298   5.603   4.225
 4024SOL    HW112971   3.323   5.582   4.320
 4024SOL    HW212972   3.367   5.663   4.184
 4025SOL     OW12973   1.029   6.515   4.467
 4025SOL    HW112974   1.009   6.442   4.401
 4025SOL    HW212975   1.100   6.483   4.530
 4026SOL     OW12976   6.346   5.859   4.041
 4026SOL    HW112977   6.304   5.946   4.017
 4026SOL    HW212978   6.374   5.861   4.137
 4027SOL     OW12979   3.573   4.109   2.188
 4027SOL    HW112980   3.623   4.113   2.102
 4027SOL    HW212981   3.478   4.135   2.172
 4028SOL     OW12982   1.491   2.167   4.123
 4028SOL    HW112983   1.527   2.081   4.159
 4028SOL    HW212984   1.465   2.226   4.200
 4029SOL     OW12985   2.270   4.102   6.889
 4029SOL    HW112986   2.266   4.144   6.799
 4029SOL    HW212987   2.209   4.151   6.952
 4030SOL     OW12988   1.552   1.951   6.091
 4030SOL    HW112989   1.472   1.990   6.137
 4030SOL    HW212990   1.541   1.852   6.084
 4031SOL     OW12991   4.629   5.939   2.902
 4031SOL    HW112992   4.609   5.885   2.820
 4031SOL    HW212993   4.618   5.882   2.983
 4032SOL     OW12994   6.078   0.442   2.825
 4032SOL    HW112995   6.020   0.372   2.867
 4032SOL    HW212996   6.063   0.443   2.726
 4033SOL     OW12997   2.894   3.450   3.167
 4033SOL    HW112998   2.902   3.412   3.075
 4033SOL    HW212999   2.973   3.422   3.222
 4034SOL     OW13000   5.965   1.762   5.030
 4034SOL    HW113001   5.909   1.808   5.098
 4034SOL    HW213002   5.946   1.664   5.031
 4035SOL     OW13003   6.630   3.119   0.919
 4035SOL    HW113004   6.639   3.025   0.888
 4035SOL    HW213005   6.575   3.122   1.003
 4036SOL     OW13006   5.635   6.969   2.732
 4036SOL    HW113007   5.667   6.956   2.826
 4036SOL    HW213008   5.713   6.976   2.670
 4037SOL     OW13009   1.756   1.713   0.913
 4037SOL    HW113010   1.706   1.663   0.983
 4037SOL    HW213011   1.717   1.694   0.823
 4038SOL     OW13012   4.954   4.749   1.938
 4038SOL    HW113013   4.988   4.748   1.844
 4038SOL    HW213014   4.854   4.744   1.938
 4039SOL     OW13015   5.088   5.389   1.245
 4039SOL    HW113016   5.009   5.450   1.240
 4039SOL    HW213017   5.063   5.305   1.294
 4040SOL     OW13018   3.000   6.794   6.911
 4040SOL    HW113019   3.099   6.776   6.911
 4040SOL    HW213020   2.951   6.712   6.940
 4041SOL     OW13021   1.835   5.848   1.780
 4041SOL    HW113022   1.788   5.760   1.781
 4041SOL    HW213023   1.812   5.899   1.863
 4042SOL     OW13024   6.342   4.225   2.959
 4042SOL    HW113025   6.404   4.167   2.906
 4042SOL    HW213026   6.388   4.311   2.981
 4043SOL     OW13027   5.282   2.425   4.570
 4043SOL    HW113028   5.241   2.467   4.489
 4043SOL    HW213029   5.248   2.331   4.580
 4044SOL     OW13030   4.832   0.601   4.276
 4044SOL    HW113031   4.849   0.666   4.350
 4044SOL    HW213032   4.899   0.616   4.203
 4045SOL     OW13033   2.963   4.614   6.451
 4045SOL    HW113034   2.923   4.536   6.500
 4045SOL    HW213035   2.966   4.694   6.512
 4046SOL     OW13036   0.669   1.767   3.867
 4046SOL    HW113037   0.753   1.717   3.888
 4046SOL    HW213038   0.684   1.823   3.785
 4047SOL     OW13039   2.795   2.535   0.723
 4047SOL    HW113040   2.728   2.465   0.748
 4047SOL    HW213041   2.789   2.554   0.625
 4048SOL     OW13042   5.660   1.354   1.546
 4048SOL    HW113043   5.621   1.388   1.631
 4048SOL    HW213044   5.588   1.315   1.489
 4049SOL     OW13045   5.904   6.424   6.609
 4049SOL    HW113046   5.939   6.342   6.655
 4049SOL    HW213047   5.936   6.425   6.514
 4050SOL     OW13048   1.688   6.400   0.445
 4050SOL    HW113049   1.708   6.497   0.455
 4050SOL    HW213050   1.644   6.366   0.528
 4051SOL     OW13051   3.660   3.321   0.453
 4051SOL    HW113052   3.741   3.289   0.404
 4051SOL    HW213053   3.631   3.409   0.415
 4052SOL     OW13054   1.168   0.481   1.488
 4052SOL    HW113055   1.229   0.551   1.450
 4052SOL    HW213056   1.222   0.408   1.530
 4053SOL     OW13057   3.281   5.154   4.302
 4053SOL    HW113058   3.299   5.058   4.282
 4053SOL    HW213059   3.233   5.197   4.226
 4054SOL     OW13060   1.812   2.426   1.285
 4054SOL    HW113061   1.713   2.445   1.285
 4054SOL    HW213062   1.846   2.432   1.191
 4055SOL     OW13063   3.143   3.041   5.286
 4055SOL    HW113064   3.168   3.138   5.277
 4055SOL    HW213065   3.187   2.989   5.213
 4056SOL     OW13066   4.222   3.135   6.724
 4056SOL    HW113067   4.295   3.082   6.767
 4056SOL    HW213068   4.140   3.079   6.716
 4057SOL     OW13069   4.909   2.920   0.513
 4057SOL    HW113070   4.880   2.969   0.431
 4057SOL    HW213071   4.915   2.984   0.590
 4058SOL     OW13072   1.304   1.687   4.077
 4058SOL    HW113073   1.295   1.760   4.144
 4058SOL    HW213074   1.228   1.623   4.087
 4059SOL     OW13075   1.917   2.495   2.879
 4059SOL    HW113076   1.855   2.450   2.943
 4059SOL    HW213077   1.999   2.440   2.868
 4060SOL     OW13078   4.424   4.905   5.553
 4060SOL    HW113079   4.426   4.934   5.648
 4060SOL    HW213080   4.334   4.869   5.530
 4061SOL     OW13081   3.387   4.568   1.624
 4061SOL    HW113082   3.454   4.583   1.697
 4061SOL    HW213083   3.432   4.523   1.546
 4062SOL     OW13084   3.865   1.660   3.179
 4062SOL    HW113085   3.831   1.738   3.126
 4062SOL    HW213086   3.827   1.663   3.271
 4063SOL     OW13087   4.695   6.868   5.253
 4063SOL    HW113088   4.750   6.840   5.175
 4063SOL    HW213089   4.755   6.904   5.325
 4064SOL     OW13090   2.322   6.502   2.867
 4064SOL    HW113091   2.367   6.443   2.800
 4064SOL    HW213092   2.275   6.447   2.935
 4065SOL     OW13093   1.417   6.503   0.397
 4065SOL    HW113094   1.455   6.578   0.452
 4065SOL    HW213095   1.476   6.423   0.403
 4066SOL     OW13096   5.462   4.786   2.487
 4066SOL    HW113097   5.557   4.814   2.487
 4066SOL    HW213098   5.455   4.691   2.520
 4067SOL     OW13099   5.950   2.801   2.738
 4067SOL    HW113100   6.044   2.788   2.768
 4067SOL    HW213101   5.941   2.775   2.642
 4068SOL     OW13102   4.697   0.271   4.581
 4068SOL    HW113103   4.602   0.285   4.552
 4068SOL    HW213104   4.704   0.185   4.632
 4069SOL     OW13105   4.356   3.681   6.802
 4069SOL    HW113106   4.318   3.713   6.889
 4069SOL    HW213107   4.327   3.742   6.728
 4070SOL     OW13108   1.807   3.689   2.861
 4070SOL    HW113109   1.740   3.734   2.920
 4070SOL    HW213110   1.789   3.590   2.860
 4071SOL     OW13111   1.490   1.281   5.095
 4071SOL    HW113112   1.417   1.233   5.047
 4071SOL    HW213113   1.488   1.257   5.192
 4072SOL     OW13114   1.612   6.577   4.364
 4072SOL    HW113115   1.670   6.495   4.370
 4072SOL    HW213116   1.670   6.657   4.351
 4073SOL     OW13117   2.594   5.528   6.008
 4073SOL    HW113118   2.674   5.471   6.028
 4073SOL    HW213119   2.514   5.470   5.994
 4074SOL     OW13120   1.235   2.740   2.102
 4074SOL    HW113121   1.194   2.722   2.013
 4074SOL    HW213122   1.199   2.675   2.169
 4075SOL     OW13123   4.784   2.388   2.840
 4075SOL    HW113124   4.712   2.457   2.845
 4075SOL    HW213125   4.863   2.426   2.791
 4076SOL     OW13126   2.448   3.671   5.730
 4076SOL    HW113127   2.490   3.605   5.668
 4076SOL    HW213128   2.356   3.693   5.699
 4077SOL     OW13129   2.957   6.177   0.805
 4077SOL    HW113130   3.009   6.258   0.832
 4077SOL    HW213131   2.962   6.166   0.706
 4078SOL     OW13132   6.839   5.596   1.759
 4078SOL    HW113133   6.787   5.575   1.841
 4078SOL    HW213134   6.782   5.579   1.678
 4079SOL     OW13135   1.626   0.842   3.094
 4079SOL    HW113136   1.678   0.923   3.063
 4079SOL    HW213137   1.674   0.799   3.170
 4080SOL     OW13138   2.681   2.925   6.831
 4080SOL    HW113139   2.726   2.844   6.793
 4080SOL    HW213140   2.586   2.930   6.798
 4081SOL     OW13141   1.496   1.131   4.490
 4081SOL    HW113142   1.533   1.049   4.446
 4081SOL    HW213143   1.481   1.202   4.422
 4082SOL     OW13144   1.788   1.867   6.867
 4082SOL    HW113145   1.817   1.962   6.869
 4082SOL    HW213146   1.759   1.842   6.775
 4083SOL     OW13147   5.826   3.965   3.439
 4083SOL    HW113148   5.920   3.931   3.434
 4083SOL    HW213149   5.787   3.970   3.346
 4084SOL     OW13150   4.842   2.922   2.932
 4084SOL    HW113151   4.874   3.008   2.972
 4084SOL    HW213152   4.900   2.897   2.855
 4085SOL     OW13153   2.782   4.912   1.354
 4085SOL    HW113154   2.868   4.954   1.325
 4085SOL    HW213155   2.799   4.819   1.385
 4086SOL     OW13156   0.281   4.697   0.745
 4086SOL    HW113157   0.375   4.720   0.772
 4086SOL    HW213158   0.222   4.776   0.758
 4087SOL     OW13159   2.549   1.619   2.205
 4087SOL    HW113160   2.618   1.691   2.211
 4087SOL    HW213161   2.479   1.634   2.275
 4088SOL     OW13162   6.105   1.405   5.643
 4088SOL    HW113163   6.144   1.355   5.721
 4088SOL    HW213164   6.011   1.431   5.665
 4089SOL     OW13165   0.351   5.797   4.289
 4089SOL    HW113166   0.327   5.892   4.268
 4089SOL    HW213167   0.302   5.768   4.371
 4090SOL     OW13168   1.741   5.954   5.356
 4090SOL    HW113169   1.839   5.959   5.378
 4090SOL    HW213170   1.729   5.953   5.257
 4091SOL     OW13171   1.100   4.981   0.299
 4091SOL    HW113172   1.046   4.949   0.222
 4091SOL    HW213173   1.055   5.060   0.342
 4092SOL     OW13174   4.959   2.834   4.061
 4092SOL    HW113175   5.027   2.896   4.021
 4092SOL    HW213176   4.909   2.788   3.987
 4093SOL     OW13177   5.550   6.351   1.550
 4093SOL    HW113178   5.620   6.302   1.499
 4093SOL    HW213179   5.483   6.286   1.586
 4094SOL     OW13180   0.979   4.478   6.969
 4094SOL    HW113181   0.928   4.562   6.952
 4094SOL    HW213182   0.941   4.432   0.020
 4095SOL     OW13183   0.866   3.211   0.294
 4095SOL    HW113184   0.960   3.188   0.272
 4095SOL    HW213185   0.860   3.243   0.389
 4096SOL     OW13186   2.228   0.784   6.557
 4096SOL    HW113187   2.319   0.816   6.584
 4096SOL    HW213188   2.238   0.704   6.497
 4097SOL     OW13189   5.581   4.350   5.345
 4097SOL    HW113190   5.553   4.274   5.404
 4097SOL    HW213191   5.680   4.359   5.345
 4098SOL     OW13192   2.186   2.905   1.300
 4098SOL    HW113193   2.151   2.991   1.262
 4098SOL    HW213194   2.145   2.828   1.250
 4099SOL     OW13195   3.599   5.097   0.145
 4099SOL    HW113196   3.664   5.095   0.221
 4099SOL    HW213197   3.558   5.007   0.134
 4100SOL     OW13198   1.392   0.705   3.854
 4100SOL    HW113199   1.435   0.796   3.858
 4100SOL    HW213200   1.293   0.714   3.865
 4101SOL     OW13201   0.209   1.347   6.278
 4101SOL    HW113202   0.145   1.367   6.203
 4101SOL    HW213203   0.244   1.254   6.268
 4102SOL     OW13204   2.006   1.125   0.886
 4102SOL    HW113205   2.083   1.168   0.932
 4102SOL    HW213206   1.925   1.183   0.896
 4103SOL     OW13207   0.219   6.981   2.069
 4103SOL    HW113208   0.149   6.921   2.031
 4103SOL    HW213209   0.206   6.990   2.168
 4104SOL     OW13210   0.273   4.904   3.547
 4104SOL    HW113211   0.266   4.868   3.640
 4104SOL    HW213212   0.300   4.830   3.485
 4105SOL     OW13213   4.947   1.358   2.030
 4105SOL    HW113214   4.905   1.267   2.037
 4105SOL    HW213215   4.935   1.407   2.116
 4106SOL     OW13216   0.623   2.267   3.548
 4106SOL    HW113217   0.542   2.229   3.505
 4106SOL    HW213218   0.696   2.199   3.547
 4107SOL     OW13219   0.518   6.306   6.771
 4107SOL    HW113220   0.511   6.227   6.710
 4107SOL    HW213221   0.520   6.275   6.866
 4108SOL     OW13222   0.141   5.958   4.559
 4108SOL    HW113223   0.122   5.957   4.461
 4108SOL    HW213224   0.057   5.940   4.610
 4109SOL     OW13225   5.401   6.643   4.025
 4109SOL    HW113226   5.313   6.615   4.063
 4109SOL    HW213227   5.396   6.739   3.996
 4110SOL     OW13228   3.987   3.460   6.678
 4110SOL    HW113229   3.974   3.559   6.687
 4110SOL    HW213230   3.904   3.412   6.704
 4111SOL     OW13231   5.969   5.242   6.585
 4111SOL    HW113232   5.883   5.192   6.580
 4111SOL    HW213233   5.953   5.339   6.564
 4112SOL     OW13234   4.986   6.719   4.603
 4112SOL    HW113235   4.960   6.815   4.594
 4112SOL    HW213236   5.044   6.693   4.526
 4113SOL     OW13237   4.487   5.496   4.580
 4113SOL    HW113238   4.418   5.425   4.565
 4113SOL    HW213239   4.527   5.523   4.493
 4114SOL     OW13240   6.014   1.530   3.036
 4114SOL    HW113241   6.039   1.440   3.072
 4114SOL    HW213242   6.096   1.577   3.005
 4115SOL     OW13243   2.511   4.872   3.556
 4115SOL    HW113244   2.451   4.814   3.501
 4115SOL    HW213245   2.509   4.842   3.651
 4116SOL     OW13246   4.632   2.409   3.523
 4116SOL    HW113247   4.651   2.323   3.476
 4116SOL    HW213248   4.647   2.485   3.460
 4117SOL     OW13249   1.526   2.149   3.042
 4117SOL    HW113250   1.451   2.214   3.053
 4117SOL    HW213251   1.573   2.136   3.129
 4118SOL     OW13252   5.667   6.782   6.151
 4118SOL    HW113253   5.723   6.767   6.069
 4118SOL    HW213254   5.719   6.755   6.232
 4119SOL     OW13255   3.168   0.949   3.383
 4119SOL    HW113256   3.096   0.881   3.369
 4119SOL    HW213257   3.163   1.019   3.312
 4120SOL     OW13258   3.847   1.248   6.380
 4120SOL    HW113259   3.875   1.344   6.386
 4120SOL    HW213260   3.756   1.242   6.340
 4121SOL     OW13261   6.686   6.949   2.583
 4121SOL    HW113262   6.695   6.942   2.484
 4121SOL    HW213263   6.771   6.917   2.626
 4122SOL     OW13264   1.610   6.960   5.015
 4122SOL    HW113265   1.616   6.984   5.112
 4122SOL    HW213266   1.582   0.011   4.962
 4123SOL     OW13267   3.953   4.908   4.147
 4123SOL    HW113268   3.921   4.847   4.220
 4123SOL    HW213269   3.881   4.973   4.124
 4124SOL     OW13270   6.907   6.550   0.876
 4124SOL    HW113271   6.863   6.631   0.838
 4124SOL    HW213272   6.972   6.578   0.948
 4125SOL     OW13273   4.467   2.415   2.588
 4125SOL    HW113274   4.531   2.414   2.510
 4125SOL    HW213275   4.377   2.386   2.556
 4126SOL     OW13276   2.069   3.343   2.576
 4126SOL    HW113277   1.970   3.357   2.571
 4126SOL    HW213278   2.103   3.371   2.665
 4127SOL     OW13279   5.238   2.558   5.189
 4127SOL    HW113280   5.292   2.516   5.116
 4127SOL    HW213281   5.248   2.658   5.183
 4128SOL     OW13282   0.804   3.311   1.507
 4128SOL    HW113283   0.900   3.298   1.533
 4128SOL    HW213284   0.775   3.235   1.448
 4129SOL     OW13285   3.648   1.314   0.579
 4129SOL    HW113286   3.726   1.353   0.629
 4129SOL    HW213287   3.573   1.380   0.577
 4130SOL     OW13288   6.259   2.202   0.304
 4130SOL    HW113289   6.265   2.102   0.310
 4130SOL    HW213290   6.164   2.230   0.313
 4131SOL     OW13291   6.826   1.416   2.946
 4131SOL    HW113292   6.893   1.475   2.902
 4131SOL    HW213293   6.813   1.334   2.890
 4132SOL     OW13294   5.516   4.086   4.343
 4132SOL    HW113295   5.461   4.150   4.398
 4132SOL    HW213296   5.514   3.996   4.386
 4133SOL     OW13297   4.258   6.663   1.488
 4133SOL    HW113298   4.357   6.678   1.483
 4133SOL    HW213299   4.217   6.730   1.550
 4134SOL     OW13300   2.208   3.185   0.845
 4134SOL    HW113301   2.299   3.206   0.810
 4134SOL    HW213302   2.210   3.185   0.945
 4135SOL     OW13303   0.154   2.420   2.654
 4135SOL    HW113304   0.200   2.419   2.743
 4135SOL    HW213305   0.080   2.353   2.654
 4136SOL     OW13306   1.311   3.799   1.874
 4136SOL    HW113307   1.339   3.733   1.804
 4136SOL    HW213308   1.381   3.805   1.944
 4137SOL     OW13309   1.361   3.252   6.742
 4137SOL    HW113310   1.375   3.210   6.653
 4137SOL    HW213311   1.394   3.347   6.741
 4138SOL     OW13312   3.781   5.236   1.489
 4138SOL    HW113313   3.721   5.245   1.568
 4138SOL    HW213314   3.864   5.290   1.503
 4139SOL     OW13315   1.227   1.535   3.624
 4139SOL    HW113316   1.205   1.509   3.530
 4139SOL    HW213317   1.311   1.489   3.652
 4140SOL     OW13318   3.078   1.948   4.057
 4140SOL    HW113319   3.155   1.914   4.112
 4140SOL    HW213320   2.993   1.909   4.092
 4141SOL     OW13321   5.167   6.915   0.836
 4141SOL    HW113322   5.266   6.930   0.836
 4141SOL    HW213323   5.121   6.994   0.797
 4142SOL     OW13324   6.085   3.913   1.194
 4142SOL    HW113325   6.045   3.991   1.243
 4142SOL    HW213326   6.182   3.907   1.215
 4143SOL     OW13327   5.423   3.056   0.385
 4143SOL    HW113328   5.407   3.002   0.469
 4143SOL    HW213329   5.337   3.068   0.336
 4144SOL     OW13330   4.946   1.283   0.046
 4144SOL    HW113331   4.961   1.258   0.141
 4144SOL    HW213332   4.900   1.208   7.028
 4145SOL     OW13333   0.716   6.511   0.049
 4145SOL    HW113334   0.679   6.422   0.073
 4145SOL    HW213335   0.816   6.510   0.059
 4146SOL     OW13336   6.679   0.838   3.478
 4146SOL    HW113337   6.766   0.886   3.480
 4146SOL    HW213338   6.646   0.831   3.384
 4147SOL     OW13339   4.820   4.436   6.404
 4147SOL    HW113340   4.905   4.419   6.454
 4147SOL    HW213341   4.795   4.533   6.412
 4148SOL     OW13342   3.083   0.821   5.671
 4148SOL    HW113343   3.077   0.865   5.761
 4148SOL    HW213344   3.139   0.739   5.678
 4149SOL     OW13345   0.476   3.532   1.647
 4149SOL    HW113346   0.473   3.545   1.548
 4149SOL    HW213347   0.572   3.524   1.676
 4150SOL     OW13348   0.047   1.860   5.188
 4150SOL    HW113349   0.053   1.765   5.160
 4150SOL    HW213350   0.054   1.920   5.108
 4151SOL     OW13351   2.172   6.867   6.198
 4151SOL    HW113352   2.230   6.836   6.124
 4151SOL    HW213353   2.228   6.912   6.268
 4152SOL     OW13354   3.848   5.777   1.796
 4152SOL    HW113355   3.903   5.815   1.721
 4152SOL    HW213356   3.829   5.680   1.778
 4153SOL     OW13357   6.426   5.164   1.548
 4153SOL    HW113358   6.370   5.217   1.483
 4153SOL    HW213359   6.493   5.225   1.591
 4154SOL     OW13360   0.316   6.044   3.957
 4154SOL    HW113361   0.279   6.016   4.046
 4154SOL    HW213362   0.349   5.963   3.908
 4155SOL     OW13363   0.226   1.707   1.192
 4155SOL    HW113364   0.205   1.653   1.274
 4155SOL    HW213365   0.201   1.655   1.110
 4156SOL     OW13366   6.556   5.702   4.904
 4156SOL    HW113367   6.509   5.686   4.991
 4156SOL    HW213368   6.635   5.762   4.920
 4157SOL     OW13369   5.386   6.056   3.497
 4157SOL    HW113370   5.363   6.136   3.442
 4157SOL    HW213371   5.411   6.086   3.589
 4158SOL     OW13372   1.450   2.878   2.378
 4158SOL    HW113373   1.445   2.778   2.388
 4158SOL    HW213374   1.452   2.902   2.281
 4159SOL     OW13375   2.131   2.414   3.623
 4159SOL    HW113376   2.162   2.469   3.546
 4159SOL    HW213377   2.052   2.359   3.595
 4160SOL     OW13378   5.957   6.932   7.009
 4160SOL    HW113379   6.006   6.971   6.931
 4160SOL    HW213380   5.999   6.963   0.065
 4161SOL     OW13381   1.940   1.805   1.956
 4161SOL    HW113382   1.989   1.891   1.967
 4161SOL    HW213383   1.887   1.786   2.039
 4162SOL     OW13384   6.283   5.762   0.663
 4162SOL    HW113385   6.218   5.705   0.715
 4162SOL    HW213386   6.252   5.857   0.665
 4163SOL     OW13387   6.126   1.301   3.364
 4163SOL    HW113388   6.034   1.333   3.388
 4163SOL    HW213389   6.134   1.291   3.265
 4164SOL     OW13390   0.980   0.075   5.425
 4164SOL    HW113391   0.967   0.073   5.524
 4164SOL    HW213392   1.054   0.011   5.400
 4165SOL     OW13393   5.042   0.584   5.455
 4165SOL    HW113394   5.118   0.643   5.427
 4165SOL    HW213395   4.969   0.591   5.388
 4166SOL     OW13396   4.992   1.308   1.664
 4166SOL    HW113397   4.981   1.270   1.572
 4166SOL    HW213398   4.926   1.267   1.726
 4167SOL     OW13399   3.446   4.899   6.796
 4167SOL    HW113400   3.540   4.869   6.776
 4167SOL    HW213401   3.419   4.968   6.730
 4168SOL     OW13402   6.987   4.076   1.259
 4168SOL    HW113403   6.999   4.139   1.336
 4168SOL    HW213404   0.036   4.084   1.196
 4169SOL     OW13405   5.970   4.408   4.915
 4169SOL    HW113406   6.050   4.461   4.944
 4169SOL    HW213407   5.984   4.311   4.937
 4170SOL     OW13408   4.964   3.097   5.249
 4170SOL    HW113409   4.881   3.133   5.291
 4170SOL    HW213410   5.039   3.101   5.315
 4171SOL     OW13411   6.765   5.153   1.174
 4171SOL    HW113412   6.823   5.096   1.232
 4171SOL    HW213413   6.685   5.100   1.145
 4172SOL     OW13414   2.350   2.488   0.392
 4172SOL    HW113415   2.400   2.529   0.316
 4172SOL    HW213416   2.384   2.395   0.408
 4173SOL     OW13417   5.616   3.644   4.839
 4173SOL    HW113418   5.563   3.602   4.765
 4173SOL    HW213419   5.618   3.743   4.825
 4174SOL     OW13420   4.913   1.544   2.254
 4174SOL    HW113421   4.974   1.561   2.331
 4174SOL    HW213422   4.825   1.589   2.270
 4175SOL     OW13423   1.863   4.693   4.613
 4175SOL    HW113424   1.917   4.756   4.557
 4175SOL    HW213425   1.902   4.601   4.608
 4176SOL     OW13426   4.259   6.780   1.206
 4176SOL    HW113427   4.355   6.781   1.180
 4176SOL    HW213428   4.248   6.734   1.294
 4177SOL     OW13429   5.598   4.792   4.989
 4177SOL    HW113430   5.694   4.767   4.976
 4177SOL    HW213431   5.561   4.741   5.067
 4178SOL     OW13432   4.422   0.262   3.811
 4178SOL    HW113433   4.328   0.234   3.831
 4178SOL    HW213434   4.423   0.311   3.723
 4179SOL     OW13435   5.077   4.037   3.026
 4179SOL    HW113436   5.153   4.032   3.091
 4179SOL    HW213437   5.086   3.964   2.959
 4180SOL     OW13438   4.662   2.311   0.548
 4180SOL    HW113439   4.697   2.380   0.485
 4180SOL    HW213440   4.726   2.234   0.552
 4181SOL     OW13441   4.425   0.674   0.217
 4181SOL    HW113442   4.405   0.577   0.209
 4181SOL    HW213443   4.366   0.726   0.155
 4182SOL     OW13444   0.387   5.115   3.224
 4182SOL    HW113445   0.347   5.034   3.182
 4182SOL    HW213446   0.354   5.123   3.318
 4183SOL     OW13447   2.660   1.868   1.153
 4183SOL    HW113448   2.579   1.837   1.203
 4183SOL    HW213449   2.667   1.818   1.066
 4184SOL     OW13450   3.521   6.946   2.590
 4184SOL    HW113451   3.482   6.859   2.560
 4184SOL    HW213452   3.553   6.998   2.511
 4185SOL     OW13453   0.828   4.471   3.442
 4185SOL    HW113454   0.824   4.515   3.532
 4185SOL    HW213455   0.886   4.524   3.381
 4186SOL     OW13456   2.006   4.937   6.948
 4186SOL    HW113457   2.099   4.914   6.918
 4186SOL    HW213458   1.999   4.923   0.017
 4187SOL     OW13459   2.412   2.853   5.616
 4187SOL    HW113460   2.474   2.911   5.564
 4187SOL    HW213461   2.449   2.760   5.618
 4188SOL     OW13462   5.334   0.625   5.079
 4188SOL    HW113463   5.351   0.552   5.144
 4188SOL    HW213464   5.289   0.588   4.998
 4189SOL     OW13465   3.459   4.940   4.291
 4189SOL    HW113466   3.537   4.974   4.239
 4189SOL    HW213467   3.400   4.886   4.231
 4190SOL     OW13468   0.636   0.572   1.487
 4190SOL    HW113469   0.627   0.663   1.445
 4190SOL    HW213470   0.684   0.580   1.574
 4191SOL     OW13471   5.197   4.774   4.830
 4191SOL    HW113472   5.266   4.843   4.813
 4191SOL    HW213473   5.116   4.793   4.775
 4192SOL     OW13474   0.564   1.828   2.933
 4192SOL    HW113475   0.642   1.790   2.884
 4192SOL    HW213476   0.565   1.797   3.027
 4193SOL     OW13477   5.893   0.422   0.835
 4193SOL    HW113478   5.873   0.380   0.747
 4193SOL    HW213479   5.974   0.479   0.828
 4194SOL     OW13480   4.821   0.279   4.329
 4194SOL    HW113481   4.788   0.262   4.422
 4194SOL    HW213482   4.838   0.377   4.318
 4195SOL     OW13483   4.004   5.365   1.553
 4195SOL    HW113484   4.051   5.328   1.473
 4195SOL    HW213485   4.005   5.297   1.627
 4196SOL     OW13486   6.214   2.871   2.962
 4196SOL    HW113487   6.288   2.810   2.990
 4196SOL    HW213488   6.222   2.890   2.864
 4197SOL     OW13489   4.651   5.286   5.669
 4197SOL    HW113490   4.575   5.265   5.732
 4197SOL    HW213491   4.663   5.210   5.605
 4198SOL     OW13492   5.973   1.892   0.760
 4198SOL    HW113493   5.918   1.814   0.790
 4198SOL    HW213494   5.982   1.891   0.660
 4199SOL     OW13495   0.935   2.662   5.638
 4199SOL    HW113496   0.941   2.565   5.662
 4199SOL    HW213497   0.925   2.716   5.722
 4200SOL     OW13498   3.000   0.211   6.396
 4200SOL    HW113499   2.988   0.112   6.399
 4200SOL    HW213500   2.963   0.246   6.310
 4201SOL     OW13501   5.648   6.944   3.544
 4201SOL    HW113502   5.615   6.984   3.629
 4201SOL    HW213503   5.728   6.995   3.513
 4202SOL     OW13504   3.183   5.635   6.340
 4202SOL    HW113505   3.138   5.598   6.422
 4202SOL    HW213506   3.113   5.664   6.274
 4203SOL     OW13507   4.629   4.110   0.344
 4203SOL    HW113508   4.658   4.086   0.437
 4203SOL    HW213509   4.540   4.157   0.349
 4204SOL     OW13510   4.146   3.588   4.172
 4204SOL    HW113511   4.110   3.658   4.110
 4204SOL    HW213512   4.243   3.575   4.154
 4205SOL     OW13513   4.401   6.160   4.624
 4205SOL    HW113514   4.399   6.085   4.557
 4205SOL    HW213515   4.386   6.123   4.716
 4206SOL     OW13516   5.923   1.378   5.447
 4206SOL    HW113517   5.878   1.467   5.450
 4206SOL    HW213518   6.009   1.382   5.497
 4207SOL     OW13519   2.252   2.177   2.066
 4207SOL    HW113520   2.337   2.126   2.076
 4207SOL    HW213521   2.273   2.271   2.039
 4208SOL     OW13522   6.907   3.815   5.342
 4208SOL    HW113523   6.999   3.855   5.343
 4208SOL    HW213524   6.841   3.883   5.311
 4209SOL     OW13525   6.778   6.456   3.978
 4209SOL    HW113526   6.777   6.358   3.999
 4209SOL    HW213527   6.852   6.500   4.028
 4210SOL     OW13528   3.864   3.374   2.355
 4210SOL    HW113529   3.929   3.304   2.324
 4210SOL    HW213530   3.914   3.456   2.382
 4211SOL     OW13531   3.817   0.938   5.764
 4211SOL    HW113532   3.807   0.858   5.705
 4211SOL    HW213533   3.827   0.909   5.859
 4212SOL     OW13534   6.142   2.347   2.465
 4212SOL    HW113535   6.171   2.332   2.559
 4212SOL    HW213536   6.166   2.268   2.409
 4213SOL     OW13537   2.682   0.557   2.484
 4213SOL    HW113538   2.613   0.492   2.515
 4213SOL    HW213539   2.638   0.628   2.430
 4214SOL     OW13540   0.606   5.498   5.639
 4214SOL    HW113541   0.703   5.518   5.656
 4214SOL    HW213542   0.554   5.516   5.723
 4215SOL     OW13543   4.351   6.899   6.051
 4215SOL    HW113544   4.266   6.877   6.098
 4215SOL    HW213545   4.332   6.913   5.954
 4216SOL     OW13546   1.769   0.607   3.339
 4216SOL    HW113547   1.741   0.699   3.367
 4216SOL    HW213548   1.814   0.561   3.416
 4217SOL     OW13549   1.186   0.610   3.050
 4217SOL    HW113550   1.095   0.638   3.023
 4217SOL    HW213551   1.253   0.679   3.023
 4218SOL     OW13552   3.257   0.956   1.686
 4218SOL    HW113553   3.306   0.979   1.770
 4218SOL    HW213554   3.298   0.875   1.644
 4219SOL     OW13555   4.105   5.752   4.117
 4219SOL    HW113556   4.038   5.822   4.091
 4219SOL    HW213557   4.131   5.699   4.036
 4220SOL     OW13558   6.825   3.068   3.345
 4220SOL    HW113559   6.732   3.035   3.363
 4220SOL    HW213560   6.821   3.150   3.289
 4221SOL     OW13561   6.288   5.232   6.335
 4221SOL    HW113562   6.208   5.175   6.351
 4221SOL    HW213563   6.299   5.248   6.237
 4222SOL     OW13564   0.318   1.764   1.880
 4222SOL    HW113565   0.401   1.711   1.895
 4222SOL    HW213566   0.285   1.799   1.968
 4223SOL     OW13567   3.541   3.523   0.285
 4223SOL    HW113568   3.616   3.589   0.288
 4223SOL    HW213569   3.525   3.495   0.190
 4224SOL     OW13570   5.220   5.024   3.787
 4224SOL    HW113571   5.290   5.011   3.858
 4224SOL    HW213572   5.173   4.937   3.771
 4225SOL     OW13573   2.450   2.767   5.239
 4225SOL    HW113574   2.463   2.861   5.206
 4225SOL    HW213575   2.533   2.737   5.287
 4226SOL     OW13576   0.534   6.873   2.650
 4226SOL    HW113577   0.543   6.795   2.588
 4226SOL    HW213578   0.542   6.842   2.745
 4227SOL     OW13579   3.623   5.336   1.722
 4227SOL    HW113580   3.568   5.380   1.651
 4227SOL    HW213581   3.695   5.397   1.753
 4228SOL     OW13582   1.040   5.449   5.502
 4228SOL    HW113583   0.993   5.503   5.432
 4228SOL    HW213584   1.103   5.385   5.458
 4229SOL     OW13585   4.551   5.925   5.988
 4229SOL    HW113586   4.474   5.989   5.995
 4229SOL    HW213587   4.587   5.928   5.895
 4230SOL     OW13588   1.020   5.695   2.628
 4230SOL    HW113589   1.061   5.785   2.643
 4230SOL    HW213590   0.993   5.686   2.532
 4231SOL     OW13591   5.462   6.810   5.943
 4231SOL    HW113592   5.376   6.766   5.967
 4231SOL    HW213593   5.504   6.850   6.025
 4232SOL     OW13594   0.291   4.866   3.139
 4232SOL    HW113595   0.194   4.885   3.154
 4232SOL    HW213596   0.329   4.819   3.218
 4233SOL     OW13597   5.952   0.141   5.684
 4233SOL    HW113598   5.912   0.144   5.776
 4233SOL    HW213599   6.035   0.196   5.682
 4234SOL     OW13600   2.400   5.585   4.938
 4234SOL    HW113601   2.425   5.494   4.907
 4234SOL    HW213602   2.448   5.607   5.023
 4235SOL     OW13603   5.447   4.206   6.024
 4235SOL    HW113604   5.502   4.285   6.053
 4235SOL    HW213605   5.471   4.127   6.080
 4236SOL     OW13606   6.627   3.649   1.823
 4236SOL    HW113607   6.661   3.653   1.917
 4236SOL    HW213608   6.704   3.634   1.760
 4237SOL     OW13609   5.651   5.548   3.286
 4237SOL    HW113610   5.648   5.574   3.190
 4237SOL    HW213611   5.614   5.622   3.343
 4238SOL     OW13612   2.047   6.565   2.667
 4238SOL    HW113613   1.991   6.593   2.589
 4238SOL    HW213614   2.138   6.604   2.658
 4239SOL     OW13615   5.037   1.011   2.663
 4239SOL    HW113616   5.090   0.969   2.590
 4239SOL    HW213617   4.939   1.007   2.640
 4240SOL     OW13618   2.290   5.788   0.422
 4240SOL    HW113619   2.369   5.755   0.371
 4240SOL    HW213620   2.321   5.833   0.506
 4241SOL     OW13621   6.210   0.947   0.092
 4241SOL    HW113622   6.211   0.850   0.117
 4241SOL    HW213623   6.303   0.978   0.073
 4242SOL     OW13624   3.275   1.758   4.264
 4242SOL    HW113625   3.202   1.695   4.235
 4242SOL    HW213626   3.328   1.715   4.338
 4243SOL     OW13627   6.425   2.918   2.194
 4243SOL    HW113628   6.384   3.008   2.212
 4243SOL    HW213629   6.493   2.898   2.265
 4244SOL     OW13630   4.309   4.423   1.773
 4244SOL    HW113631   4.371   4.352   1.806
 4244SOL    HW213632   4.331   4.510   1.816
 4245SOL     OW13633   6.588   1.224   6.488
 4245SOL    HW113634   6.680   1.264   6.486
 4245SOL    HW213635   6.520   1.295   6.466
 4246SOL     OW13636   0.079   4.109   3.173
 4246SOL    HW113637   7.012   4.118   3.147
 4246SOL    HW213638   0.085   4.072   3.266
 4247SOL     OW13639   2.617   6.313   3.560
 4247SOL    HW113640   2.641   6.219   3.539
 4247SOL    HW213641   2.699   6.370   3.554
 4248SOL     OW13642   3.614   1.486   3.662
 4248SOL    HW113643   3.594   1.476   3.564
 4248SOL    HW213644   3.625   1.396   3.703
 4249SOL     OW13645   6.100   3.020   4.703
 4249SOL    HW113646   6.102   3.099   4.643
 4249SOL    HW213647   6.071   2.939   4.652
 4250SOL     OW13648   6.575   4.413   2.920
 4250SOL    HW113649   6.650   4.396   2.857
 4250SOL    HW213650   6.609   4.460   3.001
 4251SOL     OW13651   5.713   4.749   1.295
 4251SOL    HW113652   5.682   4.658   1.267
 4251SOL    HW213653   5.648   4.787   1.360
 4252SOL     OW13654   5.238   6.266   5.786
 4252SOL    HW113655   5.255   6.246   5.689
 4252SOL    HW213656   5.280   6.195   5.842
 4253SOL     OW13657   3.603   6.621   0.928
 4253SOL    HW113658   3.653   6.706   0.911
 4253SOL    HW213659   3.553   6.595   0.846
 4254SOL     OW13660   0.506   2.548   2.331
 4254SOL    HW113661   0.580   2.509   2.276
 4254SOL    HW213662   0.527   2.643   2.352
 4255SOL     OW13663   6.076   3.880   3.377
 4255SOL    HW113664   6.153   3.918   3.429
 4255SOL    HW213665   6.098   3.883   3.279
 4256SOL     OW13666   2.340   6.765   0.095
 4256SOL    HW113667   2.272   6.702   0.131
 4256SOL    HW213668   2.294   6.842   0.049
 4257SOL     OW13669   2.950   0.405   4.374
 4257SOL    HW113670   2.882   0.397   4.447
 4257SOL    HW213671   2.907   0.388   4.286
 4258SOL     OW13672   5.152   6.523   0.674
 4258SOL    HW113673   5.120   6.616   0.654
 4258SOL    HW213674   5.181   6.517   0.769
 4259SOL     OW13675   2.884   1.259   0.686
 4259SOL    HW113676   2.974   1.245   0.643
 4259SOL    HW213677   2.897   1.281   0.782
 4260SOL     OW13678   5.273   0.121   0.409
 4260SOL    HW113679   5.268   0.202   0.467
 4260SOL    HW213680   5.272   0.149   0.313
 4261SOL     OW13681   2.187   6.946   1.635
 4261SOL    HW113682   2.129   6.997   1.698
 4261SOL    HW213683   2.281   6.980   1.640
 4262SOL     OW13684   0.625   4.716   5.436
 4262SOL    HW113685   0.643   4.729   5.534
 4262SOL    HW213686   0.711   4.724   5.385
 4263SOL     OW13687   2.492   6.879   3.561
 4263SOL    HW113688   2.430   6.809   3.526
 4263SOL    HW213689   2.500   6.953   3.494
 4264SOL     OW13690   0.007   2.759   2.964
 4264SOL    HW113691   0.068   2.710   3.027
 4264SOL    HW213692   0.015   2.719   2.873
 4265SOL     OW13693   5.380   1.413   0.629
 4265SOL    HW113694   5.417   1.351   0.698
 4265SOL    HW213695   5.286   1.439   0.654
 4266SOL     OW13696   1.748   5.333   0.371
 4266SOL    HW113697   1.807   5.289   0.438
 4266SOL    HW213698   1.768   5.431   0.366
 4267SOL     OW13699   2.040   3.226   4.603
 4267SOL    HW113700   2.059   3.312   4.555
 4267SOL    HW213701   1.943   3.224   4.630
 4268SOL     OW13702   1.093   6.071   6.368
 4268SOL    HW113703   1.182   6.113   6.350
 4268SOL    HW213704   1.039   6.132   6.426
 4269SOL     OW13705   2.425   0.832   1.997
 4269SOL    HW113706   2.420   0.905   2.065
 4269SOL    HW213707   2.518   0.827   1.960
 4270SOL     OW13708   4.028   3.686   3.818
 4270SOL    HW113709   4.067   3.595   3.802
 4270SOL    HW213710   3.932   3.686   3.788
 4271SOL     OW13711   0.251   1.007   6.810
 4271SOL    HW113712   0.172   1.036   6.863
 4271SOL    HW213713   0.305   0.942   6.862
 4272SOL     OW13714   6.472   3.029   4.479
 4272SOL    HW113715   6.571   3.037   4.490
 4272SOL    HW213716   6.434   3.118   4.451
 4273SOL     OW13717   4.413   6.429   5.084
 4273SOL    HW113718   4.416   6.333   5.109
 4273SOL    HW213719   4.428   6.439   4.986
 4274SOL     OW13720   1.184   6.489   1.752
 4274SOL    HW113721   1.147   6.398   1.734
 4274SOL    HW213722   1.203   6.499   1.849
 4275SOL     OW13723   6.393   0.617   4.038
 4275SOL    HW113724   6.477   0.607   4.092
 4275SOL    HW213725   6.318   0.572   4.085
 4276SOL     OW13726   2.131   5.236   3.305
 4276SOL    HW113727   2.139   5.178   3.223
 4276SOL    HW213728   2.118   5.331   3.277
 4277SOL     OW13729   6.461   4.484   4.445
 4277SOL    HW113730   6.384   4.463   4.385
 4277SOL    HW213731   6.429   4.495   4.539
 4278SOL     OW13732   6.996   0.542   4.437
 4278SOL    HW113733   6.990   0.444   4.458
 4278SOL    HW213734   6.923   0.590   4.486
 4279SOL     OW13735   3.440   0.680   4.381
 4279SOL    HW113736   3.385   0.603   4.350
 4279SOL    HW213737   3.470   0.663   4.475
 4280SOL     OW13738   4.730   0.096   6.293
 4280SOL    HW113739   4.759   0.021   6.353
 4280SOL    HW213740   4.744   0.183   6.339
 4281SOL     OW13741   0.587   4.963   3.916
 4281SOL    HW113742   0.492   4.992   3.922
 4281SOL    HW213743   0.592   4.864   3.914
 4282SOL     OW13744   3.508   4.119   6.523
 4282SOL    HW113745   3.525   4.137   6.427
 4282SOL    HW213746   3.467   4.200   6.565
 4283SOL     OW13747   1.777   0.663   3.738
 4283SOL    HW113748   1.870   0.628   3.724
 4283SOL    HW213749   1.711   0.591   3.716
 4284SOL     OW13750   4.298   4.696   1.852
 4284SOL    HW113751   4.206   4.702   1.812
 4284SOL    HW213752   4.365   4.728   1.786
 4285SOL     OW13753   0.627   0.892   6.118
 4285SOL    HW113754   0.626   0.867   6.215
 4285SOL    HW213755   0.716   0.931   6.094
 4286SOL     OW13756   4.769   5.724   5.963
 4286SOL    HW113757   4.765   5.627   5.986
 4286SOL    HW213758   4.695   5.773   6.009
 4287SOL     OW13759   5.375   2.452   6.329
 4287SOL    HW113760   5.464   2.428   6.290
 4287SOL    HW213761   5.337   2.372   6.376
 4288SOL     OW13762   0.912   5.954   3.524
 4288SOL    HW113763   0.814   5.955   3.546
 4288SOL    HW213764   0.923   5.953   3.424
 4289SOL     OW13765   6.802   3.023   0.473
 4289SOL    HW113766   6.807   2.924   0.462
 4289SOL    HW213767   6.710   3.049   0.501
 4290SOL     OW13768   1.704   6.923   2.645
 4290SOL    HW113769   1.630   6.974   2.689
 4290SOL    HW213770   1.772   6.896   2.713
 4291SOL     OW13771   3.988   3.558   1.547
 4291SOL    HW113772   4.016   3.548   1.643
 4291SOL    HW213773   4.049   3.504   1.489
 4292SOL     OW13774   6.520   4.350   6.956
 4292SOL    HW113775   6.608   4.306   6.973
 4292SOL    HW213776   6.490   4.399   0.008
 4293SOL     OW13777   1.789   3.095   0.402
 4293SOL    HW113778   1.864   3.143   0.448
 4293SOL    HW213779   1.775   3.007   0.448
 4294SOL     OW13780   2.662   2.950   6.457
 4294SOL    HW113781   2.735   3.006   6.416
 4294SOL    HW213782   2.702   2.884   6.520
 4295SOL     OW13783   4.085   5.406   4.176
 4295SOL    HW113784   4.169   5.450   4.206
 4295SOL    HW213785   4.107   5.329   4.116
 4296SOL     OW13786   4.223   0.677   0.692
 4296SOL    HW113787   4.249   0.710   0.601
 4296SOL    HW213788   4.156   0.739   0.732
 4297SOL     OW13789   5.053   0.717   6.808
 4297SOL    HW113790   5.140   0.669   6.801
 4297SOL    HW213791   5.069   0.811   6.840
 4298SOL     OW13792   3.458   5.538   0.528
 4298SOL    HW113793   3.391   5.463   0.526
 4298SOL    HW213794   3.550   5.500   0.528
 4299SOL     OW13795   1.298   2.461   6.767
 4299SOL    HW113796   1.222   2.514   6.805
 4299SOL    HW213797   1.263   2.393   6.703
 4300SOL     OW13798   4.374   0.360   0.210
 4300SOL    HW113799   4.340   0.271   0.237
 4300SOL    HW213800   4.472   0.353   0.188
 4301SOL     OW13801   3.834   1.808   1.163
 4301SOL    HW113802   3.804   1.901   1.186
 4301SOL    HW213803   3.769   1.742   1.201
 4302SOL     OW13804   1.581   6.430   5.924
 4302SOL    HW113805   1.527   6.480   5.991
 4302SOL    HW213806   1.554   6.458   5.832
 4303SOL     OW13807   6.813   4.807   4.388
 4303SOL    HW113808   6.718   4.775   4.386
 4303SOL    HW213809   6.815   4.906   4.372
 4304SOL     OW13810   3.134   3.984   3.003
 4304SOL    HW113811   3.209   3.986   2.938
 4304SOL    HW213812   3.055   3.939   2.961
 4305SOL     OW13813   6.515   0.763   4.609
 4305SOL    HW113814   6.611   0.743   4.587
 4305SOL    HW213815   6.456   0.718   4.543
 4306SOL     OW13816   6.145   3.844   6.656
 4306SOL    HW113817   6.200   3.761   6.649
 4306SOL    HW213818   6.054   3.826   6.618
 4307SOL     OW13819   3.942   4.139   6.127
 4307SOL    HW113820   3.988   4.060   6.167
 4307SOL    HW213821   3.884   4.182   6.196
 4308SOL     OW13822   5.967   5.453   6.794
 4308SOL    HW113823   5.927   5.469   6.703
 4308SOL    HW213824   6.024   5.371   6.791
 4309SOL     OW13825   0.801   1.509   0.310
 4309SOL    HW113826   0.785   1.600   0.272
 4309SOL    HW213827   0.723   1.451   0.291
 4310SOL     OW13828   1.521   2.938   2.913
 4310SOL    HW113829   1.565   2.925   2.824
 4310SOL    HW213830   1.475   3.026   2.915
 4311SOL     OW13831   1.923   6.117   3.163
 4311SOL    HW113832   1.869   6.039   3.196
 4311SOL    HW213833   1.972   6.090   3.079
 4312SOL     OW13834   1.393   4.982   1.037
 4312SOL    HW113835   1.450   5.040   0.979
 4312SOL    HW213836   1.297   4.992   1.010
 4313SOL     OW13837   4.712   1.547   1.972
 4313SOL    HW113838   4.798   1.549   1.922
 4313SOL    HW213839   4.699   1.634   2.020
 4314SOL     OW13840   5.978   1.123   3.969
 4314SOL    HW113841   5.882   1.136   3.993
 4314SOL    HW213842   5.984   1.079   3.879
 4315SOL     OW13843   2.971   0.055   2.020
 4315SOL    HW113844   3.031   0.056   2.100
 4315SOL    HW213845   2.946   6.990   1.999
 4316SOL     OW13846   5.173   0.166   1.817
 4316SOL    HW113847   5.097   0.108   1.844
 4316SOL    HW213848   5.142   0.233   1.750
 4317SOL     OW13849   4.421   1.354   4.827
 4317SOL    HW113850   4.519   1.340   4.841
 4317SOL    HW213851   4.402   1.452   4.818
 4318SOL     OW13852   0.527   3.860   4.393
 4318SOL    HW113853   0.617   3.900   4.409
 4318SOL    HW213854   0.513   3.783   4.455
 4319SOL     OW13855   2.119   2.537   0.814
 4319SOL    HW113856   2.173   2.621   0.814
 4319SOL    HW213857   2.175   2.460   0.846
 4320SOL     OW13858   6.249   5.999   1.616
 4320SOL    HW113859   6.169   6.038   1.569
 4320SOL    HW213860   6.261   6.044   1.704
 4321SOL     OW13861   6.827   6.841   5.427
 4321SOL    HW113862   6.918   6.808   5.451
 4321SOL    HW213863   6.773   6.853   5.510
 4322SOL     OW13864   6.615   2.484   6.518
 4322SOL    HW113865   6.601   2.570   6.567
 4322SOL    HW213866   6.693   2.435   6.559
 4323SOL     OW13867   4.767   4.085   0.990
 4323SOL    HW113868   4.671   4.078   1.018
 4323SOL    HW213869   4.820   4.014   1.035
 4324SOL     OW13870   5.628   4.409   6.110
 4324SOL    HW113871   5.564   4.483   6.087
 4324SOL    HW213872   5.719   4.431   6.073
 4325SOL     OW13873   2.665   1.282   1.587
 4325SOL    HW113874   2.717   1.242   1.512
 4325SOL    HW213875   2.714   1.267   1.673
 4326SOL     OW13876   4.972   4.482   4.960
 4326SOL    HW113877   5.063   4.502   4.997
 4326SOL    HW213878   4.903   4.522   5.020
 4327SOL     OW13879   5.923   5.649   2.101
 4327SOL    HW113880   5.954   5.637   2.006
 4327SOL    HW213881   5.847   5.713   2.103
 4328SOL     OW13882   4.565   3.598   5.600
 4328SOL    HW113883   4.540   3.608   5.504
 4328SOL    HW213884   4.651   3.549   5.607
 4329SOL     OW13885   4.272   1.147   6.137
 4329SOL    HW113886   4.198   1.215   6.135
 4329SOL    HW213887   4.245   1.068   6.082
 4330SOL     OW13888   2.565   0.097   4.978
 4330SOL    HW113889   2.469   0.126   4.977
 4330SOL    HW213890   2.583   0.046   5.062
 4331SOL     OW13891   5.128   2.758   1.002
 4331SOL    HW113892   5.137   2.701   1.083
 4331SOL    HW213893   5.032   2.759   0.972
 4332SOL     OW13894   5.026   4.656   2.281
 4332SOL    HW113895   5.058   4.619   2.367
 4332SOL    HW213896   5.104   4.683   2.225
 4333SOL     OW13897   3.892   0.324   5.419
 4333SOL    HW113898   3.919   0.242   5.368
 4333SOL    HW213899   3.803   0.309   5.461
 4334SOL     OW13900   1.843   2.772   2.489
 4334SOL    HW113901   1.851   2.872   2.491
 4334SOL    HW213902   1.912   2.735   2.427
 4335SOL     OW13903   3.735   3.635   2.693
 4335SOL    HW113904   3.646   3.677   2.675
 4335SOL    HW213905   3.778   3.609   2.606
 4336SOL     OW13906   1.934   6.626   6.723
 4336SOL    HW113907   2.019   6.678   6.725
 4336SOL    HW213908   1.858   6.684   6.752
 4337SOL     OW13909   0.159   4.475   0.844
 4337SOL    HW113910   0.183   4.388   0.802
 4337SOL    HW213911   0.212   4.549   0.802
 4338SOL     OW13912   5.522   5.728   4.892
 4338SOL    HW113913   5.479   5.720   4.802
 4338SOL    HW213914   5.560   5.639   4.918
 4339SOL     OW13915   5.455   3.211   5.024
 4339SOL    HW113916   5.380   3.262   5.066
 4339SOL    HW213917   5.489   3.143   5.089
 4340SOL     OW13918   6.520   3.366   1.087
 4340SOL    HW113919   6.496   3.272   1.112
 4340SOL    HW213920   6.438   3.415   1.060
 4341SOL     OW13921   0.603   5.623   2.183
 4341SOL    HW113922   0.525   5.615   2.245
 4341SOL    HW213923   0.593   5.557   2.109
 4342SOL     OW13924   5.879   3.669   4.215
 4342SOL    HW113925   5.943   3.707   4.148
 4342SOL    HW213926   5.822   3.600   4.171
 4343SOL     OW13927   2.669   5.961   5.668
 4343SOL    HW113928   2.693   5.934   5.762
 4343SOL    HW213929   2.646   5.879   5.616
 4344SOL     OW13930   1.341   5.009   2.437
 4344SOL    HW113931   1.298   5.099   2.443
 4344SOL    HW213932   1.335   4.976   2.343
 4345SOL     OW13933   2.795   3.248   5.269
 4345SOL    HW113934   2.838   3.225   5.182
 4345SOL    HW213935   2.712   3.195   5.281
 4346SOL     OW13936   1.849   3.037   2.289
 4346SOL    HW113937   1.941   3.021   2.252
 4346SOL    HW213938   1.854   3.038   2.389
 4347SOL     OW13939   6.225   0.031   3.103
 4347SOL    HW113940   6.224   0.108   3.167
 4347SOL    HW213941   6.286   6.989   3.139
 4348SOL     OW13942   0.053   4.292   2.850
 4348SOL    HW113943   0.041   4.193   2.851
 4348SOL    HW213944   0.135   4.316   2.902
 4349SOL     OW13945   6.989   1.588   2.777
 4349SOL    HW113946   0.020   1.567   2.700
 4349SOL    HW213947   0.001   1.659   2.834
 4350SOL     OW13948   5.174   1.610   4.220
 4350SOL    HW113949   5.175   1.544   4.145
 4350SOL    HW213950   5.257   1.666   4.217
 4351SOL     OW13951   2.401   5.890   1.344
 4351SOL    HW113952   2.425   5.975   1.297
 4351SOL    HW213953   2.416   5.813   1.281
 4352SOL     OW13954   0.411   3.026   2.587
 4352SOL    HW113955   0.382   3.087   2.513
 4352SOL    HW213956   0.473   2.957   2.551
 4353SOL     OW13957   3.339   3.629   7.000
 4353SOL    HW113958   3.261   3.582   6.959
 4353SOL    HW213959   3.325   3.728   6.996
 4354SOL     OW13960   2.390   0.185   5.781
 4354SOL    HW113961   2.457   0.251   5.745
 4354SOL    HW213962   2.322   0.166   5.710
 4355SOL     OW13963   3.135   0.125   2.267
 4355SOL    HW113964   3.224   0.088   2.242
 4355SOL    HW213965   3.133   0.223   2.247
 4356SOL     OW13966   5.221   4.343   0.667
 4356SOL    HW113967   5.265   4.398   0.596
 4356SOL    HW213968   5.278   4.263   0.687
 4357SOL     OW13969   6.793   0.674   0.292
 4357SOL    HW113970   6.857   0.750   0.301
 4357SOL    HW213971   6.727   0.677   0.367
 4358SOL     OW13972   0.463   6.590   6.994
 4358SOL    HW113973   0.563   6.578   6.996
 4358SOL    HW213974   0.420   6.515   0.014
 4359SOL     OW13975   2.316   2.196   6.497
 4359SOL    HW113976   2.402   2.244   6.484
 4359SOL    HW213977   2.313   2.115   6.438
 4360SOL     OW13978   1.402   1.997   3.899
 4360SOL    HW113979   1.434   1.903   3.906
 4360SOL    HW213980   1.411   2.042   3.989
 4361SOL     OW13981   2.426   3.213   1.111
 4361SOL    HW113982   2.493   3.275   1.071
 4361SOL    HW213983   2.424   3.127   1.059
 4362SOL     OW13984   6.063   5.310   3.274
 4362SOL    HW113985   6.051   5.380   3.203
 4362SOL    HW213986   6.103   5.228   3.232
 4363SOL     OW13987   5.129   2.798   0.380
 4363SOL    HW113988   5.062   2.848   0.435
 4363SOL    HW213989   5.221   2.818   0.412
 4364SOL     OW13990   3.421   4.100   4.926
 4364SOL    HW113991   3.499   4.159   4.950
 4364SOL    HW213992   3.450   4.005   4.928
 4365SOL     OW13993   2.377   1.546   1.590
 4365SOL    HW113994   2.425   1.480   1.532
 4365SOL    HW213995   2.430   1.631   1.594
 4366SOL     OW13996   6.848   6.772   0.039
 4366SOL    HW113997   6.759   6.752   0.081
 4366SOL    HW213998   6.920   6.726   0.090
 4367SOL     OW13999   2.433   4.420   4.904
 4367SOL    HW114000   2.477   4.498   4.860
 4367SOL    HW214001   2.464   4.413   4.998
 4368SOL     OW14002   4.066   4.184   1.203
 4368SOL    HW114003   4.111   4.127   1.133
 4368SOL    HW214004   3.973   4.204   1.174
 4369SOL     OW14005   4.109   5.416   3.182
 4369SOL    HW114006   4.120   5.423   3.083
 4369SOL    HW214007   4.186   5.461   3.228
 4370SOL     OW14008   4.504   5.197   2.630
 4370SOL    HW114009   4.460   5.107   2.632
 4370SOL    HW214010   4.590   5.192   2.580
 4371SOL     OW14011   1.184   2.159   1.580
 4371SOL    HW114012   1.188   2.157   1.480
 4371SOL    HW214013   1.218   2.073   1.617
 4372SOL     OW14014   3.630   1.514   3.037
 4372SOL    HW114015   3.677   1.594   3.074
 4372SOL    HW214016   3.698   1.451   2.998
 4373SOL     OW14017   6.756   2.456   6.267
 4373SOL    HW114018   6.848   2.432   6.296
 4373SOL    HW214019   6.724   2.534   6.321
 4374SOL     OW14020   1.366   1.947   2.514
 4374SOL    HW114021   1.355   1.947   2.614
 4374SOL    HW214022   1.435   2.014   2.489
 4375SOL     OW14023   4.179   0.080   3.119
 4375SOL    HW114024   4.099   0.130   3.153
 4375SOL    HW214025   4.244   0.145   3.081
 4376SOL     OW14026   0.205   6.388   1.063
 4376SOL    HW114027   0.197   6.289   1.069
 4376SOL    HW214028   0.292   6.412   1.019
 4377SOL     OW14029   5.246   4.342   1.085
 4377SOL    HW114030   5.177   4.357   1.155
 4377SOL    HW214031   5.233   4.407   1.010
 4378SOL     OW14032   2.426   1.940   2.865
 4378SOL    HW114033   2.472   2.001   2.929
 4378SOL    HW214034   2.358   1.992   2.813
 4379SOL     OW14035   2.114   1.507   2.284
 4379SOL    HW114036   2.079   1.428   2.234
 4379SOL    HW214037   2.176   1.476   2.356
 4380SOL     OW14038   1.300   0.006   2.306
 4380SOL    HW114039   1.385   7.002   2.264
 4380SOL    HW214040   1.279   6.979   2.386
 4381SOL     OW14041   0.569   5.447   5.177
 4381SOL    HW114042   0.513   5.446   5.260
 4381SOL    HW214043   0.611   5.536   5.166
 4382SOL     OW14044   0.420   3.460   5.346
 4382SOL    HW114045   0.395   3.557   5.346
 4382SOL    HW214046   0.386   3.418   5.261
 4383SOL     OW14047   1.040   2.860   6.667
 4383SOL    HW114048   0.978   2.915   6.611
 4383SOL    HW214049   0.992   2.829   6.749
 4384SOL     OW14050   5.699   0.517   4.688
 4384SOL    HW114051   5.685   0.504   4.590
 4384SOL    HW214052   5.796   0.528   4.707
 4385SOL     OW14053   5.981   2.561   5.171
 4385SOL    HW114054   5.969   2.523   5.263
 4385SOL    HW214055   5.896   2.553   5.120
 4386SOL     OW14056   1.694   3.853   5.766
 4386SOL    HW114057   1.791   3.830   5.771
 4386SOL    HW214058   1.679   3.945   5.801
 4387SOL     OW14059   6.839   2.132   1.569
 4387SOL    HW114060   6.916   2.124   1.631
 4387SOL    HW214061   6.815   2.228   1.558
 4388SOL     OW14062   4.409   2.728   5.931
 4388SOL    HW114063   4.424   2.798   6.001
 4388SOL    HW214064   4.390   2.772   5.843
 4389SOL     OW14065   6.204   3.059   1.390
 4389SOL    HW114066   6.111   3.093   1.404
 4389SOL    HW214067   6.269   3.134   1.401
 4390SOL     OW14068   3.832   7.018   1.652
 4390SOL    HW114069   3.872   6.995   1.563
 4390SOL    HW214070   3.896   0.046   1.703
 4391SOL     OW14071   2.166   5.868   7.022
 4391SOL    HW114072   2.174   5.786   6.965
 4391SOL    HW214073   2.249   5.880   0.046
 4392SOL     OW14074   6.696   3.256   5.464
 4392SOL    HW114075   6.759   3.195   5.512
 4392SOL    HW214076   6.746   3.312   5.399
 4393SOL     OW14077   6.300   0.925   2.237
 4393SOL    HW114078   6.375   0.989   2.250
 4393SOL    HW214079   6.215   0.965   2.273
 4394SOL     OW14080   6.545   5.371   2.322
 4394SOL    HW114081   6.592   5.369   2.233
 4394SOL    HW214082   6.488   5.453   2.327
 4395SOL     OW14083   2.071   0.120   1.843
 4395SOL    HW114084   2.082   0.211   1.881
 4395SOL    HW214085   1.989   0.118   1.785
 4396SOL     OW14086   2.126   1.641   4.318
 4396SOL    HW114087   2.190   1.696   4.265
 4396SOL    HW214088   2.155   1.638   4.413
 4397SOL     OW14089   1.633   2.426   4.310
 4397SOL    HW114090   1.582   2.418   4.396
 4397SOL    HW214091   1.682   2.340   4.293
 4398SOL     OW14092   0.891   3.945   5.605
 4398SOL    HW114093   0.963   3.992   5.555
 4398SOL    HW214094   0.803   3.988   5.585
 4399SOL     OW14095   3.192   6.807   2.525
 4399SOL    HW114096   3.204   6.802   2.624
 4399SOL    HW214097   3.279   6.786   2.480
 4400SOL     OW14098   2.623   6.409   5.579
 4400SOL    HW114099   2.695   6.474   5.555
 4400SOL    HW214100   2.579   6.439   5.664
 4401SOL     OW14101   2.681   6.992   5.559
 4401SOL    HW114102   2.586   6.996   5.526
 4401SOL    HW214103   2.681   6.988   5.659
 4402SOL     OW14104   1.942   1.131   2.395
 4402SOL    HW114105   1.900   1.201   2.451
 4402SOL    HW214106   1.901   1.042   2.415
 4403SOL     OW14107   0.765   0.897   0.360
 4403SOL    HW114108   0.808   0.905   0.450
 4403SOL    HW214109   0.666   0.909   0.369
 4404SOL     OW14110   1.692   5.941   5.852
 4404SOL    HW114111   1.600   5.958   5.888
 4404SOL    HW214112   1.685   5.887   5.768
 4405SOL     OW14113   1.713   4.134   2.035
 4405SOL    HW114114   1.789   4.076   2.062
 4405SOL    HW214115   1.746   4.226   2.012
 4406SOL     OW14116   0.781   2.590   0.983
 4406SOL    HW114117   0.861   2.542   1.019
 4406SOL    HW214118   0.798   2.688   0.980
 4407SOL     OW14119   6.545   5.641   0.566
 4407SOL    HW114120   6.488   5.581   0.510
 4407SOL    HW214121   6.487   5.696   0.626
 4408SOL     OW14122   2.674   0.007   1.157
 4408SOL    HW114123   2.706   6.973   1.227
 4408SOL    HW214124   2.583   7.009   1.126
 4409SOL     OW14125   4.303   1.582   2.458
 4409SOL    HW114126   4.351   1.577   2.546
 4409SOL    HW214127   4.297   1.491   2.418
 4410SOL     OW14128   1.239   4.530   0.007
 4410SOL    HW114129   1.146   4.502   7.011
 4410SOL    HW214130   1.248   4.629   7.024
 4411SOL     OW14131   3.678   4.327   5.264
 4411SOL    HW114132   3.693   4.262   5.339
 4411SOL    HW214133   3.707   4.284   5.178
 4412SOL     OW14134   4.570   5.941   3.974
 4412SOL    HW114135   4.623   5.862   4.005
 4412SOL    HW214136   4.537   5.992   4.054
 4413SOL     OW14137   5.737   4.328   4.377
 4413SOL    HW114138   5.655   4.278   4.350
 4413SOL    HW214139   5.810   4.263   4.398
 4414SOL     OW14140   3.596   5.756   1.429
 4414SOL    HW114141   3.688   5.730   1.459
 4414SOL    HW214142   3.539   5.774   1.509
 4415SOL     OW14143   5.220   2.474   0.438
 4415SOL    HW114144   5.200   2.568   0.463
 4415SOL    HW214145   5.142   2.434   0.390
 4416SOL     OW14146   3.849   1.893   4.038
 4416SOL    HW114147   3.778   1.908   4.107
 4416SOL    HW214148   3.847   1.966   3.971
 4417SOL     OW14149   5.420   3.672   3.934
 4417SOL    HW114150   5.386   3.585   3.971
 4417SOL    HW214151   5.453   3.729   4.009
 4418SOL     OW14152   6.465   1.922   2.302
 4418SOL    HW114153   6.452   2.000   2.364
 4418SOL    HW214154   6.531   1.947   2.231
 4419SOL     OW14155   6.182   7.002   6.059
 4419SOL    HW114156   6.221   6.993   5.968
 4419SOL    HW214157   6.158   0.068   6.077
 4420SOL     OW14158   4.060   1.318   2.339
 4420SOL    HW114159   4.002   1.330   2.259
 4420SOL    HW214160   4.101   1.227   2.337
 4421SOL     OW14161   1.655   1.745   4.814
 4421SOL    HW114162   1.596   1.799   4.874
 4421SOL    HW214163   1.631   1.648   4.822
 4422SOL     OW14164   1.351   4.033   0.042
 4422SOL    HW114165   1.411   4.083   0.105
 4422SOL    HW214166   1.347   4.082   6.985
 4423SOL     OW14167   6.938   3.551   5.363
 4423SOL    HW114168   6.998   3.534   5.441
 4423SOL    HW214169   6.922   3.649   5.354
 4424SOL     OW14170   5.490   0.605   4.266
 4424SOL    HW114171   5.553   0.536   4.303
 4424SOL    HW214172   5.506   0.615   4.168
 4425SOL     OW14173   2.675   4.642   0.519
 4425SOL    HW114174   2.641   4.705   0.450
 4425SOL    HW214175   2.666   4.548   0.486
 4426SOL     OW14176   0.875   0.971   4.189
 4426SOL    HW114177   0.944   1.009   4.127
 4426SOL    HW214178   0.831   0.893   4.146
 4427SOL     OW14179   6.325   6.187   2.165
 4427SOL    HW114180   6.398   6.193   2.096
 4427SOL    HW214181   6.360   6.215   2.254
 4428SOL     OW14182   4.248   0.778   3.673
 4428SOL    HW114183   4.214   0.815   3.587
 4428SOL    HW214184   4.339   0.814   3.692
 4429SOL     OW14185   3.389   0.074   2.185
 4429SOL    HW114186   3.400   0.111   2.093
 4429SOL    HW214187   3.422   7.009   2.187
 4430SOL     OW14188   4.810   4.643   5.152
 4430SOL    HW114189   4.868   4.636   5.233
 4430SOL    HW214190   4.853   4.704   5.085
 4431SOL     OW14191   2.874   1.203   3.166
 4431SOL    HW114192   2.895   1.301   3.171
 4431SOL    HW214193   2.846   1.170   3.256
 4432SOL     OW14194   2.516   3.447   5.919
 4432SOL    HW114195   2.496   3.505   5.997
 4432SOL    HW214196   2.525   3.504   5.837
 4433SOL     OW14197   5.895   1.898   4.257
 4433SOL    HW114198   5.865   1.979   4.307
 4433SOL    HW214199   5.867   1.816   4.305
 4434SOL     OW14200   5.812   1.222   2.651
 4434SOL    HW114201   5.885   1.264   2.595
 4434SOL    HW214202   5.740   1.289   2.667
 4435SOL     OW14203   4.598   3.879   1.244
 4435SOL    HW114204   4.514   3.856   1.292
 4435SOL    HW214205   4.661   3.801   1.247
 4436SOL     OW14206   4.209   0.681   1.669
 4436SOL    HW114207   4.213   0.643   1.761
 4436SOL    HW214208   4.164   0.771   1.672
 4437SOL     OW14209   0.940   3.206   2.554
 4437SOL    HW114210   0.870   3.275   2.573
 4437SOL    HW214211   1.012   3.247   2.497
 4438SOL     OW14212   4.870   0.298   6.482
 4438SOL    HW114213   4.957   0.287   6.435
 4438SOL    HW214214   4.869   0.239   6.563
 4439SOL     OW14215   0.048   4.286   1.555
 4439SOL    HW114216   0.048   4.367   1.614
 4439SOL    HW214217   0.122   4.293   1.488
 4440SOL     OW14218   2.806   4.505   0.830
 4440SOL    HW114219   2.744   4.446   0.881
 4440SOL    HW214220   2.802   4.482   0.733
 4441SOL     OW14221   0.945   1.689   2.005
 4441SOL    HW114222   0.892   1.606   1.989
 4441SOL    HW214223   0.938   1.748   1.924
 4442SOL     OW14224   1.949   5.095   4.151
 4442SOL    HW114225   1.860   5.127   4.118
 4442SOL    HW214226   1.952   4.996   4.146
 4443SOL     OW14227   1.465   3.468   5.636
 4443SOL    HW114228   1.465   3.507   5.728
 4443SOL    HW214229   1.547   3.498   5.587
 4444SOL     OW14230   3.460   3.875   6.641
 4444SOL    HW114231   3.479   3.960   6.592
 4444SOL    HW214232   3.535   3.811   6.627
 4445SOL     OW14233   1.809   6.514   0.075
 4445SOL    HW114234   1.736   6.502   0.142
 4445SOL    HW214235   1.781   6.474   7.017
 4446SOL     OW14236   5.061   2.136   1.387
 4446SOL    HW114237   5.124   2.119   1.312
 4446SOL    HW214238   5.105   2.112   1.474
 4447SOL     OW14239   5.163   4.404   5.824
 4447SOL    HW114240   5.073   4.403   5.869
 4447SOL    HW214241   5.192   4.499   5.809
 4448SOL     OW14242   2.336   5.033   1.478
 4448SOL    HW114243   2.285   5.118   1.488
 4448SOL    HW214244   2.339   4.985   1.565
 4449SOL     OW14245   5.285   1.067   6.287
 4449SOL    HW114246   5.211   1.035   6.347
 4449SOL    HW214247   5.286   1.011   6.204
 4450SOL     OW14248   3.898   2.511   5.854
 4450SOL    HW114249   3.893   2.523   5.755
 4450SOL    HW214250   3.846   2.429   5.880
 4451SOL     OW14251   5.378   4.534   3.723
 4451SOL    HW114252   5.364   4.570   3.816
 4451SOL    HW214253   5.423   4.445   3.728
 4452SOL     OW14254   5.880   5.880   4.163
 4452SOL    HW114255   5.898   5.793   4.210
 4452SOL    HW214256   5.916   5.875   4.070
 4453SOL     OW14257   1.480   2.427   1.659
 4453SOL    HW114258   1.498   2.340   1.612
 4453SOL    HW214259   1.439   2.492   1.595
 4454SOL     OW14260   1.409   1.494   0.245
 4454SOL    HW114261   1.351   1.541   0.179
 4454SOL    HW214262   1.480   1.556   0.278
 4455SOL     OW14263   5.438   5.553   5.777
 4455SOL    HW114264   5.389   5.475   5.739
 4455SOL    HW214265   5.413   5.636   5.727
 4456SOL     OW14266   2.435   6.404   3.198
 4456SOL    HW114267   2.340   6.373   3.194
 4456SOL    HW214268   2.437   6.504   3.207
 4457SOL     OW14269   3.489   1.634   3.313
 4457SOL    HW114270   3.551   1.566   3.352
 4457SOL    HW214271   3.495   1.719   3.365
 4458SOL     OW14272   2.151   2.918   0.551
 4458SOL    HW114273   2.174   2.845   0.487
 4458SOL    HW214274   2.081   2.977   0.512
 4459SOL     OW14275   4.147   1.954   4.697
 4459SOL    HW114276   4.090   2.001   4.630
 4459SOL    HW214277   4.237   1.996   4.700
 4460SOL     OW14278   1.388   3.064   0.180
 4460SOL    HW114279   1.299   3.041   0.218
 4460SOL    HW214280   1.379   3.139   0.115
 4461SOL     OW14281   1.898   0.902   0.984
 4461SOL    HW114282   1.946   0.818   0.956
 4461SOL    HW214283   1.951   0.981   0.954
 4462SOL     OW14284   6.738   4.698   2.155
 4462SOL    HW114285   6.700   4.627   2.214
 4462SOL    HW214286   6.730   4.786   2.201
 4463SOL     OW14287   4.783   0.761   0.679
 4463SOL    HW114288   4.851   0.806   0.622
 4463SOL    HW214289   4.758   0.673   0.638
 4464SOL     OW14290   6.969   5.728   0.215
 4464SOL    HW114291   6.926   5.714   0.304
 4464SOL    HW214292   6.907   5.698   0.142
 4465SOL     OW14293   3.847   5.169   1.227
 4465SOL    HW114294   3.806   5.227   1.297
 4465SOL    HW214295   3.793   5.086   1.217
 4466SOL     OW14296   1.187   2.037   3.223
 4466SOL    HW114297   1.226   2.120   3.183
 4466SOL    HW214298   1.260   1.973   3.244
 4467SOL     OW14299   1.457   5.691   3.218
 4467SOL    HW114300   1.439   5.594   3.230
 4467SOL    HW214301   1.464   5.735   3.308
 4468SOL     OW14302   1.545   4.022   0.358
 4468SOL    HW114303   1.641   4.000   0.341
 4468SOL    HW214304   1.534   4.049   0.453
 4469SOL     OW14305   3.483   0.794   1.559
 4469SOL    HW114306   3.503   0.734   1.636
 4469SOL    HW214307   3.551   0.867   1.555
 4470SOL     OW14308   0.522   1.957   2.114
 4470SOL    HW114309   0.527   1.860   2.139
 4470SOL    HW214310   0.485   2.009   2.191
 4471SOL     OW14311   0.934   2.327   6.760
 4471SOL    HW114312   0.893   2.246   6.802
 4471SOL    HW214313   0.877   2.357   6.683
 4472SOL     OW14314   0.644   2.871   1.872
 4472SOL    HW114315   0.625   2.932   1.949
 4472SOL    HW214316   0.607   2.909   1.788
 4473SOL     OW14317   5.532   2.869   4.243
 4473SOL    HW114318   5.567   2.950   4.292
 4473SOL    HW214319   5.441   2.846   4.278
 4474SOL     OW14320   2.406   0.013   2.518
 4474SOL    HW114321   2.491   7.000   2.486
 4474SOL    HW214322   2.420   0.051   2.609
 4475SOL     OW14323   0.985   4.158   2.134
 4475SOL    HW114324   1.041   4.186   2.056
 4475SOL    HW214325   1.041   4.156   2.217
 4476SOL     OW14326   5.992   0.915   3.183
 4476SOL    HW114327   6.055   0.959   3.247
 4476SOL    HW214328   5.921   0.981   3.156
 4477SOL     OW14329   1.497   0.586   5.600
 4477SOL    HW114330   1.403   0.618   5.608
 4477SOL    HW214331   1.497   0.491   5.569
 4478SOL     OW14332   3.292   0.342   2.354
 4478SOL    HW114333   3.350   0.297   2.287
 4478SOL    HW214334   3.325   0.321   2.446
 4479SOL     OW14335   0.487   2.342   1.412
 4479SOL    HW114336   0.513   2.360   1.507
 4479SOL    HW214337   0.505   2.246   1.390
 4480SOL     OW14338   0.200   4.154   5.030
 4480SOL    HW114339   0.249   4.205   4.959
 4480SOL    HW214340   0.158   4.073   4.988
 4481SOL     OW14341   2.883   5.266   4.827
 4481SOL    HW114342   2.876   5.327   4.905
 4481SOL    HW214343   2.867   5.318   4.743
 4482SOL     OW14344   1.930   2.766   4.995
 4482SOL    HW114345   2.024   2.788   5.020
 4482SOL    HW214346   1.894   2.836   4.933
 4483SOL     OW14347   6.684   2.487   2.233
 4483SOL    HW114348   6.751   2.480   2.308
 4483SOL    HW214349   6.594   2.458   2.266
 4484SOL     OW14350   3.331   2.177   6.748
 4484SOL    HW114351   3.257   2.173   6.680
 4484SOL    HW214352   3.301   2.232   6.826
 4485SOL     OW14353   5.964   2.588   4.311
 4485SOL    HW114354   6.000   2.669   4.357
 4485SOL    HW214355   6.021   2.509   4.333
 4486SOL     OW14356   5.924   5.870   5.210
 4486SOL    HW114357   5.981   5.928   5.151
 4486SOL    HW214358   5.829   5.872   5.177
 4487SOL     OW14359   2.976   2.433   6.372
 4487SOL    HW114360   3.027   2.471   6.450
 4487SOL    HW214361   3.014   2.469   6.287
 4488SOL     OW14362   0.806   3.565   5.576
 4488SOL    HW114363   0.759   3.652   5.588
 4488SOL    HW214364   0.835   3.530   5.665
 4489SOL     OW14365   5.266   5.395   4.923
 4489SOL    HW114366   5.203   5.374   4.849
 4489SOL    HW214367   5.236   5.479   4.970
 4490SOL     OW14368   5.406   1.748   1.644
 4490SOL    HW114369   5.496   1.711   1.666
 4490SOL    HW214370   5.355   1.682   1.589
 4491SOL     OW14371   6.854   3.434   3.592
 4491SOL    HW114372   6.928   3.366   3.591
 4491SOL    HW214373   6.878   3.508   3.655
 4492SOL     OW14374   5.929   4.375   2.524
 4492SOL    HW114375   6.018   4.419   2.513
 4492SOL    HW214376   5.924   4.294   2.466
 4493SOL     OW14377   4.891   5.631   4.516
 4493SOL    HW114378   4.884   5.541   4.559
 4493SOL    HW214379   4.823   5.693   4.554
 4494SOL     OW14380   0.544   1.041   6.432
 4494SOL    HW114381   0.525   0.944   6.415
 4494SOL    HW214382   0.639   1.061   6.409
 4495SOL     OW14383   4.145   0.214   3.863
 4495SOL    HW114384   4.095   0.128   3.857
 4495SOL    HW214385   4.093   0.278   3.921
 4496SOL     OW14386   5.699   6.320   0.996
 4496SOL    HW114387   5.628   6.251   0.985
 4496SOL    HW214388   5.724   6.357   0.907
 4497SOL     OW14389   4.303   2.068   6.757
 4497SOL    HW114390   4.252   2.039   6.676
 4497SOL    HW214391   4.267   2.021   6.838
 4498SOL     OW14392   6.990   3.732   6.921
 4498SOL    HW114393   7.002   3.660   6.852
 4498SOL    HW214394   6.926   3.800   6.887
 4499SOL     OW14395   5.975   3.409   3.807
 4499SOL    HW114396   5.910   3.485   3.802
 4499SOL    HW214397   6.050   3.435   3.868
 4500SOL     OW14398   3.272   3.274   5.253
 4500SOL    HW114399   3.361   3.232   5.271
 4500SOL    HW214400   3.267   3.302   5.157
 4501SOL     OW14401   6.953   3.698   3.059
 4501SOL    HW114402   6.927   3.764   3.130
 4501SOL    HW214403   6.876   3.686   2.996
 4502SOL     OW14404   0.715   2.674   0.151
 4502SOL    HW114405   0.711   2.672   0.250
 4502SOL    HW214406   0.779   2.744   0.121
 4503SOL     OW14407   3.566   0.056   1.542
 4503SOL    HW114408   3.549   6.998   1.499
 4503SOL    HW214409   3.651   0.051   1.596
 4504SOL     OW14410   0.732   0.623   4.666
 4504SOL    HW114411   0.753   0.719   4.686
 4504SOL    HW214412   0.635   0.614   4.644
 4505SOL     OW14413   6.196   5.049   1.873
 4505SOL    HW114414   6.110   5.005   1.847
 4505SOL    HW214415   6.272   5.004   1.825
 4506SOL     OW14416   4.807   2.702   3.077
 4506SOL    HW114417   4.886   2.693   3.137
 4506SOL    HW214418   4.821   2.779   3.015
 4507SOL     OW14419   6.678   4.089   3.631
 4507SOL    HW114420   6.755   4.112   3.571
 4507SOL    HW214421   6.633   4.172   3.661
 4508SOL     OW14422   1.629   4.628   6.523
 4508SOL    HW114423   1.634   4.549   6.462
 4508SOL    HW214424   1.586   4.705   6.475
 4509SOL     OW14425   4.729   2.355   3.104
 4509SOL    HW114426   4.805   2.375   3.041
 4509SOL    HW214427   4.645   2.397   3.069
 4510SOL     OW14428   4.231   2.293   4.168
 4510SOL    HW114429   4.225   2.240   4.083
 4510SOL    HW214430   4.141   2.296   4.212
 4511SOL     OW14431   6.017   3.599   6.369
 4511SOL    HW114432   5.991   3.505   6.392
 4511SOL    HW214433   5.943   3.661   6.396
 4512SOL     OW14434   3.099   0.929   5.921
 4512SOL    HW114435   3.148   0.863   5.979
 4512SOL    HW214436   3.128   1.022   5.945
 4513SOL     OW14437   0.581   4.779   6.051
 4513SOL    HW114438   0.664   4.811   6.098
 4513SOL    HW214439   0.596   4.687   6.015
 4514SOL     OW14440   3.253   2.757   6.048
 4514SOL    HW114441   3.300   2.678   6.009
 4514SOL    HW214442   3.155   2.743   6.043
 4515SOL     OW14443   5.962   1.846   5.485
 4515SOL    HW114444   5.904   1.834   5.404
 4515SOL    HW214445   6.047   1.892   5.458
 4516SOL     OW14446   2.209   0.010   0.278
 4516SOL    HW114447   2.302   0.021   0.312
 4516SOL    HW214448   2.166   6.961   0.323
 4517SOL     OW14449   4.507   6.683   6.845
 4517SOL    HW114450   4.487   6.617   6.773
 4517SOL    HW214451   4.421   6.723   6.878
 4518SOL     OW14452   0.225   0.014   2.347
 4518SOL    HW114453   0.179   0.086   2.295
 4518SOL    HW214454   0.269   0.054   2.427
 4519SOL     OW14455   5.403   0.005   0.809
 4519SOL    HW114456   5.466   0.079   0.834
 4519SOL    HW214457   5.420   7.007   0.714
 4520SOL     OW14458   3.952   6.258   6.297
 4520SOL    HW114459   3.862   6.215   6.283
 4520SOL    HW214460   3.995   6.275   6.208
 4521SOL     OW14461   5.966   2.145   5.503
 4521SOL    HW114462   5.884   2.113   5.551
 4521SOL    HW214463   6.041   2.157   5.569
 4522SOL     OW14464   5.538   5.323   3.236
 4522SOL    HW114465   5.483   5.284   3.310
 4522SOL    HW214466   5.578   5.410   3.265
 4523SOL     OW14467   1.263   4.418   0.260
 4523SOL    HW114468   1.245   4.456   0.169
 4523SOL    HW214469   1.342   4.356   0.254
 4524SOL     OW14470   6.238   3.242   2.064
 4524SOL    HW114471   6.328   3.262   2.103
 4524SOL    HW214472   6.248   3.221   1.966
 4525SOL     OW14473   4.334   2.709   5.637
 4525SOL    HW114474   4.304   2.624   5.679
 4525SOL    HW214475   4.370   2.690   5.546
 4526SOL     OW14476   6.985   0.256   6.467
 4526SOL    HW114477   7.003   0.322   6.394
 4526SOL    HW214478   0.041   0.209   6.490
 4527SOL     OW14479   6.675   0.336   2.671
 4527SOL    HW114480   6.704   0.304   2.580
 4527SOL    HW214481   6.680   0.436   2.674
 4528SOL     OW14482   4.813   0.550   6.458
 4528SOL    HW114483   4.817   0.580   6.363
 4528SOL    HW214484   4.828   0.452   6.463
 4529SOL     OW14485   1.761   0.756   4.914
 4529SOL    HW114486   1.679   0.812   4.916
 4529SOL    HW214487   1.771   0.708   5.001
 4530SOL     OW14488   2.437   5.537   3.723
 4530SOL    HW114489   2.383   5.464   3.681
 4530SOL    HW214490   2.527   5.501   3.747
 4531SOL     OW14491   0.759   3.195   5.764
 4531SOL    HW114492   0.735   3.199   5.666
 4531SOL    HW214493   0.703   3.261   5.814
 4532SOL     OW14494   6.737   1.678   2.449
 4532SOL    HW114495   6.823   1.710   2.408
 4532SOL    HW214496   6.752   1.593   2.498
 4533SOL     OW14497   2.062   1.297   2.992
 4533SOL    HW114498   2.035   1.392   3.011
 4533SOL    HW214499   2.082   1.287   2.895
 4534SOL     OW14500   5.646   4.024   5.302
 4534SOL    HW114501   5.563   3.990   5.256
 4534SOL    HW214502   5.619   4.080   5.380
 4535SOL     OW14503   3.608   0.658   2.307
 4535SOL    HW114504   3.543   0.688   2.237
 4535SOL    HW214505   3.606   0.723   2.383
 4536SOL     OW14506   3.761   1.676   4.879
 4536SOL    HW114507   3.753   1.594   4.823
 4536SOL    HW214508   3.816   1.657   4.960
 4537SOL     OW14509   4.264   3.303   1.118
 4537SOL    HW114510   4.200   3.364   1.166
 4537SOL    HW214511   4.330   3.358   1.068
 4538SOL     OW14512   2.787   0.646   2.140
 4538SOL    HW114513   2.823   0.629   2.048
 4538SOL    HW214514   2.797   0.564   2.195
 4539SOL     OW14515   3.534   5.692   5.092
 4539SOL    HW114516   3.634   5.695   5.097
 4539SOL    HW214517   3.501   5.607   5.131
 4540SOL     OW14518   2.415   2.062   0.161
 4540SOL    HW114519   2.397   2.018   0.073
 4540SOL    HW214520   2.384   2.157   0.158
 4541SOL     OW14521   5.311   1.717   6.301
 4541SOL    HW114522   5.300   1.648   6.374
 4541SOL    HW214523   5.298   1.673   6.212
 4542SOL     OW14524   0.136   2.506   1.516
 4542SOL    HW114525   0.165   2.478   1.608
 4542SOL    HW214526   0.156   2.432   1.451
 4543SOL     OW14527   5.382   2.184   0.906
 4543SOL    HW114528   5.455   2.218   0.847
 4543SOL    HW214529   5.393   2.086   0.919
 4544SOL     OW14530   3.252   5.943   6.802
 4544SOL    HW114531   3.284   5.864   6.855
 4544SOL    HW214532   3.283   6.027   6.846
 4545SOL     OW14533   6.062   3.245   4.482
 4545SOL    HW114534   6.151   3.290   4.491
 4545SOL    HW214535   5.989   3.312   4.493
 4546SOL     OW14536   2.598   0.106   4.318
 4546SOL    HW114537   2.648   0.078   4.236
 4546SOL    HW214538   2.507   0.138   4.292
 4547SOL     OW14539   6.194   1.501   0.350
 4547SOL    HW114540   6.215   1.476   0.256
 4547SOL    HW214541   6.219   1.426   0.411
 4548SOL     OW14542   1.893   2.313   3.533
 4548SOL    HW114543   1.884   2.278   3.627
 4548SOL    HW214544   1.830   2.389   3.520
 4549SOL     OW14545   5.325   3.787   2.563
 4549SOL    HW114546   5.418   3.806   2.595
 4549SOL    HW214547   5.314   3.825   2.471
 4550SOL     OW14548   0.997   4.564   3.173
 4550SOL    HW114549   0.953   4.496   3.115
 4550SOL    HW214550   1.035   4.637   3.116
 4551SOL     OW14551   0.475   3.606   4.532
 4551SOL    HW114552   0.501   3.634   4.625
 4551SOL    HW214553   0.526   3.524   4.507
 4552SOL     OW14554   5.692   1.968   0.896
 4552SOL    HW114555   5.693   2.003   0.802
 4552SOL    HW214556   5.756   2.020   0.952
 4553SOL     OW14557   4.898   4.205   0.264
 4553SOL    HW114558   4.911   4.296   0.226
 4553SOL    HW214559   4.801   4.188   0.280
 4554SOL     OW14560   6.790   0.096   1.915
 4554SOL    HW114561   6.717   0.133   1.858
 4554SOL    HW214562   6.875   0.146   1.898
 4555SOL     OW14563   2.009   1.541   5.670
 4555SOL    HW114564   1.931   1.540   5.733
 4555SOL    HW214565   2.077   1.476   5.702
 4556SOL     OW14566   5.790   3.838   4.606
 4556SOL    HW114567   5.827   3.845   4.699
 4556SOL    HW214568   5.823   3.754   4.563
 4557SOL     OW14569   4.672   5.481   4.358
 4557SOL    HW114570   4.633   5.395   4.325
 4557SOL    HW214571   4.758   5.498   4.310
 4558SOL     OW14572   0.292   4.289   4.817
 4558SOL    HW114573   0.304   4.199   4.774
 4558SOL    HW214574   0.330   4.360   4.757
 4559SOL     OW14575   6.573   3.542   2.599
 4559SOL    HW114576   6.589   3.533   2.501
 4559SOL    HW214577   6.659   3.562   2.646
 4560SOL     OW14578   5.690   3.632   1.116
 4560SOL    HW114579   5.738   3.689   1.183
 4560SOL    HW214580   5.728   3.540   1.118
 4561SOL     OW14581   3.421   2.131   3.472
 4561SOL    HW114582   3.451   2.090   3.386
 4561SOL    HW214583   3.345   2.193   3.455
 4562SOL     OW14584   1.596   6.778   0.136
 4562SOL    HW114585   1.598   6.731   0.048
 4562SOL    HW214586   1.512   6.754   0.185
 4563SOL     OW14587   6.990   3.138   1.413
 4563SOL    HW114588   6.923   3.122   1.485
 4563SOL    HW214589   6.949   3.193   1.341
 4564SOL     OW14590   0.116   6.243   1.950
 4564SOL    HW114591   0.191   6.294   1.992
 4564SOL    HW214592   0.040   6.236   2.015
 4565SOL     OW14593   1.391   0.474   4.445
 4565SOL    HW114594   1.402   0.376   4.457
 4565SOL    HW214595   1.363   0.493   4.351
 4566SOL     OW14596   0.377   3.312   0.922
 4566SOL    HW114597   0.285   3.274   0.913
 4566SOL    HW214598   0.432   3.256   0.984
 4567SOL     OW14599   6.599   1.588   6.834
 4567SOL    HW114600   6.625   1.651   6.761
 4567SOL    HW214601   6.499   1.585   6.841
 4568SOL     OW14602   1.849   3.724   5.527
 4568SOL    HW114603   1.901   3.651   5.572
 4568SOL    HW214604   1.910   3.800   5.504
 4569SOL     OW14605   2.523   0.394   3.302
 4569SOL    HW114606   2.455   0.338   3.349
 4569SOL    HW214607   2.594   0.421   3.367
 4570SOL     OW14608   6.706   6.361   2.236
 4570SOL    HW114609   6.632   6.427   2.224
 4570SOL    HW214610   6.731   6.323   2.147
 4571SOL     OW14611   4.625   3.732   6.254
 4571SOL    HW114612   4.632   3.825   6.218
 4571SOL    HW214613   4.622   3.736   6.354
 4572SOL     OW14614   2.065   0.978   6.490
 4572SOL    HW114615   2.133   1.040   6.450
 4572SOL    HW214616   2.112   0.903   6.537
 4573SOL     OW14617   6.923   6.996   0.728
 4573SOL    HW114618   7.000   7.020   0.668
 4573SOL    HW214619   6.902   0.044   0.787
 4574SOL     OW14620   6.009   4.025   0.270
 4574SOL    HW114621   6.068   4.016   0.350
 4574SOL    HW214622   5.965   3.938   0.250
 4575SOL     OW14623   5.893   0.300   5.488
 4575SOL    HW114624   5.842   0.381   5.515
 4575SOL    HW214625   5.908   0.242   5.569
 4576SOL     OW14626   4.001   5.495   5.642
 4576SOL    HW114627   4.067   5.461   5.709
 4576SOL    HW214628   4.047   5.507   5.554
 4577SOL     OW14629   0.930   2.787   4.193
 4577SOL    HW114630   1.015   2.815   4.236
 4577SOL    HW214631   0.859   2.855   4.210
 4578SOL     OW14632   0.908   2.198   5.203
 4578SOL    HW114633   0.844   2.142   5.149
 4578SOL    HW214634   0.897   2.177   5.300
 4579SOL     OW14635   4.387   0.258   3.100
 4579SOL    HW114636   4.406   0.352   3.127
 4579SOL    HW214637   4.424   0.195   3.168
 4580SOL     OW14638   5.482   3.748   0.558
 4580SOL    HW114639   5.387   3.717   0.555
 4580SOL    HW214640   5.486   3.847   0.546
 4581SOL     OW14641   1.976   5.755   2.572
 4581SOL    HW114642   2.054   5.817   2.580
 4581SOL    HW214643   1.892   5.809   2.557
 4582SOL     OW14644   4.530   0.507   4.281
 4582SOL    HW114645   4.624   0.511   4.250
 4582SOL    HW214646   4.483   0.593   4.259
 4583SOL     OW14647   2.982   1.985   0.065
 4583SOL    HW114648   3.007   2.082   0.068
 4583SOL    HW214649   2.891   1.975   0.025
 4584SOL     OW14650   1.703   5.029   5.393
 4584SOL    HW114651   1.638   4.971   5.345
 4584SOL    HW214652   1.758   5.079   5.327
 4585SOL     OW14653   1.438   5.425   3.235
 4585SOL    HW114654   1.375   5.392   3.164
 4585SOL    HW214655   1.525   5.376   3.227
 4586SOL     OW14656   4.172   4.030   0.966
 4586SOL    HW114657   4.244   4.034   0.897
 4586SOL    HW214658   4.082   4.030   0.921
 4587SOL     OW14659   3.665   3.988   3.498
 4587SOL    HW114660   3.678   4.022   3.591
 4587SOL    HW214661   3.590   4.038   3.454
 4588SOL     OW14662   2.688   3.209   5.616
 4588SOL    HW114663   2.694   3.302   5.578
 4588SOL    HW214664   2.713   3.211   5.713
 4589SOL     OW14665   5.779   0.680   2.011
 4589SOL    HW114666   5.716   0.709   2.083
 4589SOL    HW214667   5.781   0.748   1.938
 4590SOL     OW14668   4.527   5.531   1.552
 4590SOL    HW114669   4.447   5.526   1.492
 4590SOL    HW214670   4.544   5.441   1.592
 4591SOL     OW14671   1.350   0.271   4.887
 4591SOL    HW114672   1.375   0.357   4.841
 4591SOL    HW214673   1.430   0.211   4.892
 4592SOL     OW14674   3.020   1.289   3.409
 4592SOL    HW114675   3.096   1.239   3.366
 4592SOL    HW214676   3.032   1.289   3.508
 4593SOL     OW14677   5.606   6.218   1.897
 4593SOL    HW114678   5.599   6.156   1.819
 4593SOL    HW214679   5.664   6.176   1.967
 4594SOL     OW14680   2.942   0.744   3.376
 4594SOL    HW114681   2.912   0.711   3.287
 4594SOL    HW214682   2.862   0.773   3.430
 4595SOL     OW14683   4.935   2.941   5.977
 4595SOL    HW114684   4.865   2.871   5.990
 4595SOL    HW214685   5.014   2.919   6.034
 4596SOL     OW14686   6.718   0.615   2.664
 4596SOL    HW114687   6.630   0.660   2.681
 4596SOL    HW214688   6.792   0.674   2.697
 4597SOL     OW14689   2.916   5.616   6.740
 4597SOL    HW114690   2.919   5.555   6.819
 4597SOL    HW214691   2.929   5.711   6.771
 4598SOL     OW14692   1.244   5.536   1.043
 4598SOL    HW114693   1.271   5.527   0.947
 4598SOL    HW214694   1.187   5.458   1.069
 4599SOL     OW14695   1.051   5.279   1.036
 4599SOL    HW114696   0.956   5.280   1.064
 4599SOL    HW214697   1.092   5.190   1.058
 4600SOL     OW14698   0.365   6.078   5.551
 4600SOL    HW114699   0.266   6.091   5.548
 4600SOL    HW214700   0.387   6.000   5.610
 4601SOL     OW14701   1.259   1.652   5.114
 4601SOL    HW114702   1.271   1.752   5.111
 4601SOL    HW214703   1.224   1.620   5.026
 4602SOL     OW14704   3.373   6.318   0.365
 4602SOL    HW114705   3.433   6.258   0.417
 4602SOL    HW214706   3.300   6.351   0.424
 4603SOL     OW14707   3.823   6.212   1.211
 4603SOL    HW114708   3.891   6.268   1.257
 4603SOL    HW214709   3.748   6.269   1.179
 4604SOL     OW14710   4.492   0.036   0.026
 4604SOL    HW114711   4.545   7.006   0.086
 4604SOL    HW214712   4.518   0.131   0.041
 4605SOL     OW14713   1.254   6.196   2.316
 4605SOL    HW114714   1.263   6.097   2.327
 4605SOL    HW214715   1.168   6.217   2.269
 4606SOL     OW14716   0.733   6.620   2.472
 4606SOL    HW114717   0.637   6.615   2.444
 4606SOL    HW214718   0.770   6.528   2.480
 4607SOL     OW14719   2.077   3.431   3.135
 4607SOL    HW114720   2.088   3.376   3.218
 4607SOL    HW214721   2.123   3.519   3.147
 4608SOL     OW14722   0.351   5.096   3.886
 4608SOL    HW114723   0.334   5.147   3.970
 4608SOL    HW214724   0.361   5.160   3.809
 4609SOL     OW14725   5.111   5.103   6.643
 4609SOL    HW114726   5.206   5.095   6.614
 4609SOL    HW214727   5.093   5.196   6.674
 4610SOL     OW14728   5.055   1.425   0.628
 4610SOL    HW114729   5.093   1.368   0.702
 4610SOL    HW214730   4.959   1.444   0.647
 4611SOL     OW14731   1.222   6.834   5.953
 4611SOL    HW114732   1.204   6.910   5.891
 4611SOL    HW214733   1.240   6.751   5.901
 4612SOL     OW14734   2.123   6.693   0.833
 4612SOL    HW114735   2.216   6.730   0.839
 4612SOL    HW214736   2.059   6.753   0.881
 4613SOL     OW14737   1.433   5.850   2.157
 4613SOL    HW114738   1.362   5.856   2.087
 4613SOL    HW214739   1.522   5.839   2.113
 4614SOL     OW14740   5.812   3.134   3.843
 4614SOL    HW114741   5.888   3.198   3.851
 4614SOL    HW214742   5.727   3.186   3.831
 4615SOL     OW14743   0.632   1.407   0.736
 4615SOL    HW114744   0.712   1.462   0.709
 4615SOL    HW214745   0.623   1.329   0.673
 4616SOL     OW14746   6.500   1.347   4.581
 4616SOL    HW114747   6.560   1.272   4.608
 4616SOL    HW214748   6.425   1.312   4.525
 4617SOL     OW14749   1.199   1.879   2.986
 4617SOL    HW114750   1.191   1.947   3.059
 4617SOL    HW214751   1.214   1.789   3.025
 4618SOL     OW14752   2.495   3.295   5.372
 4618SOL    HW114753   2.435   3.365   5.333
 4618SOL    HW214754   2.490   3.211   5.317
 4619SOL     OW14755   2.897   6.042   3.434
 4619SOL    HW114756   2.915   5.945   3.446
 4619SOL    HW214757   2.822   6.070   3.494
 4620SOL     OW14758   0.604   5.107   0.954
 4620SOL    HW114759   0.676   5.171   0.981
 4620SOL    HW214760   0.559   5.072   1.037
 4621SOL     OW14761   5.063   0.631   2.441
 4621SOL    HW114762   5.101   0.554   2.389
 4621SOL    HW214763   5.005   0.596   2.514
 4622SOL     OW14764   4.028   4.432   0.573
 4622SOL    HW114765   4.052   4.467   0.663
 4622SOL    HW214766   3.978   4.502   0.522
 4623SOL     OW14767   5.370   5.778   1.526
 4623SOL    HW114768   5.380   5.820   1.436
 4623SOL    HW214769   5.307   5.701   1.520
 4624SOL     OW14770   3.691   0.026   3.149
 4624SOL    HW114771   3.607   0.032   3.202
 4624SOL    HW214772   3.670   0.025   3.051
 4625SOL     OW14773   1.498   5.198   1.612
 4625SOL    HW114774   1.443   5.150   1.544
 4625SOL    HW214775   1.581   5.234   1.568
 4626SOL     OW14776   4.619   3.824   1.633
 4626SOL    HW114777   4.544   3.887   1.652
 4626SOL    HW214778   4.592   3.760   1.561
 4627SOL     OW14779   2.124   4.884   4.845
 4627SOL    HW114780   2.147   4.930   4.930
 4627SOL    HW214781   2.027   4.897   4.824
 4628SOL     OW14782   4.584   4.395   4.800
 4628SOL    HW114783   4.520   4.438   4.863
 4628SOL    HW214784   4.581   4.296   4.813
 4629SOL     OW14785   2.375   5.146   5.686
 4629SOL    HW114786   2.307   5.172   5.755
 4629SOL    HW214787   2.335   5.080   5.623
 4630SOL     OW14788   2.103   5.643   2.294
 4630SOL    HW114789   2.072   5.581   2.223
 4630SOL    HW214790   2.027   5.666   2.354
 4631SOL     OW14791   1.321   6.341   3.513
 4631SOL    HW114792   1.347   6.248   3.540
 4631SOL    HW214793   1.229   6.340   3.472
 4632SOL     OW14794   2.229   4.074   2.326
 4632SOL    HW114795   2.246   4.157   2.273
 4632SOL    HW214796   2.146   4.086   2.381
 4633SOL     OW14797   5.752   0.855   4.324
 4633SOL    HW114798   5.812   0.917   4.374
 4633SOL    HW214799   5.808   0.793   4.269
 4634SOL     OW14800   2.718   3.951   5.256
 4634SOL    HW114801   2.801   3.930   5.205
 4634SOL    HW214802   2.644   3.974   5.193
 4635SOL     OW14803   4.548   4.250   1.595
 4635SOL    HW114804   4.531   4.157   1.564
 4635SOL    HW214805   4.545   4.252   1.695
 4636SOL     OW14806   1.828   4.317   0.523
 4636SOL    HW114807   1.769   4.395   0.504
 4636SOL    HW214808   1.874   4.289   0.438
 4637SOL     OW14809   1.092   6.583   0.907
 4637SOL    HW114810   1.089   6.556   1.003
 4637SOL    HW214811   1.151   6.664   0.897
 4638SOL     OW14812   4.101   5.509   0.135
 4638SOL    HW114813   4.171   5.575   0.106
 4638SOL    HW214814   4.054   5.544   0.216
 4639SOL     OW14815   3.485   2.936   6.498
 4639SOL    HW114816   3.566   2.877   6.495
 4639SOL    HW214817   3.487   2.998   6.419
 4640SOL     OW14818   5.080   4.055   4.330
 4640SOL    HW114819   5.111   4.015   4.244
 4640SOL    HW214820   5.124   4.145   4.342
 4641SOL     OW14821   2.492   0.895   4.488
 4641SOL    HW114822   2.579   0.942   4.478
 4641SOL    HW214823   2.506   0.796   4.480
 4642SOL     OW14824   1.497   0.030   2.762
 4642SOL    HW114825   1.403   0.001   2.742
 4642SOL    HW214826   1.506   0.128   2.746
 4643SOL     OW14827   6.600   1.589   0.370
 4643SOL    HW114828   6.577   1.650   0.295
 4643SOL    HW214829   6.697   1.600   0.394
 4644SOL     OW14830   0.780   0.247   5.257
 4644SOL    HW114831   0.788   0.172   5.192
 4644SOL    HW214832   0.817   0.219   5.346
 4645SOL     OW14833   1.425   0.685   4.618
 4645SOL    HW114834   1.351   0.752   4.622
 4645SOL    HW214835   1.397   0.607   4.563
 4646SOL     OW14836   2.366   5.789   3.639
 4646SOL    HW114837   2.409   5.707   3.677
 4646SOL    HW214838   2.290   5.762   3.580
 4647SOL     OW14839   1.729   0.794   2.756
 4647SOL    HW114840   1.685   0.877   2.721
 4647SOL    HW214841   1.753   0.807   2.852
 4648SOL     OW14842   3.796   0.960   3.552
 4648SOL    HW114843   3.763   0.868   3.576
 4648SOL    HW214844   3.720   1.015   3.518
 4649SOL     OW14845   5.998   0.884   0.562
 4649SOL    HW114846   5.923   0.940   0.598
 4649SOL    HW214847   6.001   0.797   0.611
 4650SOL     OW14848   4.643   5.552   1.881
 4650SOL    HW114849   4.594   5.514   1.959
 4650SOL    HW214850   4.581   5.610   1.828
 4651SOL     OW14851   6.479   3.243   6.288
 4651SOL    HW114852   6.546   3.313   6.310
 4651SOL    HW214853   6.441   3.261   6.197
 4652SOL     OW14854   6.604   6.174   4.530
 4652SOL    HW114855   6.568   6.093   4.574
 4652SOL    HW214856   6.704   6.168   4.525
 4653SOL     OW14857   5.523   6.158   1.290
 4653SOL    HW114858   5.536   6.199   1.200
 4653SOL    HW214859   5.426   6.139   1.304
 4654SOL     OW14860   0.411   5.878   6.093
 4654SOL    HW114861   0.323   5.888   6.139
 4654SOL    HW214862   0.462   5.963   6.099
 4655SOL     OW14863   6.274   3.473   1.030
 4655SOL    HW114864   6.232   3.385   1.051
 4655SOL    HW214865   6.203   3.544   1.027
 4656SOL     OW14866   1.175   1.244   1.658
 4656SOL    HW114867   1.167   1.162   1.714
 4656SOL    HW214868   1.264   1.243   1.611
 4657SOL     OW14869   4.635   6.033   1.453
 4657SOL    HW114870   4.723   6.080   1.446
 4657SOL    HW214871   4.587   6.062   1.536
 4658SOL     OW14872   2.960   0.917   4.524
 4658SOL    HW114873   3.042   0.868   4.493
 4658SOL    HW214874   2.896   0.852   4.565
 4659SOL     OW14875   2.720   4.513   6.052
 4659SOL    HW114876   2.632   4.465   6.045
 4659SOL    HW214877   2.794   4.446   6.059
 4660SOL     OW14878   1.273   6.044   4.723
 4660SOL    HW114879   1.297   6.094   4.640
 4660SOL    HW214880   1.181   6.070   4.752
 4661SOL     OW14881   3.222   4.765   6.738
 4661SOL    HW114882   3.181   4.757   6.829
 4661SOL    HW214883   3.320   4.781   6.746
 4662SOL     OW14884   2.574   0.331   5.597
 4662SOL    HW114885   2.505   0.402   5.609
 4662SOL    HW214886   2.657   0.357   5.647
 4663SOL     OW14887   0.316   0.780   1.519
 4663SOL    HW114888   0.317   0.701   1.458
 4663SOL    HW214889   0.355   0.753   1.607
 4664SOL     OW14890   1.118   0.684   0.465
 4664SOL    HW114891   1.099   0.778   0.494
 4664SOL    HW214892   1.199   0.650   0.512
 4665SOL     OW14893   3.217   6.972   6.200
 4665SOL    HW114894   3.297   6.955   6.258
 4665SOL    HW214895   3.139   6.995   6.258
 4666SOL     OW14896   2.082   2.822   0.186
 4666SOL    HW114897   2.002   2.773   0.149
 4666SOL    HW214898   2.098   2.905   0.131
 4667SOL     OW14899   6.378   3.759   1.560
 4667SOL    HW114900   6.375   3.758   1.660
 4667SOL    HW214901   6.292   3.794   1.525
 4668SOL     OW14902   4.792   1.533   3.962
 4668SOL    HW114903   4.758   1.440   3.954
 4668SOL    HW214904   4.743   1.579   4.036
 4669SOL     OW14905   4.892   5.921   6.571
 4669SOL    HW114906   4.911   5.823   6.585
 4669SOL    HW214907   4.798   5.940   6.599
 4670SOL     OW14908   0.954   2.574   6.247
 4670SOL    HW114909   0.950   2.608   6.153
 4670SOL    HW214910   1.022   2.501   6.253
 4671SOL     OW14911   0.729   3.212   6.628
 4671SOL    HW114912   0.638   3.252   6.642
 4671SOL    HW214913   0.780   3.269   6.564
 4672SOL     OW14914   2.990   4.845   6.616
 4672SOL    HW114915   2.964   4.937   6.646
 4672SOL    HW214916   3.084   4.827   6.645
 4673SOL     OW14917   5.095   0.469   1.237
 4673SOL    HW114918   5.004   0.503   1.259
 4673SOL    HW214919   5.144   0.447   1.322
 4674SOL     OW14920   5.282   1.296   0.090
 4674SOL    HW114921   5.235   1.279   0.177
 4674SOL    HW214922   5.318   1.389   0.090
 4675SOL     OW14923   3.382   0.801   0.599
 4675SOL    HW114924   3.351   0.805   0.504
 4675SOL    HW214925   3.429   0.885   0.623
 4676SOL     OW14926   0.203   6.679   4.250
 4676SOL    HW114927   0.197   6.644   4.157
 4676SOL    HW214928   0.297   6.671   4.283
 4677SOL     OW14929   3.014   1.038   0.362
 4677SOL    HW114930   2.922   1.026   0.399
 4677SOL    HW214931   3.022   0.992   0.274
 4678SOL     OW14932   1.911   4.437   2.521
 4678SOL    HW114933   1.837   4.375   2.493
 4678SOL    HW214934   1.973   4.389   2.584
 4679SOL     OW14935   3.796   1.211   0.104
 4679SOL    HW114936   3.851   1.128   0.102
 4679SOL    HW214937   3.791   1.247   0.197
 4680SOL     OW14938   1.905   0.314   2.179
 4680SOL    HW114939   1.819   0.355   2.210
 4680SOL    HW214940   1.897   0.215   2.179
 4681SOL     OW14941   6.091   5.423   5.555
 4681SOL    HW114942   6.179   5.414   5.602
 4681SOL    HW214943   6.020   5.448   5.621
 4682SOL     OW14944   4.373   4.129   6.265
 4682SOL    HW114945   4.366   4.214   6.212
 4682SOL    HW214946   4.317   4.137   6.348
 4683SOL     OW14947   4.616   4.737   2.356
 4683SOL    HW114948   4.661   4.679   2.288
 4683SOL    HW214949   4.524   4.703   2.373
 4684SOL     OW14950   6.867   1.564   4.410
 4684SOL    HW114951   6.901   1.561   4.504
 4684SOL    HW214952   6.767   1.562   4.411
 4685SOL     OW14953   0.216   6.495   5.183
 4685SOL    HW114954   0.219   6.396   5.196
 4685SOL    HW214955   0.283   6.539   5.243
 4686SOL     OW14956   5.348   5.587   0.373
 4686SOL    HW114957   5.385   5.510   0.322
 4686SOL    HW214958   5.422   5.635   0.420
 4687SOL     OW14959   6.998   4.882   5.244
 4687SOL    HW114960   0.021   4.929   5.173
 4687SOL    HW214961   0.030   4.856   5.319
 4688SOL     OW14962   6.630   3.508   5.592
 4688SOL    HW114963   6.716   3.532   5.636
 4688SOL    HW214964   6.638   3.418   5.548
 4689SOL     OW14965   6.318   0.431   0.095
 4689SOL    HW114966   6.352   0.426   0.001
 4689SOL    HW214967   6.237   0.374   0.104
 4690SOL     OW14968   1.444   0.897   0.065
 4690SOL    HW114969   1.399   0.972   0.017
 4690SOL    HW214970   1.375   0.833   0.099
 4691SOL     OW14971   3.017   4.787   1.924
 4691SOL    HW114972   2.952   4.713   1.943
 4691SOL    HW214973   2.984   4.841   1.847
 4692SOL     OW14974   6.592   5.838   2.425
 4692SOL    HW114975   6.538   5.781   2.486
 4692SOL    HW214976   6.683   5.798   2.413
 4693SOL     OW14977   0.633   0.831   3.543
 4693SOL    HW114978   0.608   0.743   3.583
 4693SOL    HW214979   0.565   0.858   3.476
 4694SOL     OW14980   3.113   0.618   0.210
 4694SOL    HW114981   3.064   0.694   0.251
 4694SOL    HW214982   3.130   0.548   0.279
 4695SOL     OW14983   2.528   3.104   1.678
 4695SOL    HW114984   2.449   3.147   1.723
 4695SOL    HW214985   2.501   3.014   1.643
 4696SOL     OW14986   0.476   4.518   5.798
 4696SOL    HW114987   0.556   4.549   5.747
 4696SOL    HW214988   0.424   4.453   5.742
 4697SOL     OW14989   1.860   2.817   0.947
 4697SOL    HW114990   1.930   2.875   0.904
 4697SOL    HW214991   1.785   2.802   0.882
 4698SOL     OW14992   3.770   5.770   2.910
 4698SOL    HW114993   3.837   5.708   2.869
 4698SOL    HW214994   3.742   5.735   2.999
 4699SOL     OW14995   0.940   6.147   2.330
 4699SOL    HW114996   0.967   6.207   2.255
 4699SOL    HW214997   0.885   6.072   2.293
 4700SOL     OW14998   6.470   1.496   2.719
 4700SOL    HW114999   6.465   1.546   2.632
 4700SOL    HW215000   6.506   1.404   2.702
 4701SOL     OW15001   2.022   1.918   1.256
 4701SOL    HW115002   1.954   1.863   1.305
 4701SOL    HW215003   1.991   1.935   1.163
 4702SOL     OW15004   5.788   4.688   6.649
 4702SOL    HW115005   5.857   4.620   6.624
 4702SOL    HW215006   5.701   4.642   6.667
 4703SOL     OW15007   1.167   2.700   1.855
 4703SOL    HW115008   1.249   2.757   1.860
 4703SOL    HW215009   1.142   2.685   1.760
 4704SOL     OW15010   1.152   6.668   6.981
 4704SOL    HW115011   1.114   6.760   6.968
 4704SOL    HW215012   1.246   6.675   7.013
 4705SOL     OW15013   3.714   3.284   2.556
 4705SOL    HW115014   3.733   3.186   2.560
 4705SOL    HW215015   3.774   3.327   2.488
 4706SOL     OW15016   3.702   6.564   6.386
 4706SOL    HW115017   3.707   6.522   6.476
 4706SOL    HW215018   3.607   6.589   6.366
 4707SOL     OW15019   2.226   5.653   0.773
 4707SOL    HW115020   2.294   5.667   0.701
 4707SOL    HW215021   2.243   5.718   0.848
 4708SOL     OW15022   1.456   2.556   6.532
 4708SOL    HW115023   1.508   2.637   6.559
 4708SOL    HW215024   1.369   2.555   6.581
 4709SOL     OW15025   3.958   5.496   5.133
 4709SOL    HW115026   3.894   5.569   5.111
 4709SOL    HW215027   3.984   5.448   5.049
 4710SOL     OW15028   3.717   1.316   6.045
 4710SOL    HW115029   3.650   1.242   6.058
 4710SOL    HW215030   3.710   1.380   6.122
 4711SOL     OW15031   5.391   0.666   1.855
 4711SOL    HW115032   5.489   0.653   1.842
 4711SOL    HW215033   5.341   0.591   1.812
 4712SOL     OW15034   3.110   4.208   0.573
 4712SOL    HW115035   3.111   4.169   0.480
 4712SOL    HW215036   3.131   4.136   0.639
 4713SOL     OW15037   3.170   4.195   1.132
 4713SOL    HW115038   3.239   4.125   1.147
 4713SOL    HW215039   3.108   4.166   1.060
 4714SOL     OW15040   1.891   2.512   0.070
 4714SOL    HW115041   1.862   2.607   0.063
 4714SOL    HW215042   1.882   2.467   7.010
 4715SOL     OW15043   6.671   3.336   1.643
 4715SOL    HW115044   6.679   3.270   1.568
 4715SOL    HW215045   6.761   3.356   1.680
 4716SOL     OW15046   4.368   5.953   6.484
 4716SOL    HW115047   4.316   6.022   6.533
 4716SOL    HW215048   4.305   5.888   6.441
 4717SOL     OW15049   0.297   6.691   3.539
 4717SOL    HW115050   0.329   6.775   3.494
 4717SOL    HW215051   0.207   6.706   3.578
 4718SOL     OW15052   5.384   2.045   6.745
 4718SOL    HW115053   5.292   2.079   6.763
 4718SOL    HW215054   5.428   2.102   6.676
 4719SOL     OW15055   5.142   3.274   2.415
 4719SOL    HW115056   5.096   3.190   2.444
 4719SOL    HW215057   5.211   3.252   2.345
 4720SOL     OW15058   1.977   5.902   5.628
 4720SOL    HW115059   1.923   5.984   5.652
 4720SOL    HW215060   2.061   5.930   5.582
 4721SOL     OW15061   6.865   2.682   0.981
 4721SOL    HW115062   6.796   2.712   0.915
 4721SOL    HW215063   6.845   2.588   1.009
 4722SOL     OW15064   1.024   5.549   6.760
 4722SOL    HW115065   1.002   5.458   6.795
 4722SOL    HW215066   0.965   5.617   6.804
 4723SOL     OW15067   2.317   4.693   6.159
 4723SOL    HW115068   2.277   4.647   6.081
 4723SOL    HW215069   2.410   4.661   6.174
 4724SOL     OW15070   5.102   5.823   2.932
 4724SOL    HW115071   5.025   5.846   2.991
 4724SOL    HW215072   5.182   5.878   2.957
 4725SOL     OW15073   6.531   6.583   2.189
 4725SOL    HW115074   6.565   6.675   2.209
 4725SOL    HW215075   6.446   6.567   2.239
 4726SOL     OW15076   2.209   3.021   6.495
 4726SOL    HW115077   2.256   3.006   6.408
 4726SOL    HW215078   2.114   3.046   6.477
 4727SOL     OW15079   0.287   6.410   6.657
 4727SOL    HW115080   0.377   6.366   6.652
 4727SOL    HW215081   0.299   6.505   6.685
 4728SOL     OW15082   5.023   0.684   0.185
 4728SOL    HW115083   5.114   0.645   0.166
 4728SOL    HW215084   5.034   0.776   0.223
 4729SOL     OW15085   2.542   1.475   1.818
 4729SOL    HW115086   2.465   1.411   1.818
 4729SOL    HW215087   2.614   1.441   1.759
 4730SOL     OW15088   2.525   5.473   5.326
 4730SOL    HW115089   2.546   5.544   5.259
 4730SOL    HW215090   2.554   5.384   5.290
 4731SOL     OW15091   4.343   0.161   5.954
 4731SOL    HW115092   4.275   0.151   6.026
 4731SOL    HW215093   4.434   0.174   5.995
 4732SOL     OW15094   0.225   3.997   5.636
 4732SOL    HW115095   0.206   4.090   5.606
 4732SOL    HW215096   0.322   3.989   5.659
 4733SOL     OW15097   1.651   4.241   3.596
 4733SOL    HW115098   1.672   4.144   3.606
 4733SOL    HW215099   1.597   4.272   3.675
 4734SOL     OW15100   5.166   2.851   6.633
 4734SOL    HW115101   5.220   2.851   6.717
 4734SOL    HW215102   5.206   2.787   6.568
 4735SOL     OW15103   1.114   5.675   4.136
 4735SOL    HW115104   1.083   5.591   4.182
 4735SOL    HW215105   1.213   5.683   4.145
 4736SOL     OW15106   0.268   1.619   6.164
 4736SOL    HW115107   0.240   1.542   6.221
 4736SOL    HW215108   0.263   1.704   6.217
 4737SOL     OW15109   1.148   4.840   2.214
 4737SOL    HW115110   1.052   4.813   2.208
 4737SOL    HW215111   1.157   4.938   2.196
 4738SOL     OW15112   7.015   5.639   2.842
 4738SOL    HW115113   6.948   5.693   2.893
 4738SOL    HW215114   0.077   5.677   2.857
 4739SOL     OW15115   4.887   6.860   3.530
 4739SOL    HW115116   4.884   6.809   3.444
 4739SOL    HW215117   4.824   6.818   3.596
 4740SOL     OW15118   0.333   1.547   0.931
 4740SOL    HW115119   0.320   1.455   0.896
 4740SOL    HW215120   0.356   1.543   1.029
 4741SOL     OW15121   3.506   2.963   1.223
 4741SOL    HW115122   3.537   2.923   1.309
 4741SOL    HW215123   3.408   2.946   1.212
 4742SOL     OW15124   2.395   6.295   5.208
 4742SOL    HW115125   2.358   6.205   5.231
 4742SOL    HW215126   2.322   6.354   5.176
 4743SOL     OW15127   2.306   4.168   2.830
 4743SOL    HW115128   2.264   4.122   2.909
 4743SOL    HW215129   2.288   4.116   2.747
 4744SOL     OW15130   1.854   5.147   0.967
 4744SOL    HW115131   1.882   5.210   0.894
 4744SOL    HW215132   1.893   5.178   1.054
 4745SOL     OW15133   2.905   4.382   6.585
 4745SOL    HW115134   2.972   4.308   6.596
 4745SOL    HW215135   2.844   4.383   6.664
 4746SOL     OW15136   4.468   6.670   3.872
 4746SOL    HW115137   4.499   6.729   3.947
 4746SOL    HW215138   4.517   6.583   3.877
 4747SOL     OW15139   0.961   3.652   0.639
 4747SOL    HW115140   1.023   3.632   0.715
 4747SOL    HW215141   0.962   3.750   0.619
 4748SOL     OW15142   1.675   5.842   1.174
 4748SOL    HW115143   1.586   5.812   1.208
 4748SOL    HW215144   1.717   5.904   1.241
 4749SOL     OW15145   1.958   6.367   6.677
 4749SOL    HW115146   1.942   6.466   6.679
 4749SOL    HW215147   1.963   6.337   6.582
 4750SOL     OW15148   6.784   3.393   5.239
 4750SOL    HW115149   6.752   3.455   5.167
 4750SOL    HW215150   6.853   3.439   5.294
 4751SOL     OW15151   4.545   2.569   2.793
 4751SOL    HW115152   4.587   2.645   2.744
 4751SOL    HW215153   4.503   2.506   2.727
 4752SOL     OW15154   4.408   1.017   0.134
 4752SOL    HW115155   4.383   1.101   0.086
 4752SOL    HW215156   4.387   0.939   0.075
 4753SOL     OW15157   0.551   0.359   4.158
 4753SOL    HW115158   0.576   0.380   4.252
 4753SOL    HW215159   0.596   0.423   4.096
 4754SOL     OW15160   5.256   3.906   4.534
 4754SOL    HW115161   5.292   3.927   4.625
 4754SOL    HW215162   5.331   3.874   4.475
 4755SOL     OW15163   3.142   1.193   0.571
 4755SOL    HW115164   3.206   1.262   0.536
 4755SOL    HW215165   3.114   1.133   0.496
 4756SOL     OW15166   5.470   3.578   5.396
 4756SOL    HW115167   5.479   3.610   5.301
 4756SOL    HW215168   5.474   3.478   5.397
 4757SOL     OW15169   2.437   1.988   1.495
 4757SOL    HW115170   2.411   2.057   1.427
 4757SOL    HW215171   2.355   1.949   1.536
 4758SOL     OW15172   1.494   6.286   3.078
 4758SOL    HW115173   1.548   6.215   3.034
 4758SOL    HW215174   1.553   6.342   3.137
 4759SOL     OW15175   0.898   4.591   6.335
 4759SOL    HW115176   0.871   4.655   6.263
 4759SOL    HW215177   0.897   4.639   6.423
 4760SOL     OW15178   2.543   1.676   0.670
 4760SOL    HW115179   2.566   1.744   0.601
 4760SOL    HW215180   2.448   1.686   0.698
 4761SOL     OW15181   1.335   0.385   0.772
 4761SOL    HW115182   1.267   0.407   0.842
 4761SOL    HW215183   1.346   0.285   0.768
 4762SOL     OW15184   1.165   5.908   2.654
 4762SOL    HW115185   1.173   5.960   2.740
 4762SOL    HW215186   1.256   5.891   2.617
 4763SOL     OW15187   5.490   0.559   2.628
 4763SOL    HW115188   5.483   0.544   2.529
 4763SOL    HW215189   5.441   0.641   2.654
 4764SOL     OW15190   4.447   3.600   5.320
 4764SOL    HW115191   4.535   3.563   5.290
 4764SOL    HW215192   4.374   3.565   5.260
 4765SOL     OW15193   3.519   0.627   5.586
 4765SOL    HW115194   3.512   0.644   5.487
 4765SOL    HW215195   3.427   0.627   5.626
 4766SOL     OW15196   6.198   6.153   4.034
 4766SOL    HW115197   6.177   6.246   4.006
 4766SOL    HW215198   6.146   6.130   4.116
 4767SOL     OW15199   3.487   4.860   5.276
 4767SOL    HW115200   3.475   4.763   5.254
 4767SOL    HW215201   3.569   4.871   5.333
 4768SOL     OW15202   3.689   2.677   6.046
 4768SOL    HW115203   3.709   2.585   6.080
 4768SOL    HW215204   3.745   2.694   5.965
 4769SOL     OW15205   4.544   5.830   0.626
 4769SOL    HW115206   4.546   5.898   0.699
 4769SOL    HW215207   4.510   5.743   0.662
 4770SOL     OW15208   0.466   2.127   4.418
 4770SOL    HW115209   0.555   2.091   4.448
 4770SOL    HW215210   0.480   2.196   4.347
 4771SOL     OW15211   3.022   6.744   6.450
 4771SOL    HW115212   3.028   6.703   6.359
 4771SOL    HW215213   3.054   6.677   6.518
 4772SOL     OW15214   3.739   4.620   0.722
 4772SOL    HW115215   3.656   4.675   0.727
 4772SOL    HW215216   3.819   4.681   0.721
 4773SOL     OW15217   0.443   5.445   5.419
 4773SOL    HW115218   0.495   5.421   5.502
 4773SOL    HW215219   0.407   5.538   5.429
 4774SOL     OW15220   1.828   4.024   1.297
 4774SOL    HW115221   1.808   3.927   1.283
 4774SOL    HW215222   1.777   4.057   1.377
 4775SOL     OW15223   4.965   6.369   3.572
 4775SOL    HW115224   5.008   6.377   3.661
 4775SOL    HW215225   4.949   6.272   3.551
 4776SOL     OW15226   0.737   1.143   5.291
 4776SOL    HW115227   0.745   1.174   5.196
 4776SOL    HW215228   0.828   1.132   5.330
 4777SOL     OW15229   1.791   5.565   0.842
 4777SOL    HW115230   1.691   5.569   0.847
 4777SOL    HW215231   1.830   5.588   0.931
 4778SOL     OW15232   0.070   2.573   4.712
 4778SOL    HW115233   0.164   2.601   4.691
 4778SOL    HW215234   0.069   2.520   4.797
 4779SOL     OW15235   5.453   0.055   3.468
 4779SOL    HW115236   5.516   7.008   3.479
 4779SOL    HW215237   5.414   0.053   3.376
 4780SOL     OW15238   5.807   2.721   6.860
 4780SOL    HW115239   5.824   2.664   6.780
 4780SOL    HW215240   5.894   2.759   6.893
 4781SOL     OW15241   2.702   5.403   1.920
 4781SOL    HW115242   2.657   5.371   1.837
 4781SOL    HW215243   2.647   5.380   2.000
 4782SOL     OW15244   5.823   5.929   6.363
 4782SOL    HW115245   5.888   5.860   6.394
 4782SOL    HW215246   5.759   5.888   6.298
 4783SOL     OW15247   5.634   3.490   6.768
 4783SOL    HW115248   5.624   3.495   6.669
 4783SOL    HW215249   5.697   3.417   6.792
 4784SOL     OW15250   6.257   2.058   6.255
 4784SOL    HW115251   6.230   2.144   6.299
 4784SOL    HW215252   6.249   2.067   6.156
 4785SOL     OW15253   0.084   6.196   3.078
 4785SOL    HW115254   0.171   6.245   3.071
 4785SOL    HW215255   0.023   6.244   3.141
 4786SOL     OW15256   2.536   6.779   0.355
 4786SOL    HW115257   2.490   6.716   0.417
 4786SOL    HW215258   2.479   6.794   0.274
 4787SOL     OW15259   3.742   1.850   3.028
 4787SOL    HW115260   3.650   1.876   3.057
 4787SOL    HW215261   3.735   1.780   2.957
 4788SOL     OW15262   6.773   5.922   0.668
 4788SOL    HW115263   6.706   5.883   0.731
 4788SOL    HW215264   6.855   5.865   0.667
 4789SOL     OW15265   5.090   1.786   1.466
 4789SOL    HW115266   5.033   1.788   1.547
 4789SOL    HW215267   5.142   1.701   1.463
 4790SOL     OW15268   5.684   1.997   5.842
 4790SOL    HW115269   5.673   1.907   5.801
 4790SOL    HW215270   5.678   2.067   5.771
 4791SOL     OW15271   0.199   2.852   1.723
 4791SOL    HW115272   0.196   2.837   1.624
 4791SOL    HW215273   0.266   2.791   1.764
 4792SOL     OW15274   2.475   4.492   4.426
 4792SOL    HW115275   2.441   4.422   4.489
 4792SOL    HW215276   2.435   4.478   4.335
 4793SOL     OW15277   1.928   3.826   5.094
 4793SOL    HW115278   1.835   3.796   5.116
 4793SOL    HW215279   1.932   3.926   5.095
 4794SOL     OW15280   4.265   6.846   4.628
 4794SOL    HW115281   4.236   6.858   4.723
 4794SOL    HW215282   4.273   6.748   4.607
 4795SOL     OW15283   6.637   1.254   4.090
 4795SOL    HW115284   6.723   1.305   4.093
 4795SOL    HW215285   6.637   1.186   4.164
 4796SOL     OW15286   4.399   0.474   6.196
 4796SOL    HW115287   4.317   0.445   6.245
 4796SOL    HW215288   4.384   0.565   6.157
 4797SOL     OW15289   0.459   6.270   4.536
 4797SOL    HW115290   0.398   6.347   4.522
 4797SOL    HW215291   0.549   6.303   4.565
 4798SOL     OW15292   6.477   4.889   5.396
 4798SOL    HW115293   6.573   4.916   5.409
 4798SOL    HW215294   6.418   4.966   5.421
 4799SOL     OW15295   4.462   1.439   0.763
 4799SOL    HW115296   4.485   1.496   0.684
 4799SOL    HW215297   4.430   1.350   0.732
 4800SOL     OW15298   1.684   4.115   6.901
 4800SOL    HW115299   1.742   4.073   6.971
 4800SOL    HW215300   1.588   4.100   6.925
 4801SOL     OW15301   3.069   2.455   6.625
 4801SOL    HW115302   3.161   2.433   6.592
 4801SOL    HW215303   3.048   2.398   6.705
 4802SOL     OW15304   0.320   6.580   1.720
 4802SOL    HW115305   0.296   6.668   1.679
 4802SOL    HW215306   0.345   6.515   1.648
 4803SOL     OW15307   6.925   4.080   0.857
 4803SOL    HW115308   6.838   4.041   0.828
 4803SOL    HW215309   6.941   4.057   0.953
 4804SOL     OW15310   6.882   6.758   1.245
 4804SOL    HW115311   6.928   6.671   1.231
 4804SOL    HW215312   6.908   6.796   1.334
 4805SOL     OW15313   6.540   1.318   2.329
 4805SOL    HW115314   6.616   1.384   2.326
 4805SOL    HW215315   6.464   1.354   2.275
 4806SOL     OW15316   0.612   3.817   2.673
 4806SOL    HW115317   0.686   3.751   2.664
 4806SOL    HW215318   0.545   3.783   2.739
 4807SOL     OW15319   0.749   4.267   6.090
 4807SOL    HW115320   0.815   4.310   6.151
 4807SOL    HW215321   0.705   4.191   6.137
 4808SOL     OW15322   4.198   5.255   1.016
 4808SOL    HW115323   4.165   5.307   0.937
 4808SOL    HW215324   4.297   5.246   1.011
 4809SOL     OW15325   3.697   4.944   1.190
 4809SOL    HW115326   3.686   4.932   1.289
 4809SOL    HW215327   3.686   4.856   1.144
 4810SOL     OW15328   1.709   4.276   3.099
 4810SOL    HW115329   1.772   4.247   3.028
 4810SOL    HW215330   1.752   4.346   3.156
 4811SOL     OW15331   3.829   3.642   2.965
 4811SOL    HW115332   3.810   3.630   2.867
 4811SOL    HW215333   3.928   3.641   2.980
 4812SOL     OW15334   0.426   0.653   2.520
 4812SOL    HW115335   0.405   0.692   2.431
 4812SOL    HW215336   0.421   0.553   2.515
 4813SOL     OW15337   5.799   1.509   6.573
 4813SOL    HW115338   5.819   1.413   6.556
 4813SOL    HW215339   5.724   1.539   6.514
 4814SOL     OW15340   7.013   3.350   1.638
 4814SOL    HW115341   0.064   3.347   1.697
 4814SOL    HW215342   6.970   3.260   1.634
 4815SOL     OW15343   5.504   4.354   3.005
 4815SOL    HW115344   5.414   4.394   3.023
 4815SOL    HW215345   5.573   4.403   3.058
 4816SOL     OW15346   2.241   5.506   1.443
 4816SOL    HW115347   2.331   5.472   1.471
 4816SOL    HW215348   2.236   5.605   1.461
 4817SOL     OW15349   2.825   0.991   1.495
 4817SOL    HW115350   2.904   1.024   1.443
 4817SOL    HW215351   2.852   0.976   1.591
 4818SOL     OW15352   0.802   1.230   4.112
 4818SOL    HW115353   0.720   1.224   4.055
 4818SOL    HW215354   0.820   1.140   4.153
 4819SOL     OW15355   2.712   2.540   1.482
 4819SOL    HW115356   2.707   2.539   1.581
 4819SOL    HW215357   2.660   2.464   1.444
 4820SOL     OW15358   6.621   2.087   0.242
 4820SOL    HW115359   6.543   2.057   0.186
 4820SOL    HW215360   6.706   2.060   0.197
 4821SOL     OW15361   0.092   0.086   1.267
 4821SOL    HW115362   0.030   0.164   1.267
 4821SOL    HW215363   0.096   0.047   1.360
 4822SOL     OW15364   1.775   2.937   3.563
 4822SOL    HW115365   1.767   3.004   3.489
 4822SOL    HW215366   1.733   2.974   3.646
 4823SOL     OW15367   0.488   1.592   3.966
 4823SOL    HW115368   0.509   1.508   3.916
 4823SOL    HW215369   0.536   1.669   3.924
 4824SOL     OW15370   5.741   1.862   3.972
 4824SOL    HW115371   5.671   1.793   3.991
 4824SOL    HW215372   5.797   1.876   4.053
 4825SOL     OW15373   2.098   2.720   4.139
 4825SOL    HW115374   2.139   2.800   4.184
 4825SOL    HW215375   2.162   2.643   4.143
 4826SOL     OW15376   0.471   0.548   6.541
 4826SOL    HW115377   0.486   0.535   6.639
 4826SOL    HW215378   0.387   0.601   6.527
 4827SOL     OW15379   5.911   1.219   1.655
 4827SOL    HW115380   5.951   1.159   1.587
 4827SOL    HW215381   5.844   1.280   1.612
 4828SOL     OW15382   5.690   3.113   1.083
 4828SOL    HW115383   5.684   3.101   0.984
 4828SOL    HW215384   5.601   3.140   1.119
 4829SOL     OW15385   4.005   6.665   6.859
 4829SOL    HW115386   3.989   6.737   6.926
 4829SOL    HW215387   3.920   6.642   6.813
 4830SOL     OW15388   5.312   5.987   3.955
 4830SOL    HW115389   5.368   6.020   3.879
 4830SOL    HW215390   5.369   5.936   4.019
 4831SOL     OW15391   6.789   5.502   5.927
 4831SOL    HW115392   6.771   5.488   6.024
 4831SOL    HW215393   6.885   5.484   5.908
 4832SOL     OW15394   2.574   2.625   5.655
 4832SOL    HW115395   2.553   2.545   5.599
 4832SOL    HW215396   2.650   2.675   5.614
 4833SOL     OW15397   4.999   1.149   2.965
 4833SOL    HW115398   5.061   1.146   2.886
 4833SOL    HW215399   4.970   1.244   2.980
 4834SOL     OW15400   3.759   0.588   0.574
 4834SOL    HW115401   3.760   0.631   0.665
 4834SOL    HW215402   3.665   0.564   0.550
 4835SOL     OW15403   1.377   1.255   6.324
 4835SOL    HW115404   1.318   1.183   6.360
 4835SOL    HW215405   1.327   1.309   6.256
 4836SOL     OW15406   5.044   3.185   3.533
 4836SOL    HW115407   4.990   3.104   3.514
 4836SOL    HW215408   5.001   3.265   3.490
 4837SOL     OW15409   4.712   3.417   1.540
 4837SOL    HW115410   4.782   3.486   1.556
 4837SOL    HW215411   4.719   3.346   1.610
 4838SOL     OW15412   1.711   5.314   1.835
 4838SOL    HW115413   1.757   5.271   1.757
 4838SOL    HW215414   1.618   5.278   1.844
 4839SOL     OW15415   1.583   3.681   5.485
 4839SOL    HW115416   1.515   3.753   5.497
 4839SOL    HW215417   1.673   3.716   5.511
 4840SOL     OW15418   0.827   6.593   5.509
 4840SOL    HW115419   0.889   6.582   5.586
 4840SOL    HW215420   0.741   6.632   5.540
 4841SOL     OW15421   2.827   5.961   1.586
 4841SOL    HW115422   2.878   5.930   1.506
 4841SOL    HW215423   2.734   5.924   1.582
 4842SOL     OW15424   3.321   4.821   1.820
 4842SOL    HW115425   3.245   4.807   1.884
 4842SOL    HW215426   3.406   4.791   1.862
 4843SOL     OW15427   5.902   3.495   0.520
 4843SOL    HW115428   5.968   3.455   0.584
 4843SOL    HW215429   5.936   3.486   0.427
 4844SOL     OW15430   6.503   3.449   5.839
 4844SOL    HW115431   6.529   3.459   5.743
 4844SOL    HW215432   6.579   3.478   5.897
 4845SOL     OW15433   6.777   5.804   4.436
 4845SOL    HW115434   6.717   5.859   4.494
 4845SOL    HW215435   6.793   5.715   4.478
 4846SOL     OW15436   6.799   3.302   3.192
 4846SOL    HW115437   6.736   3.314   3.115
 4846SOL    HW215438   6.781   3.371   3.261
 4847SOL     OW15439   3.263   1.351   5.683
 4847SOL    HW115440   3.350   1.302   5.677
 4847SOL    HW215441   3.252   1.387   5.776
 4848SOL     OW15442   1.416   0.979   3.775
 4848SOL    HW115443   1.341   0.937   3.724
 4848SOL    HW215444   1.383   1.059   3.824
 4849SOL     OW15445   1.124   6.245   5.940
 4849SOL    HW115446   1.043   6.185   5.945
 4849SOL    HW215447   1.097   6.334   5.902
 4850SOL     OW15448   4.105   1.417   2.796
 4850SOL    HW115449   4.040   1.448   2.726
 4850SOL    HW215450   4.172   1.489   2.813
 4851SOL     OW15451   3.737   6.098   5.202
 4851SOL    HW115452   3.644   6.079   5.235
 4851SOL    HW215453   3.787   6.150   5.271
 4852SOL     OW15454   0.570   0.450   5.224
 4852SOL    HW115455   0.639   0.392   5.180
 4852SOL    HW215456   0.531   0.401   5.302
 4853SOL     OW15457   3.191   1.129   3.008
 4853SOL    HW115458   3.128   1.051   3.015
 4853SOL    HW215459   3.144   1.207   2.968
 4854SOL     OW15460   5.349   0.194   2.476
 4854SOL    HW115461   5.342   0.180   2.575
 4854SOL    HW215462   5.294   0.273   2.449
 4855SOL     OW15463   5.800   2.664   2.399
 4855SOL    HW115464   5.779   2.729   2.325
 4855SOL    HW215465   5.735   2.677   2.474
 4856SOL     OW15466   1.912   4.065   2.337
 4856SOL    HW115467   1.942   3.972   2.316
 4856SOL    HW215468   1.834   4.061   2.399
 4857SOL     OW15469   1.967   2.919   5.928
 4857SOL    HW115470   2.013   2.913   5.840
 4857SOL    HW215471   1.881   2.869   5.924
 4858SOL     OW15472   1.168   1.464   4.916
 4858SOL    HW115473   1.110   1.470   4.997
 4858SOL    HW215474   1.127   1.402   4.850
 4859SOL     OW15475   1.506   0.866   4.400
 4859SOL    HW115476   1.560   0.782   4.389
 4859SOL    HW215477   1.443   0.856   4.477
 4860SOL     OW15478   3.939   4.901   1.827
 4860SOL    HW115479   3.876   4.961   1.777
 4860SOL    HW215480   3.964   4.823   1.769
 4861SOL     OW15481   5.249   4.940   0.257
 4861SOL    HW115482   5.196   4.997   0.194
 4861SOL    HW215483   5.201   4.853   0.272
 4862SOL     OW15484   2.873   4.886   5.126
 4862SOL    HW115485   2.964   4.897   5.168
 4862SOL    HW215486   2.865   4.794   5.089
 4863SOL     OW15487   6.048   4.270   2.002
 4863SOL    HW115488   5.991   4.275   1.920
 4863SOL    HW215489   6.125   4.209   1.984
 4864SOL     OW15490   3.964   1.160   3.618
 4864SOL    HW115491   3.913   1.086   3.574
 4864SOL    HW215492   3.953   1.154   3.717
 4865SOL     OW15493   2.341   0.463   5.642
 4865SOL    HW115494   2.301   0.555   5.642
 4865SOL    HW215495   2.272   0.397   5.672
 4866SOL     OW15496   0.046   2.342   0.686
 4866SOL    HW115497   0.059   2.375   0.593
 4866SOL    HW215498   0.104   2.395   0.749
 4867SOL     OW15499   4.020   4.853   2.945
 4867SOL    HW115500   4.040   4.857   3.043
 4867SOL    HW215501   3.926   4.824   2.931
 4868SOL     OW15502   6.642   5.127   2.655
 4868SOL    HW115503   6.638   5.053   2.722
 4868SOL    HW215504   6.572   5.113   2.585
 4869SOL     OW15505   1.256   1.739   2.324
 4869SOL    HW115506   1.298   1.824   2.358
 4869SOL    HW215507   1.162   1.734   2.358
 4870SOL     OW15508   0.660   6.260   1.961
 4870SOL    HW115509   0.584   6.314   1.925
 4870SOL    HW215510   0.640   6.163   1.948
 4871SOL     OW15511   1.677   0.927   3.794
 4871SOL    HW115512   1.699   0.832   3.770
 4871SOL    HW215513   1.577   0.938   3.795
 4872SOL     OW15514   6.299   0.154   3.663
 4872SOL    HW115515   6.239   0.224   3.624
 4872SOL    HW215516   6.373   0.134   3.599
 4873SOL     OW15517   6.707   5.208   4.166
 4873SOL    HW115518   6.697   5.288   4.225
 4873SOL    HW215519   6.641   5.214   4.091
 4874SOL     OW15520   6.015   3.950   2.262
 4874SOL    HW115521   5.992   3.861   2.302
 4874SOL    HW215522   6.010   3.944   2.163
 4875SOL     OW15523   5.745   1.882   0.586
 4875SOL    HW115524   5.744   1.849   0.491
 4875SOL    HW215525   5.764   1.805   0.647
 4876SOL     OW15526   6.131   2.340   2.756
 4876SOL    HW115527   6.153   2.351   2.853
 4876SOL    HW215528   6.032   2.338   2.744
 4877SOL     OW15529   1.493   2.100   5.644
 4877SOL    HW115530   1.573   2.041   5.656
 4877SOL    HW215531   1.411   2.052   5.674
 4878SOL     OW15532   6.171   0.797   1.934
 4878SOL    HW115533   6.119   0.881   1.950
 4878SOL    HW215534   6.122   0.719   1.972
 4879SOL     OW15535   4.547   1.721   2.880
 4879SOL    HW115536   4.531   1.705   2.977
 4879SOL    HW215537   4.473   1.680   2.827
 4880SOL     OW15538   5.265   3.070   6.981
 4880SOL    HW115539   5.234   3.118   0.033
 4880SOL    HW215540   5.192   3.009   6.949
 4881SOL     OW15541   1.268   1.350   6.893
 4881SOL    HW115542   1.228   1.440   6.912
 4881SOL    HW215543   1.334   1.358   6.819
 4882SOL     OW15544   4.773   0.524   4.615
 4882SOL    HW115545   4.724   0.437   4.611
 4882SOL    HW215546   4.728   0.590   4.553
 4883SOL     OW15547   5.014   4.844   1.665
 4883SOL    HW115548   5.105   4.824   1.628
 4883SOL    HW215549   4.947   4.841   1.591
 4884SOL     OW15550   3.109   6.161   1.739
 4884SOL    HW115551   3.057   6.076   1.733
 4884SOL    HW215552   3.207   6.140   1.737
 4885SOL     OW15553   2.066   5.284   1.433
 4885SOL    HW115554   2.067   5.259   1.529
 4885SOL    HW215555   2.110   5.373   1.421
 4886SOL     OW15556   1.700   5.897   1.547
 4886SOL    HW115557   1.741   5.875   1.636
 4886SOL    HW215558   1.772   5.915   1.481
 4887SOL     OW15559   7.022   0.043   1.553
 4887SOL    HW115560   0.084   0.063   1.588
 4887SOL    HW215561   6.954   0.089   1.610
 4888SOL     OW15562   2.871   0.504   4.719
 4888SOL    HW115563   2.889   0.488   4.816
 4888SOL    HW215564   2.797   0.444   4.689
 4889SOL     OW15565   6.613   1.698   5.250
 4889SOL    HW115566   6.534   1.694   5.311
 4889SOL    HW215567   6.598   1.638   5.172
 4890SOL     OW15568   0.013   1.106   5.979
 4890SOL    HW115569   0.092   1.059   6.019
 4890SOL    HW215570   6.960   1.052   5.996
 4891SOL     OW15571   1.635   4.948   0.148
 4891SOL    HW115572   1.692   5.027   0.170
 4891SOL    HW215573   1.693   4.868   0.135
 4892SOL     OW15574   3.408   5.622   2.243
 4892SOL    HW115575   3.459   5.581   2.319
 4892SOL    HW215576   3.310   5.620   2.263
 4893SOL     OW15577   6.458   2.608   1.699
 4893SOL    HW115578   6.500   2.611   1.608
 4893SOL    HW215579   6.370   2.655   1.697
 4894SOL     OW15580   3.359   0.893   2.531
 4894SOL    HW115581   3.370   0.977   2.584
 4894SOL    HW215582   3.266   0.859   2.542
 4895SOL     OW15583   0.745   5.057   4.514
 4895SOL    HW115584   0.781   5.092   4.428
 4895SOL    HW215585   0.670   4.993   4.495
 4896SOL     OW15586   2.214   4.488   1.634
 4896SOL    HW115587   2.270   4.522   1.710
 4896SOL    HW215588   2.167   4.404   1.663
 4897SOL     OW15589   1.989   4.515   5.789
 4897SOL    HW115590   2.056   4.448   5.756
 4897SOL    HW215591   1.974   4.585   5.719
 4898SOL     OW15592   4.440   0.790   4.493
 4898SOL    HW115593   4.447   0.756   4.587
 4898SOL    HW215594   4.501   0.868   4.481
 4899SOL     OW15595   5.718   5.443   2.751
 4899SOL    HW115596   5.626   5.418   2.719
 4899SOL    HW215597   5.753   5.371   2.811
 4900SOL     OW15598   3.071   6.362   5.349
 4900SOL    HW115599   3.118   6.275   5.361
 4900SOL    HW215600   3.130   6.436   5.382
 4901SOL     OW15601   2.855   1.487   5.506
 4901SOL    HW115602   2.943   1.443   5.488
 4901SOL    HW215603   2.797   1.423   5.557
 4902SOL     OW15604   1.861   1.628   5.122
 4902SOL    HW115605   1.809   1.710   5.146
 4902SOL    HW215606   1.959   1.647   5.131
 4903SOL     OW15607   3.911   5.723   0.487
 4903SOL    HW115608   3.890   5.777   0.406
 4903SOL    HW215609   3.860   5.759   0.566
 4904SOL     OW15610   2.333   0.264   5.153
 4904SOL    HW115611   2.356   0.167   5.146
 4904SOL    HW215612   2.391   0.307   5.223
 4905SOL     OW15613   3.517   0.482   3.152
 4905SOL    HW115614   3.458   0.404   3.135
 4905SOL    HW215615   3.539   0.528   3.066
 4906SOL     OW15616   5.196   1.458   6.605
 4906SOL    HW115617   5.230   1.374   6.562
 4906SOL    HW215618   5.184   1.442   6.703
 4907SOL     OW15619   4.264   6.469   2.192
 4907SOL    HW115620   4.196   6.447   2.122
 4907SOL    HW215621   4.219   6.473   2.282
 4908SOL     OW15622   5.826   6.138   0.398
 4908SOL    HW115623   5.917   6.144   0.358
 4908SOL    HW215624   5.759   6.119   0.326
 4909SOL     OW15625   0.426   6.499   3.867
 4909SOL    HW115626   0.337   6.496   3.912
 4909SOL    HW215627   0.434   6.424   3.803
 4910SOL     OW15628   5.043   1.275   4.741
 4910SOL    HW115629   4.972   1.322   4.689
 4910SOL    HW215630   5.017   1.273   4.838
 4911SOL     OW15631   1.629   4.050   3.228
 4911SOL    HW115632   1.668   4.138   3.258
 4911SOL    HW215633   1.549   4.067   3.171
 4912SOL     OW15634   5.698   0.937   5.945
 4912SOL    HW115635   5.632   1.012   5.940
 4912SOL    HW215636   5.733   0.916   5.854
 4913SOL     OW15637   3.928   3.338   5.350
 4913SOL    HW115638   3.917   3.290   5.437
 4913SOL    HW215639   4.012   3.393   5.353
 4914SOL     OW15640   3.873   0.021   5.002
 4914SOL    HW115641   3.951   6.990   5.019
 4914SOL    HW215642   3.884   0.065   4.913
 4915SOL     OW15643   3.144   5.756   5.746
 4915SOL    HW115644   3.225   5.697   5.746
 4915SOL    HW215645   3.112   5.767   5.840
 4916SOL     OW15646   1.357   0.342   3.996
 4916SOL    HW115647   1.439   0.393   3.971
 4916SOL    HW215648   1.333   0.278   3.923
 4917SOL     OW15649   2.580   5.142   1.348
 4917SOL    HW115650   2.663   5.093   1.375
 4917SOL    HW215651   2.500   5.094   1.383
 4918SOL     OW15652   5.207   6.480   2.313
 4918SOL    HW115653   5.125   6.434   2.348
 4918SOL    HW215654   5.194   6.579   2.315
 4919SOL     OW15655   3.319   2.301   0.711
 4919SOL    HW115656   3.301   2.262   0.621
 4919SOL    HW215657   3.418   2.315   0.722
 4920SOL     OW15658   5.350   6.943   4.491
 4920SOL    HW115659   5.300   6.989   4.418
 4920SOL    HW215660   5.322   6.979   4.580
 4921SOL     OW15661   0.788   5.297   0.379
 4921SOL    HW115662   0.799   5.375   0.318
 4921SOL    HW215663   0.877   5.270   0.416
 4922SOL     OW15664   2.924   2.177   4.933
 4922SOL    HW115665   2.926   2.082   4.962
 4922SOL    HW215666   3.013   2.219   4.950
 4923SOL     OW15667   3.517   1.430   2.438
 4923SOL    HW115668   3.508   1.529   2.429
 4923SOL    HW215669   3.557   1.409   2.527
 4924SOL     OW15670   3.465   1.150   5.082
 4924SOL    HW115671   3.399   1.176   5.152
 4924SOL    HW215672   3.455   1.210   5.003
 4925SOL     OW15673   6.244   6.943   2.254
 4925SOL    HW115674   6.275   6.953   2.349
 4925SOL    HW215675   6.257   6.848   2.225
 4926SOL     OW15676   5.060   1.053   0.933
 4926SOL    HW115677   5.090   0.969   0.980
 4926SOL    HW215678   4.965   1.042   0.904
 4927SOL     OW15679   3.527   3.781   4.599
 4927SOL    HW115680   3.609   3.778   4.656
 4927SOL    HW215681   3.535   3.714   4.525
 4928SOL     OW15682   1.895   0.048   6.938
 4928SOL    HW115683   1.952   0.111   6.886
 4928SOL    HW215684   1.808   0.091   6.960
 4929SOL     OW15685   6.596   6.963   4.496
 4929SOL    HW115686   6.502   6.943   4.523
 4929SOL    HW215687   6.646   6.878   4.482
 4930SOL     OW15688   5.578   0.911   2.834
 4930SOL    HW115689   5.558   0.975   2.760
 4930SOL    HW215690   5.530   0.940   2.917
 4931SOL     OW15691   6.754   6.777   0.787
 4931SOL    HW115692   6.807   6.856   0.756
 4931SOL    HW215693   6.673   6.808   0.836
 4932SOL     OW15694   3.814   3.007   1.652
 4932SOL    HW115695   3.889   3.073   1.664
 4932SOL    HW215696   3.816   2.941   1.728
 4933SOL     OW15697   2.244   6.636   2.294
 4933SOL    HW115698   2.247   6.723   2.245
 4933SOL    HW215699   2.196   6.649   2.381
 4934SOL     OW15700   3.438   5.415   3.136
 4934SOL    HW115701   3.437   5.366   3.224
 4934SOL    HW215702   3.347   5.453   3.118
 4935SOL     OW15703   1.534   2.094   6.381
 4935SOL    HW115704   1.459   2.052   6.432
 4935SOL    HW215705   1.591   2.023   6.340
 4936SOL     OW15706   3.046   5.107   1.347
 4936SOL    HW115707   3.119   5.176   1.341
 4936SOL    HW215708   3.068   5.031   1.286
 4937SOL     OW15709   5.501   3.302   5.882
 4937SOL    HW115710   5.546   3.289   5.794
 4937SOL    HW215711   5.533   3.386   5.924
 4938SOL     OW15712   1.973   5.292   6.056
 4938SOL    HW115713   1.938   5.328   5.969
 4938SOL    HW215714   2.031   5.212   6.038
 4939SOL     OW15715   5.880   2.291   4.581
 4939SOL    HW115716   5.929   2.271   4.496
 4939SOL    HW215717   5.786   2.258   4.574
 4940SOL     OW15718   0.603   1.091   4.883
 4940SOL    HW115719   0.650   1.041   4.810
 4940SOL    HW215720   0.505   1.074   4.876
 4941SOL     OW15721   4.639   1.887   5.775
 4941SOL    HW115722   4.647   1.983   5.802
 4941SOL    HW215723   4.586   1.881   5.690
 4942SOL     OW15724   5.092   2.830   5.769
 4942SOL    HW115725   5.013   2.885   5.793
 4942SOL    HW215726   5.172   2.863   5.819
 4943SOL     OW15727   4.623   3.405   6.735
 4943SOL    HW115728   4.688   3.347   6.784
 4943SOL    HW215729   4.604   3.487   6.789
 4944SOL     OW15730   2.122   4.303   1.794
 4944SOL    HW115731   2.197   4.254   1.839
 4944SOL    HW215732   2.093   4.379   1.851
 4945SOL     OW15733   1.003   1.025   3.738
 4945SOL    HW115734   1.036   1.040   3.831
 4945SOL    HW215735   1.068   0.967   3.689
 4946SOL     OW15736   0.569   3.249   0.723
 4946SOL    HW115737   0.482   3.280   0.762
 4946SOL    HW215738   0.563   3.250   0.623
 4947SOL     OW15739   1.924   0.923   1.551
 4947SOL    HW115740   1.911   0.862   1.629
 4947SOL    HW215741   1.979   0.877   1.481
 4948SOL     OW15742   2.111   1.327   2.720
 4948SOL    HW115743   2.161   1.346   2.636
 4948SOL    HW215744   2.016   1.306   2.698
 4949SOL     OW15745   4.183   6.567   6.628
 4949SOL    HW115746   4.130   6.519   6.557
 4949SOL    HW215747   4.123   6.589   6.705
 4950SOL     OW15748   3.088   5.459   4.569
 4950SOL    HW115749   3.108   5.365   4.540
 4950SOL    HW215750   2.989   5.469   4.582
 4951SOL     OW15751   4.871   1.480   4.668
 4951SOL    HW115752   4.887   1.500   4.571
 4951SOL    HW215753   4.816   1.553   4.708
 4952SOL     OW15754   6.941   1.008   4.907
 4952SOL    HW115755   6.977   1.036   4.818
 4952SOL    HW215756   7.015   0.971   4.963
 4953SOL     OW15757   2.035   6.518   2.045
 4953SOL    HW115758   1.971   6.509   2.122
 4953SOL    HW215759   2.129   6.521   2.080
 4954SOL     OW15760   4.241   3.853   6.640
 4954SOL    HW115761   4.251   3.926   6.573
 4954SOL    HW215762   4.173   3.880   6.708
 4955SOL     OW15763   2.379   6.367   6.585
 4955SOL    HW115764   2.311   6.353   6.657
 4955SOL    HW215765   2.355   6.312   6.505
 4956SOL     OW15766   2.940   6.625   5.063
 4956SOL    HW115767   3.022   6.600   5.012
 4956SOL    HW215768   2.871   6.661   5.000
 4957SOL     OW15769   6.781   1.939   2.709
 4957SOL    HW115770   6.735   1.850   2.707
 4957SOL    HW215771   6.777   1.981   2.618
 4958SOL     OW15772   6.854   6.158   5.474
 4958SOL    HW115773   6.845   6.253   5.503
 4958SOL    HW215774   6.786   6.102   5.521
 4959SOL     OW15775   6.718   1.750   6.646
 4959SOL    HW115776   6.686   1.841   6.622
 4959SOL    HW215777   6.818   1.748   6.646
 4960SOL     OW15778   3.471   5.646   3.642
 4960SOL    HW115779   3.421   5.714   3.696
 4960SOL    HW215780   3.546   5.609   3.697
 4961SOL     OW15781   4.897   1.705   5.446
 4961SOL    HW115782   4.799   1.688   5.455
 4961SOL    HW215783   4.913   1.801   5.423
 4962SOL     OW15784   6.015   2.747   0.938
 4962SOL    HW115785   5.921   2.756   0.906
 4962SOL    HW215786   6.072   2.705   0.867
 4963SOL     OW15787   6.561   5.857   6.735
 4963SOL    HW115788   6.656   5.836   6.713
 4963SOL    HW215789   6.530   5.800   6.811
 4964SOL     OW15790   3.644   6.956   3.875
 4964SOL    HW115791   3.663   0.005   3.934
 4964SOL    HW215792   3.553   6.920   3.896
 4965SOL     OW15793   0.053   0.575   3.488
 4965SOL    HW115794   7.012   0.568   3.559
 4965SOL    HW215795   0.051   0.494   3.430
 4966SOL     OW15796   1.955   0.256   5.459
 4966SOL    HW115797   1.953   0.169   5.508
 4966SOL    HW215798   2.049   0.289   5.451
 4967SOL     OW15799   4.036   3.270   5.985
 4967SOL    HW115800   4.054   3.268   5.887
 4967SOL    HW215801   4.110   3.319   6.031
 4968SOL     OW15802   5.519   2.763   3.229
 4968SOL    HW115803   5.451   2.824   3.269
 4968SOL    HW215804   5.479   2.715   3.151
 4969SOL     OW15805   2.329   1.041   2.155
 4969SOL    HW115806   2.306   1.133   2.125
 4969SOL    HW215807   2.377   1.046   2.243
 4970SOL     OW15808   1.758   2.165   4.354
 4970SOL    HW115809   1.770   2.131   4.447
 4970SOL    HW215810   1.711   2.095   4.299
 4971SOL     OW15811   5.819   5.882   3.300
 4971SOL    HW115812   5.781   5.817   3.365
 4971SOL    HW215813   5.915   5.898   3.322
 4972SOL     OW15814   1.483   3.038   0.688
 4972SOL    HW115815   1.505   3.085   0.773
 4972SOL    HW215816   1.568   3.012   0.642
 4973SOL     OW15817   0.286   0.527   2.202
 4973SOL    HW115818   0.189   0.506   2.212
 4973SOL    HW215819   0.336   0.443   2.181
 4974SOL     OW15820   6.006   4.693   1.213
 4974SOL    HW115821   5.920   4.741   1.228
 4974SOL    HW215822   6.009   4.657   1.120
 4975SOL     OW15823   5.416   5.263   6.046
 4975SOL    HW115824   5.464   5.349   6.033
 4975SOL    HW215825   5.377   5.259   6.138
 4976SOL     OW15826   3.050   0.032   5.071
 4976SOL    HW115827   3.067   0.115   5.124
 4976SOL    HW215828   2.996   0.054   4.990
 4977SOL     OW15829   5.017   4.161   0.592
 4977SOL    HW115830   5.095   4.217   0.562
 4977SOL    HW215831   4.984   4.196   0.680
 4978SOL     OW15832   6.651   3.773   5.468
 4978SOL    HW115833   6.746   3.781   5.439
 4978SOL    HW215834   6.644   3.704   5.540
 4979SOL     OW15835   0.262   1.033   5.138
 4979SOL    HW115836   0.172   0.995   5.159
 4979SOL    HW215837   0.332   0.979   5.185
 4980SOL     OW15838   4.424   6.836   3.500
 4980SOL    HW115839   4.442   6.737   3.498
 4980SOL    HW215840   4.505   6.885   3.470
 4981SOL     OW15841   4.883   5.273   6.223
 4981SOL    HW115842   4.855   5.227   6.307
 4981SOL    HW215843   4.967   5.232   6.188
 4982SOL     OW15844   1.905   2.124   6.834
 4982SOL    HW115845   1.915   2.178   6.750
 4982SOL    HW215846   1.994   2.116   6.878
 4983SOL     OW15847   5.234   2.422   4.140
 4983SOL    HW115848   5.240   2.522   4.131
 4983SOL    HW215849   5.142   2.396   4.167
 4984SOL     OW15850   5.823   3.953   4.250
 4984SOL    HW115851   5.827   4.009   4.333
 4984SOL    HW215852   5.843   3.858   4.274
 4985SOL     OW15853   5.901   6.431   2.773
 4985SOL    HW115854   5.843   6.351   2.758
 4985SOL    HW215855   5.852   6.499   2.828
 4986SOL     OW15856   6.528   4.036   2.857
 4986SOL    HW115857   6.461   3.968   2.828
 4986SOL    HW215858   6.539   4.032   2.956
 4987SOL     OW15859   1.116   1.810   1.257
 4987SOL    HW115860   1.142   1.844   1.166
 4987SOL    HW215861   1.194   1.817   1.319
 4988SOL     OW15862   6.243   1.709   3.652
 4988SOL    HW115863   6.320   1.728   3.713
 4988SOL    HW215864   6.272   1.646   3.580
 4989SOL     OW15865   5.314   0.565   1.084
 4989SOL    HW115866   5.393   0.580   1.143
 4989SOL    HW215867   5.247   0.508   1.131
 4990SOL     OW15868   1.683   1.687   5.726
 4990SOL    HW115869   1.736   1.627   5.785
 4990SOL    HW215870   1.589   1.654   5.721
 4991SOL     OW15871   0.618   3.581   4.109
 4991SOL    HW115872   0.714   3.609   4.115
 4991SOL    HW215873   0.597   3.520   4.186
 4992SOL     OW15874   4.940   0.818   4.425
 4992SOL    HW115875   4.965   0.881   4.352
 4992SOL    HW215876   4.935   0.869   4.512
 4993SOL     OW15877   3.524   5.338   4.267
 4993SOL    HW115878   3.530   5.353   4.366
 4993SOL    HW215879   3.443   5.284   4.247
 4994SOL     OW15880   1.346   0.460   2.223
 4994SOL    HW115881   1.300   0.527   2.282
 4994SOL    HW215882   1.444   0.460   2.243
 4995SOL     OW15883   6.420   2.378   6.027
 4995SOL    HW115884   6.365   2.312   5.974
 4995SOL    HW215885   6.459   2.333   6.107
 4996SOL     OW15886   1.782   1.317   2.512
 4996SOL    HW115887   1.748   1.411   2.523
 4996SOL    HW215888   1.810   1.281   2.601
 4997SOL     OW15889   6.208   1.929   2.986
 4997SOL    HW115890   6.194   1.858   2.918
 4997SOL    HW215891   6.120   1.954   3.027
 4998SOL     OW15892   2.166   3.764   4.981
 4998SOL    HW115893   2.215   3.850   4.981
 4998SOL    HW215894   2.069   3.780   4.999
 4999SOL     OW15895   5.480   5.123   1.103
 4999SOL    HW115896   5.463   5.064   1.025
 4999SOL    HW215897   5.502   5.067   1.183
 5000SOL     OW15898   1.769   0.399   4.405
 5000SOL    HW115899   1.718   0.366   4.326
 5000SOL    HW215900   1.862   0.363   4.403
 5001SOL     OW15901   1.663   4.394   6.355
 5001SOL    HW115902   1.655   4.376   6.257
 5001SOL    HW215903   1.757   4.377   6.385
 5002SOL     OW15904   1.667   3.202   2.731
 5002SOL    HW115905   1.668   3.102   2.724
 5002SOL    HW215906   1.578   3.236   2.701
 5003SOL     OW15907   2.236   6.749   3.050
 5003SOL    HW115908   2.252   6.748   2.951
 5003SOL    HW215909   2.315   6.709   3.097
 5004SOL     OW15910   2.924   4.791   5.627
 5004SOL    HW115911   2.877   4.716   5.673
 5004SOL    HW215912   2.884   4.805   5.536
 5005SOL     OW15913   3.359   2.716   0.829
 5005SOL    HW115914   3.368   2.807   0.789
 5005SOL    HW215915   3.385   2.648   0.761
 5006SOL     OW15916   5.341   6.572   6.792
 5006SOL    HW115917   5.302   6.522   6.715
 5006SOL    HW215918   5.437   6.545   6.804
 5007SOL     OW15919   2.061   0.276   6.825
 5007SOL    HW115920   2.096   0.343   6.759
 5007SOL    HW215921   2.000   0.322   6.889
 5008SOL     OW15922   6.395   0.636   3.252
 5008SOL    HW115923   6.435   0.561   3.306
 5008SOL    HW215924   6.462   0.709   3.241
 5009SOL     OW15925   1.910   6.406   1.788
 5009SOL    HW115926   1.983   6.428   1.853
 5009SOL    HW215927   1.935   6.440   1.698
 5010SOL     OW15928   3.069   3.252   3.263
 5010SOL    HW115929   3.112   3.180   3.316
 5010SOL    HW215930   3.069   3.227   3.166
 5011SOL     OW15931   1.891   3.534   2.055
 5011SOL    HW115932   1.846   3.446   2.071
 5011SOL    HW215933   1.942   3.531   1.969
 5012SOL     OW15934   4.855   3.431   5.892
 5012SOL    HW115935   4.863   3.523   5.853
 5012SOL    HW215936   4.766   3.393   5.869
 5013SOL     OW15937   5.113   1.980   0.033
 5013SOL    HW115938   5.120   1.881   0.015
 5013SOL    HW215939   5.171   2.004   0.111
 5014SOL     OW15940   5.483   4.428   0.563
 5014SOL    HW115941   5.573   4.410   0.603
 5014SOL    HW215942   5.418   4.451   0.635
 5015SOL     OW15943   4.585   2.059   4.032
 5015SOL    HW115944   4.487   2.043   4.023
 5015SOL    HW215945   4.601   2.141   4.087
 5016SOL     OW15946   2.650   1.562   1.260
 5016SOL    HW115947   2.585   1.635   1.281
 5016SOL    HW215948   2.739   1.584   1.299
 5017SOL     OW15949   2.035   2.388   0.478
 5017SOL    HW115950   2.096   2.467   0.484
 5017SOL    HW215951   2.089   2.304   0.479
 5018SOL     OW15952   0.818   4.553   1.525
 5018SOL    HW115953   0.891   4.598   1.578
 5018SOL    HW215954   0.731   4.563   1.574
 5019SOL     OW15955   2.299   4.067   0.301
 5019SOL    HW115956   2.383   4.061   0.248
 5019SOL    HW215957   2.317   4.042   0.396
 5020SOL     OW15958   4.555   6.375   5.963
 5020SOL    HW115959   4.457   6.394   5.958
 5020SOL    HW215960   4.589   6.352   5.872
 5021SOL     OW15961   1.771   2.338   5.528
 5021SOL    HW115962   1.698   2.406   5.517
 5021SOL    HW215963   1.797   2.333   5.624
 5022SOL     OW15964   2.149   0.321   0.561
 5022SOL    HW115965   2.095   0.319   0.476
 5022SOL    HW215966   2.088   0.338   0.638
 5023SOL     OW15967   6.527   2.584   1.430
 5023SOL    HW115968   6.486   2.611   1.343
 5023SOL    HW215969   6.623   2.612   1.432
 5024SOL     OW15970   6.740   4.558   3.091
 5024SOL    HW115971   6.740   4.590   2.996
 5024SOL    HW215972   6.832   4.563   3.129
 5025SOL     OW15973   4.417   2.016   1.865
 5025SOL    HW115974   4.344   2.046   1.804
 5025SOL    HW215975   4.434   1.919   1.852
 5026SOL     OW15976   5.666   5.755   6.223
 5026SOL    HW115977   5.634   5.802   6.141
 5026SOL    HW215978   5.587   5.714   6.270
 5027SOL     OW15979   0.416   0.287   2.176
 5027SOL    HW115980   0.457   0.269   2.265
 5027SOL    HW215981   0.380   0.202   2.137
 5028SOL     OW15982   0.227   6.958   2.939
 5028SOL    HW115983   0.191   6.948   3.032
 5028SOL    HW215984   0.250   0.024   2.923
 5029SOL     OW15985   6.496   3.405   3.896
 5029SOL    HW115986   6.539   3.449   3.818
 5029SOL    HW215987   6.561   3.342   3.938
 5030SOL     OW15988   6.902   0.439   0.195
 5030SOL    HW115989   6.871   0.527   0.232
 5030SOL    HW215990   6.902   0.443   0.095
 5031SOL     OW15991   5.643   1.054   4.706
 5031SOL    HW115992   5.614   1.017   4.618
 5031SOL    HW215993   5.743   1.051   4.712
 5032SOL     OW15994   1.237   4.087   1.236
 5032SOL    HW115995   1.205   4.041   1.319
 5032SOL    HW215996   1.171   4.157   1.209
 5033SOL     OW15997   1.314   4.358   6.689
 5033SOL    HW115998   1.283   4.394   6.601
 5033SOL    HW215999   1.403   4.313   6.677
 5034SOL     OW16000   6.485   2.966   2.709
 5034SOL    HW116001   6.553   3.036   2.686
 5034SOL    HW216002   6.532   2.884   2.744
 5035SOL     OW16003   6.128   4.208   0.809
 5035SOL    HW116004   6.174   4.147   0.745
 5035SOL    HW216005   6.182   4.291   0.821
 5036SOL     OW16006   0.434   5.190   6.878
 5036SOL    HW116007   0.421   5.136   6.961
 5036SOL    HW216008   0.389   5.279   6.888
 5037SOL     OW16009   4.785   2.163   2.647
 5037SOL    HW116010   4.725   2.083   2.649
 5037SOL    HW216011   4.751   2.231   2.712
 5038SOL     OW16012   1.674   5.229   5.844
 5038SOL    HW116013   1.714   5.143   5.878
 5038SOL    HW216014   1.668   5.295   5.918
 5039SOL     OW16015   1.983   3.537   5.232
 5039SOL    HW116016   1.971   3.632   5.203
 5039SOL    HW216017   2.074   3.505   5.206
 5040SOL     OW16018   2.210   4.382   6.302
 5040SOL    HW116019   2.254   4.448   6.363
 5040SOL    HW216020   2.223   4.409   6.207
 5041SOL     OW16021   1.218   3.223   1.373
 5041SOL    HW116022   1.313   3.196   1.392
 5041SOL    HW216023   1.213   3.259   1.280
 5042SOL     OW16024   0.313   3.082   6.634
 5042SOL    HW116025   0.221   3.047   6.613
 5042SOL    HW216026   0.339   3.054   6.726
 5043SOL     OW16027   3.524   1.013   5.662
 5043SOL    HW116028   3.542   1.111   5.663
 5043SOL    HW216029   3.596   0.965   5.712
 5044SOL     OW16030   6.000   0.025   2.964
 5044SOL    HW116031   6.080   0.008   3.021
 5044SOL    HW216032   5.968   0.119   2.978
 5045SOL     OW16033   5.290   2.651   6.882
 5045SOL    HW116034   5.257   2.557   6.872
 5045SOL    HW216035   5.384   2.656   6.850
 5046SOL     OW16036   4.129   3.741   4.898
 5046SOL    HW116037   4.201   3.744   4.966
 5046SOL    HW216038   4.040   3.742   4.943
 5047SOL     OW16039   6.776   2.349   2.518
 5047SOL    HW116040   6.792   2.292   2.438
 5047SOL    HW216041   6.834   2.318   2.594
 5048SOL     OW16042   6.982   2.197   0.921
 5048SOL    HW116043   7.001   2.235   0.831
 5048SOL    HW216044   6.886   2.214   0.944
 5049SOL     OW16045   0.234   1.446   4.075
 5049SOL    HW116046   0.170   1.518   4.048
 5049SOL    HW216047   0.256   1.389   3.996
 5050SOL     OW16048   1.152   1.351   2.032
 5050SOL    HW116049   1.130   1.376   1.938
 5050SOL    HW216050   1.185   1.431   2.082
 5051SOL     OW16051   4.443   3.715   0.475
 5051SOL    HW116052   4.367   3.771   0.442
 5051SOL    HW216053   4.508   3.701   0.400
 5052SOL     OW16054   2.788   5.048   5.761
 5052SOL    HW116055   2.849   4.985   5.809
 5052SOL    HW216056   2.833   5.082   5.678
 5053SOL     OW16057   1.920   4.025   3.337
 5053SOL    HW116058   1.919   3.990   3.244
 5053SOL    HW216059   1.960   4.117   3.338
 5054SOL     OW16060   3.697   5.456   4.821
 5054SOL    HW116061   3.615   5.407   4.849
 5054SOL    HW216062   3.752   5.397   4.761
 5055SOL     OW16063   0.237   1.303   5.255
 5055SOL    HW116064   0.318   1.346   5.216
 5055SOL    HW216065   0.238   1.205   5.235
 5056SOL     OW16066   6.430   4.234   0.203
 5056SOL    HW116067   6.343   4.197   0.173
 5056SOL    HW216068   6.503   4.169   0.183
 5057SOL     OW16069   1.086   5.715   3.708
 5057SOL    HW116070   1.150   5.639   3.696
 5057SOL    HW216071   1.072   5.760   3.620
 5058SOL     OW16072   2.351   3.944   6.264
 5058SOL    HW116073   2.336   3.877   6.336
 5058SOL    HW216074   2.438   3.991   6.278
 5059SOL     OW16075   5.260   3.321   4.322
 5059SOL    HW116076   5.197   3.357   4.391
 5059SOL    HW216077   5.208   3.292   4.242
 5060SOL     OW16078   6.927   2.437   5.502
 5060SOL    HW116079   6.996   2.397   5.442
 5060SOL    HW216080   6.931   2.537   5.496
 5061SOL     OW16081   3.153   3.084   3.667
 5061SOL    HW116082   3.147   3.067   3.569
 5061SOL    HW216083   3.084   3.151   3.694
 5062SOL     OW16084   5.788   1.532   2.209
 5062SOL    HW116085   5.792   1.604   2.278
 5062SOL    HW216086   5.879   1.492   2.197
 5063SOL     OW16087   1.027   5.830   1.832
 5063SOL    HW116088   0.961   5.906   1.831
 5063SOL    HW216089   0.984   5.748   1.794
 5064SOL     OW16090   5.051   5.196   1.437
 5064SOL    HW116091   5.020   5.266   1.501
 5064SOL    HW216092   5.091   5.120   1.487
 5065SOL     OW16093   1.861   1.185   2.740
 5065SOL    HW116094   1.879   1.095   2.780
 5065SOL    HW216095   1.817   1.244   2.808
 5066SOL     OW16096   2.876   4.319   1.700
 5066SOL    HW116097   2.868   4.346   1.605
 5066SOL    HW216098   2.899   4.399   1.756
 5067SOL     OW16099   4.483   1.153   2.870
 5067SOL    HW116100   4.387   1.133   2.849
 5067SOL    HW216101   4.493   1.249   2.896
 5068SOL     OW16102   3.326   5.554   0.072
 5068SOL    HW116103   3.331   5.533   0.170
 5068SOL    HW216104   3.303   5.470   0.022
 5069SOL     OW16105   2.249   3.340   6.114
 5069SOL    HW116106   2.305   3.336   6.030
 5069SOL    HW216107   2.182   3.266   6.114
 5070SOL     OW16108   5.544   4.450   4.803
 5070SOL    HW116109   5.452   4.436   4.767
 5070SOL    HW216110   5.541   4.450   4.903
 5071SOL     OW16111   4.060   2.230   3.435
 5071SOL    HW116112   4.115   2.148   3.419
 5071SOL    HW216113   4.119   2.307   3.457
 5072SOL     OW16114   1.772   1.127   1.527
 5072SOL    HW116115   1.738   1.037   1.556
 5072SOL    HW216116   1.870   1.121   1.507
 5073SOL     OW16117   1.562   5.047   1.255
 5073SOL    HW116118   1.593   5.136   1.222
 5073SOL    HW216119   1.512   5.000   1.183
 5074SOL     OW16120   4.104   2.357   1.762
 5074SOL    HW116121   4.178   2.386   1.822
 5074SOL    HW216122   4.045   2.435   1.740
 5075SOL     OW16123   1.039   2.291   0.133
 5075SOL    HW116124   0.971   2.229   0.174
 5075SOL    HW216125   1.105   2.238   0.081
 5076SOL     OW16126   5.945   7.016   0.478
 5076SOL    HW116127   5.981   6.944   0.537
 5076SOL    HW216128   5.851   0.008   0.506
 5077SOL     OW16129   0.360   3.688   5.882
 5077SOL    HW116130   0.443   3.740   5.898
 5077SOL    HW216131   0.285   3.727   5.935
 5078SOL     OW16132   0.472   1.040   4.204
 5078SOL    HW116133   0.533   1.023   4.127
 5078SOL    HW216134   0.378   1.019   4.178
 5079SOL     OW16135   2.208   2.807   5.459
 5079SOL    HW116136   2.280   2.798   5.389
 5079SOL    HW216137   2.248   2.846   5.542
 5080SOL     OW16138   5.701   5.664   5.636
 5080SOL    HW116139   5.658   5.712   5.712
 5080SOL    HW216140   5.751   5.729   5.579
 5081SOL     OW16141   3.111   4.617   5.962
 5081SOL    HW116142   3.156   4.572   5.885
 5081SOL    HW216143   3.028   4.664   5.930
 5082SOL     OW16144   5.439   6.977   0.546
 5082SOL    HW116145   5.404   6.884   0.541
 5082SOL    HW216146   5.381   0.008   0.492
 5083SOL     OW16147   3.552   0.623   1.771
 5083SOL    HW116148   3.466   0.578   1.746
 5083SOL    HW216149   3.626   0.555   1.773
 5084SOL     OW16150   0.864   5.112   4.277
 5084SOL    HW116151   0.826   5.142   4.190
 5084SOL    HW216152   0.964   5.104   4.268
 5085SOL     OW16153   0.315   2.966   5.393
 5085SOL    HW116154   0.381   3.010   5.333
 5085SOL    HW216155   0.317   2.867   5.377
 5086SOL     OW16156   1.140   4.540   2.870
 5086SOL    HW116157   1.194   4.457   2.865
 5086SOL    HW216158   1.197   4.616   2.900
 5087SOL     OW16159   0.146   5.362   1.321
 5087SOL    HW116160   0.182   5.364   1.228
 5087SOL    HW216161   0.220   5.376   1.386
 5088SOL     OW16162   5.352   6.893   3.155
 5088SOL    HW116163   5.392   6.837   3.227
 5088SOL    HW216164   5.390   6.986   3.161
 5089SOL     OW16165   6.111   4.693   4.313
 5089SOL    HW116166   6.160   4.780   4.321
 5089SOL    HW216167   6.176   4.619   4.303
 5090SOL     OW16168   1.802   1.896   2.333
 5090SOL    HW116169   1.890   1.920   2.292
 5090SOL    HW216170   1.817   1.846   2.419
 5091SOL     OW16171   6.639   0.892   1.609
 5091SOL    HW116172   6.640   0.850   1.700
 5091SOL    HW216173   6.559   0.859   1.558
 5092SOL     OW16174   3.455   3.019   3.620
 5092SOL    HW116175   3.546   2.993   3.652
 5092SOL    HW216176   3.386   2.982   3.682
 5093SOL     OW16177   3.407   1.251   0.952
 5093SOL    HW116178   3.331   1.297   0.906
 5093SOL    HW216179   3.466   1.319   0.995
 5094SOL     OW16180   2.336   6.189   6.387
 5094SOL    HW116181   2.262   6.208   6.323
 5094SOL    HW216182   2.329   6.094   6.418
 5095SOL     OW16183   0.214   2.235   3.088
 5095SOL    HW116184   0.219   2.238   3.188
 5095SOL    HW216185   0.270   2.159   3.054
 5096SOL     OW16186   4.600   4.898   6.863
 5096SOL    HW116187   4.628   4.993   6.847
 5096SOL    HW216188   4.501   4.893   6.872
 5097SOL     OW16189   0.407   6.851   6.944
 5097SOL    HW116190   0.314   6.844   6.906
 5097SOL    HW216191   0.439   6.760   6.971
 5098SOL     OW16192   3.166   1.219   2.127
 5098SOL    HW116193   3.246   1.231   2.186
 5098SOL    HW216194   3.167   1.289   2.055
 5099SOL     OW16195   0.609   6.641   2.003
 5099SOL    HW116196   0.575   6.554   1.968
 5099SOL    HW216197   0.708   6.633   2.019
 5100SOL     OW16198   3.336   5.560   4.504
 5100SOL    HW116199   3.253   5.533   4.553
 5100SOL    HW216200   3.409   5.493   4.522
 5101SOL     OW16201   4.280   7.008   5.759
 5101SOL    HW116202   4.307   0.047   5.827
 5101SOL    HW216203   4.209   6.949   5.797
 5102SOL     OW16204   5.626   6.253   4.408
 5102SOL    HW116205   5.706   6.302   4.374
 5102SOL    HW216206   5.546   6.312   4.400
 5103SOL     OW16207   0.817   1.362   4.352
 5103SOL    HW116208   0.879   1.307   4.409
 5103SOL    HW216209   0.803   1.316   4.264
 5104SOL     OW16210   2.796   6.684   2.102
 5104SOL    HW116211   2.720   6.749   2.103
 5104SOL    HW216212   2.816   6.656   2.196
 5105SOL     OW16213   3.205   3.247   6.933
 5105SOL    HW116214   3.196   3.347   6.936
 5105SOL    HW216215   3.299   3.222   6.911
 5106SOL     OW16216   4.293   1.358   1.998
 5106SOL    HW116217   4.264   1.450   2.020
 5106SOL    HW216218   4.246   1.326   1.916
 5107SOL     OW16219   4.647   2.281   1.747
 5107SOL    HW116220   4.685   2.318   1.662
 5107SOL    HW216221   4.626   2.184   1.735
 5108SOL     OW16222   3.883   3.772   4.993
 5108SOL    HW116223   3.856   3.866   5.013
 5108SOL    HW216224   3.841   3.711   5.060
 5109SOL     OW16225   1.127   2.269   0.442
 5109SOL    HW116226   1.225   2.259   0.461
 5109SOL    HW216227   1.114   2.342   0.374
 5110SOL     OW16228   0.753   0.547   6.449
 5110SOL    HW116229   0.693   0.560   6.528
 5110SOL    HW216230   0.777   0.636   6.410
 5111SOL     OW16231   1.638   0.632   4.381
 5111SOL    HW116232   1.695   0.551   4.369
 5111SOL    HW216233   1.545   0.604   4.408
 5112SOL     OW16234   0.564   0.443   2.927
 5112SOL    HW116235   0.640   0.502   2.895
 5112SOL    HW216236   0.578   0.350   2.893
 5113SOL     OW16237   1.125   5.611   1.502
 5113SOL    HW116238   1.185   5.637   1.578
 5113SOL    HW216239   1.113   5.689   1.441
 5114SOL     OW16240   4.007   6.990   6.854
 5114SOL    HW116241   4.070   6.959   6.784
 5114SOL    HW216242   3.920   7.017   6.811
 5115SOL     OW16243   1.306   5.011   3.201
 5115SOL    HW116244   1.395   4.978   3.232
 5115SOL    HW216245   1.235   4.977   3.262
 5116SOL     OW16246   1.017   6.528   0.578
 5116SOL    HW116247   1.080   6.464   0.534
 5116SOL    HW216248   1.066   6.577   0.651
 5117SOL     OW16249   0.866   3.936   3.751
 5117SOL    HW116250   0.836   4.030   3.763
 5117SOL    HW216251   0.792   3.874   3.774
 5118SOL     OW16252   5.499   0.806   0.147
 5118SOL    HW116253   5.520   0.724   0.095
 5118SOL    HW216254   5.489   0.884   0.085
 5119SOL     OW16255   4.623   1.064   2.661
 5119SOL    HW116256   4.653   0.997   2.729
 5119SOL    HW216257   4.551   1.122   2.701
 5120SOL     OW16258   4.074   6.838   5.051
 5120SOL    HW116259   4.119   6.863   5.136
 5120SOL    HW216260   4.113   6.752   5.016
 5121SOL     OW16261   3.472   3.170   6.954
 5121SOL    HW116262   3.504   3.107   7.024
 5121SOL    HW216263   3.507   3.142   6.865
 5122SOL     OW16264   3.480   5.946   3.466
 5122SOL    HW116265   3.559   6.005   3.482
 5122SOL    HW216266   3.435   5.927   3.554
 5123SOL     OW16267   5.083   1.682   4.606
 5123SOL    HW116268   5.134   1.751   4.554
 5123SOL    HW216269   5.077   1.598   4.552
 5124SOL     OW16270   1.648   6.089   4.616
 5124SOL    HW116271   1.707   6.045   4.684
 5124SOL    HW216272   1.668   6.053   4.525
 5125SOL     OW16273   6.284   3.097   3.360
 5125SOL    HW116274   6.336   3.155   3.421
 5125SOL    HW216275   6.234   3.029   3.413
 5126SOL     OW16276   6.788   5.815   6.622
 5126SOL    HW116277   6.839   5.736   6.587
 5126SOL    HW216278   6.778   5.883   6.549
 5127SOL     OW16279   0.088   3.978   0.021
 5127SOL    HW116280   0.005   4.026   0.049
 5127SOL    HW216281   0.065   3.889   7.012
 5128SOL     OW16282   0.450   0.367   0.467
 5128SOL    HW116283   0.541   0.383   0.429
 5128SOL    HW216284   0.446   0.276   0.507
 5129SOL     OW16285   6.564   6.728   3.041
 5129SOL    HW116286   6.553   6.629   3.055
 5129SOL    HW216287   6.522   6.754   2.955
 5130SOL     OW16288   6.835   5.724   2.415
 5130SOL    HW116289   6.871   5.809   2.375
 5130SOL    HW216290   6.908   5.658   2.425
 5131SOL     OW16291   1.991   3.831   4.194
 5131SOL    HW116292   2.070   3.893   4.200
 5131SOL    HW216293   1.986   3.776   4.278
 5132SOL     OW16294   4.010   2.983   6.686
 5132SOL    HW116295   3.978   2.998   6.592
 5132SOL    HW216296   4.049   2.892   6.694
 5133SOL     OW16297   1.797   5.174   0.164
 5133SOL    HW116298   1.780   5.246   0.232
 5133SOL    HW216299   1.853   5.211   0.090
 5134SOL     OW16300   0.005   2.836   2.102
 5134SOL    HW116301   0.029   2.749   2.145
 5134SOL    HW216302   6.988   2.895   2.168
 5135SOL     OW16303   6.240   2.680   5.169
 5135SOL    HW116304   6.152   2.634   5.163
 5135SOL    HW216305   6.227   2.773   5.205
 5136SOL     OW16306   4.713   0.644   6.211
 5136SOL    HW116307   4.670   0.558   6.240
 5136SOL    HW216308   4.693   0.715   6.278
 5137SOL     OW16309   5.309   3.406   6.118
 5137SOL    HW116310   5.303   3.446   6.027
 5137SOL    HW216311   5.280   3.310   6.114
 5138SOL     OW16312   2.767   2.949   5.918
 5138SOL    HW116313   2.781   2.932   5.820
 5138SOL    HW216314   2.669   2.949   5.938
 5139SOL     OW16315   2.097   6.965   3.141
 5139SOL    HW116316   2.138   6.875   3.128
 5139SOL    HW216317   2.134   7.028   3.072
 5140SOL     OW16318   3.881   2.268   0.255
 5140SOL    HW116319   3.817   2.281   0.331
 5140SOL    HW216320   3.843   2.308   0.172
 5141SOL     OW16321   6.609   3.609   0.321
 5141SOL    HW116322   6.637   3.619   0.416
 5141SOL    HW216323   6.674   3.551   0.272
 5142SOL     OW16324   6.037   0.724   3.999
 5142SOL    HW116325   6.101   0.775   3.941
 5142SOL    HW216326   6.067   0.629   4.007
 5143SOL     OW16327   6.894   4.367   3.957
 5143SOL    HW116328   6.914   4.275   3.924
 5143SOL    HW216329   6.829   4.362   4.033
 5144SOL     OW16330   1.238   4.746   6.108
 5144SOL    HW116331   1.242   4.699   6.196
 5144SOL    HW216332   1.157   4.805   6.106
 5145SOL     OW16333   2.184   4.938   5.585
 5145SOL    HW116334   2.102   4.936   5.528
 5145SOL    HW216335   2.250   4.870   5.552
 5146SOL     OW16336   3.826   4.024   5.097
 5146SOL    HW116337   3.773   4.095   5.051
 5146SOL    HW216338   3.778   3.995   5.179
 5147SOL     OW16339   6.837   4.841   3.031
 5147SOL    HW116340   6.894   4.899   3.090
 5147SOL    HW216341   6.742   4.871   3.036
 5148SOL     OW16342   1.129   6.212   1.248
 5148SOL    HW116343   1.098   6.303   1.277
 5148SOL    HW216344   1.182   6.170   1.321
 5149SOL     OW16345   6.220   6.188   3.661
 5149SOL    HW116346   6.231   6.241   3.745
 5149SOL    HW216347   6.310   6.170   3.621
 5150SOL     OW16348   2.337   5.048   2.387
 5150SOL    HW116349   2.265   5.117   2.386
 5150SOL    HW216350   2.336   4.999   2.474
 5151SOL     OW16351   5.547   2.290   0.714
 5151SOL    HW116352   5.501   2.372   0.680
 5151SOL    HW216353   5.537   2.216   0.647
 5152SOL     OW16354   2.137   4.315   0.018
 5152SOL    HW116355   2.060   4.338   6.987
 5152SOL    HW216356   2.101   4.285   0.107
 5153SOL     OW16357   2.552   0.237   0.047
 5153SOL    HW116358   2.551   0.274   0.140
 5153SOL    HW216359   2.461   0.247   0.006
 5154SOL     OW16360   1.368   3.395   6.327
 5154SOL    HW116361   1.449   3.372   6.273
 5154SOL    HW216362   1.311   3.313   6.338
 5155SOL     OW16363   4.356   7.017   2.480
 5155SOL    HW116364   4.382   0.080   2.454
 5155SOL    HW216365   4.430   6.953   2.457
 5156SOL     OW16366   6.520   2.994   6.440
 5156SOL    HW116367   6.433   2.998   6.490
 5156SOL    HW216368   6.524   3.071   6.376
 5157SOL     OW16369   4.167   2.053   3.679
 5157SOL    HW116370   4.082   2.089   3.640
 5157SOL    HW216371   4.229   2.129   3.698
 5158SOL     OW16372   3.710   0.999   1.597
 5158SOL    HW116373   3.709   1.095   1.569
 5158SOL    HW216374   3.741   0.992   1.692
 5159SOL     OW16375   7.004   2.911   3.898
 5159SOL    HW116376   0.008   2.880   3.809
 5159SOL    HW216377   6.933   2.850   3.930
 5160SOL     OW16378   0.237   4.345   3.442
 5160SOL    HW116379   0.218   4.409   3.517
 5160SOL    HW216380   0.164   4.351   3.374
 5161SOL     OW16381   1.519   3.705   4.765
 5161SOL    HW116382   1.553   3.676   4.855
 5161SOL    HW216383   1.595   3.709   4.701
 5162SOL     OW16384   1.481   5.208   3.582
 5162SOL    HW116385   1.543   5.270   3.630
 5162SOL    HW216386   1.387   5.225   3.611
 5163SOL     OW16387   3.965   6.050   1.044
 5163SOL    HW116388   4.022   6.001   1.111
 5163SOL    HW216389   3.914   6.122   1.090
 5164SOL     OW16390   4.668   2.667   6.510
 5164SOL    HW116391   4.767   2.681   6.505
 5164SOL    HW216392   4.621   2.750   6.481
 5165SOL     OW16393   5.890   4.431   5.241
 5165SOL    HW116394   5.873   4.461   5.335
 5165SOL    HW216395   5.979   4.386   5.235
 5166SOL     OW16396   6.945   5.923   2.660
 5166SOL    HW116397   6.918   5.895   2.753
 5166SOL    HW216398   6.892   5.871   2.593
 5167SOL     OW16399   6.407   5.952   5.710
 5167SOL    HW116400   6.368   5.860   5.709
 5167SOL    HW216401   6.410   5.985   5.805
 5168SOL     OW16402   5.155   3.576   3.254
 5168SOL    HW116403   5.249   3.546   3.234
 5168SOL    HW216404   5.156   3.635   3.335
 5169SOL     OW16405   4.202   1.651   5.326
 5169SOL    HW116406   4.205   1.749   5.344
 5169SOL    HW216407   4.110   1.617   5.344
 5170SOL     OW16408   0.362   4.194   5.255
 5170SOL    HW116409   0.416   4.276   5.274
 5170SOL    HW216410   0.312   4.205   5.169
 5171SOL     OW16411   1.646   5.633   3.685
 5171SOL    HW116412   1.675   5.588   3.601
 5171SOL    HW216413   1.727   5.654   3.741
 5172SOL     OW16414   6.878   2.603   2.488
 5172SOL    HW116415   6.842   2.513   2.510
 5172SOL    HW216416   6.803   2.668   2.478
 5173SOL     OW16417   5.893   4.682   6.065
 5173SOL    HW116418   5.872   4.590   6.031
 5173SOL    HW216419   5.912   4.677   6.163
 5174SOL     OW16420   2.612   4.916   3.155
 5174SOL    HW116421   2.660   5.001   3.133
 5174SOL    HW216422   2.657   4.869   3.230
 5175SOL     OW16423   2.316   3.861   0.036
 5175SOL    HW116424   2.259   3.872   0.117
 5175SOL    HW216425   2.305   3.940   7.005
 5176SOL     OW16426   4.799   3.178   6.454
 5176SOL    HW116427   4.864   3.253   6.456
 5176SOL    HW216428   4.756   3.169   6.544
 5177SOL     OW16429   5.155   0.298   6.407
 5177SOL    HW116430   5.246   0.260   6.390
 5177SOL    HW216431   5.164   0.392   6.441
 5178SOL     OW16432   1.305   3.770   1.398
 5178SOL    HW116433   1.278   3.703   1.329
 5178SOL    HW216434   1.236   3.842   1.404
 5179SOL     OW16435   3.948   5.822   4.858
 5179SOL    HW116436   3.864   5.821   4.803
 5179SOL    HW216437   3.981   5.916   4.866
 5180SOL     OW16438   3.206   2.675   6.983
 5180SOL    HW116439   3.222   2.741   0.027
 5180SOL    HW216440   3.166   2.722   6.904
 5181SOL     OW16441   4.878   1.937   2.254
 5181SOL    HW116442   4.902   1.906   2.346
 5181SOL    HW216443   4.896   2.035   2.245
 5182SOL     OW16444   3.730   4.954   1.467
 5182SOL    HW116445   3.676   4.944   1.551
 5182SOL    HW216446   3.757   5.049   1.455
 5183SOL     OW16447   3.704   1.369   2.660
 5183SOL    HW116448   3.803   1.363   2.646
 5183SOL    HW216449   3.685   1.400   2.753
 5184SOL     OW16450   0.171   2.250   4.243
 5184SOL    HW116451   0.148   2.296   4.329
 5184SOL    HW216452   0.253   2.292   4.204
 5185SOL     OW16453   5.638   0.764   2.220
 5185SOL    HW116454   5.542   0.758   2.194
 5185SOL    HW216455   5.648   0.737   2.315
 5186SOL     OW16456   5.976   3.324   0.881
 5186SOL    HW116457   5.929   3.408   0.907
 5186SOL    HW216458   6.023   3.286   0.961
 5187SOL     OW16459   6.900   0.833   3.803
 5187SOL    HW116460   6.862   0.904   3.744
 5187SOL    HW216461   6.858   0.745   3.781
 5188SOL     OW16462   0.493   5.465   0.412
 5188SOL    HW116463   0.560   5.391   0.417
 5188SOL    HW216464   0.410   5.433   0.367
 5189SOL     OW16465   4.840   4.972   1.076
 5189SOL    HW116466   4.824   5.031   1.155
 5189SOL    HW216467   4.872   4.883   1.107
 5190SOL     OW16468   0.080   2.916   4.242
 5190SOL    HW116469   0.135   2.953   4.317
 5190SOL    HW216470   0.095   2.970   4.159
 5191SOL     OW16471   4.536   0.542   2.128
 5191SOL    HW116472   4.566   0.625   2.175
 5191SOL    HW216473   4.454   0.562   2.074
 5192SOL     OW16474   2.993   5.555   2.774
 5192SOL    HW116475   2.929   5.631   2.785
 5192SOL    HW216476   2.952   5.471   2.808
 5193SOL     OW16477   5.273   4.673   4.214
 5193SOL    HW116478   5.300   4.756   4.263
 5193SOL    HW216479   5.219   4.614   4.275
 5194SOL     OW16480   4.218   0.776   0.025
 5194SOL    HW116481   4.193   0.820   6.968
 5194SOL    HW216482   4.135   0.748   0.073
 5195SOL     OW16483   6.904   5.817   4.063
 5195SOL    HW116484   6.953   5.731   4.059
 5195SOL    HW216485   6.937   5.877   3.989
 5196SOL     OW16486   1.408   3.718   0.727
 5196SOL    HW116487   1.497   3.722   0.681
 5196SOL    HW216488   1.413   3.769   0.813
 5197SOL     OW16489   1.270   5.660   5.151
 5197SOL    HW116490   1.258   5.622   5.242
 5197SOL    HW216491   1.231   5.597   5.083
 5198SOL     OW16492   4.217   6.724   3.989
 5198SOL    HW116493   4.170   6.636   3.997
 5198SOL    HW216494   4.278   6.722   3.911
 5199SOL     OW16495   1.177   6.672   6.563
 5199SOL    HW116496   1.124   6.653   6.480
 5199SOL    HW216497   1.273   6.648   6.548
 5200SOL     OW16498   1.748   1.894   5.553
 5200SOL    HW116499   1.667   1.871   5.498
 5200SOL    HW216500   1.750   1.837   5.635
 5201SOL     OW16501   5.744   6.090   4.100
 5201SOL    HW116502   5.658   6.100   4.049
 5201SOL    HW216503   5.757   5.995   4.125
 5202SOL     OW16504   5.705   4.445   5.763
 5202SOL    HW116505   5.613   4.484   5.769
 5202SOL    HW216506   5.703   4.349   5.787
 5203SOL     OW16507   2.416   0.592   0.115
 5203SOL    HW116508   2.422   0.518   0.182
 5203SOL    HW216509   2.503   0.641   0.112
 5204SOL     OW16510   3.735   6.537   0.328
 5204SOL    HW116511   3.688   6.593   0.396
 5204SOL    HW216512   3.824   6.509   0.364
 5205SOL     OW16513   6.811   6.003   6.893
 5205SOL    HW116514   6.884   6.044   6.838
 5205SOL    HW216515   6.736   5.977   6.832
 5206SOL     OW16516   6.907   5.557   6.514
 5206SOL    HW116517   6.902   5.544   6.415
 5206SOL    HW216518   6.831   5.508   6.558
 5207SOL     OW16519   0.885   0.353   3.293
 5207SOL    HW116520   0.883   0.253   3.303
 5207SOL    HW216521   0.912   0.376   3.199
 5208SOL     OW16522   4.488   2.479   6.952
 5208SOL    HW116523   4.556   2.412   6.981
 5208SOL    HW216524   4.401   2.432   6.936
 5209SOL     OW16525   5.370   0.819   1.275
 5209SOL    HW116526   5.394   0.761   1.354
 5209SOL    HW216527   5.438   0.806   1.203
 5210SOL     OW16528   4.815   3.664   0.742
 5210SOL    HW116529   4.819   3.565   0.756
 5210SOL    HW216530   4.769   3.707   0.820
 5211SOL     OW16531   4.672   1.829   5.062
 5211SOL    HW116532   4.685   1.763   5.136
 5211SOL    HW216533   4.740   1.902   5.069
 5212SOL     OW16534   1.793   2.834   1.517
 5212SOL    HW116535   1.821   2.740   1.539
 5212SOL    HW216536   1.761   2.838   1.422
 5213SOL     OW16537   4.440   3.660   0.840
 5213SOL    HW116538   4.487   3.603   0.773
 5213SOL    HW216539   4.341   3.647   0.830
 5214SOL     OW16540   5.748   2.655   5.735
 5214SOL    HW116541   5.745   2.632   5.638
 5214SOL    HW216542   5.686   2.731   5.753
 5215SOL     OW16543   0.830   4.692   4.455
 5215SOL    HW116544   0.733   4.689   4.480
 5215SOL    HW216545   0.883   4.730   4.531
 5216SOL     OW16546   4.829   5.087   1.326
 5216SOL    HW116547   4.755   5.118   1.386
 5216SOL    HW216548   4.911   5.140   1.346
 5217SOL     OW16549   3.548   5.736   4.473
 5217SOL    HW116550   3.489   5.667   4.514
 5217SOL    HW216551   3.616   5.692   4.415
 5218SOL     OW16552   0.568   1.443   1.625
 5218SOL    HW116553   0.514   1.365   1.660
 5218SOL    HW216554   0.551   1.453   1.527
 5219SOL     OW16555   3.438   1.827   4.745
 5219SOL    HW116556   3.362   1.802   4.686
 5219SOL    HW216557   3.518   1.770   4.723
 5220SOL     OW16558   1.639   5.273   3.176
 5220SOL    HW116559   1.680   5.225   3.099
 5220SOL    HW216560   1.633   5.211   3.254
 5221SOL     OW16561   6.498   0.748   2.690
 5221SOL    HW116562   6.481   0.798   2.775
 5221SOL    HW216563   6.423   0.685   2.673
 5222SOL     OW16564   4.003   6.621   2.084
 5222SOL    HW116565   3.907   6.596   2.089
 5222SOL    HW216566   4.025   6.686   2.157
 5223SOL     OW16567   0.203   2.765   6.970
 5223SOL    HW116568   0.275   2.827   6.938
 5223SOL    HW216569   0.165   2.799   0.026
 5224SOL     OW16570   6.671   2.749   4.204
 5224SOL    HW116571   6.726   2.818   4.252
 5224SOL    HW216572   6.677   2.662   4.254
 5225SOL     OW16573   6.359   1.126   3.101
 5225SOL    HW116574   6.298   1.085   3.169
 5225SOL    HW216575   6.450   1.137   3.140
 5226SOL     OW16576   0.601   6.521   4.114
 5226SOL    HW116577   0.699   6.540   4.105
 5226SOL    HW216578   0.553   6.553   4.032
 5227SOL     OW16579   0.304   4.236   5.912
 5227SOL    HW116580   0.272   4.267   5.822
 5227SOL    HW216581   0.255   4.286   5.984
 5228SOL     OW16582   0.800   2.100   0.154
 5228SOL    HW116583   0.702   2.102   0.133
 5228SOL    HW216584   0.812   2.109   0.253
 5229SOL     OW16585   3.187   6.395   0.563
 5229SOL    HW116586   3.107   6.455   0.568
 5229SOL    HW216587   3.257   6.427   0.627
 5230SOL     OW16588   6.837   6.242   2.048
 5230SOL    HW116589   6.902   6.249   2.124
 5230SOL    HW216590   6.853   6.156   1.999
 5231SOL     OW16591   4.671   2.639   3.354
 5231SOL    HW116592   4.615   2.721   3.340
 5231SOL    HW216593   4.727   2.623   3.273
 5232SOL     OW16594   1.179   3.959   5.872
 5232SOL    HW116595   1.234   3.942   5.954
 5232SOL    HW216596   1.083   3.940   5.892
 5233SOL     OW16597   3.675   1.222   2.983
 5233SOL    HW116598   3.578   1.226   2.957
 5233SOL    HW216599   3.707   1.128   2.979
 5234SOL     OW16600   2.364   2.528   6.555
 5234SOL    HW116601   2.382   2.626   6.553
 5234SOL    HW216602   2.396   2.487   6.469
 5235SOL     OW16603   2.000   2.146   0.711
 5235SOL    HW116604   2.089   2.171   0.672
 5235SOL    HW216605   1.938   2.225   0.706
 5236SOL     OW16606   3.637   5.829   2.177
 5236SOL    HW116607   3.711   5.782   2.225
 5236SOL    HW216608   3.675   5.906   2.126
 5237SOL     OW16609   1.240   1.016   5.218
 5237SOL    HW116610   1.316   1.011   5.283
 5237SOL    HW216611   1.276   1.027   5.126
 5238SOL     OW16612   0.265   5.343   0.328
 5238SOL    HW116613   0.214   5.275   0.276
 5238SOL    HW216614   0.210   5.426   0.337
 5239SOL     OW16615   3.800   2.429   6.725
 5239SOL    HW116616   3.877   2.493   6.724
 5239SOL    HW216617   3.720   2.471   6.682
 5240SOL     OW16618   3.282   2.160   5.284
 5240SOL    HW116619   3.311   2.177   5.378
 5240SOL    HW216620   3.228   2.238   5.251
 5241SOL     OW16621   0.999   5.885   4.266
 5241SOL    HW116622   1.079   5.932   4.303
 5241SOL    HW216623   1.029   5.807   4.211
 5242SOL     OW16624   6.039   6.802   1.879
 5242SOL    HW116625   6.081   6.769   1.964
 5242SOL    HW216626   6.070   6.895   1.861
 5243SOL     OW16627   2.047   5.537   1.857
 5243SOL    HW116628   1.983   5.579   1.792
 5243SOL    HW216629   2.130   5.593   1.863
 5244SOL     OW16630   3.726   4.844   6.896
 5244SOL    HW116631   3.766   4.882   6.812
 5244SOL    HW216632   3.789   4.859   6.972
 5245SOL     OW16633   3.645   4.407   0.566
 5245SOL    HW116634   3.726   4.359   0.531
 5245SOL    HW216635   3.663   4.505   0.567
 5246SOL     OW16636   6.680   2.749   2.085
 5246SOL    HW116637   6.689   2.654   2.116
 5246SOL    HW216638   6.645   2.805   2.160
 5247SOL     OW16639   2.688   0.273   6.307
 5247SOL    HW116640   2.763   0.277   6.242
 5247SOL    HW216641   2.601   0.267   6.258
 5248SOL     OW16642   6.418   2.329   3.193
 5248SOL    HW116643   6.439   2.378   3.278
 5248SOL    HW216644   6.494   2.267   3.171
 5249SOL     OW16645   0.738   5.842   6.168
 5249SOL    HW116646   0.774   5.839   6.261
 5249SOL    HW216647   0.645   5.805   6.168
 5250SOL     OW16648   1.069   6.024   0.297
 5250SOL    HW116649   1.041   6.047   0.204
 5250SOL    HW216650   1.017   6.079   0.363
 5251SOL     OW16651   0.984   2.824   0.421
 5251SOL    HW116652   1.040   2.741   0.428
 5251SOL    HW216653   0.959   2.839   0.325
 5252SOL     OW16654   3.050   6.400   0.985
 5252SOL    HW116655   3.049   6.342   1.067
 5252SOL    HW216656   3.107   6.480   1.002
 5253SOL     OW16657   6.750   3.956   4.856
 5253SOL    HW116658   6.681   3.885   4.843
 5253SOL    HW216659   6.751   4.018   4.777
 5254SOL     OW16660   5.459   0.965   3.338
 5254SOL    HW116661   5.536   0.901   3.330
 5254SOL    HW216662   5.386   0.922   3.391
 5255SOL     OW16663   5.554   2.185   5.331
 5255SOL    HW116664   5.502   2.102   5.313
 5255SOL    HW216665   5.491   2.260   5.352
 5256SOL     OW16666   5.189   1.910   4.021
 5256SOL    HW116667   5.248   1.857   4.082
 5256SOL    HW216668   5.146   1.848   3.956
 5257SOL     OW16669   5.149   6.984   1.174
 5257SOL    HW116670   5.222   6.922   1.202
 5257SOL    HW216671   5.116   6.959   1.083
 5258SOL     OW16672   5.984   3.068   1.790
 5258SOL    HW116673   6.083   3.065   1.803
 5258SOL    HW216674   5.941   2.993   1.841
 5259SOL     OW16675   4.730   6.139   2.665
 5259SOL    HW116676   4.642   6.124   2.619
 5259SOL    HW216677   4.798   6.074   2.630
 5260SOL     OW16678   4.801   3.692   0.435
 5260SOL    HW116679   4.785   3.677   0.532
 5260SOL    HW216680   4.823   3.789   0.419
 5261SOL     OW16681   6.552   3.925   5.956
 5261SOL    HW116682   6.476   3.863   5.937
 5261SOL    HW216683   6.621   3.878   6.011
 5262SOL     OW16684   2.535   1.472   3.381
 5262SOL    HW116685   2.629   1.460   3.351
 5262SOL    HW216686   2.525   1.436   3.474
 5263SOL     OW16687   1.697   1.357   3.250
 5263SOL    HW116688   1.605   1.324   3.270
 5263SOL    HW216689   1.765   1.292   3.287
 5264SOL     OW16690   6.570   2.155   2.090
 5264SOL    HW116691   6.549   2.121   1.998
 5264SOL    HW216692   6.525   2.243   2.105
 5265SOL     OW16693   6.166   3.698   3.846
 5265SOL    HW116694   6.073   3.697   3.809
 5265SOL    HW216695   6.192   3.604   3.871
 5266SOL     OW16696   3.381   5.784   6.999
 5266SOL    HW116697   3.346   5.705   0.020
 5266SOL    HW216698   3.368   5.867   0.025
 5267SOL     OW16699   4.885   2.287   4.817
 5267SOL    HW116700   4.917   2.234   4.738
 5267SOL    HW216701   4.964   2.313   4.873
 5268SOL     OW16702   5.939   0.973   0.064
 5268SOL    HW116703   6.039   0.972   0.062
 5268SOL    HW216704   5.908   0.979   0.159
 5269SOL     OW16705   0.987   6.745   2.575
 5269SOL    HW116706   0.893   6.719   2.553
 5269SOL    HW216707   1.034   6.668   2.617
 5270SOL     OW16708   5.160   1.058   1.961
 5270SOL    HW116709   5.178   0.963   1.985
 5270SOL    HW216710   5.178   1.116   2.041
 5271SOL     OW16711   6.247   4.681   5.291
 5271SOL    HW116712   6.239   4.779   5.277
 5271SOL    HW216713   6.157   4.642   5.310
 5272SOL     OW16714   3.378   6.198   1.532
 5272SOL    HW116715   3.379   6.227   1.436
 5272SOL    HW216716   3.416   6.270   1.589
 5273SOL     OW16717   0.626   2.912   3.485
 5273SOL    HW116718   0.541   2.906   3.433
 5273SOL    HW216719   0.657   3.007   3.487
 5274SOL     OW16720   6.432   0.326   2.577
 5274SOL    HW116721   6.504   0.315   2.646
 5274SOL    HW216722   6.351   0.275   2.606
 5275SOL     OW16723   3.918   1.997   0.306
 5275SOL    HW116724   3.927   2.096   0.293
 5275SOL    HW216725   3.996   1.963   0.359
 5276SOL     OW16726   1.955   0.307   0.756
 5276SOL    HW116727   1.931   0.362   0.836
 5276SOL    HW216728   1.890   0.231   0.748
 5277SOL     OW16729   2.208   1.770   2.223
 5277SOL    HW116730   2.174   1.677   2.237
 5277SOL    HW216731   2.165   1.831   2.289
 5278SOL     OW16732   5.354   5.904   3.282
 5278SOL    HW116733   5.372   5.981   3.342
 5278SOL    HW216734   5.301   5.835   3.332
 5279SOL     OW16735   2.069   5.366   0.226
 5279SOL    HW116736   1.995   5.431   0.242
 5279SOL    HW216737   2.143   5.411   0.177
 5280SOL     OW16738   3.306   5.812   5.192
 5280SOL    HW116739   3.375   5.750   5.153
 5280SOL    HW216740   3.293   5.889   5.129
 5281SOL     OW16741   6.646   1.582   1.988
 5281SOL    HW116742   6.697   1.546   1.911
 5281SOL    HW216743   6.699   1.655   2.032
 5282SOL     OW16744   3.785   1.680   3.442
 5282SOL    HW116745   3.842   1.736   3.502
 5282SOL    HW216746   3.703   1.731   3.417
 5283SOL     OW16747   4.404   6.301   2.381
 5283SOL    HW116748   4.503   6.312   2.381
 5283SOL    HW216749   4.361   6.387   2.353
 5284SOL     OW16750   4.600   4.374   3.292
 5284SOL    HW116751   4.652   4.323   3.361
 5284SOL    HW216752   4.642   4.361   3.202
 5285SOL     OW16753   2.431   4.525   4.147
 5285SOL    HW116754   2.387   4.435   4.145
 5285SOL    HW216755   2.425   4.568   4.057
 5286SOL     OW16756   1.725   4.849   0.620
 5286SOL    HW116757   1.823   4.831   0.610
 5286SOL    HW216758   1.697   4.830   0.715
 5287SOL     OW16759   3.338   0.859   0.353
 5287SOL    HW116760   3.261   0.869   0.290
 5287SOL    HW216761   3.392   0.944   0.353
 5288SOL     OW16762   2.823   0.033   1.778
 5288SOL    HW116763   2.887   0.007   1.706
 5288SOL    HW216764   2.872   0.045   1.864
 5289SOL     OW16765   2.155   4.994   6.344
 5289SOL    HW116766   2.173   4.951   6.432
 5289SOL    HW216767   2.062   4.974   6.315
 5290SOL     OW16768   2.721   5.486   5.611
 5290SOL    HW116769   2.778   5.508   5.691
 5290SOL    HW216770   2.655   5.415   5.635
 5291SOL     OW16771   2.374   5.855   5.462
 5291SOL    HW116772   2.346   5.941   5.504
 5291SOL    HW216773   2.323   5.780   5.504
 5292SOL     OW16774   5.786   2.831   0.125
 5292SOL    HW116775   5.689   2.828   0.148
 5292SOL    HW216776   5.809   2.755   0.065
 5293SOL     OW16777   0.316   1.026   4.879
 5293SOL    HW116778   0.293   1.115   4.839
 5293SOL    HW216779   0.299   1.028   4.977
 5294SOL     OW16780   4.949   3.689   6.139
 5294SOL    HW116781   4.891   3.725   6.065
 5294SOL    HW216782   4.931   3.592   6.151
 5295SOL     OW16783   6.791   1.165   2.838
 5295SOL    HW116784   6.774   1.149   2.741
 5295SOL    HW216785   6.884   1.138   2.861
 5296SOL     OW16786   1.899   5.705   6.747
 5296SOL    HW116787   1.809   5.695   6.790
 5296SOL    HW216788   1.901   5.652   6.662
 5297SOL     OW16789   1.708   2.039   1.399
 5297SOL    HW116790   1.732   1.950   1.440
 5297SOL    HW216791   1.770   2.109   1.434
 5298SOL     OW16792   6.661   6.074   2.267
 5298SOL    HW116793   6.634   6.025   2.350
 5298SOL    HW216794   6.677   6.170   2.289
 5299SOL     OW16795   2.837   2.015   1.293
 5299SOL    HW116796   2.830   2.115   1.284
 5299SOL    HW216797   2.780   1.971   1.223
 5300SOL     OW16798   0.005   5.527   2.574
 5300SOL    HW116799   7.020   5.563   2.667
 5300SOL    HW216800   0.103   5.516   2.557
 5301SOL     OW16801   4.612   1.503   0.334
 5301SOL    HW116802   4.669   1.567   0.282
 5301SOL    HW216803   4.656   1.413   0.335
 5302SOL     OW16804   6.399   4.864   3.152
 5302SOL    HW116805   6.368   4.845   3.245
 5302SOL    HW216806   6.476   4.927   3.155
 5303SOL     OW16807   6.807   6.965   3.880
 5303SOL    HW116808   6.770   6.885   3.927
 5303SOL    HW216809   6.907   6.965   3.887
 5304SOL     OW16810   6.143   2.274   6.402
 5304SOL    HW116811   6.073   2.249   6.469
 5304SOL    HW216812   6.196   2.352   6.436
 5305SOL     OW16813   1.039   0.190   3.894
 5305SOL    HW116814   1.087   0.277   3.889
 5305SOL    HW216815   0.950   0.204   3.937
 5306SOL     OW16816   1.899   6.405   5.035
 5306SOL    HW116817   1.851   6.487   5.001
 5306SOL    HW216818   1.860   6.324   4.991
 5307SOL     OW16819   4.369   6.343   6.216
 5307SOL    HW116820   4.366   6.246   6.192
 5307SOL    HW216821   4.406   6.354   6.308
 5308SOL     OW16822   0.080   0.775   3.981
 5308SOL    HW116823   0.023   0.794   3.901
 5308SOL    HW216824   0.176   0.770   3.954
 5309SOL     OW16825   3.945   3.956   3.430
 5309SOL    HW116826   4.016   3.987   3.493
 5309SOL    HW216827   3.866   3.925   3.483
 5310SOL     OW16828   5.127   2.474   1.997
 5310SOL    HW116829   5.094   2.520   2.080
 5310SOL    HW216830   5.164   2.384   2.022
 5311SOL     OW16831   0.378   5.935   6.893
 5311SOL    HW116832   0.348   5.888   6.810
 5311SOL    HW216833   0.464   5.983   6.875
 5312SOL     OW16834   0.247   4.895   2.291
 5312SOL    HW116835   0.233   4.895   2.390
 5312SOL    HW216836   0.209   4.978   2.252
 5313SOL     OW16837   0.509   5.410   0.064
 5313SOL    HW116838   0.580   5.373   0.125
 5313SOL    HW216839   0.491   5.505   0.089
 5314SOL     OW16840   4.830   5.245   0.982
 5314SOL    HW116841   4.808   5.150   0.960
 5314SOL    HW216842   4.928   5.253   0.999
 5315SOL     OW16843   4.571   4.507   1.815
 5315SOL    HW116844   4.562   4.502   1.715
 5315SOL    HW216845   4.599   4.417   1.850
 5316SOL     OW16846   0.303   5.502   4.491
 5316SOL    HW116847   0.393   5.477   4.454
 5316SOL    HW216848   0.308   5.594   4.531
 5317SOL     OW16849   5.469   1.219   4.085
 5317SOL    HW116850   5.487   1.123   4.109
 5317SOL    HW216851   5.397   1.255   4.144
 5318SOL     OW16852   6.823   2.041   4.842
 5318SOL    HW116853   6.828   2.093   4.756
 5318SOL    HW216854   6.741   1.983   4.840
 5319SOL     OW16855   5.055   6.564   6.563
 5319SOL    HW116856   5.113   6.643   6.583
 5319SOL    HW216857   5.090   6.484   6.612
 5320SOL     OW16858   6.401   5.181   0.295
 5320SOL    HW116859   6.459   5.101   0.312
 5320SOL    HW216860   6.338   5.160   0.220
 5321SOL     OW16861   0.696   5.086   3.295
 5321SOL    HW116862   0.621   5.044   3.244
 5321SOL    HW216863   0.694   5.185   3.280
 5322SOL     OW16864   3.738   6.656   6.844
 5322SOL    HW116865   3.728   6.654   6.943
 5322SOL    HW216866   3.703   6.743   6.808
 5323SOL     OW16867   4.429   2.869   1.313
 5323SOL    HW116868   4.354   2.811   1.346
 5323SOL    HW216869   4.466   2.922   1.389
 5324SOL     OW16870   3.695   2.598   1.685
 5324SOL    HW116871   3.606   2.595   1.641
 5324SOL    HW216872   3.699   2.529   1.758
 5325SOL     OW16873   5.905   0.297   3.006
 5325SOL    HW116874   5.813   0.257   3.008
 5325SOL    HW216875   5.932   0.325   3.098
 5326SOL     OW16876   6.142   4.943   2.677
 5326SOL    HW116877   6.214   4.944   2.747
 5326SOL    HW216878   6.183   4.952   2.587
 5327SOL     OW16879   0.375   6.308   5.668
 5327SOL    HW116880   0.369   6.369   5.589
 5327SOL    HW216881   0.378   6.213   5.637
 5328SOL     OW16882   3.446   2.368   5.755
 5328SOL    HW116883   3.379   2.301   5.725
 5328SOL    HW216884   3.475   2.424   5.677
 5329SOL     OW16885   6.709   3.907   0.675
 5329SOL    HW116886   6.693   3.941   0.583
 5329SOL    HW216887   6.789   3.847   0.675
 5330SOL     OW16888   3.924   4.144   6.748
 5330SOL    HW116889   3.983   4.180   6.820
 5330SOL    HW216890   3.847   4.095   6.790
 5331SOL     OW16891   4.882   1.961   0.880
 5331SOL    HW116892   4.952   2.029   0.901
 5331SOL    HW216893   4.792   2.005   0.882
 5332SOL     OW16894   6.517   4.662   0.214
 5332SOL    HW116895   6.457   4.630   0.141
 5332SOL    HW216896   6.511   4.601   0.292
 5333SOL     OW16897   1.910   1.052   3.683
 5333SOL    HW116898   1.956   1.095   3.760
 5333SOL    HW216899   1.820   1.019   3.712
 5334SOL     OW16900   4.836   5.192   4.603
 5334SOL    HW116901   4.773   5.260   4.639
 5334SOL    HW216902   4.889   5.152   4.678
 5335SOL     OW16903   6.813   4.216   2.537
 5335SOL    HW116904   6.724   4.239   2.499
 5335SOL    HW216905   6.821   4.253   2.629
 5336SOL     OW16906   2.046   2.037   3.808
 5336SOL    HW116907   2.015   1.954   3.763
 5336SOL    HW216908   2.122   2.077   3.757
 5337SOL     OW16909   5.930   4.923   1.795
 5337SOL    HW116910   5.988   4.869   1.733
 5337SOL    HW216911   5.892   4.864   1.866
 5338SOL     OW16912   5.489   2.904   0.121
 5338SOL    HW116913   5.430   2.943   0.051
 5338SOL    HW216914   5.495   2.966   0.199
 5339SOL     OW16915   5.916   1.892   1.527
 5339SOL    HW116916   5.921   1.809   1.581
 5339SOL    HW216917   5.821   1.909   1.500
 5340SOL     OW16918   5.358   3.939   1.725
 5340SOL    HW116919   5.377   4.014   1.661
 5340SOL    HW216920   5.425   3.866   1.712
 5341SOL     OW16921   4.291   4.751   4.464
 5341SOL    HW116922   4.318   4.707   4.550
 5341SOL    HW216923   4.203   4.796   4.477
 5342SOL     OW16924   4.645   6.374   5.464
 5342SOL    HW116925   4.697   6.410   5.387
 5342SOL    HW216926   4.558   6.424   5.471
 5343SOL     OW16927   3.611   3.575   4.445
 5343SOL    HW116928   3.689   3.532   4.400
 5343SOL    HW216929   3.545   3.504   4.472
 5344SOL     OW16930   0.379   1.479   6.864
 5344SOL    HW116931   0.390   1.385   6.832
 5344SOL    HW216932   0.312   1.481   6.939
 5345SOL     OW16933   5.096   1.159   0.282
 5345SOL    HW116934   5.194   1.153   0.305
 5345SOL    HW216935   5.072   1.082   0.223
 5346SOL     OW16936   2.764   4.833   4.073
 5346SOL    HW116937   2.759   4.774   4.153
 5346SOL    HW216938   2.753   4.929   4.101
 5347SOL     OW16939   0.066   2.770   3.450
 5347SOL    HW116940   0.085   2.847   3.389
 5347SOL    HW216941   0.131   2.696   3.433
 5348SOL     OW16942   7.023   1.422   5.192
 5348SOL    HW116943   0.026   1.385   5.105
 5348SOL    HW216944   0.051   1.389   5.266
 5349SOL     OW16945   1.920   3.168   1.927
 5349SOL    HW116946   1.852   3.159   2.000
 5349SOL    HW216947   1.925   3.082   1.876
 5350SOL     OW16948   1.701   6.726   5.625
 5350SOL    HW116949   1.787   6.679   5.607
 5350SOL    HW216950   1.661   6.758   5.539
 5351SOL     OW16951   0.354   4.493   1.968
 5351SOL    HW116952   0.374   4.576   2.020
 5351SOL    HW216953   0.428   4.427   1.981
 5352SOL     OW16954   2.333   4.504   2.607
 5352SOL    HW116955   2.294   4.595   2.622
 5352SOL    HW216956   2.382   4.503   2.520
 5353SOL     OW16957   3.455   5.320   3.646
 5353SOL    HW116958   3.543   5.273   3.631
 5353SOL    HW216959   3.464   5.382   3.724
 5354SOL     OW16960   2.819   4.596   0.128
 5354SOL    HW116961   2.746   4.537   0.093
 5354SOL    HW216962   2.883   4.617   0.054
 5355SOL     OW16963   4.648   5.054   5.467
 5355SOL    HW116964   4.729   4.996   5.457
 5355SOL    HW216965   4.572   5.000   5.502
 5356SOL     OW16966   6.680   3.178   2.054
 5356SOL    HW116967   6.751   3.198   2.122
 5356SOL    HW216968   6.669   3.079   2.046
 5357SOL     OW16969   4.072   4.943   2.053
 5357SOL    HW116970   4.169   4.923   2.042
 5357SOL    HW216971   4.024   4.927   1.967
 5358SOL     OW16972   4.641   2.201   0.196
 5358SOL    HW116973   4.722   2.185   0.252
 5358SOL    HW216974   4.560   2.171   0.246
 5359SOL     OW16975   2.366   2.413   6.868
 5359SOL    HW116976   2.437   2.401   6.799
 5359SOL    HW216977   2.282   2.445   6.824
 5360SOL     OW16978   5.337   5.968   3.000
 5360SOL    HW116979   5.270   6.036   2.969
 5360SOL    HW216980   5.323   5.950   3.097
 5361SOL     OW16981   2.959   6.591   3.160
 5361SOL    HW116982   3.049   6.631   3.179
 5361SOL    HW216983   2.968   6.492   3.152
 5362SOL     OW16984   6.351   6.567   2.424
 5362SOL    HW116985   6.443   6.581   2.460
 5362SOL    HW216986   6.284   6.575   2.499
 5363SOL     OW16987   5.200   6.204   4.624
 5363SOL    HW116988   5.128   6.192   4.555
 5363SOL    HW216989   5.194   6.131   4.692
 5364SOL     OW16990   5.383   0.687   2.131
 5364SOL    HW116991   5.292   0.724   2.149
 5364SOL    HW216992   5.384   0.642   2.042
 5365SOL     OW16993   2.969   3.738   2.498
 5365SOL    HW116994   3.020   3.775   2.421
 5365SOL    HW216995   2.880   3.784   2.504
 5366SOL     OW16996   6.672   0.284   1.754
 5366SOL    HW116997   6.643   0.357   1.815
 5366SOL    HW216998   6.592   0.241   1.712
 5367SOL     OW16999   6.125   0.179   0.548
 5367SOL    HW117000   6.205   0.123   0.526
 5367SOL    HW217001   6.042   0.129   0.525
 5368SOL     OW17002   0.254   5.773   2.317
 5368SOL    HW117003   0.264   5.831   2.397
 5368SOL    HW217004   0.314   5.693   2.326
 5369SOL     OW17005   2.985   5.804   1.438
 5369SOL    HW117006   2.995   5.712   1.477
 5369SOL    HW217007   3.074   5.848   1.431
 5370SOL     OW17008   4.185   3.231   1.869
 5370SOL    HW117009   4.267   3.182   1.840
 5370SOL    HW217010   4.117   3.229   1.796
 5371SOL     OW17011   0.365   5.028   5.023
 5371SOL    HW117012   0.418   4.944   5.033
 5371SOL    HW217013   0.397   5.079   4.943
 5372SOL     OW17014   0.946   0.323   2.603
 5372SOL    HW117015   0.939   0.234   2.648
 5372SOL    HW217016   0.881   0.328   2.527
 5373SOL     OW17017   3.815   6.835   6.372
 5373SOL    HW117018   3.838   6.845   6.275
 5373SOL    HW217019   3.785   6.741   6.389
 5374SOL     OW17020   2.345   4.663   1.037
 5374SOL    HW117021   2.351   4.751   1.084
 5374SOL    HW217022   2.385   4.671   0.946
 5375SOL     OW17023   0.614   6.375   5.502
 5375SOL    HW117024   0.612   6.348   5.598
 5375SOL    HW217025   0.639   6.471   5.495
 5376SOL     OW17026   1.244   2.145   2.210
 5376SOL    HW117027   1.301   2.186   2.280
 5376SOL    HW217028   1.249   2.200   2.126
 5377SOL     OW17029   2.265   0.859   3.276
 5377SOL    HW117030   2.302   0.899   3.360
 5377SOL    HW217031   2.300   0.766   3.266
 5378SOL     OW17032   5.948   0.458   0.488
 5378SOL    HW117033   5.851   0.484   0.490
 5378SOL    HW217034   5.999   0.517   0.551
 5379SOL     OW17035   1.244   3.105   5.899
 5379SOL    HW117036   1.280   3.174   5.836
 5379SOL    HW217037   1.272   3.014   5.867
 5380SOL     OW17038   3.246   0.045   1.242
 5380SOL    HW117039   3.292   0.116   1.294
 5380SOL    HW217040   3.314   7.015   1.199
 5381SOL     OW17041   6.225   5.917   2.194
 5381SOL    HW117042   6.250   6.007   2.159
 5381SOL    HW217043   6.137   5.922   2.240
 5382SOL     OW17044   3.675   2.088   2.502
 5382SOL    HW117045   3.622   2.004   2.511
 5382SOL    HW217046   3.629   2.149   2.437
 5383SOL     OW17047   0.924   3.222   4.596
 5383SOL    HW117048   0.900   3.302   4.651
 5383SOL    HW217049   1.009   3.240   4.546
 5384SOL     OW17050   4.610   5.148   4.956
 5384SOL    HW117051   4.684   5.090   4.991
 5384SOL    HW217052   4.534   5.147   5.021
 5385SOL     OW17053   6.682   2.416   5.601
 5385SOL    HW117054   6.673   2.336   5.660
 5385SOL    HW217055   6.776   2.422   5.568
 5386SOL     OW17056   5.487   2.326   4.131
 5386SOL    HW117057   5.451   2.263   4.062
 5386SOL    HW217058   5.411   2.378   4.171
 5387SOL     OW17059   2.885   0.046   3.135
 5387SOL    HW117060   2.960   0.113   3.135
 5387SOL    HW217061   2.923   6.983   3.128
 5388SOL     OW17062   1.418   6.476   2.896
 5388SOL    HW117063   1.411   6.400   2.961
 5388SOL    HW217064   1.514   6.490   2.870
 5389SOL     OW17065   4.265   2.314   4.466
 5389SOL    HW117066   4.172   2.282   4.484
 5389SOL    HW217067   4.284   2.308   4.368
 5390SOL     OW17068   5.497   3.409   4.086
 5390SOL    HW117069   5.474   3.313   4.071
 5390SOL    HW217070   5.471   3.435   4.179
 5391SOL     OW17071   2.842   2.402   0.112
 5391SOL    HW117072   2.824   2.499   0.129
 5391SOL    HW217073   2.765   2.348   0.146
 5392SOL     OW17074   4.782   2.917   2.502
 5392SOL    HW117075   4.875   2.947   2.482
 5392SOL    HW217076   4.719   2.993   2.488
 5393SOL     OW17077   4.274   0.178   5.244
 5393SOL    HW117078   4.250   0.275   5.243
 5393SOL    HW217079   4.370   0.167   5.218
 5394SOL     OW17080   0.853   6.103   1.463
 5394SOL    HW117081   0.764   6.148   1.459
 5394SOL    HW217082   0.918   6.162   1.511
 5395SOL     OW17083   4.908   0.708   0.997
 5395SOL    HW117084   4.904   0.747   1.089
 5395SOL    HW217085   4.859   0.768   0.933
 5396SOL     OW17086   5.477   5.918   1.746
 5396SOL    HW117087   5.469   5.876   1.837
 5396SOL    HW217088   5.415   5.872   1.682
 5397SOL     OW17089   6.831   1.738   2.105
 5397SOL    HW117090   6.810   1.798   2.027
 5397SOL    HW217091   6.922   1.758   2.139
 5398SOL     OW17092   3.859   2.137   3.588
 5398SOL    HW117093   3.762   2.146   3.612
 5398SOL    HW217094   3.900   2.228   3.581
 5399SOL     OW17095   2.085   6.378   5.754
 5399SOL    HW117096   2.112   6.282   5.744
 5399SOL    HW217097   2.083   6.402   5.851
 5400SOL     OW17098   3.607   3.152   1.049
 5400SOL    HW117099   3.669   3.116   0.979
 5400SOL    HW217100   3.568   3.076   1.101
 5401SOL     OW17101   4.849   4.502   3.329
 5401SOL    HW117102   4.888   4.410   3.336
 5401SOL    HW217103   4.755   4.496   3.294
 5402SOL     OW17104   3.360   6.481   0.795
 5402SOL    HW117105   3.297   6.528   0.857
 5402SOL    HW217106   3.383   6.392   0.833
 5403SOL     OW17107   5.358   3.110   6.284
 5403SOL    HW117108   5.404   3.168   6.351
 5403SOL    HW217109   5.267   3.145   6.266
 5404SOL     OW17110   0.575   0.680   0.912
 5404SOL    HW117111   0.633   0.609   0.953
 5404SOL    HW217112   0.557   0.656   0.816
 5405SOL     OW17113   5.722   4.937   0.144
 5405SOL    HW117114   5.626   4.946   0.117
 5405SOL    HW217115   5.781   4.971   0.071
 5406SOL     OW17116   1.778   0.779   4.638
 5406SOL    HW117117   1.750   0.748   4.729
 5406SOL    HW217118   1.696   0.791   4.581
 5407SOL     OW17119   2.841   1.265   1.289
 5407SOL    HW117120   2.797   1.186   1.248
 5407SOL    HW217121   2.788   1.347   1.268
 5408SOL     OW17122   3.778   1.887   4.716
 5408SOL    HW117123   3.787   1.819   4.788
 5408SOL    HW217124   3.818   1.852   4.632
 5409SOL     OW17125   6.225   1.870   1.895
 5409SOL    HW117126   6.321   1.883   1.871
 5409SOL    HW217127   6.187   1.955   1.930
 5410SOL     OW17128   0.426   2.815   0.884
 5410SOL    HW117129   0.446   2.719   0.902
 5410SOL    HW217130   0.511   2.867   0.879
 5411SOL     OW17131   5.901   4.264   6.972
 5411SOL    HW117132   5.861   4.344   7.017
 5411SOL    HW217133   5.974   4.227   0.000
 5412SOL     OW17134   2.261   1.473   6.379
 5412SOL    HW117135   2.225   1.433   6.463
 5412SOL    HW217136   2.291   1.400   6.318
 5413SOL     OW17137   6.721   0.220   5.652
 5413SOL    HW117138   6.693   0.190   5.561
 5413SOL    HW217139   6.782   0.299   5.644
 5414SOL     OW17140   0.215   4.754   5.714
 5414SOL    HW117141   0.290   4.802   5.760
 5414SOL    HW217142   0.250   4.708   5.632
 5415SOL     OW17143   3.071   5.803   0.219
 5415SOL    HW117144   3.013   5.867   0.169
 5415SOL    HW217145   3.088   5.723   0.162
 5416SOL     OW17146   3.009   5.022   4.938
 5416SOL    HW117147   2.973   5.111   4.911
 5416SOL    HW217148   2.943   4.975   4.996
 5417SOL     OW17149   4.372   6.468   4.189
 5417SOL    HW117150   4.413   6.559   4.186
 5417SOL    HW217151   4.330   6.454   4.279
 5418SOL     OW17152   5.537   4.713   4.736
 5418SOL    HW117153   5.556   4.754   4.825
 5418SOL    HW217154   5.539   4.613   4.744
 5419SOL     OW17155   3.962   6.801   0.074
 5419SOL    HW117156   3.931   6.895   0.087
 5419SOL    HW217157   3.886   6.738   0.089
 5420SOL     OW17158   1.533   1.581   1.645
 5420SOL    HW117159   1.524   1.537   1.734
 5420SOL    HW217160   1.569   1.674   1.658
 5421SOL     OW17161   3.112   5.559   2.201
 5421SOL    HW117162   3.083   5.635   2.259
 5421SOL    HW217163   3.040   5.538   2.135
 5422SOL     OW17164   2.274   5.652   4.269
 5422SOL    HW117165   2.339   5.587   4.229
 5422SOL    HW217166   2.314   5.692   4.351
 5423SOL     OW17167   6.338   5.403   2.102
 5423SOL    HW117168   6.349   5.311   2.140
 5423SOL    HW217169   6.262   5.449   2.148
 5424SOL     OW17170   5.059   4.118   4.714
 5424SOL    HW117171   5.104   4.121   4.804
 5424SOL    HW217172   4.979   4.178   4.715
 5425SOL     OW17173   6.408   2.992   5.030
 5425SOL    HW117174   6.489   3.034   5.070
 5425SOL    HW217175   6.418   2.987   4.931
 5426SOL     OW17176   4.832   5.140   1.990
 5426SOL    HW117177   4.796   5.147   2.083
 5426SOL    HW217178   4.911   5.079   1.989
 5427SOL     OW17179   4.269   2.857   0.379
 5427SOL    HW117180   4.295   2.909   0.460
 5427SOL    HW217181   4.351   2.824   0.333
 5428SOL     OW17182   5.358   5.991   2.332
 5428SOL    HW117183   5.325   6.032   2.247
 5428SOL    HW217184   5.421   5.917   2.310
 5429SOL     OW17185   3.016   6.953   4.573
 5429SOL    HW117186   3.006   0.004   4.514
 5429SOL    HW217187   3.027   6.872   4.516
 5430SOL     OW17188   2.012   3.212   5.586
 5430SOL    HW117189   2.095   3.234   5.534
 5430SOL    HW217190   2.023   3.245   5.680
 5431SOL     OW17191   3.388   5.114   6.523
 5431SOL    HW117192   3.313   5.059   6.487
 5431SOL    HW217193   3.355   5.204   6.550
 5432SOL     OW17194   5.443   6.022   0.658
 5432SOL    HW117195   5.368   6.034   0.724
 5432SOL    HW217196   5.525   6.068   0.692
 5433SOL     OW17197   1.431   6.886   1.341
 5433SOL    HW117198   1.475   6.916   1.426
 5433SOL    HW217199   1.362   6.817   1.361
 5434SOL     OW17200   4.683   1.039   4.743
 5434SOL    HW117201   4.743   1.031   4.663
 5434SOL    HW217202   4.639   1.129   4.743
 5435SOL     OW17203   6.247   3.657   0.518
 5435SOL    HW117204   6.267   3.705   0.603
 5435SOL    HW217205   6.226   3.561   0.538
 5436SOL     OW17206   0.352   5.698   3.090
 5436SOL    HW117207   0.366   5.793   3.119
 5436SOL    HW217208   0.408   5.637   3.146
 5437SOL     OW17209   3.213   5.032   6.299
 5437SOL    HW117210   3.257   5.065   6.215
 5437SOL    HW217211   3.160   4.951   6.278
 5438SOL     OW17212   5.392   4.772   1.962
 5438SOL    HW117213   5.366   4.695   2.021
 5438SOL    HW217214   5.328   4.847   1.977
 5439SOL     OW17215   1.113   3.949   0.145
 5439SOL    HW117216   1.032   4.005   0.162
 5439SOL    HW217217   1.168   3.991   0.073
 5440SOL     OW17218   5.770   6.791   3.206
 5440SOL    HW117219   5.765   6.875   3.259
 5440SOL    HW217220   5.695   6.730   3.232
 5441SOL     OW17221   5.227   3.153   3.783
 5441SOL    HW117222   5.186   3.171   3.693
 5441SOL    HW217223   5.239   3.239   3.831
 5442SOL     OW17224   4.837   0.661   3.708
 5442SOL    HW117225   4.852   0.708   3.621
 5442SOL    HW217226   4.891   0.577   3.711
 5443SOL     OW17227   4.796   6.820   4.310
 5443SOL    HW117228   4.709   6.868   4.294
 5443SOL    HW217229   4.856   6.879   4.365
 5444SOL     OW17230   0.195   1.747   4.302
 5444SOL    HW117231   0.172   1.843   4.287
 5444SOL    HW217232   0.124   1.689   4.262
 5445SOL     OW17233   4.968   5.199   4.907
 5445SOL    HW117234   4.975   5.236   4.999
 5445SOL    HW217235   4.995   5.269   4.841
 5446SOL     OW17236   6.626   4.833   4.939
 5446SOL    HW117237   6.655   4.913   4.887
 5446SOL    HW217238   6.692   4.815   5.012
 5447SOL     OW17239   2.481   1.360   1.434
 5447SOL    HW117240   2.504   1.304   1.513
 5447SOL    HW217241   2.560   1.414   1.406
 5448SOL     OW17242   4.474   5.466   3.976
 5448SOL    HW117243   4.454   5.479   4.074
 5448SOL    HW217244   4.554   5.408   3.966
 5449SOL     OW17245   2.949   1.246   1.756
 5449SOL    HW117246   2.958   1.343   1.776
 5449SOL    HW217247   3.031   1.213   1.710
 5450SOL     OW17248   3.350   6.022   1.818
 5450SOL    HW117249   3.397   5.934   1.819
 5450SOL    HW217250   3.400   6.088   1.873
 5451SOL     OW17251   1.230   6.946   2.828
 5451SOL    HW117252   1.177   7.000   2.893
 5451SOL    HW217253   1.269   6.867   2.874
 5452SOL     OW17254   1.681   4.616   1.290
 5452SOL    HW117255   1.722   4.525   1.296
 5452SOL    HW217256   1.588   4.609   1.254
 5453SOL     OW17257   4.865   3.928   2.093
 5453SOL    HW117258   4.945   3.971   2.052
 5453SOL    HW217259   4.825   3.863   2.029
 5454SOL     OW17260   5.768   6.061   2.350
 5454SOL    HW117261   5.757   6.160   2.358
 5454SOL    HW217262   5.691   6.016   2.396
 5455SOL     OW17263   0.820   1.532   2.934
 5455SOL    HW117264   0.809   1.618   2.884
 5455SOL    HW217265   0.831   1.457   2.870
 5456SOL     OW17266   5.292   0.566   6.851
 5456SOL    HW117267   5.334   0.533   6.935
 5456SOL    HW217268   5.358   0.621   6.800
 5457SOL     OW17269   6.377   1.977   0.124
 5457SOL    HW117270   6.400   1.882   0.146
 5457SOL    HW217271   6.327   1.980   0.037
 5458SOL     OW17272   6.222   5.229   0.825
 5458SOL    HW117273   6.127   5.233   0.793
 5458SOL    HW217274   6.282   5.202   0.750
 5459SOL     OW17275   2.104   5.203   5.568
 5459SOL    HW117276   2.145   5.250   5.646
 5459SOL    HW217277   2.125   5.105   5.574
 5460SOL     OW17278   2.128   1.396   1.441
 5460SOL    HW117279   2.205   1.457   1.426
 5460SOL    HW217280   2.059   1.443   1.496
 5461SOL     OW17281   1.411   1.802   5.652
 5461SOL    HW117282   1.387   1.801   5.749
 5461SOL    HW217283   1.332   1.774   5.598
 5462SOL     OW17284   5.490   5.982   6.923
 5462SOL    HW117285   5.481   6.055   6.855
 5462SOL    HW217286   5.458   6.016   7.012
 5463SOL     OW17287   6.293   1.960   6.505
 5463SOL    HW117288   6.201   1.943   6.541
 5463SOL    HW217289   6.287   2.014   6.421
 5464SOL     OW17290   6.433   5.690   5.153
 5464SOL    HW117291   6.379   5.770   5.178
 5464SOL    HW217292   6.494   5.665   5.228
 5465SOL     OW17293   6.350   6.885   3.454
 5465SOL    HW117294   6.407   6.898   3.535
 5465SOL    HW217295   6.405   6.904   3.372
 5466SOL     OW17296   5.453   2.926   5.495
 5466SOL    HW117297   5.433   2.903   5.399
 5466SOL    HW217298   5.367   2.943   5.544
 5467SOL     OW17299   5.910   3.706   3.710
 5467SOL    HW117300   5.859   3.771   3.654
 5467SOL    HW217301   5.952   3.637   3.652
 5468SOL     OW17302   0.008   2.442   3.555
 5468SOL    HW117303   0.102   2.477   3.557
 5468SOL    HW217304   6.978   2.509   3.510
 5469SOL     OW17305   1.994   6.677   6.201
 5469SOL    HW117306   1.974   6.644   6.293
 5469SOL    HW217307   2.052   6.758   6.205
 5470SOL     OW17308   4.126   5.209   3.983
 5470SOL    HW117309   4.192   5.232   3.910
 5470SOL    HW217310   4.170   5.149   4.049
 5471SOL     OW17311   6.042   0.282   2.151
 5471SOL    HW117312   6.088   0.320   2.231
 5471SOL    HW217313   5.948   0.316   2.148
 5472SOL     OW17314   3.394   2.857   5.690
 5472SOL    HW117315   3.323   2.917   5.654
 5472SOL    HW217316   3.371   2.762   5.670
 5473SOL     OW17317   1.549   4.784   0.869
 5473SOL    HW117318   1.640   4.752   0.894
 5473SOL    HW217319   1.513   4.844   0.941
 5474SOL     OW17320   0.977   5.959   3.841
 5474SOL    HW117321   0.993   5.880   3.782
 5474SOL    HW217322   0.901   6.012   3.805
 5475SOL     OW17323   1.656   1.595   1.120
 5475SOL    HW117324   1.602   1.511   1.125
 5475SOL    HW217325   1.629   1.657   1.193
 5476SOL     OW17326   2.568   4.998   5.221
 5476SOL    HW117327   2.474   5.027   5.239
 5476SOL    HW217328   2.572   4.899   5.213
 5477SOL     OW17329   1.601   4.383   2.783
 5477SOL    HW117330   1.693   4.422   2.791
 5477SOL    HW217331   1.534   4.447   2.820
 5478SOL     OW17332   4.724   5.458   6.085
 5478SOL    HW117333   4.796   5.399   6.121
 5478SOL    HW217334   4.645   5.403   6.060
 5479SOL     OW17335   4.455   0.741   4.180
 5479SOL    HW117336   4.371   0.769   4.225
 5479SOL    HW217337   4.487   0.814   4.119
 5480SOL     OW17338   6.327   5.345   5.149
 5480SOL    HW117339   6.401   5.365   5.213
 5480SOL    HW217340   6.302   5.427   5.099
 5481SOL     OW17341   5.053   0.818   4.831
 5481SOL    HW117342   4.986   0.751   4.864
 5481SOL    HW217343   5.142   0.774   4.820
 5482SOL     OW17344   3.287   4.074   2.045
 5482SOL    HW117345   3.211   4.047   1.986
 5482SOL    HW217346   3.281   4.025   2.132
 5483SOL     OW17347   6.379   2.467   5.283
 5483SOL    HW117348   6.347   2.534   5.215
 5483SOL    HW217349   6.312   2.394   5.291
 5484SOL     OW17350   5.948   0.277   3.309
 5484SOL    HW117351   5.911   0.370   3.310
 5484SOL    HW217352   6.043   0.280   3.279
 5485SOL     OW17353   2.894   6.982   4.818
 5485SOL    HW117354   2.861   0.047   4.811
 5485SOL    HW217355   2.954   6.962   4.741
 5486SOL     OW17356   2.325   0.034   4.012
 5486SOL    HW117357   2.350   0.096   3.938
 5486SOL    HW217358   2.387   6.985   4.013
 5487SOL     OW17359   5.861   3.897   6.691
 5487SOL    HW117360   5.864   3.996   6.708
 5487SOL    HW217361   5.782   3.858   6.738
 5488SOL     OW17362   4.789   1.472   0.720
 5488SOL    HW117363   4.829   1.421   0.796
 5488SOL    HW217364   4.707   1.521   0.752
 5489SOL     OW17365   1.487   3.886   1.662
 5489SOL    HW117366   1.557   3.919   1.725
 5489SOL    HW217367   1.496   3.786   1.652
 5490SOL     OW17368   3.886   7.006   0.949
 5490SOL    HW117369   3.818   7.004   0.876
 5490SOL    HW217370   3.965   0.031   0.920
 5491SOL     OW17371   1.135   4.028   6.483
 5491SOL    HW117372   1.041   4.022   6.517
 5491SOL    HW217373   1.134   4.058   6.387
 5492SOL     OW17374   0.986   2.053   5.876
 5492SOL    HW117375   1.027   1.964   5.898
 5492SOL    HW217376   0.888   2.049   5.894
 5493SOL     OW17377   3.350   3.519   4.720
 5493SOL    HW117378   3.439   3.562   4.735
 5493SOL    HW217379   3.353   3.424   4.748
 5494SOL     OW17380   6.405   2.434   0.274
 5494SOL    HW117381   6.343   2.356   0.271
 5494SOL    HW217382   6.498   2.401   0.293
 5495SOL     OW17383   3.012   2.974   1.809
 5495SOL    HW117384   3.021   2.876   1.828
 5495SOL    HW217385   2.915   2.996   1.796
 5496SOL     OW17386   2.651   6.643   2.554
 5496SOL    HW117387   2.592   6.574   2.512
 5496SOL    HW217388   2.627   6.654   2.650
 5497SOL     OW17389   0.140   1.990   3.399
 5497SOL    HW117390   0.103   2.077   3.366
 5497SOL    HW217391   0.238   2.001   3.417
 5498SOL     OW17392   5.405   0.537   0.559
 5498SOL    HW117393   5.426   0.569   0.652
 5498SOL    HW217394   5.394   0.615   0.498
 5499SOL     OW17395   1.145   0.778   3.928
 5499SOL    HW117396   1.088   0.754   3.850
 5499SOL    HW217397   1.118   0.724   4.007
 5500SOL     OW17398   1.494   5.883   6.810
 5500SOL    HW117399   1.423   5.948   6.783
 5500SOL    HW217400   1.465   5.790   6.789
 5501SOL     OW17401   3.224   6.970   0.749
 5501SOL    HW117402   3.180   0.027   0.723
 5501SOL    HW217403   3.177   6.932   0.829
 5502SOL     OW17404   5.859   4.427   5.997
 5502SOL    HW117405   5.842   4.443   5.899
 5502SOL    HW217406   5.901   4.337   6.009
 5503SOL     OW17407   0.293   4.278   3.035
 5503SOL    HW117408   0.228   4.206   3.061
 5503SOL    HW217409   0.376   4.271   3.090
 5504SOL     OW17410   3.001   1.234   5.665
 5504SOL    HW117411   3.098   1.255   5.655
 5504SOL    HW217412   2.957   1.305   5.720
 5505SOL     OW17413   2.806   5.468   4.624
 5505SOL    HW117414   2.731   5.409   4.594
 5505SOL    HW217415   2.772   5.560   4.642
 5506SOL     OW17416   6.446   0.679   5.638
 5506SOL    HW117417   6.443   0.647   5.733
 5506SOL    HW217418   6.398   0.767   5.632
 5507SOL     OW17419   2.463   0.126   2.769
 5507SOL    HW117420   2.531   0.089   2.833
 5507SOL    HW217421   2.400   0.186   2.817
 5508SOL     OW17422   2.564   1.318   0.048
 5508SOL    HW117423   2.621   1.354   7.004
 5508SOL    HW217424   2.590   1.359   0.135
 5509SOL     OW17425   0.986   6.509   0.080
 5509SOL    HW117426   0.966   6.530   0.175
 5509SOL    HW217427   1.067   6.561   0.050
 5510SOL     OW17428   5.154   6.016   0.786
 5510SOL    HW117429   5.105   6.014   0.873
 5510SOL    HW217430   5.156   6.109   0.750
 5511SOL     OW17431   2.778   0.037   4.109
 5511SOL    HW117432   2.779   6.969   4.132
 5511SOL    HW217433   2.749   0.049   4.014
 5512SOL     OW17434   6.419   1.889   0.845
 5512SOL    HW117435   6.515   1.918   0.842
 5512SOL    HW217436   6.360   1.967   0.823
 5513SOL     OW17437   4.143   4.479   6.249
 5513SOL    HW117438   4.091   4.477   6.163
 5513SOL    HW217439   4.237   4.449   6.232
 5514SOL     OW17440   4.801   5.682   2.475
 5514SOL    HW117441   4.731   5.654   2.410
 5514SOL    HW217442   4.814   5.611   2.544
 5515SOL     OW17443   0.497   4.223   1.413
 5515SOL    HW117444   0.586   4.257   1.383
 5515SOL    HW217445   0.498   4.124   1.417
 5516SOL     OW17446   0.897   2.530   0.565
 5516SOL    HW117447   0.976   2.515   0.507
 5516SOL    HW217448   0.915   2.607   0.626
 5517SOL     OW17449   2.678   2.347   2.426
 5517SOL    HW117450   2.599   2.393   2.467
 5517SOL    HW217451   2.721   2.288   2.494
 5518SOL     OW17452   6.304   6.385   5.919
 5518SOL    HW117453   6.277   6.442   5.996
 5518SOL    HW217454   6.281   6.432   5.833
 5519SOL     OW17455   5.138   3.496   2.885
 5519SOL    HW117456   5.086   3.429   2.938
 5519SOL    HW217457   5.139   3.468   2.789
 5520SOL     OW17458   0.332   4.527   3.150
 5520SOL    HW117459   0.345   4.443   3.097
 5520SOL    HW217460   0.329   4.605   3.087
 5521SOL     OW17461   3.911   6.015   2.993
 5521SOL    HW117462   3.889   5.934   3.047
 5521SOL    HW217463   3.844   6.025   2.919
 5522SOL     OW17464   1.299   4.381   0.731
 5522SOL    HW117465   1.300   4.346   0.825
 5522SOL    HW217466   1.331   4.475   0.730
 5523SOL     OW17467   3.125   6.868   3.167
 5523SOL    HW117468   3.146   6.772   3.151
 5523SOL    HW217469   3.174   6.924   3.100
 5524SOL     OW17470   0.015   5.451   4.481
 5524SOL    HW117471   0.115   5.460   4.487
 5524SOL    HW217472   7.019   5.439   4.385
 5525SOL     OW17473   7.006   3.633   0.402
 5525SOL    HW117474   7.019   3.612   0.306
 5525SOL    HW217475   0.063   3.664   0.442
 5526SOL     OW17476   6.133   4.184   5.041
 5526SOL    HW117477   6.154   4.243   5.119
 5526SOL    HW217478   6.100   4.096   5.073
 5527SOL     OW17479   0.811   3.667   3.491
 5527SOL    HW117480   0.885   3.704   3.547
 5527SOL    HW217481   0.848   3.635   3.404
 5528SOL     OW17482   1.054   1.923   6.433
 5528SOL    HW117483   1.090   1.942   6.524
 5528SOL    HW217484   1.077   1.830   6.406
 5529SOL     OW17485   2.704   6.985   4.568
 5529SOL    HW117486   2.664   6.951   4.483
 5529SOL    HW217487   2.803   6.989   4.559
 5530SOL     OW17488   0.010   2.658   2.710
 5530SOL    HW117489   7.009   2.652   2.615
 5530SOL    HW217490   0.052   2.572   2.737
 5531SOL     OW17491   3.659   3.775   3.149
 5531SOL    HW117492   3.691   3.865   3.181
 5531SOL    HW217493   3.718   3.743   3.076
 5532SOL     OW17494   0.924   1.271   1.159
 5532SOL    HW117495   0.958   1.285   1.252
 5532SOL    HW217496   0.890   1.358   1.123
 5533SOL     OW17497   3.413   1.246   2.923
 5533SOL    HW117498   3.404   1.345   2.932
 5533SOL    HW217499   3.336   1.201   2.968
 5534SOL     OW17500   1.058   3.207   5.616
 5534SOL    HW117501   1.074   3.280   5.683
 5534SOL    HW217502   0.960   3.184   5.615
 5535SOL     OW17503   0.378   3.141   3.495
 5535SOL    HW117504   0.371   3.067   3.429
 5535SOL    HW217505   0.292   3.192   3.498
 5536SOL     OW17506   3.550   1.395   4.320
 5536SOL    HW117507   3.587   1.376   4.229
 5536SOL    HW217508   3.531   1.309   4.367
 5537SOL     OW17509   3.171   0.772   4.471
 5537SOL    HW117510   3.248   0.836   4.473
 5537SOL    HW217511   3.169   0.719   4.557
 5538SOL     OW17512   2.993   0.714   4.987
 5538SOL    HW117513   2.970   0.664   5.071
 5538SOL    HW217514   3.090   0.700   4.966
 5539SOL     OW17515   1.259   2.750   0.588
 5539SOL    HW117516   1.304   2.839   0.579
 5539SOL    HW217517   1.190   2.755   0.661
 5540SOL     OW17518   5.896   3.671   2.309
 5540SOL    HW117519   5.915   3.647   2.214
 5540SOL    HW217520   5.893   3.588   2.365
 5541SOL     OW17521   5.224   2.286   6.111
 5541SOL    HW117522   5.183   2.231   6.038
 5541SOL    HW217523   5.301   2.338   6.074
 5542SOL     OW17524   5.593   6.428   6.039
 5542SOL    HW117525   5.625   6.400   6.130
 5542SOL    HW217526   5.494   6.443   6.042
 5543SOL     OW17527   2.463   5.183   6.254
 5543SOL    HW117528   2.419   5.152   6.170
 5543SOL    HW217529   2.520   5.109   6.291
 5544SOL     OW17530   5.109   5.673   6.380
 5544SOL    HW117531   5.051   5.753   6.365
 5544SOL    HW217532   5.157   5.651   6.295
 5545SOL     OW17533   4.471   1.342   3.493
 5545SOL    HW117534   4.543   1.281   3.460
 5545SOL    HW217535   4.384   1.294   3.493
 5546SOL     OW17536   0.960   7.001   4.362
 5546SOL    HW117537   1.018   6.935   4.314
 5546SOL    HW217538   0.918   6.957   4.441
 5547SOL     OW17539   4.104   0.425   4.863
 5547SOL    HW117540   4.104   0.436   4.763
 5547SOL    HW217541   4.138   0.334   4.886
 5548SOL     OW17542   5.853   3.258   5.040
 5548SOL    HW117543   5.899   3.291   5.123
 5548SOL    HW217544   5.893   3.171   5.013
 5549SOL     OW17545   4.137   4.521   0.811
 5549SOL    HW117546   4.156   4.610   0.853
 5549SOL    HW217547   4.152   4.449   0.878
 5550SOL     OW17548   2.318   4.289   2.168
 5550SOL    HW117549   2.353   4.234   2.093
 5550SOL    HW217550   2.218   4.289   2.165
 5551SOL     OW17551   1.742   6.374   3.230
 5551SOL    HW117552   1.808   6.444   3.256
 5551SOL    HW217553   1.789   6.300   3.181
 5552SOL     OW17554   6.763   0.399   6.603
 5552SOL    HW117555   6.761   0.396   6.703
 5552SOL    HW217556   6.844   0.350   6.570
 5553SOL     OW17557   4.930   6.157   6.366
 5553SOL    HW117558   4.874   6.166   6.449
 5553SOL    HW217559   4.872   6.169   6.285
 5554SOL     OW17560   4.292   2.351   6.812
 5554SOL    HW117561   4.285   2.252   6.800
 5554SOL    HW217562   4.284   2.396   6.723
 5555SOL     OW17563   1.023   4.152   2.820
 5555SOL    HW117564   0.935   4.180   2.858
 5555SOL    HW217565   1.055   4.069   2.865
 5556SOL     OW17566   6.416   1.868   3.146
 5556SOL    HW117567   6.347   1.909   3.086
 5556SOL    HW217568   6.373   1.837   3.231
 5557SOL     OW17569   3.778   6.755   2.917
 5557SOL    HW117570   3.688   6.723   2.946
 5557SOL    HW217571   3.848   6.719   2.978
 5558SOL     OW17572   3.491   3.538   5.855
 5558SOL    HW117573   3.548   3.526   5.774
 5558SOL    HW217574   3.435   3.456   5.868
 5559SOL     OW17575   1.947   0.290   1.370
 5559SOL    HW117576   2.030   0.247   1.405
 5559SOL    HW217577   1.942   0.385   1.401
 5560SOL     OW17578   0.398   5.295   1.763
 5560SOL    HW117579   0.330   5.280   1.691
 5560SOL    HW217580   0.460   5.217   1.768
 5561SOL     OW17581   1.691   1.527   4.167
 5561SOL    HW117582   1.651   1.547   4.257
 5561SOL    HW217583   1.789   1.544   4.170
 5562SOL     OW17584   4.244   2.791   6.713
 5562SOL    HW117585   4.334   2.775   6.673
 5562SOL    HW217586   4.247   2.771   6.811
 5563SOL     OW17587   3.679   4.908   2.444
 5563SOL    HW117588   3.661   4.924   2.541
 5563SOL    HW217589   3.775   4.881   2.432
 5564SOL     OW17590   4.905   0.193   0.816
 5564SOL    HW117591   4.846   0.131   0.868
 5564SOL    HW217592   4.901   0.284   0.856
 5565SOL     OW17593   4.462   2.158   6.231
 5565SOL    HW117594   4.546   2.105   6.246
 5565SOL    HW217595   4.443   2.215   6.310
 5566SOL     OW17596   1.551   3.795   6.615
 5566SOL    HW117597   1.622   3.843   6.666
 5566SOL    HW217598   1.593   3.721   6.561
 5567SOL     OW17599   7.000   2.706   0.686
 5567SOL    HW117600   6.966   2.786   0.735
 5567SOL    HW217601   0.056   2.675   0.728
 5568SOL     OW17602   4.776   1.920   3.765
 5568SOL    HW117603   4.855   1.865   3.739
 5568SOL    HW217604   4.742   1.890   3.854
 5569SOL     OW17605   2.231   2.038   2.681
 5569SOL    HW117606   2.215   1.973   2.607
 5569SOL    HW217607   2.206   2.130   2.651
 5570SOL     OW17608   6.426   3.840   5.285
 5570SOL    HW117609   6.426   3.743   5.259
 5570SOL    HW217610   6.515   3.864   5.322
 5571SOL     OW17611   6.613   5.865   0.323
 5571SOL    HW117612   6.645   5.921   0.246
 5571SOL    HW217613   6.691   5.826   0.371
 5572SOL     OW17614   1.081   2.604   4.733
 5572SOL    HW117615   1.108   2.566   4.644
 5572SOL    HW217616   1.128   2.691   4.747
 5573SOL     OW17617   1.844   5.241   5.593
 5573SOL    HW117618   1.943   5.243   5.579
 5573SOL    HW217619   1.823   5.265   5.688
 5574SOL     OW17620   0.075   2.099   2.461
 5574SOL    HW117621   0.150   2.163   2.448
 5574SOL    HW217622   0.110   2.005   2.457
 5575SOL     OW17623   6.562   0.719   0.732
 5575SOL    HW117624   6.636   0.659   0.701
 5575SOL    HW217625   6.566   0.805   0.682
 5576SOL     OW17626   1.020   4.670   1.679
 5576SOL    HW117627   1.110   4.677   1.636
 5576SOL    HW217628   0.985   4.762   1.697
 5577SOL     OW17629   3.014   3.175   5.632
 5577SOL    HW117630   2.921   3.172   5.594
 5577SOL    HW217631   3.011   3.213   5.724
 5578SOL     OW17632   3.379   3.489   1.230
 5578SOL    HW117633   3.460   3.432   1.241
 5578SOL    HW217634   3.322   3.482   1.312
 5579SOL     OW17635   0.679   3.001   0.765
 5579SOL    HW117636   0.649   3.093   0.789
 5579SOL    HW217637   0.704   2.998   0.669
 5580SOL     OW17638   5.424   2.565   5.535
 5580SOL    HW117639   5.492   2.617   5.483
 5580SOL    HW217640   5.437   2.583   5.633
 5581SOL     OW17641   1.395   6.687   1.742
 5581SOL    HW117642   1.345   6.601   1.728
 5581SOL    HW217643   1.375   6.723   1.834
 5582SOL     OW17644   2.878   3.482   5.346
 5582SOL    HW117645   2.853   3.386   5.333
 5582SOL    HW217646   2.977   3.491   5.346
 5583SOL     OW17647   4.849   0.511   2.590
 5583SOL    HW117648   4.755   0.495   2.562
 5583SOL    HW217649   4.851   0.572   2.670
 5584SOL     OW17650   5.902   5.007   4.025
 5584SOL    HW117651   5.874   5.030   3.931
 5584SOL    HW217652   5.897   4.908   4.037
 5585SOL     OW17653   5.356   5.485   3.675
 5585SOL    HW117654   5.444   5.450   3.641
 5585SOL    HW217655   5.353   5.475   3.774
 5586SOL     OW17656   0.558   2.348   6.657
 5586SOL    HW117657   0.628   2.352   6.585
 5586SOL    HW217658   0.480   2.405   6.631
 5587SOL     OW17659   4.541   6.694   1.570
 5587SOL    HW117660   4.559   6.739   1.658
 5587SOL    HW217661   4.615   6.714   1.506
 5588SOL     OW17662   1.693   5.724   3.092
 5588SOL    HW117663   1.749   5.643   3.106
 5588SOL    HW217664   1.602   5.708   3.131
 5589SOL     OW17665   6.404   3.545   5.443
 5589SOL    HW117666   6.433   3.547   5.348
 5589SOL    HW217667   6.484   3.551   5.503
 5590SOL     OW17668   6.955   6.604   4.102
 5590SOL    HW117669   6.972   6.651   4.189
 5590SOL    HW217670   0.012   6.571   4.064
 5591SOL     OW17671   5.258   1.697   0.362
 5591SOL    HW117672   5.251   1.598   0.370
 5591SOL    HW217673   5.166   1.737   0.358
 5592SOL     OW17674   0.135   5.142   2.224
 5592SOL    HW117675   0.170   5.195   2.147
 5592SOL    HW217676   0.036   5.155   2.232
 5593SOL     OW17677   0.717   3.552   0.257
 5593SOL    HW117678   0.735   3.480   0.191
 5593SOL    HW217679   0.790   3.620   0.254
 5594SOL     OW17680   4.270   0.746   6.256
 5594SOL    HW117681   4.341   0.758   6.187
 5594SOL    HW217682   4.269   0.825   6.318
 5595SOL     OW17683   6.802   0.647   4.628
 5595SOL    HW117684   6.741   0.586   4.577
 5595SOL    HW217685   6.763   0.665   4.718
 5596SOL     OW17686   4.781   0.462   3.060
 5596SOL    HW117687   4.862   0.471   3.117
 5596SOL    HW217688   4.773   0.541   3.000
 5597SOL     OW17689   5.341   2.555   4.931
 5597SOL    HW117690   5.439   2.555   4.911
 5597SOL    HW217691   5.290   2.585   4.850
 5598SOL     OW17692   5.932   3.636   3.382
 5598SOL    HW117693   5.987   3.718   3.371
 5598SOL    HW217694   5.989   3.555   3.367
 5599SOL     OW17695   0.766   2.462   1.610
 5599SOL    HW117696   0.758   2.528   1.535
 5599SOL    HW217697   0.767   2.511   1.697
 5600SOL     OW17698   1.405   0.639   1.609
 5600SOL    HW117699   1.435   0.548   1.638
 5600SOL    HW217700   1.332   0.671   1.670
 5601SOL     OW17701   2.476   0.856   6.690
 5601SOL    HW117702   2.513   0.940   6.730
 5601SOL    HW217703   2.450   0.792   6.763
 5602SOL     OW17704   0.088   1.890   1.486
 5602SOL    HW117705   0.182   1.922   1.471
 5602SOL    HW217706   0.028   1.929   1.416
 5603SOL     OW17707   5.826   2.519   0.349
 5603SOL    HW117708   5.799   2.615   0.347
 5603SOL    HW217709   5.904   2.507   0.411
 5604SOL     OW17710   6.137   2.110   4.513
 5604SOL    HW117711   6.068   2.066   4.569
 5604SOL    HW217712   6.191   2.041   4.465
 5605SOL     OW17713   6.365   1.375   5.149
 5605SOL    HW117714   6.302   1.363   5.073
 5605SOL    HW217715   6.449   1.417   5.117
 5606SOL     OW17716   5.003   6.078   0.076
 5606SOL    HW117717   5.034   6.113   0.165
 5606SOL    HW217718   4.923   6.020   0.089
 5607SOL     OW17719   6.010   0.995   2.684
 5607SOL    HW117720   5.970   1.076   2.642
 5607SOL    HW217721   6.106   1.013   2.708
 5608SOL     OW17722   5.681   0.463   3.946
 5608SOL    HW117723   5.665   0.445   3.849
 5608SOL    HW217724   5.608   0.420   4.000
 5609SOL     OW17725   3.219   5.978   1.403
 5609SOL    HW117726   3.269   6.050   1.450
 5609SOL    HW217727   3.282   5.924   1.347
 5610SOL     OW17728   4.851   5.589   1.276
 5610SOL    HW117729   4.872   5.675   1.230
 5610SOL    HW217730   4.865   5.599   1.374
 5611SOL     OW17731   0.593   6.018   3.040
 5611SOL    HW117732   0.595   5.950   2.966
 5611SOL    HW217733   0.498   6.043   3.059
 5612SOL     OW17734   3.973   2.090   5.970
 5612SOL    HW117735   4.062   2.046   5.988
 5612SOL    HW217736   3.985   2.190   5.971
 5613SOL     OW17737   6.805   5.049   3.806
 5613SOL    HW117738   6.901   5.066   3.783
 5613SOL    HW217739   6.747   5.113   3.757
 5614SOL     OW17740   4.377   2.181   4.714
 5614SOL    HW117741   4.318   2.174   4.795
 5614SOL    HW217742   4.340   2.250   4.652
 5615SOL     OW17743   6.667   1.677   3.754
 5615SOL    HW117744   6.690   1.745   3.823
 5615SOL    HW217745   6.577   1.638   3.775
 5616SOL     OW17746   2.695   2.479   4.770
 5616SOL    HW117747   2.783   2.523   4.785
 5616SOL    HW217748   2.658   2.447   4.857
 5617SOL     OW17749   2.872   6.182   5.676
 5617SOL    HW117750   2.887   6.168   5.578
 5617SOL    HW217751   2.791   6.131   5.705
 5618SOL     OW17752   0.148   4.444   3.705
 5618SOL    HW117753   0.219   4.437   3.775
 5618SOL    HW217754   0.079   4.374   3.721
 5619SOL     OW17755   3.596   4.183   4.670
 5619SOL    HW117756   3.499   4.164   4.651
 5619SOL    HW217757   3.651   4.158   4.591
 5620SOL     OW17758   4.437   3.278   0.804
 5620SOL    HW117759   4.503   3.350   0.782
 5620SOL    HW217760   4.375   3.264   0.727
 5621SOL     OW17761   2.127   2.644   0.385
 5621SOL    HW117762   2.144   2.711   0.314
 5621SOL    HW217763   2.213   2.599   0.410
 5622SOL     OW17764   5.158   0.609   5.698
 5622SOL    HW117765   5.122   0.587   5.608
 5622SOL    HW217766   5.252   0.643   5.689
 5623SOL     OW17767   3.793   5.653   4.992
 5623SOL    HW117768   3.870   5.693   4.942
 5623SOL    HW217769   3.750   5.583   4.936
 5624SOL     OW17770   0.483   4.448   3.379
 5624SOL    HW117771   0.397   4.421   3.422
 5624SOL    HW217772   0.534   4.367   3.352
 5625SOL     OW17773   5.535   0.378   4.852
 5625SOL    HW117774   5.581   0.290   4.857
 5625SOL    HW217775   5.597   0.446   4.811
 5626SOL     OW17776   2.409   6.055   4.900
 5626SOL    HW117777   2.417   6.117   4.822
 5626SOL    HW217778   2.366   5.970   4.871
 5627SOL     OW17779   0.257   5.436   6.536
 5627SOL    HW117780   0.203   5.468   6.613
 5627SOL    HW217781   0.265   5.508   6.467
 5628SOL     OW17782   1.388   2.313   2.445
 5628SOL    HW117783   1.461   2.289   2.380
 5628SOL    HW217784   1.429   2.334   2.534
 5629SOL     OW17785   3.862   3.685   2.165
 5629SOL    HW117786   3.917   3.738   2.229
 5629SOL    HW217787   3.782   3.739   2.137
 5630SOL     OW17788   1.984   3.423   6.694
 5630SOL    HW117789   1.982   3.518   6.664
 5630SOL    HW217790   1.897   3.379   6.671
 5631SOL     OW17791   4.612   1.975   1.641
 5631SOL    HW117792   4.527   1.930   1.669
 5631SOL    HW217793   4.680   1.966   1.713
 5632SOL     OW17794   2.840   2.510   5.933
 5632SOL    HW117795   2.883   2.455   6.004
 5632SOL    HW217796   2.741   2.503   5.940
 5633SOL     OW17797   6.322   4.566   4.714
 5633SOL    HW117798   6.308   4.542   4.810
 5633SOL    HW217799   6.251   4.524   4.658
 5634SOL     OW17800   2.401   5.196   3.960
 5634SOL    HW117801   2.342   5.215   3.882
 5634SOL    HW217802   2.496   5.204   3.933
 5635SOL     OW17803   1.928   5.005   5.770
 5635SOL    HW117804   1.911   5.068   5.694
 5635SOL    HW217805   1.857   4.935   5.770
 5636SOL     OW17806   4.796   6.924   4.991
 5636SOL    HW117807   4.821   7.014   4.956
 5636SOL    HW217808   4.734   6.879   4.926
 5637SOL     OW17809   5.213   0.357   3.114
 5637SOL    HW117810   5.298   0.409   3.119
 5637SOL    HW217811   5.215   0.295   3.036
 5638SOL     OW17812   6.431   3.876   0.388
 5638SOL    HW117813   6.418   3.781   0.361
 5638SOL    HW217814   6.343   3.924   0.383
 5639SOL     OW17815   1.294   0.996   2.771
 5639SOL    HW117816   1.366   1.021   2.706
 5639SOL    HW217817   1.206   1.028   2.737
 5640SOL     OW17818   3.650   0.245   3.791
 5640SOL    HW117819   3.579   0.269   3.725
 5640SOL    HW217820   3.739   0.245   3.746
 5641SOL     OW17821   0.927   5.331   5.092
 5641SOL    HW117822   0.853   5.306   5.029
 5641SOL    HW217823   0.971   5.247   5.125
 5642SOL     OW17824   2.185   6.576   4.880
 5642SOL    HW117825   2.129   6.647   4.923
 5642SOL    HW217826   2.208   6.507   4.948
 5643SOL     OW17827   4.214   1.210   4.954
 5643SOL    HW117828   4.201   1.255   5.042
 5643SOL    HW217829   4.285   1.259   4.902
 5644SOL     OW17830   2.879   0.430   4.979
 5644SOL    HW117831   2.823   0.473   5.050
 5644SOL    HW217832   2.952   0.378   5.022
 5645SOL     OW17833   6.320   4.809   3.812
 5645SOL    HW117834   6.388   4.737   3.797
 5645SOL    HW217835   6.230   4.775   3.782
 5646SOL     OW17836   1.817   5.407   3.943
 5646SOL    HW117837   1.766   5.336   3.992
 5646SOL    HW217838   1.915   5.387   3.948
 5647SOL     OW17839   4.676   5.439   1.126
 5647SOL    HW117840   4.744   5.387   1.073
 5647SOL    HW217841   4.724   5.504   1.186
 5648SOL     OW17842   1.908   6.871   2.829
 5648SOL    HW117843   1.983   6.864   2.762
 5648SOL    HW217844   1.885   6.780   2.862
 5649SOL     OW17845   0.645   0.541   4.362
 5649SOL    HW117846   0.597   0.627   4.347
 5649SOL    HW217847   0.740   0.550   4.331
 5650SOL     OW17848   0.146   5.629   0.937
 5650SOL    HW117849   0.098   5.659   1.020
 5650SOL    HW217850   0.230   5.681   0.927
 5651SOL     OW17851   1.605   0.399   1.621
 5651SOL    HW117852   1.633   0.349   1.539
 5651SOL    HW217853   1.681   0.399   1.687
 5652SOL     OW17854   6.291   0.030   1.419
 5652SOL    HW117855   6.308   0.120   1.459
 5652SOL    HW217856   6.208   0.035   1.363
 5653SOL     OW17857   6.263   6.084   6.403
 5653SOL    HW117858   6.270   6.173   6.449
 5653SOL    HW217859   6.167   6.057   6.396
 5654SOL     OW17860   0.215   6.234   5.203
 5654SOL    HW117861   0.220   6.190   5.293
 5654SOL    HW217862   0.136   6.198   5.153
 5655SOL     OW17863   1.188   3.843   4.070
 5655SOL    HW117864   1.230   3.863   3.981
 5655SOL    HW217865   1.093   3.817   4.057
 5656SOL     OW17866   6.986   3.602   6.144
 5656SOL    HW117867   0.007   3.570   6.225
 5656SOL    HW217868   6.955   3.523   6.091
 5657SOL     OW17869   6.557   2.443   0.031
 5657SOL    HW117870   6.558   2.415   0.127
 5657SOL    HW217871   6.463   2.461   0.002
 5658SOL     OW17872   3.703   3.713   6.872
 5658SOL    HW117873   3.691   3.622   6.912
 5658SOL    HW217874   3.787   3.715   6.818
 5659SOL     OW17875   3.526   3.046   5.117
 5659SOL    HW117876   3.505   3.124   5.176
 5659SOL    HW217877   3.615   3.008   5.142
 5660SOL     OW17878   4.206   0.134   6.502
 5660SOL    HW117879   4.288   0.090   6.541
 5660SOL    HW217880   4.126   0.076   6.520
 5661SOL     OW17881   1.524   5.712   5.116
 5661SOL    HW117882   1.589   5.651   5.162
 5661SOL    HW217883   1.431   5.677   5.129
 5662SOL     OW17884   2.871   6.222   3.768
 5662SOL    HW117885   2.817   6.226   3.852
 5662SOL    HW217886   2.910   6.130   3.758
 5663SOL     OW17887   2.210   2.151   0.526
 5663SOL    HW117888   2.195   2.060   0.486
 5663SOL    HW217889   2.305   2.178   0.512
 5664SOL     OW17890   6.799   3.535   4.593
 5664SOL    HW117891   6.884   3.540   4.646
 5664SOL    HW217892   6.791   3.444   4.552
 5665SOL     OW17893   2.319   0.856   0.500
 5665SOL    HW117894   2.344   0.799   0.578
 5665SOL    HW217895   2.313   0.799   0.418
 5666SOL     OW17896   6.420   0.270   3.357
 5666SOL    HW117897   6.492   0.241   3.420
 5666SOL    HW217898   6.461   0.300   3.270
 5667SOL     OW17899   1.742   5.174   4.512
 5667SOL    HW117900   1.834   5.178   4.551
 5667SOL    HW217901   1.738   5.099   4.445
 5668SOL     OW17902   5.064   2.886   3.346
 5668SOL    HW117903   5.160   2.914   3.349
 5668SOL    HW217904   5.059   2.787   3.329
 5669SOL     OW17905   6.930   3.761   0.786
 5669SOL    HW117906   7.018   3.714   0.781
 5669SOL    HW217907   6.928   3.819   0.868
 5670SOL     OW17908   0.966   3.746   3.925
 5670SOL    HW117909   0.975   3.666   3.866
 5670SOL    HW217910   0.953   3.828   3.869
 5671SOL     OW17911   5.807   5.879   5.469
 5671SOL    HW117912   5.864   5.899   5.390
 5671SOL    HW217913   5.840   5.929   5.549
 5672SOL     OW17914   4.396   3.699   0.100
 5672SOL    HW117915   4.471   3.689   0.165
 5672SOL    HW217916   4.382   3.796   0.080
 5673SOL     OW17917   1.835   6.636   1.340
 5673SOL    HW117918   1.789   6.641   1.251
 5673SOL    HW217919   1.848   6.540   1.365
 5674SOL     OW17920   0.477   4.491   5.085
 5674SOL    HW117921   0.380   4.513   5.089
 5674SOL    HW217922   0.514   4.483   5.177
 5675SOL     OW17923   4.077   3.088   6.212
 5675SOL    HW117924   4.051   3.123   6.122
 5675SOL    HW217925   4.048   3.152   6.283
 5676SOL     OW17926   2.907   1.628   2.457
 5676SOL    HW117927   2.840   1.695   2.425
 5676SOL    HW217928   2.975   1.612   2.385
 5677SOL     OW17929   0.516   1.142   0.841
 5677SOL    HW117930   0.527   1.050   0.878
 5677SOL    HW217931   0.580   1.157   0.766
 5678SOL     OW17932   4.058   6.655   2.796
 5678SOL    HW117933   4.042   6.737   2.850
 5678SOL    HW217934   3.973   6.602   2.790
 5679SOL     OW17935   6.459   1.414   3.759
 5679SOL    HW117936   6.391   1.345   3.735
 5679SOL    HW217937   6.446   1.443   3.854
 5680SOL     OW17938   1.685   5.299   6.399
 5680SOL    HW117939   1.743   5.347   6.465
 5680SOL    HW217940   1.696   5.341   6.309
 5681SOL     OW17941   0.693   3.568   1.456
 5681SOL    HW117942   0.755   3.493   1.482
 5681SOL    HW217943   0.714   3.649   1.511
 5682SOL     OW17944   2.247   5.331   4.610
 5682SOL    HW117945   2.176   5.394   4.643
 5682SOL    HW217946   2.210   5.239   4.604
 5683SOL     OW17947   3.859   1.211   5.799
 5683SOL    HW117948   3.818   1.240   5.886
 5683SOL    HW217949   3.839   1.114   5.784
 5684SOL     OW17950   2.012   3.561   5.668
 5684SOL    HW117951   2.032   3.601   5.758
 5684SOL    HW217952   2.019   3.462   5.674
 5685SOL     OW17953   2.048   1.482   3.210
 5685SOL    HW117954   1.979   1.413   3.229
 5685SOL    HW217955   2.114   1.486   3.286
 5686SOL     OW17956   2.841   1.785   6.308
 5686SOL    HW117957   2.890   1.815   6.226
 5686SOL    HW217958   2.866   1.843   6.385
 5687SOL     OW17959   0.499   5.548   6.767
 5687SOL    HW117960   0.448   5.516   6.846
 5687SOL    HW217961   0.448   5.621   6.721
 5688SOL     OW17962   1.106   2.472   2.174
 5688SOL    HW117963   1.113   2.448   2.271
 5688SOL    HW217964   1.095   2.389   2.119
 5689SOL     OW17965   3.334   1.547   1.418
 5689SOL    HW117966   3.247   1.499   1.427
 5689SOL    HW217967   3.317   1.642   1.393
 5690SOL     OW17968   2.076   6.124   0.217
 5690SOL    HW117969   1.993   6.154   0.264
 5690SOL    HW217970   2.054   6.045   0.159
 5691SOL     OW17971   4.129   0.584   2.232
 5691SOL    HW117972   4.148   0.657   2.298
 5691SOL    HW217973   4.032   0.585   2.209
 5692SOL     OW17974   5.563   3.990   0.500
 5692SOL    HW117975   5.563   4.012   0.402
 5692SOL    HW217976   5.652   4.014   0.540
 5693SOL     OW17977   4.826   1.635   2.858
 5693SOL    HW117978   4.831   1.569   2.783
 5693SOL    HW217979   4.731   1.660   2.874
 5694SOL     OW17980   1.113   1.332   3.017
 5694SOL    HW117981   1.120   1.232   3.018
 5694SOL    HW217982   1.068   1.363   3.101
 5695SOL     OW17983   2.005   1.893   4.190
 5695SOL    HW117984   2.004   1.801   4.150
 5695SOL    HW217985   1.966   1.889   4.282
 5696SOL     OW17986   1.025   1.212   3.527
 5696SOL    HW117987   1.016   1.156   3.609
 5696SOL    HW217988   1.021   1.154   3.446
 5697SOL     OW17989   6.137   2.447   1.612
 5697SOL    HW117990   6.111   2.544   1.617
 5697SOL    HW217991   6.126   2.414   1.518
 5698SOL     OW17992   0.527   4.701   3.943
 5698SOL    HW117993   0.589   4.624   3.962
 5698SOL    HW217994   0.434   4.675   3.970
 5699SOL     OW17995   0.744   2.725   3.327
 5699SOL    HW117996   0.823   2.669   3.353
 5699SOL    HW217997   0.736   2.802   3.391
 5700SOL     OW17998   6.199   0.329   3.226
 5700SOL    HW117999   6.273   0.311   3.290
 5700SOL    HW218000   6.217   0.415   3.177
 5701SOL     OW18001   0.689   0.169   1.188
 5701SOL    HW118002   0.601   0.122   1.198
 5701SOL    HW218003   0.720   0.199   1.278
 5702SOL     OW18004   2.736   5.462   4.144
 5702SOL    HW118005   2.760   5.547   4.190
 5702SOL    HW218006   2.776   5.385   4.193
 5703SOL     OW18007   6.469   4.589   1.076
 5703SOL    HW118008   6.489   4.645   1.156
 5703SOL    HW218009   6.531   4.615   1.001
 5704SOL     OW18010   4.755   4.019   3.085
 5704SOL    HW118011   4.830   4.006   3.021
 5704SOL    HW218012   4.783   3.987   3.176
 5705SOL     OW18013   5.145   6.560   6.978
 5705SOL    HW118014   5.210   6.564   6.902
 5705SOL    HW218015   5.186   6.509   0.025
 5706SOL     OW18016   6.921   3.230   2.235
 5706SOL    HW118017   6.954   3.142   2.269
 5706SOL    HW218018   6.898   3.289   2.313
 5707SOL     OW18019   7.025   6.750   0.597
 5707SOL    HW118020   6.962   6.743   0.520
 5707SOL    HW218021   6.989   6.816   0.664
 5708SOL     OW18022   4.985   6.038   2.078
 5708SOL    HW118023   4.951   6.042   1.984
 5708SOL    HW218024   5.085   6.036   2.078
 5709SOL     OW18025   1.093   1.153   2.658
 5709SOL    HW118026   1.057   1.229   2.712
 5709SOL    HW218027   1.107   1.182   2.564
 5710SOL     OW18028   3.287   3.002   0.801
 5710SOL    HW118029   3.209   2.944   0.827
 5710SOL    HW218030   3.283   3.088   0.851
 5711SOL     OW18031   5.363   1.362   2.585
 5711SOL    HW118032   5.333   1.348   2.491
 5711SOL    HW218033   5.405   1.453   2.594
 5712SOL     OW18034   6.542   0.328   0.250
 5712SOL    HW118035   6.535   0.353   0.347
 5712SOL    HW218036   6.480   0.386   0.196
 5713SOL     OW18037   2.906   3.701   1.470
 5713SOL    HW118038   2.923   3.660   1.560
 5713SOL    HW218039   2.990   3.744   1.437
 5714SOL     OW18040   0.411   5.393   0.797
 5714SOL    HW118041   0.398   5.388   0.896
 5714SOL    HW218042   0.481   5.461   0.775
 5715SOL     OW18043   0.656   0.937   2.374
 5715SOL    HW118044   0.655   1.034   2.399
 5715SOL    HW218045   0.739   0.917   2.321
 5716SOL     OW18046   1.581   4.828   6.331
 5716SOL    HW118047   1.533   4.868   6.252
 5716SOL    HW218048   1.676   4.859   6.332
 5717SOL     OW18049   1.594   4.538   0.724
 5717SOL    HW118050   1.592   4.574   0.630
 5717SOL    HW218051   1.560   4.608   0.787
 5718SOL     OW18052   0.546   3.079   0.240
 5718SOL    HW118053   0.618   3.140   0.208
 5718SOL    HW218054   0.540   3.000   0.179
 5719SOL     OW18055   1.804   2.582   6.811
 5719SOL    HW118056   1.711   2.562   6.842
 5719SOL    HW218057   1.804   2.594   6.711
 5720SOL     OW18058   2.545   5.951   5.251
 5720SOL    HW118059   2.473   5.929   5.317
 5720SOL    HW218060   2.617   6.004   5.296
 5721SOL     OW18061   6.491   3.704   0.970
 5721SOL    HW118062   6.581   3.662   0.967
 5721SOL    HW218063   6.428   3.643   1.018
 5722SOL     OW18064   6.819   2.105   5.131
 5722SOL    HW118065   6.827   2.111   5.031
 5722SOL    HW218066   6.730   2.066   5.155
 5723SOL     OW18067   4.385   3.221   0.294
 5723SOL    HW118068   4.407   3.318   0.283
 5723SOL    HW218069   4.318   3.194   0.226
 5724SOL     OW18070   4.905   2.729   4.314
 5724SOL    HW118071   4.970   2.683   4.375
 5724SOL    HW218072   4.953   2.767   4.236
 5725SOL     OW18073   6.134   5.021   4.183
 5725SOL    HW118074   6.046   5.022   4.137
 5725SOL    HW218075   6.156   5.112   4.217
 5726SOL     OW18076   0.052   5.612   4.047
 5726SOL    HW118077   0.148   5.606   4.072
 5726SOL    HW218078   0.043   5.643   3.953
 5727SOL     OW18079   6.330   2.350   4.565
 5727SOL    HW118080   6.257   2.286   4.540
 5727SOL    HW218081   6.365   2.394   4.482
 5728SOL     OW18082   4.353   6.633   5.728
 5728SOL    HW118083   4.312   6.569   5.793
 5728SOL    HW218084   4.288   6.707   5.709
 5729SOL     OW18085   2.451   0.380   0.296
 5729SOL    HW118086   2.462   0.403   0.392
 5729SOL    HW218087   2.360   0.339   0.282
 5730SOL     OW18088   5.437   4.714   6.317
 5730SOL    HW118089   5.397   4.644   6.375
 5730SOL    HW218090   5.450   4.678   6.224
 5731SOL     OW18091   0.666   6.963   2.968
 5731SOL    HW118092   0.591   7.021   2.936
 5731SOL    HW218093   0.741   7.021   3.001
 5732SOL     OW18094   0.230   5.385   3.891
 5732SOL    HW118095   0.293   5.365   3.815
 5732SOL    HW218096   0.256   5.471   3.935
 5733SOL     OW18097   3.447   6.463   5.589
 5733SOL    HW118098   3.487   6.414   5.512
 5733SOL    HW218099   3.518   6.483   5.656
 5734SOL     OW18100   0.876   0.508   5.107
 5734SOL    HW118101   0.944   0.437   5.125
 5734SOL    HW218102   0.796   0.492   5.165
 5735SOL     OW18103   4.102   2.012   1.419
 5735SOL    HW118104   4.014   2.011   1.467
 5735SOL    HW218105   4.085   2.024   1.321
 5736SOL     OW18106   6.195   4.104   0.092
 5736SOL    HW118107   6.238   4.023   0.052
 5736SOL    HW218108   6.137   4.078   0.168
 5737SOL     OW18109   5.703   6.118   0.645
 5737SOL    HW118110   5.713   6.132   0.547
 5737SOL    HW218111   5.724   6.203   0.693
 5738SOL     OW18112   1.938   2.592   6.005
 5738SOL    HW118113   1.867   2.576   5.937
 5738SOL    HW218114   1.957   2.507   6.054
 5739SOL     OW18115   1.776   0.723   6.047
 5739SOL    HW118116   1.758   0.674   5.962
 5739SOL    HW218117   1.727   0.810   6.046
 5740SOL     OW18118   4.316   4.327   0.726
 5740SOL    HW118119   4.252   4.398   0.755
 5740SOL    HW218120   4.400   4.334   0.780
 5741SOL     OW18121   1.381   5.087   4.918
 5741SOL    HW118122   1.326   5.096   5.001
 5741SOL    HW218123   1.348   5.151   4.849
 5742SOL     OW18124   5.667   6.600   2.545
 5742SOL    HW118125   5.591   6.537   2.528
 5742SOL    HW218126   5.752   6.548   2.554
 5743SOL     OW18127   2.694   5.989   4.954
 5743SOL    HW118128   2.720   6.057   5.023
 5743SOL    HW218129   2.599   6.004   4.926
 5744SOL     OW18130   4.765   0.300   2.198
 5744SOL    HW118131   4.708   0.324   2.120
 5744SOL    HW218132   4.719   0.326   2.283
 5745SOL     OW18133   3.359   0.705   4.052
 5745SOL    HW118134   3.272   0.659   4.032
 5745SOL    HW218135   3.434   0.641   4.039
 5746SOL     OW18136   5.399   7.012   1.450
 5746SOL    HW118137   5.330   6.971   1.391
 5746SOL    HW218138   5.490   6.996   1.411
 5747SOL     OW18139   0.153   4.867   2.559
 5747SOL    HW118140   0.096   4.949   2.566
 5747SOL    HW218141   0.101   4.787   2.589
 5748SOL     OW18142   1.179   5.563   0.479
 5748SOL    HW118143   1.117   5.570   0.558
 5748SOL    HW218144   1.260   5.619   0.495
 5749SOL     OW18145   2.108   0.338   4.605
 5749SOL    HW118146   2.073   0.326   4.512
 5749SOL    HW218147   2.053   0.284   4.669
 5750SOL     OW18148   5.893   5.424   4.401
 5750SOL    HW118149   5.822   5.356   4.382
 5750SOL    HW218150   5.983   5.386   4.378
 5751SOL     OW18151   1.977   2.717   4.596
 5751SOL    HW118152   2.057   2.670   4.632
 5751SOL    HW218153   1.961   2.688   4.502
 5752SOL     OW18154   6.744   0.460   6.865
 5752SOL    HW118155   6.716   0.543   6.914
 5752SOL    HW218156   6.830   0.426   6.904
 5753SOL     OW18157   2.894   3.903   5.668
 5753SOL    HW118158   2.803   3.942   5.650
 5753SOL    HW218159   2.961   3.946   5.607
 5754SOL     OW18160   5.749   4.511   1.697
 5754SOL    HW118161   5.704   4.465   1.620
 5754SOL    HW218162   5.832   4.557   1.665
 5755SOL     OW18163   2.815   3.647   5.780
 5755SOL    HW118164   2.745   3.622   5.713
 5755SOL    HW218165   2.852   3.737   5.758
 5756SOL     OW18166   6.285   6.226   3.180
 5756SOL    HW118167   6.361   6.229   3.245
 5756SOL    HW218168   6.212   6.286   3.212
 5757SOL     OW18169   6.729   6.696   2.725
 5757SOL    HW118170   6.707   6.628   2.655
 5757SOL    HW218171   6.645   6.743   2.753
 5758SOL     OW18172   3.374   1.157   4.062
 5758SOL    HW118173   3.441   1.229   4.041
 5758SOL    HW218174   3.421   1.078   4.100
 5759SOL     OW18175   4.522   1.642   6.579
 5759SOL    HW118176   4.581   1.660   6.500
 5759SOL    HW218177   4.541   1.709   6.651
 5760SOL     OW18178   1.144   5.320   1.498
 5760SOL    HW118179   1.189   5.260   1.432
 5760SOL    HW218180   1.161   5.416   1.473
 5761SOL     OW18181   5.620   0.095   6.166
 5761SOL    HW118182   5.607   0.192   6.185
 5761SOL    HW218183   5.549   0.065   6.102
 5762SOL     OW18184   5.029   6.700   0.265
 5762SOL    HW118185   4.944   6.657   0.295
 5762SOL    HW218186   5.050   6.778   0.325
 5763SOL     OW18187   0.203   0.273   0.028
 5763SOL    HW118188   0.289   0.232   7.026
 5763SOL    HW218189   0.126   0.224   7.016
 5764SOL     OW18190   5.738   4.696   6.326
 5764SOL    HW118191   5.784   4.753   6.394
 5764SOL    HW218192   5.639   4.704   6.338
 5765SOL     OW18193   6.625   3.921   6.271
 5765SOL    HW118194   6.658   3.952   6.360
 5765SOL    HW218195   6.553   3.981   6.238
 5766SOL     OW18196   2.295   1.864   0.502
 5766SOL    HW118197   2.337   1.921   0.573
 5766SOL    HW218198   2.310   1.768   0.524
 5767SOL     OW18199   2.463   0.095   0.426
 5767SOL    HW118200   2.466   0.144   0.338
 5767SOL    HW218201   2.515   0.146   0.494
 5768SOL     OW18202   0.249   6.602   2.979
 5768SOL    HW118203   0.203   6.658   2.911
 5768SOL    HW218204   0.205   6.616   3.068
 5769SOL     OW18205   2.918   0.174   3.822
 5769SOL    HW118206   2.822   0.167   3.794
 5769SOL    HW218207   2.951   0.267   3.803
 5770SOL     OW18208   0.453   6.866   0.626
 5770SOL    HW118209   0.434   6.865   0.527
 5770SOL    HW218210   0.465   6.772   0.658
 5771SOL     OW18211   0.991   5.854   2.232
 5771SOL    HW118212   1.016   5.788   2.162
 5771SOL    HW218213   0.925   5.919   2.194
 5772SOL     OW18214   5.590   2.683   0.453
 5772SOL    HW118215   5.554   2.665   0.361
 5772SOL    HW218216   5.595   2.598   0.504
 5773SOL     OW18217   5.177   0.673   3.852
 5773SOL    HW118218   5.248   0.741   3.871
 5773SOL    HW218219   5.192   0.635   3.760
 5774SOL     OW18220   2.959   5.007   3.998
 5774SOL    HW118221   3.053   5.041   3.990
 5774SOL    HW218222   2.956   4.936   4.068
 5775SOL     OW18223   1.546   6.879   1.598
 5775SOL    HW118224   1.473   6.818   1.630
 5775SOL    HW218225   1.585   6.928   1.675
 5776SOL     OW18226   6.788   1.005   6.092
 5776SOL    HW118227   6.756   1.098   6.105
 5776SOL    HW218228   6.733   0.942   6.147
 5777SOL     OW18229   6.034   0.317   4.394
 5777SOL    HW118230   5.977   0.398   4.396
 5777SOL    HW218231   5.993   0.246   4.451
 5778SOL     OW18232   1.951   6.865   0.965
 5778SOL    HW118233   1.854   6.867   0.989
 5778SOL    HW218234   1.986   6.958   0.960
 5779SOL     OW18235   3.898   1.015   1.185
 5779SOL    HW118236   3.870   1.043   1.277
 5779SOL    HW218237   3.972   1.075   1.154
 5780SOL     OW18238   5.995   5.413   2.764
 5780SOL    HW118239   5.937   5.476   2.713
 5780SOL    HW218240   5.939   5.361   2.829
 5781SOL     OW18241   1.525   4.710   4.673
 5781SOL    HW118242   1.522   4.805   4.642
 5781SOL    HW218243   1.460   4.656   4.619
 5782SOL     OW18244   1.531   1.147   1.231
 5782SOL    HW118245   1.499   1.226   1.179
 5782SOL    HW218246   1.629   1.136   1.217
 5783SOL     OW18247   1.970   1.330   1.094
 5783SOL    HW118248   2.056   1.314   1.046
 5783SOL    HW218249   1.951   1.253   1.155
 5784SOL     OW18250   0.687   6.698   0.277
 5784SOL    HW118251   0.785   6.680   0.284
 5784SOL    HW218252   0.656   6.745   0.359
 5785SOL     OW18253   1.894   2.238   1.442
 5785SOL    HW118254   1.877   2.326   1.399
 5785SOL    HW218255   1.993   2.224   1.451
 5786SOL     OW18256   1.164   4.021   0.882
 5786SOL    HW118257   1.255   4.002   0.921
 5786SOL    HW218258   1.144   4.118   0.891
 5787SOL     OW18259   4.793   2.179   4.460
 5787SOL    HW118260   4.811   2.104   4.397
 5787SOL    HW218261   4.855   2.172   4.538
 5788SOL     OW18262   2.678   0.230   1.672
 5788SOL    HW118263   2.735   0.162   1.719
 5788SOL    HW218264   2.736   0.297   1.627
 5789SOL     OW18265   3.254   2.569   6.414
 5789SOL    HW118266   3.300   2.491   6.371
 5789SOL    HW218267   3.288   2.654   6.373
 5790SOL     OW18268   6.623   5.979   5.253
 5790SOL    HW118269   6.619   6.053   5.319
 5790SOL    HW218270   6.530   5.947   5.232
 5791SOL     OW18271   3.122   1.672   2.664
 5791SOL    HW118272   3.027   1.642   2.655
 5791SOL    HW218273   3.175   1.638   2.586
 5792SOL     OW18274   4.869   3.654   3.298
 5792SOL    HW118275   4.903   3.680   3.208
 5792SOL    HW218276   4.836   3.735   3.346
 5793SOL     OW18277   5.926   1.262   6.011
 5793SOL    HW118278   5.903   1.359   6.018
 5793SOL    HW218279   5.896   1.228   5.922
 5794SOL     OW18280   3.794   0.149   6.807
 5794SOL    HW118281   3.786   0.176   6.903
 5794SOL    HW218282   3.703   0.141   6.767
 5795SOL     OW18283   0.418   6.450   1.511
 5795SOL    HW118284   0.354   6.407   1.448
 5795SOL    HW218285   0.487   6.501   1.460
 5796SOL     OW18286   4.687   0.329   6.870
 5796SOL    HW118287   4.751   0.402   6.892
 5796SOL    HW218288   4.624   0.360   6.798
 5797SOL     OW18289   5.644   1.211   0.091
 5797SOL    HW118290   5.621   1.127   0.041
 5797SOL    HW218291   5.715   1.191   0.159
 5798SOL     OW18292   0.747   4.022   4.490
 5798SOL    HW118293   0.740   4.118   4.461
 5798SOL    HW218294   0.739   4.017   4.589
 5799SOL     OW18295   0.554   0.191   2.861
 5799SOL    HW118296   0.459   0.193   2.830
 5799SOL    HW218297   0.614   0.171   2.784
 5800SOL     OW18298   0.920   0.168   1.783
 5800SOL    HW118299   0.946   0.123   1.698
 5800SOL    HW218300   0.914   0.267   1.769
 5801SOL     OW18301   2.271   2.516   3.823
 5801SOL    HW118302   2.224   2.459   3.755
 5801SOL    HW218303   2.252   2.612   3.805
 5802SOL     OW18304   5.864   3.404   2.384
 5802SOL    HW118305   5.866   3.352   2.299
 5802SOL    HW218306   5.809   3.355   2.452
 5803SOL     OW18307   0.990   5.143   3.823
 5803SOL    HW118308   1.068   5.083   3.840
 5803SOL    HW218309   0.922   5.094   3.768
 5804SOL     OW18310   6.655   6.371   3.733
 5804SOL    HW118311   6.711   6.428   3.792
 5804SOL    HW218312   6.639   6.282   3.777
 5805SOL     OW18313   1.440   2.983   1.154
 5805SOL    HW118314   1.389   3.064   1.124
 5805SOL    HW218315   1.399   2.901   1.114
 5806SOL     OW18316   0.089   4.454   4.886
 5806SOL    HW118317   0.029   4.454   4.806
 5806SOL    HW218318   0.164   4.389   4.871
 5807SOL     OW18319   1.375   5.834   0.892
 5807SOL    HW118320   1.350   5.788   0.978
 5807SOL    HW218321   1.473   5.852   0.891
 5808SOL     OW18322   6.399   6.924   5.098
 5808SOL    HW118323   6.484   6.888   5.137
 5808SOL    HW218324   6.408   6.931   4.999
 5809SOL     OW18325   0.233   2.076   5.851
 5809SOL    HW118326   0.135   2.071   5.869
 5809SOL    HW218327   0.282   2.017   5.915
 5810SOL     OW18328   4.152   0.151   4.965
 5810SOL    HW118329   4.175   0.075   5.026
 5810SOL    HW218330   4.231   0.211   4.955
 5811SOL     OW18331   2.594   2.079   5.635
 5811SOL    HW118332   2.627   2.141   5.706
 5811SOL    HW218333   2.496   2.063   5.646
 5812SOL     OW18334   5.518   3.733   6.262
 5812SOL    HW118335   5.560   3.726   6.172
 5812SOL    HW218336   5.498   3.641   6.297
 5813SOL     OW18337   2.995   6.128   1.419
 5813SOL    HW118338   2.945   6.128   1.506
 5813SOL    HW218339   3.072   6.065   1.425
 5814SOL     OW18340   6.978   1.910   1.940
 5814SOL    HW118341   7.022   1.845   1.878
 5814SOL    HW218342   6.980   2.002   1.900
 5815SOL     OW18343   5.468   2.012   4.211
 5815SOL    HW118344   5.448   2.056   4.124
 5815SOL    HW218345   5.522   2.074   4.268
 5816SOL     OW18346   6.584   5.228   1.992
 5816SOL    HW118347   6.512   5.190   2.051
 5816SOL    HW218348   6.617   5.156   1.931
 5817SOL     OW18349   5.955   4.708   5.365
 5817SOL    HW118350   5.959   4.797   5.410
 5817SOL    HW218351   5.878   4.655   5.402
 5818SOL     OW18352   0.662   5.705   5.207
 5818SOL    HW118353   0.707   5.755   5.133
 5818SOL    HW218354   0.630   5.770   5.276
 5819SOL     OW18355   2.970   5.101   6.697
 5819SOL    HW118356   2.970   5.184   6.753
 5819SOL    HW218357   3.004   5.122   6.605
 5820SOL     OW18358   4.589   4.908   2.139
 5820SOL    HW118359   4.680   4.895   2.179
 5820SOL    HW218360   4.523   4.925   2.212
 5821SOL     OW18361   6.342   1.049   1.778
 5821SOL    HW118362   6.348   0.950   1.781
 5821SOL    HW218363   6.386   1.088   1.859
 5822SOL     OW18364   1.133   2.456   2.470
 5822SOL    HW118365   1.199   2.389   2.505
 5822SOL    HW218366   1.143   2.542   2.520
 5823SOL     OW18367   2.354   6.278   4.712
 5823SOL    HW118368   2.387   6.370   4.731
 5823SOL    HW218369   2.256   6.273   4.731
 5824SOL     OW18370   0.889   0.078   3.006
 5824SOL    HW118371   0.870   0.176   3.009
 5824SOL    HW218372   0.985   0.061   3.028
 5825SOL     OW18373   0.434   5.819   4.873
 5825SOL    HW118374   0.473   5.880   4.804
 5825SOL    HW218375   0.498   5.809   4.949
 5826SOL     OW18376   7.026   6.942   5.867
 5826SOL    HW118377   6.951   7.009   5.865
 5826SOL    HW218378   6.993   6.855   5.901
 5827SOL     OW18379   1.017   3.658   4.793
 5827SOL    HW118380   1.034   3.564   4.825
 5827SOL    HW218381   0.971   3.654   4.704
 5828SOL     OW18382   4.704   1.063   3.615
 5828SOL    HW118383   4.708   1.138   3.549
 5828SOL    HW218384   4.780   1.000   3.598
 5829SOL     OW18385   1.434   0.568   4.869
 5829SOL    HW118386   1.399   0.596   4.780
 5829SOL    HW218387   1.527   0.602   4.881
 5830SOL     OW18388   4.390   5.955   5.408
 5830SOL    HW118389   4.310   5.906   5.443
 5830SOL    HW218390   4.380   6.053   5.427
 5831SOL     OW18391   1.257   1.922   5.334
 5831SOL    HW118392   1.242   1.939   5.237
 5831SOL    HW218393   1.209   1.991   5.388
 5832SOL     OW18394   3.506   4.497   1.394
 5832SOL    HW118395   3.441   4.568   1.367
 5832SOL    HW218396   3.500   4.420   1.330
 5833SOL     OW18397   4.148   3.214   5.713
 5833SOL    HW118398   4.208   3.139   5.686
 5833SOL    HW218399   4.196   3.301   5.700
 5834SOL     OW18400   6.556   3.394   6.651
 5834SOL    HW118401   6.580   3.300   6.676
 5834SOL    HW218402   6.637   3.440   6.614
 5835SOL     OW18403   6.482   1.662   2.514
 5835SOL    HW118404   6.574   1.674   2.476
 5835SOL    HW218405   6.424   1.738   2.485
 5836SOL     OW18406   2.980   6.803   1.927
 5836SOL    HW118407   2.928   6.728   1.968
 5836SOL    HW218408   3.046   6.766   1.861
 5837SOL     OW18409   4.080   3.777   0.090
 5837SOL    HW118410   4.113   3.784   0.184
 5837SOL    HW218411   4.072   3.680   0.065
 5838SOL     OW18412   2.635   1.432   1.001
 5838SOL    HW118413   2.617   1.464   1.094
 5838SOL    HW218414   2.591   1.343   0.987
 5839SOL     OW18415   0.492   2.559   1.242
 5839SOL    HW118416   0.573   2.576   1.185
 5839SOL    HW218417   0.513   2.489   1.310
 5840SOL     OW18418   0.088   3.901   1.490
 5840SOL    HW118419   0.056   3.810   1.514
 5840SOL    HW218420   0.054   3.967   1.557
 5841SOL     OW18421   5.198   0.522   1.701
 5841SOL    HW118422   5.131   0.551   1.770
 5841SOL    HW218423   5.164   0.440   1.655
 5842SOL     OW18424   4.151   1.985   1.062
 5842SOL    HW118425   4.209   1.948   0.989
 5842SOL    HW218426   4.068   1.930   1.070
 5843SOL     OW18427   2.018   3.520   1.147
 5843SOL    HW118428   2.022   3.587   1.220
 5843SOL    HW218429   2.003   3.567   1.060
 5844SOL     OW18430   0.967   6.382   5.334
 5844SOL    HW118431   1.061   6.406   5.312
 5844SOL    HW218432   0.918   6.465   5.361
 5845SOL     OW18433   0.698   0.147   1.974
 5845SOL    HW118434   0.776   0.143   1.912
 5845SOL    HW218435   0.662   0.241   1.975
 5846SOL     OW18436   5.980   3.484   5.445
 5846SOL    HW118437   5.920   3.477   5.525
 5846SOL    HW218438   5.972   3.575   5.405
 5847SOL     OW18439   2.709   2.533   1.757
 5847SOL    HW118440   2.629   2.500   1.807
 5847SOL    HW218441   2.792   2.496   1.798
 5848SOL     OW18442   1.827   6.203   4.061
 5848SOL    HW118443   1.729   6.219   4.050
 5848SOL    HW218444   1.874   6.291   4.071
 5849SOL     OW18445   2.138   6.447   5.145
 5849SOL    HW118446   2.141   6.438   5.244
 5849SOL    HW218447   2.043   6.437   5.113
 5850SOL     OW18448   0.682   3.330   1.755
 5850SOL    HW118449   0.704   3.336   1.657
 5850SOL    HW218450   0.756   3.283   1.803
 5851SOL     OW18451   5.644   3.555   3.794
 5851SOL    HW118452   5.579   3.593   3.860
 5851SOL    HW218453   5.726   3.612   3.792
 5852SOL     OW18454   4.428   6.082   2.831
 5852SOL    HW118455   4.513   6.052   2.874
 5852SOL    HW218456   4.430   6.059   2.734
 5853SOL     OW18457   4.355   5.488   5.301
 5853SOL    HW118458   4.409   5.572   5.306
 5853SOL    HW218459   4.379   5.428   5.378
 5854SOL     OW18460   4.177   4.783   5.555
 5854SOL    HW118461   4.147   4.739   5.470
 5854SOL    HW218462   4.183   4.716   5.628
 5855SOL     OW18463   1.643   2.635   4.124
 5855SOL    HW118464   1.581   2.713   4.113
 5855SOL    HW218465   1.605   2.572   4.191
 5856SOL     OW18466   1.259   6.860   2.558
 5856SOL    HW118467   1.170   6.821   2.534
 5856SOL    HW218468   1.250   6.913   2.642
 5857SOL     OW18469   6.607   3.128   5.194
 5857SOL    HW118470   6.646   3.218   5.212
 5857SOL    HW218471   6.530   3.111   5.257
 5858SOL     OW18472   2.498   2.294   2.695
 5858SOL    HW118473   2.567   2.225   2.672
 5858SOL    HW218474   2.437   2.308   2.618
 5859SOL     OW18475   6.090   6.151   1.469
 5859SOL    HW118476   6.063   6.247   1.465
 5859SOL    HW218477   6.077   6.109   1.379
 5860SOL     OW18478   0.579   4.773   3.518
 5860SOL    HW118479   0.546   4.864   3.540
 5860SOL    HW218480   0.547   4.746   3.427
 5861SOL     OW18481   5.295   0.543   4.805
 5861SOL    HW118482   5.210   0.490   4.799
 5861SOL    HW218483   5.372   0.481   4.821
 5862SOL     OW18484   6.106   5.591   1.890
 5862SOL    HW118485   6.134   5.525   1.821
 5862SOL    HW218486   6.160   5.579   1.973
 5863SOL     OW18487   3.354   0.963   4.587
 5863SOL    HW118488   3.356   1.056   4.550
 5863SOL    HW218489   3.314   0.965   4.679
 5864SOL     OW18490   3.943   3.615   2.497
 5864SOL    HW118491   3.935   3.709   2.464
 5864SOL    HW218492   4.013   3.610   2.568
 5865SOL     OW18493   5.452   0.349   5.676
 5865SOL    HW118494   5.425   0.445   5.682
 5865SOL    HW218495   5.415   0.309   5.592
 5866SOL     OW18496   3.138   2.985   0.331
 5866SOL    HW118497   3.056   2.999   0.386
 5866SOL    HW218498   3.151   3.064   0.271
 5867SOL     OW18499   2.243   2.460   1.983
 5867SOL    HW118500   2.343   2.450   1.974
 5867SOL    HW218501   2.209   2.520   1.911
 5868SOL     OW18502   0.934   2.382   5.675
 5868SOL    HW118503   0.836   2.362   5.679
 5868SOL    HW218504   0.968   2.402   5.767
 5869SOL     OW18505   1.916   4.322   3.606
 5869SOL    HW118506   1.962   4.309   3.518
 5869SOL    HW218507   1.822   4.289   3.599
 5870SOL     OW18508   4.148   5.805   5.426
 5870SOL    HW118509   4.073   5.858   5.386
 5870SOL    HW218510   4.121   5.709   5.430
 5871SOL     OW18511   4.112   3.796   2.277
 5871SOL    HW118512   4.174   3.872   2.295
 5871SOL    HW218513   4.117   3.771   2.180
 5872SOL     OW18514   4.311   6.407   1.402
 5872SOL    HW118515   4.248   6.478   1.433
 5872SOL    HW218516   4.274   6.317   1.425
 5873SOL     OW18517   2.867   6.050   2.335
 5873SOL    HW118518   2.846   6.127   2.274
 5873SOL    HW218519   2.954   6.067   2.381
 5874SOL     OW18520   2.144   4.493   5.216
 5874SOL    HW118521   2.212   4.441   5.268
 5874SOL    HW218522   2.140   4.458   5.122
 5875SOL     OW18523   3.644   1.985   0.240
 5875SOL    HW118524   3.736   1.981   0.280
 5875SOL    HW218525   3.619   2.081   0.225
 5876SOL     OW18526   3.869   3.371   2.017
 5876SOL    HW118527   3.895   3.280   2.051
 5876SOL    HW218528   3.781   3.397   2.057
 5877SOL     OW18529   6.058   6.187   0.264
 5877SOL    HW118530   6.005   6.226   0.189
 5877SOL    HW218531   6.107   6.106   0.232
 5878SOL     OW18532   0.935   6.113   4.117
 5878SOL    HW118533   0.947   6.102   4.018
 5878SOL    HW218534   0.931   6.023   4.160
 5879SOL     OW18535   0.896   3.335   0.566
 5879SOL    HW118536   0.833   3.406   0.598
 5879SOL    HW218537   0.985   3.376   0.548
 5880SOL     OW18538   2.872   4.364   0.552
 5880SOL    HW118539   2.954   4.314   0.523
 5880SOL    HW218540   2.793   4.303   0.547
 5881SOL     OW18541   0.020   4.939   3.190
 5881SOL    HW118542   0.015   5.005   3.114
 5881SOL    HW218543   0.028   4.989   3.276
 5882SOL     OW18544   6.736   6.416   1.237
 5882SOL    HW118545   6.777   6.443   1.324
 5882SOL    HW218546   6.637   6.408   1.248
 5883SOL     OW18547   1.136   1.818   6.821
 5883SOL    HW118548   1.179   1.865   6.897
 5883SOL    HW218549   1.086   1.883   6.764
 5884SOL     OW18550   2.740   1.369   4.088
 5884SOL    HW118551   2.832   1.397   4.061
 5884SOL    HW218552   2.740   1.271   4.108
 5885SOL     OW18553   6.971   0.077   2.474
 5885SOL    HW118554   0.020   0.099   2.416
 5885SOL    HW218555   6.894   0.134   2.447
 5886SOL     OW18556   0.566   2.080   5.154
 5886SOL    HW118557   0.649   2.024   5.151
 5886SOL    HW218558   0.522   2.079   5.065
 5887SOL     OW18559   3.513   1.042   3.684
 5887SOL    HW118560   3.539   0.979   3.757
 5887SOL    HW218561   3.414   1.035   3.668
 5888SOL     OW18562   2.715   0.801   2.919
 5888SOL    HW118563   2.743   0.820   2.825
 5888SOL    HW218564   2.630   0.850   2.939
 5889SOL     OW18565   1.386   6.057   1.131
 5889SOL    HW118566   1.410   5.960   1.132
 5889SOL    HW218567   1.421   6.101   1.214
 5890SOL     OW18568   1.090   0.306   5.325
 5890SOL    HW118569   1.034   0.229   5.352
 5890SOL    HW218570   1.096   0.310   5.225
 5891SOL     OW18571   2.938   3.126   6.079
 5891SOL    HW118572   2.852   3.090   6.041
 5891SOL    HW218573   3.015   3.082   6.034
 5892SOL     OW18574   0.586   5.696   1.747
 5892SOL    HW118575   0.493   5.691   1.711
 5892SOL    HW218576   0.612   5.792   1.758
 5893SOL     OW18577   1.682   4.204   4.017
 5893SOL    HW118578   1.648   4.282   3.964
 5893SOL    HW218579   1.682   4.122   3.960
 5894SOL     OW18580   0.638   6.014   3.553
 5894SOL    HW118581   0.623   6.111   3.573
 5894SOL    HW218582   0.612   5.959   3.632
 5895SOL     OW18583   4.821   3.040   4.222
 5895SOL    HW118584   4.778   3.030   4.312
 5895SOL    HW218585   4.877   2.960   4.203
 5896SOL     OW18586   4.083   1.648   0.803
 5896SOL    HW118587   4.020   1.572   0.786
 5896SOL    HW218588   4.101   1.655   0.901
 5897SOL     OW18589   3.856   0.491   1.643
 5897SOL    HW118590   3.817   0.496   1.551
 5897SOL    HW218591   3.821   0.409   1.689
 5898SOL     OW18592   2.037   6.586   3.248
 5898SOL    HW118593   2.015   6.662   3.309
 5898SOL    HW218594   2.077   6.622   3.163
 5899SOL     OW18595   4.809   6.519   5.683
 5899SOL    HW118596   4.753   6.476   5.613
 5899SOL    HW218597   4.773   6.610   5.704
 5900SOL     OW18598   4.804   5.392   3.564
 5900SOL    HW118599   4.804   5.481   3.518
 5900SOL    HW218600   4.892   5.348   3.550
 5901SOL     OW18601   2.860   0.694   0.312
 5901SOL    HW118602   2.852   0.606   0.357
 5901SOL    HW218603   2.851   0.767   0.380
 5902SOL     OW18604   6.959   2.191   6.891
 5902SOL    HW118605   6.978   2.096   6.913
 5902SOL    HW218606   6.966   2.247   6.973
 5903SOL     OW18607   4.283   3.904   0.353
 5903SOL    HW118608   4.196   3.949   0.369
 5903SOL    HW218609   4.319   3.930   0.264
 5904SOL     OW18610   1.015   3.472   1.815
 5904SOL    HW118611   0.975   3.545   1.759
 5904SOL    HW218612   1.027   3.390   1.758
 5905SOL     OW18613   6.372   6.257   2.924
 5905SOL    HW118614   6.299   6.306   2.876
 5905SOL    HW218615   6.343   6.236   3.017
 5906SOL     OW18616   4.635   1.596   4.211
 5906SOL    HW118617   4.601   1.660   4.280
 5906SOL    HW218618   4.600   1.504   4.231
 5907SOL     OW18619   1.682   5.827   2.056
 5907SOL    HW118620   1.698   5.903   2.119
 5907SOL    HW218621   1.701   5.741   2.103
 5908SOL     OW18622   0.734   2.377   6.457
 5908SOL    HW118623   0.756   2.467   6.420
 5908SOL    HW218624   0.790   2.308   6.412
 5909SOL     OW18625   6.884   5.127   0.855
 5909SOL    HW118626   6.977   5.129   0.817
 5909SOL    HW218627   6.888   5.100   0.951
 5910SOL     OW18628   0.815   2.912   3.091
 5910SOL    HW118629   0.871   2.995   3.083
 5910SOL    HW218630   0.805   2.888   3.187
 5911SOL     OW18631   6.406   5.861   6.497
 5911SOL    HW118632   6.442   5.838   6.587
 5911SOL    HW218633   6.378   5.957   6.496
 5912SOL     OW18634   6.570   0.512   5.461
 5912SOL    HW118635   6.546   0.578   5.532
 5912SOL    HW218636   6.575   0.558   5.372
 5913SOL     OW18637   4.650   2.952   6.741
 5913SOL    HW118638   4.585   2.945   6.665
 5913SOL    HW218639   4.743   2.940   6.705
 5914SOL     OW18640   0.908   5.986   6.863
 5914SOL    HW118641   0.916   6.084   6.885
 5914SOL    HW218642   0.998   5.943   6.871
 5915SOL     OW18643   4.493   6.469   1.152
 5915SOL    HW118644   4.444   6.470   1.064
 5915SOL    HW218645   4.429   6.446   1.225
 5916SOL     OW18646   7.016   5.958   3.003
 5916SOL    HW118647   0.023   6.047   3.031
 5916SOL    HW218648   0.059   5.905   2.959
 5917SOL     OW18649   3.090   4.050   4.780
 5917SOL    HW118650   3.181   4.090   4.774
 5917SOL    HW218651   3.033   4.106   4.841
 5918SOL     OW18652   2.140   4.953   5.904
 5918SOL    HW118653   2.057   4.968   5.850
 5918SOL    HW218654   2.214   4.921   5.845
 5919SOL     OW18655   3.221   3.546   2.542
 5919SOL    HW118656   3.307   3.498   2.526
 5919SOL    HW218657   3.239   3.631   2.591
 5920SOL     OW18658   5.277   0.840   6.085
 5920SOL    HW118659   5.242   0.855   5.993
 5920SOL    HW218660   5.231   0.761   6.126
 5921SOL     OW18661   4.150   5.178   6.552
 5921SOL    HW118662   4.193   5.268   6.550
 5921SOL    HW218663   4.218   5.109   6.579
 5922SOL     OW18664   6.284   4.085   4.269
 5922SOL    HW118665   6.232   4.124   4.346
 5922SOL    HW218666   6.231   4.095   4.185
 5923SOL     OW18667   6.879   1.204   2.259
 5923SOL    HW118668   6.865   1.175   2.164
 5923SOL    HW218669   6.849   1.299   2.269
 5924SOL     OW18670   6.229   0.180   2.636
 5924SOL    HW118671   6.131   0.195   2.653
 5924SOL    HW218672   6.270   0.139   2.718
 5925SOL     OW18673   3.440   6.393   1.705
 5925SOL    HW118674   3.501   6.341   1.764
 5925SOL    HW218675   3.375   6.444   1.761
 5926SOL     OW18676   4.184   4.686   2.212
 5926SOL    HW118677   4.084   4.687   2.213
 5926SOL    HW218678   4.216   4.615   2.150
 5927SOL     OW18679   1.208   4.464   1.940
 5927SOL    HW118680   1.180   4.559   1.951
 5927SOL    HW218681   1.297   4.451   1.985
 5928SOL     OW18682   3.815   6.942   1.332
 5928SOL    HW118683   3.758   6.892   1.396
 5928SOL    HW218684   3.880   6.879   1.289
 5929SOL     OW18685   5.732   0.479   5.600
 5929SOL    HW118686   5.732   0.515   5.693
 5929SOL    HW218687   5.678   0.395   5.597
 5930SOL     OW18688   0.539   3.228   2.742
 5930SOL    HW118689   0.477   3.299   2.777
 5930SOL    HW218690   0.485   3.156   2.697
 5931SOL     OW18691   6.611   6.548   2.486
 5931SOL    HW118692   6.607   6.448   2.493
 5931SOL    HW218693   6.682   6.574   2.421
 5932SOL     OW18694   3.680   7.009   0.641
 5932SOL    HW118695   3.762   0.021   0.602
 5932SOL    HW218696   3.604   7.020   0.578
 5933SOL     OW18697   6.849   5.074   4.432
 5933SOL    HW118698   6.811   5.122   4.353
 5933SOL    HW218699   6.832   5.127   4.515
 5934SOL     OW18700   3.983   2.704   5.281
 5934SOL    HW118701   4.051   2.637   5.252
 5934SOL    HW218702   4.030   2.785   5.316
 5935SOL     OW18703   0.545   5.248   6.295
 5935SOL    HW118704   0.603   5.210   6.366
 5935SOL    HW218705   0.499   5.174   6.246
 5936SOL     OW18706   3.085   3.304   1.884
 5936SOL    HW118707   3.066   3.223   1.828
 5936SOL    HW218708   3.031   3.300   1.968
 5937SOL     OW18709   6.254   3.103   1.809
 5937SOL    HW118710   6.311   3.084   1.729
 5937SOL    HW218711   6.273   3.036   1.880
 5938SOL     OW18712   6.105   5.685   3.885
 5938SOL    HW118713   6.110   5.604   3.825
 5938SOL    HW218714   6.148   5.663   3.973
 5939SOL     OW18715   2.589   6.056   3.883
 5939SOL    HW118716   2.629   5.965   3.873
 5939SOL    HW218717   2.490   6.048   3.896
 5940SOL     OW18718   4.124   5.121   3.266
 5940SOL    HW118719   4.160   5.131   3.359
 5940SOL    HW218720   4.142   5.204   3.214
 5941SOL     OW18721   5.252   3.367   2.645
 5941SOL    HW118722   5.213   3.345   2.555
 5941SOL    HW218723   5.332   3.426   2.633
 5942SOL     OW18724   5.668   3.839   6.864
 5942SOL    HW118725   5.667   3.758   6.923
 5942SOL    HW218726   5.668   3.921   6.920
 5943SOL     OW18727   3.289   3.531   6.120
 5943SOL    HW118728   3.325   3.589   6.048
 5943SOL    HW218729   3.317   3.436   6.104
 5944SOL     OW18730   0.274   2.288   0.076
 5944SOL    HW118731   0.313   2.200   0.100
 5944SOL    HW218732   0.342   2.360   0.089
 5945SOL     OW18733   0.085   5.046   5.052
 5945SOL    HW118734   0.184   5.059   5.053
 5945SOL    HW218735   0.059   4.995   4.970
 5946SOL     OW18736   3.467   4.134   0.055
 5946SOL    HW118737   3.386   4.188   0.079
 5946SOL    HW218738   3.546   4.194   0.050
 5947SOL     OW18739   3.342   3.770   3.098
 5947SOL    HW118740   3.429   3.726   3.120
 5947SOL    HW218741   3.280   3.761   3.176
 5948SOL     OW18742   4.172   4.705   2.521
 5948SOL    HW118743   4.250   4.649   2.494
 5948SOL    HW218744   4.126   4.740   2.439
 5949SOL     OW18745   5.270   4.849   1.550
 5949SOL    HW118746   5.333   4.798   1.609
 5949SOL    HW218747   5.321   4.923   1.505
 5950SOL     OW18748   5.696   2.091   4.742
 5950SOL    HW118749   5.737   2.088   4.832
 5950SOL    HW218750   5.644   2.176   4.731
 5951SOL     OW18751   1.019   5.658   4.797
 5951SOL    HW118752   0.920   5.653   4.810
 5951SOL    HW218753   1.039   5.721   4.722
 5952SOL     OW18754   4.689   5.843   3.379
 5952SOL    HW118755   4.653   5.832   3.472
 5952SOL    HW218756   4.683   5.940   3.353
 5953SOL     OW18757   7.003   4.512   5.301
 5953SOL    HW118758   7.012   4.413   5.285
 5953SOL    HW218759   6.910   4.532   5.329
 5954SOL     OW18760   6.476   5.205   4.950
 5954SOL    HW118761   6.407   5.262   4.995
 5954SOL    HW218762   6.540   5.170   5.018
 5955SOL     OW18763   4.877   5.380   1.883
 5955SOL    HW118764   4.842   5.292   1.914
 5955SOL    HW218765   4.808   5.451   1.898
 5956SOL     OW18766   5.384   2.106   3.973
 5956SOL    HW118767   5.457   2.084   3.908
 5956SOL    HW218768   5.315   2.035   3.972
 5957SOL     OW18769   3.259   1.689   4.611
 5957SOL    HW118770   3.196   1.611   4.608
 5957SOL    HW218771   3.321   1.685   4.533
 5958SOL     OW18772   4.015   0.327   2.954
 5958SOL    HW118773   4.050   0.416   2.926
 5958SOL    HW218774   4.026   0.262   2.878
 5959SOL     OW18775   4.432   3.011   5.648
 5959SOL    HW118776   4.373   2.964   5.582
 5959SOL    HW218777   4.528   2.987   5.629
 5960SOL     OW18778   3.515   5.998   4.414
 5960SOL    HW118779   3.519   5.899   4.428
 5960SOL    HW218780   3.596   6.040   4.455
 5961SOL     OW18781   4.699   1.394   2.506
 5961SOL    HW118782   4.693   1.492   2.489
 5961SOL    HW218783   4.776   1.375   2.566
 5962SOL     OW18784   5.183   6.014   6.450
 5962SOL    HW118785   5.184   5.948   6.525
 5962SOL    HW218786   5.096   6.063   6.449
 5963SOL     OW18787   3.201   3.953   6.629
 5963SOL    HW118788   3.169   3.892   6.556
 5963SOL    HW218789   3.301   3.952   6.631
 5964SOL     OW18790   1.658   6.447   4.787
 5964SOL    HW118791   1.563   6.460   4.760
 5964SOL    HW218792   1.667   6.360   4.837
 5965SOL     OW18793   2.341   1.298   0.392
 5965SOL    HW118794   2.412   1.328   0.328
 5965SOL    HW218795   2.278   1.236   0.345
 5966SOL     OW18796   2.004   6.356   6.388
 5966SOL    HW118797   2.076   6.410   6.345
 5966SOL    HW218798   1.918   6.372   6.341
 5967SOL     OW18799   2.674   0.567   6.002
 5967SOL    HW118800   2.736   0.645   6.001
 5967SOL    HW218801   2.580   0.599   5.986
 5968SOL     OW18802   5.145   2.151   6.829
 5968SOL    HW118803   5.131   2.104   6.916
 5968SOL    HW218804   5.090   2.107   6.758
 5969SOL     OW18805   6.442   0.758   6.787
 5969SOL    HW118806   6.534   0.779   6.753
 5969SOL    HW218807   6.383   0.837   6.770
 5970SOL     OW18808   6.874   5.219   1.654
 5970SOL    HW118809   6.911   5.211   1.561
 5970SOL    HW218810   6.784   5.261   1.651
 5971SOL     OW18811   0.102   0.358   1.015
 5971SOL    HW118812   0.190   0.316   0.989
 5971SOL    HW218813   0.065   0.310   1.095
 5972SOL     OW18814   4.716   5.644   6.274
 5972SOL    HW118815   4.791   5.708   6.290
 5972SOL    HW218816   4.740   5.581   6.200
 5973SOL     OW18817   1.432   2.678   3.036
 5973SOL    HW118818   1.463   2.760   2.990
 5973SOL    HW218819   1.497   2.652   3.107
 5974SOL     OW18820   5.215   6.492   0.191
 5974SOL    HW118821   5.157   6.534   0.260
 5974SOL    HW218822   5.311   6.504   0.216
 5975SOL     OW18823   4.452   6.927   0.636
 5975SOL    HW118824   4.408   6.872   0.707
 5975SOL    HW218825   4.400   6.920   0.551
 5976SOL     OW18826   3.993   2.909   5.461
 5976SOL    HW118827   3.960   2.993   5.504
 5976SOL    HW218828   4.092   2.913   5.452
 5977SOL     OW18829   0.819   5.695   0.514
 5977SOL    HW118830   0.740   5.635   0.502
 5977SOL    HW218831   0.861   5.712   0.426
 5978SOL     OW18832   3.449   5.709   1.653
 5978SOL    HW118833   3.394   5.656   1.719
 5978SOL    HW218834   3.504   5.776   1.703
 5979SOL     OW18835   6.495   0.259   2.049
 5979SOL    HW118836   6.485   0.286   2.144
 5979SOL    HW218837   6.484   0.160   2.042
 5980SOL     OW18838   4.089   3.475   1.297
 5980SOL    HW118839   4.002   3.432   1.272
 5980SOL    HW218840   4.099   3.561   1.246
 5981SOL     OW18841   5.020   1.817   0.355
 5981SOL    HW118842   4.990   1.862   0.439
 5981SOL    HW218843   4.940   1.787   0.303
 5982SOL     OW18844   6.121   2.006   2.645
 5982SOL    HW118845   6.065   1.983   2.565
 5982SOL    HW218846   6.209   2.041   2.614
 5983SOL     OW18847   1.139   1.362   4.353
 5983SOL    HW118848   1.196   1.404   4.424
 5983SOL    HW218849   1.197   1.306   4.294
 5984SOL     OW18850   5.139   6.470   3.375
 5984SOL    HW118851   5.106   6.565   3.371
 5984SOL    HW218852   5.092   6.422   3.449
 5985SOL     OW18853   0.037   2.962   3.254
 5985SOL    HW118854   0.059   2.989   3.161
 5985SOL    HW218855   6.976   2.998   3.279
 5986SOL     OW18856   3.419   3.915   5.237
 5986SOL    HW118857   3.432   4.010   5.266
 5986SOL    HW218858   3.325   3.903   5.206
 5987SOL     OW18859   5.142   0.367   4.092
 5987SOL    HW118860   5.086   0.295   4.052
 5987SOL    HW218861   5.089   0.452   4.097
 5988SOL     OW18862   4.728   0.501   5.797
 5988SOL    HW118863   4.761   0.439   5.726
 5988SOL    HW218864   4.780   0.586   5.795
 5989SOL     OW18865   2.081   5.497   6.188
 5989SOL    HW118866   2.172   5.486   6.228
 5989SOL    HW218867   2.057   5.414   6.137
 5990SOL     OW18868   3.414   3.635   0.520
 5990SOL    HW118869   3.444   3.576   0.444
 5990SOL    HW218870   3.351   3.584   0.578
 5991SOL     OW18871   4.176   5.973   6.809
 5991SOL    HW118872   4.259   6.009   6.852
 5991SOL    HW218873   4.133   6.045   6.755
 5992SOL     OW18874   3.734   0.307   1.831
 5992SOL    HW118875   3.657   0.292   1.770
 5992SOL    HW218876   3.703   0.301   1.926
 5993SOL     OW18877   4.170   4.141   5.936
 5993SOL    HW118878   4.164   4.047   5.903
 5993SOL    HW218879   4.123   4.149   6.024
 5994SOL     OW18880   6.666   2.263   6.870
 5994SOL    HW118881   6.760   2.248   6.902
 5994SOL    HW218882   6.617   2.319   6.937
 5995SOL     OW18883   4.879   3.112   2.248
 5995SOL    HW118884   4.821   3.191   2.267
 5995SOL    HW218885   4.862   3.079   2.155
 5996SOL     OW18886   0.966   5.980   1.249
 5996SOL    HW118887   1.046   6.038   1.234
 5996SOL    HW218888   0.913   6.016   1.325
 5997SOL     OW18889   1.198   5.524   2.505
 5997SOL    HW118890   1.146   5.603   2.538
 5997SOL    HW218891   1.246   5.547   2.421
 5998SOL     OW18892   6.454   1.658   2.151
 5998SOL    HW118893   6.470   1.754   2.174
 5998SOL    HW218894   6.520   1.629   2.081
 5999SOL     OW18895   2.822   3.069   1.532
 5999SOL    HW118896   2.744   3.118   1.493
 5999SOL    HW218897   2.790   2.985   1.576
 6000SOL     OW18898   1.125   6.212   0.079
 6000SOL    HW118899   1.190   6.284   0.103
 6000SOL    HW218900   1.058   6.247   0.014
 6001SOL     OW18901   6.740   5.342   6.422
 6001SOL    HW118902   6.775   5.250   6.437
 6001SOL    HW218903   6.674   5.364   6.495
 6002SOL     OW18904   6.097   6.859   6.262
 6002SOL    HW118905   6.168   6.888   6.325
 6002SOL    HW218906   6.116   6.897   6.171
 6003SOL     OW18907   5.800   1.825   5.229
 6003SOL    HW118908   5.788   1.923   5.245
 6003SOL    HW218909   5.715   1.777   5.251
 6004SOL     OW18910   6.642   3.283   3.636
 6004SOL    HW118911   6.722   3.342   3.622
 6004SOL    HW218912   6.670   3.200   3.684
 6005SOL     OW18913   5.637   5.148   4.798
 6005SOL    HW118914   5.695   5.086   4.745
 6005SOL    HW218915   5.577   5.198   4.736
 6006SOL     OW18916   2.340   0.360   4.896
 6006SOL    HW118917   2.417   0.415   4.864
 6006SOL    HW218918   2.359   0.326   4.988
 6007SOL     OW18919   6.674   3.069   5.868
 6007SOL    HW118920   6.732   3.145   5.838
 6007SOL    HW218921   6.616   3.040   5.793
 6008SOL     OW18922   2.593   4.924   6.002
 6008SOL    HW118923   2.639   4.911   5.914
 6008SOL    HW218924   2.510   4.869   6.005
 6009SOL     OW18925   3.715   0.158   4.038
 6009SOL    HW118926   3.697   0.198   3.948
 6009SOL    HW218927   3.628   0.142   4.085
 6010SOL     OW18928   0.591   4.528   3.656
 6010SOL    HW118929   0.577   4.621   3.621
 6010SOL    HW218930   0.612   4.466   3.579
 6011SOL     OW18931   5.677   3.209   3.375
 6011SOL    HW118932   5.622   3.205   3.292
 6011SOL    HW218933   5.620   3.237   3.452
 6012SOL     OW18934   6.115   0.598   0.659
 6012SOL    HW118935   6.199   0.573   0.611
 6012SOL    HW218936   6.127   0.582   0.757
 6013SOL     OW18937   4.767   0.961   2.939
 6013SOL    HW118938   4.685   1.018   2.940
 6013SOL    HW218939   4.844   1.013   2.975
 6014SOL     OW18940   3.738   4.068   3.730
 6014SOL    HW118941   3.750   4.132   3.806
 6014SOL    HW218942   3.747   3.974   3.763
 6015SOL     OW18943   6.104   3.982   4.702
 6015SOL    HW118944   6.046   3.925   4.759
 6015SOL    HW218945   6.152   4.049   4.758
 6016SOL     OW18946   6.481   1.364   6.235
 6016SOL    HW118947   6.427   1.395   6.313
 6016SOL    HW218948   6.449   1.409   6.151
 6017SOL     OW18949   6.353   4.877   4.287
 6017SOL    HW118950   6.411   4.881   4.206
 6017SOL    HW218951   6.280   4.945   4.280
 6018SOL     OW18952   3.290   1.472   5.991
 6018SOL    HW118953   3.369   1.526   5.960
 6018SOL    HW218954   3.270   1.494   6.086
 6019SOL     OW18955   0.760   3.191   4.934
 6019SOL    HW118956   0.752   3.095   4.908
 6019SOL    HW218957   0.788   3.198   5.029
 6020SOL     OW18958   0.649   5.156   0.211
 6020SOL    HW118959   0.697   5.204   0.284
 6020SOL    HW218960   0.714   5.133   0.138
 6021SOL     OW18961   4.509   0.505   3.098
 6021SOL    HW118962   4.597   0.457   3.096
 6021SOL    HW218963   4.509   0.570   3.174
 6022SOL     OW18964   6.907   1.922   3.406
 6022SOL    HW118965   6.842   1.977   3.458
 6022SOL    HW218966   7.000   1.955   3.422
 6023SOL     OW18967   4.970   1.024   1.795
 6023SOL    HW118968   4.921   0.951   1.843
 6023SOL    HW218969   5.047   1.054   1.851
 6024SOL     OW18970   0.923   4.934   1.474
 6024SOL    HW118971   1.017   4.904   1.488
 6024SOL    HW218972   0.861   4.871   1.522
 6025SOL     OW18973   3.127   2.152   3.411
 6025SOL    HW118974   3.174   2.076   3.368
 6025SOL    HW218975   3.114   2.132   3.508
 6026SOL     OW18976   0.201   5.833   4.992
 6026SOL    HW118977   0.292   5.834   4.953
 6026SOL    HW218978   0.144   5.767   4.942
 6027SOL     OW18979   6.964   3.366   6.048
 6027SOL    HW118980   0.004   3.300   6.078
 6027SOL    HW218981   6.909   3.326   5.976
 6028SOL     OW18982   5.623   4.541   1.134
 6028SOL    HW118983   5.604   4.571   1.040
 6028SOL    HW218984   5.638   4.443   1.136
 6029SOL     OW18985   2.919   6.656   3.860
 6029SOL    HW118986   2.845   6.700   3.809
 6029SOL    HW218987   2.986   6.725   3.888
 6030SOL     OW18988   4.582   4.817   4.007
 6030SOL    HW118989   4.664   4.760   4.016
 6030SOL    HW218990   4.519   4.796   4.082
 6031SOL     OW18991   3.089   5.810   3.919
 6031SOL    HW118992   3.080   5.779   4.013
 6031SOL    HW218993   3.130   5.738   3.863
 6032SOL     OW18994   2.327   5.159   2.814
 6032SOL    HW118995   2.362   5.234   2.869
 6032SOL    HW218996   2.402   5.099   2.786
 6033SOL     OW18997   2.188   3.085   2.852
 6033SOL    HW118998   2.106   3.027   2.854
 6033SOL    HW218999   2.256   3.047   2.915
 6034SOL     OW19000   1.219   1.084   5.572
 6034SOL    HW119001   1.265   1.036   5.647
 6034SOL    HW219002   1.282   1.152   5.534
 6035SOL     OW19003   1.695   1.259   1.763
 6035SOL    HW119004   1.736   1.216   1.683
 6035SOL    HW219005   1.672   1.354   1.741
 6036SOL     OW19006   5.182   5.052   2.292
 6036SOL    HW119007   5.149   4.997   2.370
 6036SOL    HW219008   5.106   5.069   2.229
 6037SOL     OW19009   3.844   0.320   0.855
 6037SOL    HW119010   3.886   0.344   0.768
 6037SOL    HW219011   3.818   0.403   0.904
 6038SOL     OW19012   1.595   2.588   6.271
 6038SOL    HW119013   1.529   2.592   6.346
 6038SOL    HW219014   1.564   2.646   6.196
 6039SOL     OW19015   3.863   3.360   2.837
 6039SOL    HW119016   3.839   3.352   2.740
 6039SOL    HW219017   3.931   3.291   2.861
 6040SOL     OW19018   1.357   1.418   1.331
 6040SOL    HW119019   1.284   1.352   1.348
 6040SOL    HW219020   1.445   1.375   1.351
 6041SOL     OW19021   2.718   1.916   5.008
 6041SOL    HW119022   2.675   1.880   4.925
 6041SOL    HW219023   2.661   1.989   5.045
 6042SOL     OW19024   4.148   6.927   2.919
 6042SOL    HW119025   4.233   6.918   2.867
 6042SOL    HW219026   4.158   6.999   2.988
 6043SOL     OW19027   0.793   0.046   5.079
 6043SOL    HW119028   0.700   0.074   5.053
 6043SOL    HW219029   0.853   0.051   5.000
 6044SOL     OW19030   2.184   2.607   1.660
 6044SOL    HW119031   2.255   2.591   1.591
 6044SOL    HW219032   2.218   2.670   1.730
 6045SOL     OW19033   5.507   3.650   3.558
 6045SOL    HW119034   5.565   3.639   3.477
 6045SOL    HW219035   5.559   3.628   3.640
 6046SOL     OW19036   3.153   2.690   1.196
 6046SOL    HW119037   3.134   2.621   1.265
 6046SOL    HW219038   3.104   2.669   1.112
 6047SOL     OW19039   5.208   2.034   1.633
 6047SOL    HW119040   5.275   2.082   1.689
 6047SOL    HW219041   5.241   1.942   1.611
 6048SOL     OW19042   4.786   5.042   5.141
 6048SOL    HW119043   4.777   5.116   5.208
 6048SOL    HW219044   4.806   4.956   5.188
 6049SOL     OW19045   4.430   4.465   6.687
 6049SOL    HW119046   4.487   4.482   6.767
 6049SOL    HW219047   4.340   4.433   6.716
 6050SOL     OW19048   2.191   5.477   6.644
 6050SOL    HW119049   2.214   5.380   6.645
 6050SOL    HW219050   2.114   5.492   6.581
 6051SOL     OW19051   2.132   0.141   2.940
 6051SOL    HW119052   2.189   0.214   2.903
 6051SOL    HW219053   2.073   0.105   2.867
 6052SOL     OW19054   4.990   1.380   1.334
 6052SOL    HW119055   5.009   1.429   1.249
 6052SOL    HW219056   4.895   1.393   1.360
 6053SOL     OW19057   4.420   0.805   6.025
 6053SOL    HW119058   4.435   0.718   5.979
 6053SOL    HW219059   4.446   0.880   5.964
 6054SOL     OW19060   2.360   3.448   0.094
 6054SOL    HW119061   2.448   3.443   0.046
 6054SOL    HW219062   2.303   3.518   0.052
 6055SOL     OW19063   5.102   6.052   5.100
 6055SOL    HW119064   5.159   5.983   5.145
 6055SOL    HW219065   5.094   6.132   5.159
 6056SOL     OW19066   4.683   3.347   5.330
 6056SOL    HW119067   4.765   3.339   5.388
 6056SOL    HW219068   4.692   3.427   5.271
 6057SOL     OW19069   6.899   0.914   2.294
 6057SOL    HW119070   6.884   1.012   2.301
 6057SOL    HW219071   6.995   0.896   2.269
 6058SOL     OW19072   5.169   3.449   0.643
 6058SOL    HW119073   5.249   3.437   0.583
 6058SOL    HW219074   5.173   3.540   0.685
 6059SOL     OW19075   4.710   5.067   6.047
 6059SOL    HW119076   4.745   5.151   6.089
 6059SOL    HW219077   4.610   5.073   6.041
 6060SOL     OW19078   2.439   3.260   6.284
 6060SOL    HW119079   2.359   3.286   6.231
 6060SOL    HW219080   2.427   3.289   6.379
 6061SOL     OW19081   5.301   3.955   0.020
 6061SOL    HW119082   5.276   3.954   0.117
 6061SOL    HW219083   5.389   3.909   0.008
 6062SOL     OW19084   2.506   1.079   5.851
 6062SOL    HW119085   2.593   1.118   5.821
 6062SOL    HW219086   2.436   1.151   5.852
 6063SOL     OW19087   4.592   2.548   6.047
 6063SOL    HW119088   4.534   2.599   5.984
 6063SOL    HW219089   4.630   2.611   6.115
 6064SOL     OW19090   1.747   0.657   1.146
 6064SOL    HW119091   1.710   0.748   1.128
 6064SOL    HW219092   1.746   0.640   1.245
 6065SOL     OW19093   0.931   6.003   2.830
 6065SOL    HW119094   0.858   5.959   2.777
 6065SOL    HW219095   0.969   6.079   2.777
 6066SOL     OW19096   5.410   0.938   5.680
 6066SOL    HW119097   5.367   1.021   5.644
 6066SOL    HW219098   5.345   0.891   5.740
 6067SOL     OW19099   4.935   0.448   5.096
 6067SOL    HW119100   4.844   0.409   5.088
 6067SOL    HW219101   4.929   0.548   5.095
 6068SOL     OW19102   4.770   2.975   4.857
 6068SOL    HW119103   4.830   3.030   4.799
 6068SOL    HW219104   4.733   2.898   4.804
 6069SOL     OW19105   5.939   3.543   4.977
 6069SOL    HW119106   5.950   3.455   5.023
 6069SOL    HW219107   5.871   3.534   4.904
 6070SOL     OW19108   2.765   2.689   1.270
 6070SOL    HW119109   2.731   2.624   1.339
 6070SOL    HW219110   2.865   2.687   1.269
 6071SOL     OW19111   0.311   6.119   4.702
 6071SOL    HW119112   0.370   6.151   4.627
 6071SOL    HW219113   0.236   6.065   4.664
 6072SOL     OW19114   0.397   0.453   1.581
 6072SOL    HW119115   0.359   0.378   1.528
 6072SOL    HW219116   0.469   0.498   1.529
 6073SOL     OW19117   5.206   3.150   0.677
 6073SOL    HW119118   5.158   3.206   0.609
 6073SOL    HW219119   5.223   3.205   0.759
 6074SOL     OW19120   1.412   5.625   2.303
 6074SOL    HW119121   1.490   5.645   2.362
 6074SOL    HW219122   1.411   5.690   2.226
 6075SOL     OW19123   4.622   6.722   5.717
 6075SOL    HW119124   4.532   6.683   5.737
 6075SOL    HW219125   4.660   6.763   5.800
 6076SOL     OW19126   3.013   4.806   3.055
 6076SOL    HW119127   3.022   4.893   3.005
 6076SOL    HW219128   3.084   4.801   3.125
 6077SOL     OW19129   6.252   5.285   1.387
 6077SOL    HW119130   6.200   5.237   1.316
 6077SOL    HW219131   6.191   5.346   1.438
 6078SOL     OW19132   5.140   5.016   0.022
 6078SOL    HW119133   5.094   4.927   0.027
 6078SOL    HW219134   5.205   5.015   6.976
 6079SOL     OW19135   5.037   3.790   5.454
 6079SOL    HW119136   4.954   3.791   5.399
 6079SOL    HW219137   5.016   3.820   5.547
 6080SOL     OW19138   0.393   5.791   0.887
 6080SOL    HW119139   0.378   5.866   0.822
 6080SOL    HW219140   0.490   5.786   0.911
 6081SOL     OW19141   0.068   2.405   5.769
 6081SOL    HW119142   0.027   2.462   5.697
 6081SOL    HW219143   0.001   2.336   5.799
 6082SOL     OW19144   3.056   0.137   2.773
 6082SOL    HW119145   3.077   0.092   2.686
 6082SOL    HW219146   3.137   0.184   2.806
 6083SOL     OW19147   6.212   5.954   0.211
 6083SOL    HW119148   6.274   5.934   0.287
 6083SOL    HW219149   6.265   5.978   0.130
 6084SOL     OW19150   0.906   0.014   2.547
 6084SOL    HW119151   0.916   6.944   2.541
 6084SOL    HW219152   0.982   0.057   2.498
 6085SOL     OW19153   0.397   0.084   0.021
 6085SOL    HW119154   0.496   0.088   0.032
 6085SOL    HW219155   0.372   0.000   7.001
 6086SOL     OW19156   2.745   1.843   5.727
 6086SOL    HW119157   2.817   1.870   5.792
 6086SOL    HW219158   2.704   1.926   5.688
 6087SOL     OW19159   3.620   6.107   1.609
 6087SOL    HW119160   3.545   6.165   1.578
 6087SOL    HW219161   3.680   6.086   1.531
 6088SOL     OW19162   5.546   6.962   4.213
 6088SOL    HW119163   5.567   6.911   4.130
 6088SOL    HW219164   5.511   6.900   4.283
 6089SOL     OW19165   5.766   2.227   2.644
 6089SOL    HW119166   5.787   2.163   2.570
 6089SOL    HW219167   5.775   2.321   2.610
 6090SOL     OW19168   2.294   5.158   4.349
 6090SOL    HW119169   2.381   5.111   4.332
 6090SOL    HW219170   2.290   5.185   4.445
 6091SOL     OW19171   2.624   1.519   6.727
 6091SOL    HW119172   2.698   1.506   6.661
 6091SOL    HW219173   2.556   1.446   6.714
 6092SOL     OW19174   4.201   1.018   2.879
 6092SOL    HW119175   4.245   0.951   2.939
 6092SOL    HW219176   4.116   1.050   2.921
 6093SOL     OW19177   2.302   2.750   2.191
 6093SOL    HW119178   2.392   2.709   2.208
 6093SOL    HW219179   2.255   2.699   2.119
 6094SOL     OW19180   1.342   6.024   3.215
 6094SOL    HW119181   1.325   6.004   3.119
 6094SOL    HW219182   1.354   6.122   3.227
 6095SOL     OW19183   4.737   4.755   0.003
 6095SOL    HW119184   4.682   4.792   6.957
 6095SOL    HW219185   4.831   4.790   7.025
 6096SOL     OW19186   6.373   0.071   2.830
 6096SOL    HW119187   6.349   0.065   2.927
 6096SOL    HW219188   6.470   0.094   2.822
 6097SOL     OW19189   1.734   5.559   2.201
 6097SOL    HW119190   1.832   5.555   2.185
 6097SOL    HW219191   1.686   5.511   2.127
 6098SOL     OW19192   0.336   1.477   5.469
 6098SOL    HW119193   0.351   1.574   5.455
 6098SOL    HW219194   0.271   1.443   5.401
 6099SOL     OW19195   5.217   5.803   5.799
 6099SOL    HW119196   5.303   5.848   5.777
 6099SOL    HW219197   5.141   5.858   5.765
 6100SOL     OW19198   5.736   5.972   1.670
 6100SOL    HW119199   5.746   6.003   1.576
 6100SOL    HW219200   5.639   5.972   1.695
 6101SOL     OW19201   0.166   3.034   3.017
 6101SOL    HW119202   0.151   2.964   2.946
 6101SOL    HW219203   0.189   3.121   2.974
 6102SOL     OW19204   3.702   5.678   3.185
 6102SOL    HW119205   3.791   5.693   3.229
 6102SOL    HW219206   3.696   5.583   3.155
 6103SOL     OW19207   5.649   1.667   1.704
 6103SOL    HW119208   5.743   1.700   1.718
 6103SOL    HW219209   5.637   1.581   1.752
 6104SOL     OW19210   5.283   6.915   5.255
 6104SOL    HW119211   5.279   6.933   5.353
 6104SOL    HW219212   5.363   6.859   5.235
 6105SOL     OW19213   2.450   5.559   6.524
 6105SOL    HW119214   2.437   5.599   6.433
 6105SOL    HW219215   2.384   5.486   6.538
 6106SOL     OW19216   1.816   4.715   5.919
 6106SOL    HW119217   1.861   4.647   5.862
 6106SOL    HW219218   1.769   4.670   5.995
 6107SOL     OW19219   4.660   5.845   5.023
 6107SOL    HW119220   4.598   5.832   5.101
 6107SOL    HW219221   4.749   5.804   5.043
 6108SOL     OW19222   2.417   2.620   2.760
 6108SOL    HW119223   2.428   2.618   2.860
 6108SOL    HW219224   2.349   2.689   2.736
 6109SOL     OW19225   5.574   1.577   5.033
 6109SOL    HW119226   5.637   1.500   5.042
 6109SOL    HW219227   5.481   1.546   5.057
 6110SOL     OW19228   2.745   3.808   1.030
 6110SOL    HW119229   2.697   3.774   1.111
 6110SOL    HW219230   2.708   3.764   0.949
 6111SOL     OW19231   1.344   3.244   2.219
 6111SOL    HW119232   1.348   3.331   2.170
 6111SOL    HW219233   1.356   3.169   2.155
 6112SOL     OW19234   3.586   0.258   2.378
 6112SOL    HW119235   3.524   0.208   2.438
 6112SOL    HW219236   3.596   0.352   2.411
 6113SOL     OW19237   2.697   2.040   6.081
 6113SOL    HW119238   2.776   2.012   6.026
 6113SOL    HW219239   2.618   1.983   6.058
 6114SOL     OW19240   5.368   4.202   2.621
 6114SOL    HW119241   5.450   4.233   2.572
 6114SOL    HW219242   5.287   4.246   2.582
 6115SOL     OW19243   6.288   0.251   4.445
 6115SOL    HW119244   6.304   0.294   4.534
 6115SOL    HW219245   6.194   0.272   4.415
 6116SOL     OW19246   3.930   1.847   6.184
 6116SOL    HW119247   3.865   1.920   6.203
 6116SOL    HW219248   3.924   1.820   6.088
 6117SOL     OW19249   2.078   1.669   3.620
 6117SOL    HW119250   2.090   1.608   3.542
 6117SOL    HW219251   2.000   1.729   3.603
 6118SOL     OW19252   5.527   0.830   1.022
 6118SOL    HW119253   5.624   0.833   1.043
 6118SOL    HW219254   5.497   0.922   0.995
 6119SOL     OW19255   0.939   3.692   0.338
 6119SOL    HW119256   0.924   3.663   0.432
 6119SOL    HW219257   1.030   3.730   0.329
 6120SOL     OW19258   2.505   6.452   5.875
 6120SOL    HW119259   2.523   6.409   5.963
 6120SOL    HW219260   2.567   6.530   5.862
 6121SOL     OW19261   0.989   3.694   5.065
 6121SOL    HW119262   0.986   3.688   4.965
 6121SOL    HW219263   0.938   3.617   5.104
 6122SOL     OW19264   3.782   5.110   0.338
 6122SOL    HW119265   3.878   5.135   0.352
 6122SOL    HW219266   3.730   5.132   0.421
 6123SOL     OW19267   5.057   6.690   6.288
 6123SOL    HW119268   5.065   6.636   6.372
 6123SOL    HW219269   4.961   6.697   6.262
 6124SOL     OW19270   1.449   6.842   5.737
 6124SOL    HW119271   1.538   6.818   5.696
 6124SOL    HW219272   1.448   6.814   5.833
 6125SOL     OW19273   1.812   3.977   0.365
 6125SOL    HW119274   1.818   3.909   0.292
 6125SOL    HW219275   1.864   3.945   0.444
 6126SOL     OW19276   6.933   1.088   4.158
 6126SOL    HW119277   6.842   1.058   4.133
 6126SOL    HW219278   6.938   1.188   4.155
 6127SOL     OW19279   3.073   6.918   0.966
 6127SOL    HW119280   3.005   6.845   0.958
 6127SOL    HW219281   3.030   7.000   1.004
 6128SOL     OW19282   6.162   5.243   0.425
 6128SOL    HW119283   6.257   5.244   0.393
 6128SOL    HW219284   6.142   5.329   0.472
 6129SOL     OW19285   0.163   2.860   2.451
 6129SOL    HW119286   0.164   2.891   2.546
 6129SOL    HW219287   0.190   2.764   2.448
 6130SOL     OW19288   4.978   2.251   2.291
 6130SOL    HW119289   5.063   2.269   2.241
 6130SOL    HW219290   4.967   2.321   2.363
 6131SOL     OW19291   0.906   1.617   3.934
 6131SOL    HW119292   0.961   1.573   4.005
 6131SOL    HW219293   0.964   1.678   3.879
 6132SOL     OW19294   4.119   1.884   6.881
 6132SOL    HW119295   4.113   1.852   6.787
 6132SOL    HW219296   4.047   1.842   6.936
 6133SOL     OW19297   2.119   3.707   3.260
 6133SOL    HW119298   2.180   3.745   3.330
 6133SOL    HW219299   2.036   3.672   3.304
 6134SOL     OW19300   4.390   6.133   6.980
 6134SOL    HW119301   4.354   6.222   7.008
 6134SOL    HW219302   4.464   6.146   6.914
 6135SOL     OW19303   0.460   6.146   1.181
 6135SOL    HW119304   0.500   6.187   1.099
 6135SOL    HW219305   0.493   6.052   1.192
 6136SOL     OW19306   1.424   2.808   1.788
 6136SOL    HW119307   1.428   2.828   1.690
 6136SOL    HW219308   1.476   2.724   1.806
 6137SOL     OW19309   6.751   3.872   2.079
 6137SOL    HW119310   6.801   3.896   2.162
 6137SOL    HW219311   6.813   3.877   2.000
 6138SOL     OW19312   3.991   0.059   2.748
 6138SOL    HW119313   3.897   0.023   2.750
 6138SOL    HW219314   4.053   7.020   2.788
 6139SOL     OW19315   0.925   0.245   5.704
 6139SOL    HW119316   0.835   0.257   5.746
 6139SOL    HW219317   0.955   0.331   5.664
 6140SOL     OW19318   1.205   0.250   2.088
 6140SOL    HW119319   1.171   0.281   1.999
 6140SOL    HW219320   1.240   0.328   2.139
 6141SOL     OW19321   0.525   0.003   5.899
 6141SOL    HW119322   0.500   0.075   5.965
 6141SOL    HW219323   0.473   6.950   5.920
 6142SOL     OW19324   6.892   5.979   6.114
 6142SOL    HW119325   6.884   5.936   6.204
 6142SOL    HW219326   6.953   6.058   6.120
 6143SOL     OW19327   6.683   3.556   1.340
 6143SOL    HW119328   6.726   3.473   1.305
 6143SOL    HW219329   6.589   3.561   1.304
 6144SOL     OW19330   5.362   4.911   4.287
 6144SOL    HW119331   5.300   4.950   4.355
 6144SOL    HW219332   5.456   4.915   4.321
 6145SOL     OW19333   5.397   4.959   4.029
 6145SOL    HW119334   5.453   4.893   3.980
 6145SOL    HW219335   5.394   4.936   4.126
 6146SOL     OW19336   3.415   5.439   3.994
 6146SOL    HW119337   3.493   5.382   3.968
 6146SOL    HW219338   3.425   5.469   4.089
 6147SOL     OW19339   2.397   2.552   5.011
 6147SOL    HW119340   2.457   2.613   5.063
 6147SOL    HW219341   2.307   2.549   5.055
 6148SOL     OW19342   4.085   6.691   4.788
 6148SOL    HW119343   4.067   6.655   4.697
 6148SOL    HW219344   4.005   6.741   4.821
 6149SOL     OW19345   2.352   6.778   1.420
 6149SOL    HW119346   2.254   6.758   1.424
 6149SOL    HW219347   2.404   6.696   1.443
 6150SOL     OW19348   6.192   4.653   0.500
 6150SOL    HW119349   6.262   4.722   0.485
 6150SOL    HW219350   6.215   4.571   0.447
 6151SOL     OW19351   6.518   4.762   6.144
 6151SOL    HW119352   6.507   4.673   6.101
 6151SOL    HW219353   6.428   4.803   6.161
 6152SOL     OW19354   0.757   5.945   4.464
 6152SOL    HW119355   0.691   5.885   4.418
 6152SOL    HW219356   0.849   5.924   4.431
 6153SOL     OW19357   5.438   4.151   1.567
 6153SOL    HW119358   5.398   4.238   1.594
 6153SOL    HW219359   5.477   4.159   1.476
 6154SOL     OW19360   6.051   2.593   2.503
 6154SOL    HW119361   6.084   2.499   2.491
 6154SOL    HW219362   5.971   2.608   2.444
 6155SOL     OW19363   1.885   1.159   3.368
 6155SOL    HW119364   1.983   1.144   3.382
 6155SOL    HW219365   1.833   1.089   3.418
 6156SOL     OW19366   4.765   4.574   2.203
 6156SOL    HW119367   4.768   4.515   2.121
 6156SOL    HW219368   4.858   4.587   2.237
 6157SOL     OW19369   6.422   1.945   3.538
 6157SOL    HW119370   6.339   1.989   3.503
 6157SOL    HW219371   6.431   1.854   3.498
 6158SOL     OW19372   3.886   2.295   6.932
 6158SOL    HW119373   3.856   2.305   6.838
 6158SOL    HW219374   3.820   2.238   6.982
 6159SOL     OW19375   4.341   1.885   0.863
 6159SOL    HW119376   4.283   1.911   0.786
 6159SOL    HW219377   4.436   1.910   0.843
 6160SOL     OW19378   5.648   0.290   6.990
 6160SOL    HW119379   5.656   0.196   7.022
 6160SOL    HW219380   5.625   0.290   6.892
 6161SOL     OW19381   5.536   2.208   6.599
 6161SOL    HW119382   5.548   2.307   6.604
 6161SOL    HW219383   5.612   2.162   6.644
 6162SOL     OW19384   6.258   6.986   3.834
 6162SOL    HW119385   6.187   6.917   3.821
 6162SOL    HW219386   6.239   0.035   3.774
 6163SOL     OW19387   5.756   6.039   1.409
 6163SOL    HW119388   5.673   6.081   1.372
 6163SOL    HW219389   5.830   6.047   1.342
 6164SOL     OW19390   3.306   3.881   3.907
 6164SOL    HW119391   3.363   3.963   3.903
 6164SOL    HW219392   3.249   3.883   3.989
 6165SOL     OW19393   3.863   1.576   6.531
 6165SOL    HW119394   3.863   1.595   6.433
 6165SOL    HW219395   3.934   1.508   6.552
 6166SOL     OW19396   5.450   1.517   6.889
 6166SOL    HW119397   5.468   1.515   6.987
 6166SOL    HW219398   5.426   1.610   6.862
 6167SOL     OW19399   0.827   4.780   2.982
 6167SOL    HW119400   0.756   4.849   2.998
 6167SOL    HW219401   0.914   4.811   3.020
 6168SOL     OW19402   1.905   3.362   3.340
 6168SOL    HW119403   1.920   3.264   3.327
 6168SOL    HW219404   1.917   3.409   3.253
 6169SOL     OW19405   1.434   1.912   0.514
 6169SOL    HW119406   1.353   1.856   0.536
 6169SOL    HW219407   1.458   1.899   0.418
 6170SOL     OW19408   2.590   3.895   5.608
 6170SOL    HW119409   2.642   3.816   5.577
 6170SOL    HW219410   2.527   3.867   5.681
 6171SOL     OW19411   1.607   3.486   0.992
 6171SOL    HW119412   1.581   3.582   0.995
 6171SOL    HW219413   1.689   3.472   1.048
 6172SOL     OW19414   1.468   1.402   3.719
 6172SOL    HW119415   1.524   1.452   3.785
 6172SOL    HW219416   1.523   1.379   3.639
 6173SOL     OW19417   6.472   5.360   2.659
 6173SOL    HW119418   6.453   5.326   2.567
 6173SOL    HW219419   6.571   5.372   2.670
 6174SOL     OW19420   5.941   5.563   3.382
 6174SOL    HW119421   5.890   5.589   3.301
 6174SOL    HW219422   5.998   5.483   3.361
 6175SOL     OW19423   4.669   0.876   3.281
 6175SOL    HW119424   4.616   0.920   3.208
 6175SOL    HW219425   4.667   0.777   3.269
 6176SOL     OW19426   6.038   2.981   6.689
 6176SOL    HW119427   6.079   2.906   6.636
 6176SOL    HW219428   6.042   2.959   6.786
 6177SOL     OW19429   4.905   0.985   1.508
 6177SOL    HW119430   4.824   1.043   1.515
 6177SOL    HW219431   4.944   0.971   1.599
 6178SOL     OW19432   4.970   4.711   3.200
 6178SOL    HW119433   4.935   4.622   3.231
 6178SOL    HW219434   4.935   4.783   3.260
 6179SOL     OW19435   6.316   4.829   4.714
 6179SOL    HW119436   6.290   4.860   4.805
 6179SOL    HW219437   6.329   4.730   4.715
 6180SOL     OW19438   3.899   5.492   0.341
 6180SOL    HW119439   3.882   5.573   0.396
 6180SOL    HW219440   3.837   5.491   0.262
 6181SOL     OW19441   4.189   6.621   0.579
 6181SOL    HW119442   4.138   6.668   0.651
 6181SOL    HW219443   4.126   6.594   0.506
 6182SOL     OW19444   5.670   3.480   6.006
 6182SOL    HW119445   5.646   3.575   5.986
 6182SOL    HW219446   5.756   3.457   5.960
 6183SOL     OW19447   1.731   0.473   3.099
 6183SOL    HW119448   1.810   0.412   3.091
 6183SOL    HW219449   1.747   0.539   3.173
 6184SOL     OW19450   1.603   6.691   6.357
 6184SOL    HW119451   1.697   6.663   6.376
 6184SOL    HW219452   1.598   6.791   6.350
 6185SOL     OW19453   6.760   3.573   6.573
 6185SOL    HW119454   6.818   3.545   6.650
 6185SOL    HW219455   6.724   3.665   6.590
 6186SOL     OW19456   6.254   6.888   5.773
 6186SOL    HW119457   6.301   6.958   5.719
 6186SOL    HW219458   6.159   6.879   5.741
 6187SOL     OW19459   4.301   5.104   3.490
 6187SOL    HW119460   4.393   5.133   3.463
 6187SOL    HW219461   4.301   5.007   3.513
 6188SOL     OW19462   2.360   0.050   0.757
 6188SOL    HW119463   2.395   6.993   0.791
 6188SOL    HW219464   2.367   0.052   0.657
 6189SOL     OW19465   4.801   4.014   4.174
 6189SOL    HW119466   4.861   4.047   4.246
 6189SOL    HW219467   4.850   3.947   4.118
 6190SOL     OW19468   6.802   3.803   5.818
 6190SOL    HW119469   6.820   3.898   5.792
 6190SOL    HW219470   6.795   3.796   5.917
 6191SOL     OW19471   3.941   2.668   6.774
 6191SOL    HW119472   3.962   2.671   6.872
 6191SOL    HW219473   4.026   2.652   6.723
 6192SOL     OW19474   2.948   2.986   6.556
 6192SOL    HW119475   2.967   3.063   6.617
 6192SOL    HW219476   3.020   2.980   6.487
 6193SOL     OW19477   5.428   0.962   2.400
 6193SOL    HW119478   5.516   0.945   2.356
 6193SOL    HW219479   5.443   1.001   2.491
 6194SOL     OW19480   1.619   0.017   0.897
 6194SOL    HW119481   1.678   0.071   0.957
 6194SOL    HW219482   1.543   7.009   0.949
 6195SOL     OW19483   4.097   6.490   5.441
 6195SOL    HW119484   4.126   6.502   5.347
 6195SOL    HW219485   4.114   6.574   5.492
 6196SOL     OW19486   5.918   2.187   1.310
 6196SOL    HW119487   5.987   2.117   1.330
 6196SOL    HW219488   5.861   2.200   1.390
 6197SOL     OW19489   4.613   4.681   0.807
 6197SOL    HW119490   4.637   4.643   0.896
 6197SOL    HW219491   4.697   4.702   0.757
 6198SOL     OW19492   3.440   5.941   2.376
 6198SOL    HW119493   3.484   5.915   2.290
 6198SOL    HW219494   3.499   6.005   2.426
 6199SOL     OW19495   1.225   0.784   0.891
 6199SOL    HW119496   1.155   0.778   0.963
 6199SOL    HW219497   1.294   0.713   0.905
 6200SOL     OW19498   1.745   1.415   5.242
 6200SOL    HW119499   1.757   1.428   5.340
 6200SOL    HW219500   1.774   1.497   5.193
 6201SOL     OW19501   1.157   3.890   4.836
 6201SOL    HW119502   1.104   3.805   4.833
 6201SOL    HW219503   1.233   3.880   4.901
 6202SOL     OW19504   4.146   1.796   2.505
 6202SOL    HW119505   4.204   1.715   2.492
 6202SOL    HW219506   4.081   1.803   2.430
 6203SOL     OW19507   6.483   6.943   3.678
 6203SOL    HW119508   6.409   6.951   3.745
 6203SOL    HW219509   6.567   6.980   3.717
 6204SOL     OW19510   1.576   5.633   4.384
 6204SOL    HW119511   1.603   5.720   4.427
 6204SOL    HW219512   1.657   5.590   4.343
 6205SOL     OW19513   6.385   5.962   7.021
 6205SOL    HW119514   6.343   6.053   7.020
 6205SOL    HW219515   6.393   5.928   6.928
 6206SOL     OW19516   6.897   0.850   2.616
 6206SOL    HW119517   6.890   0.844   2.517
 6206SOL    HW219518   6.985   0.893   2.640
 6207SOL     OW19519   1.536   5.346   4.482
 6207SOL    HW119520   1.549   5.416   4.552
 6207SOL    HW219521   1.605   5.274   4.494
 6208SOL     OW19522   5.616   1.640   6.431
 6208SOL    HW119523   5.623   1.712   6.363
 6208SOL    HW219524   5.532   1.651   6.484
 6209SOL     OW19525   4.776   5.489   0.205
 6209SOL    HW119526   4.823   5.538   0.131
 6209SOL    HW219527   4.838   5.424   0.248
 6210SOL     OW19528   5.118   3.821   3.436
 6210SOL    HW119529   5.175   3.856   3.362
 6210SOL    HW219530   5.171   3.819   3.521
 6211SOL     OW19531   3.178   6.236   5.868
 6211SOL    HW119532   3.211   6.213   5.777
 6211SOL    HW219533   3.107   6.307   5.861
 6212SOL     OW19534   2.128   4.986   3.407
 6212SOL    HW119535   2.216   4.956   3.371
 6212SOL    HW219536   2.103   5.073   3.365
 6213SOL     OW19537   5.643   0.048   6.735
 6213SOL    HW119538   5.656   0.012   6.828
 6213SOL    HW219539   5.547   0.041   6.710
 6214SOL     OW19540   4.624   4.934   4.521
 6214SOL    HW119541   4.679   4.989   4.459
 6214SOL    HW219542   4.569   4.994   4.579
 6215SOL     OW19543   4.614   1.179   1.465
 6215SOL    HW119544   4.548   1.105   1.469
 6215SOL    HW219545   4.579   1.253   1.408
 6216SOL     OW19546   6.114   1.646   2.015
 6216SOL    HW119547   6.017   1.663   1.996
 6216SOL    HW219548   6.170   1.705   1.957
 6217SOL     OW19549   0.557   2.988   2.114
 6217SOL    HW119550   0.511   3.076   2.126
 6217SOL    HW219551   0.548   2.934   2.199
 6218SOL     OW19552   4.191   5.450   5.847
 6218SOL    HW119553   4.225   5.371   5.797
 6218SOL    HW219554   4.181   5.426   5.944
 6219SOL     OW19555   0.481   2.345   4.216
 6219SOL    HW119556   0.523   2.430   4.248
 6219SOL    HW219557   0.472   2.347   4.117
 6220SOL     OW19558   1.521   2.628   5.217
 6220SOL    HW119559   1.466   2.553   5.180
 6220SOL    HW219560   1.474   2.715   5.201
 6221SOL     OW19561   5.704   5.920   0.228
 6221SOL    HW119562   5.758   5.970   0.161
 6221SOL    HW219563   5.766   5.869   0.289
 6222SOL     OW19564   0.646   6.251   0.945
 6222SOL    HW119565   0.698   6.184   0.999
 6222SOL    HW219566   0.682   6.253   0.851
 6223SOL     OW19567   0.334   5.146   4.201
 6223SOL    HW119568   0.367   5.055   4.226
 6223SOL    HW219569   0.234   5.147   4.207
 6224SOL     OW19570   2.254   1.778   5.978
 6224SOL    HW119571   2.198   1.857   5.955
 6224SOL    HW219572   2.203   1.694   5.960
 6225SOL     OW19573   3.620   3.812   0.152
 6225SOL    HW119574   3.578   3.774   0.070
 6225SOL    HW219575   3.702   3.864   0.127
 6226SOL     OW19576   5.939   1.489   5.037
 6226SOL    HW119577   5.942   1.480   4.937
 6226SOL    HW219578   5.853   1.452   5.071
 6227SOL     OW19579   3.772   5.971   5.594
 6227SOL    HW119580   3.834   5.892   5.598
 6227SOL    HW219581   3.817   6.046   5.545
 6228SOL     OW19582   0.919   2.559   3.474
 6228SOL    HW119583   0.936   2.467   3.437
 6228SOL    HW219584   0.977   2.573   3.554
 6229SOL     OW19585   6.822   2.078   3.165
 6229SOL    HW119586   6.847   2.009   3.232
 6229SOL    HW219587   6.724   2.098   3.174
 6230SOL     OW19588   1.291   1.215   3.842
 6230SOL    HW119589   1.193   1.236   3.845
 6230SOL    HW219590   1.337   1.280   3.780
 6231SOL     OW19591   6.042   5.150   1.252
 6231SOL    HW119592   5.947   5.178   1.267
 6231SOL    HW219593   6.054   5.126   1.156
 6232SOL     OW19594   6.876   0.892   0.635
 6232SOL    HW119595   6.972   0.884   0.659
 6232SOL    HW219596   6.822   0.826   0.688
 6233SOL     OW19597   6.335   0.752   0.445
 6233SOL    HW119598   6.276   0.799   0.511
 6233SOL    HW219599   6.406   0.815   0.414
 6234SOL     OW19600   5.867   1.486   5.714
 6234SOL    HW119601   5.790   1.504   5.652
 6234SOL    HW219602   5.905   1.572   5.745
 6235SOL     OW19603   1.314   0.033   1.668
 6235SOL    HW119604   1.399   0.030   1.721
 6235SOL    HW219605   1.245   7.005   1.713
 6236SOL     OW19606   0.703   3.858   0.641
 6236SOL    HW119607   0.664   3.796   0.709
 6236SOL    HW219608   0.774   3.914   0.683
 6237SOL     OW19609   3.505   6.841   0.176
 6237SOL    HW119610   3.563   6.870   0.100
 6237SOL    HW219611   3.513   6.742   0.188
 6238SOL     OW19612   4.392   4.925   2.586
 6238SOL    HW119613   4.352   4.861   2.652
 6238SOL    HW219614   4.491   4.911   2.582
 6239SOL     OW19615   2.879   6.981   2.384
 6239SOL    HW119616   2.860   0.014   2.460
 6239SOL    HW219617   2.960   7.013   2.335
 6240SOL     OW19618   2.430   3.535   6.155
 6240SOL    HW119619   2.349   3.476   6.156
 6240SOL    HW219620   2.469   3.540   6.247
 6241SOL     OW19621   3.998   0.242   1.862
 6241SOL    HW119622   3.906   0.269   1.889
 6241SOL    HW219623   4.047   0.207   1.942
 6242SOL     OW19624   5.332   1.218   3.417
 6242SOL    HW119625   5.247   1.190   3.462
 6242SOL    HW219626   5.388   1.138   3.398
 6243SOL     OW19627   6.058   6.845   4.080
 6243SOL    HW119628   6.033   6.828   3.985
 6243SOL    HW219629   6.091   6.939   4.090
 6244SOL     OW19630   0.761   2.723   2.574
 6244SOL    HW119631   0.829   2.791   2.603
 6244SOL    HW219632   0.767   2.643   2.635
 6245SOL     OW19633   1.720   3.732   0.250
 6245SOL    HW119634   1.705   3.634   0.263
 6245SOL    HW219635   1.720   3.753   0.152
 6246SOL     OW19636   2.132   1.994   5.628
 6246SOL    HW119637   2.071   2.067   5.598
 6246SOL    HW219638   2.121   1.914   5.570
 6247SOL     OW19639   1.390   6.266   4.584
 6247SOL    HW119640   1.451   6.190   4.606
 6247SOL    HW219641   1.383   6.276   4.485
 6248SOL     OW19642   3.409   3.200   0.334
 6248SOL    HW119643   3.491   3.239   0.375
 6248SOL    HW219644   3.433   3.119   0.281
 6249SOL     OW19645   0.369   3.854   0.877
 6249SOL    HW119646   0.278   3.895   0.868
 6249SOL    HW219647   0.360   3.755   0.885
 6250SOL     OW19648   6.684   6.278   7.009
 6250SOL    HW119649   6.737   6.205   6.964
 6250SOL    HW219650   6.731   6.365   6.998
 6251SOL     OW19651   4.166   5.298   7.014
 6251SOL    HW119652   4.160   5.376   0.046
 6251SOL    HW219653   4.244   5.310   6.953
 6252SOL     OW19654   1.538   6.760   5.372
 6252SOL    HW119655   1.587   6.673   5.363
 6252SOL    HW219656   1.455   6.747   5.426
 6253SOL     OW19657   2.029   3.986   2.828
 6253SOL    HW119658   2.062   3.915   2.891
 6253SOL    HW219659   2.004   3.943   2.741
 6254SOL     OW19660   5.174   1.637   0.867
 6254SOL    HW119661   5.162   1.542   0.896
 6254SOL    HW219662   5.111   1.696   0.918
 6255SOL     OW19663   2.953   0.233   0.781
 6255SOL    HW119664   2.999   0.173   0.847
 6255SOL    HW219665   2.854   0.226   0.793
 6256SOL     OW19666   3.436   5.231   2.178
 6256SOL    HW119667   3.454   5.299   2.107
 6256SOL    HW219668   3.352   5.254   2.227
 6257SOL     OW19669   4.987   2.445   7.018
 6257SOL    HW119670   5.052   2.373   6.997
 6257SOL    HW219671   5.027   2.509   0.054
 6258SOL     OW19672   4.046   6.961   3.869
 6258SOL    HW119673   3.972   6.912   3.823
 6258SOL    HW219674   4.105   6.895   3.916
 6259SOL     OW19675   2.414   2.537   0.663
 6259SOL    HW119676   2.399   2.547   0.565
 6259SOL    HW219677   2.403   2.625   0.708
 6260SOL     OW19678   3.216   5.495   0.769
 6260SOL    HW119679   3.236   5.590   0.746
 6260SOL    HW219680   3.232   5.437   0.689
 6261SOL     OW19681   4.163   0.644   6.643
 6261SOL    HW119682   4.119   0.563   6.604
 6261SOL    HW219683   4.153   0.721   6.580
 6262SOL     OW19684   2.042   6.078   0.541
 6262SOL    HW119685   2.074   6.146   0.476
 6262SOL    HW219686   1.987   6.009   0.494
 6263SOL     OW19687   6.546   0.449   5.016
 6263SOL    HW119688   6.467   0.476   4.961
 6263SOL    HW219689   6.578   0.528   5.069
 6264SOL     OW19690   1.474   6.564   2.322
 6264SOL    HW119691   1.378   6.560   2.351
 6264SOL    HW219692   1.530   6.597   2.398
 6265SOL     OW19693   3.525   4.015   0.321
 6265SOL    HW119694   3.474   4.081   0.267
 6265SOL    HW219695   3.562   3.944   0.260
 6266SOL     OW19696   3.894   0.926   4.679
 6266SOL    HW119697   3.929   0.903   4.770
 6266SOL    HW219698   3.834   0.852   4.647
 6267SOL     OW19699   2.363   0.579   6.835
 6267SOL    HW119700   2.362   0.539   6.927
 6267SOL    HW219701   2.458   0.587   6.804
 6268SOL     OW19702   3.179   6.906   3.669
 6268SOL    HW119703   3.252   6.974   3.659
 6268SOL    HW219704   3.149   6.904   3.764
 6269SOL     OW19705   0.062   6.480   1.542
 6269SOL    HW119706   0.093   6.397   1.588
 6269SOL    HW219707   0.104   6.486   1.451
 6270SOL     OW19708   1.760   0.406   5.321
 6270SOL    HW119709   1.823   0.481   5.302
 6270SOL    HW219710   1.805   0.338   5.379
 6271SOL     OW19711   6.443   1.878   6.804
 6271SOL    HW119712   6.542   1.882   6.820
 6271SOL    HW219713   6.423   1.908   6.711
 6272SOL     OW19714   0.287   2.215   6.807
 6272SOL    HW119715   0.363   2.184   6.864
 6272SOL    HW219716   0.236   2.286   6.856
 6273SOL     OW19717   1.641   6.527   2.766
 6273SOL    HW119718   1.709   6.573   2.823
 6273SOL    HW219719   1.602   6.593   2.701
 6274SOL     OW19720   2.886   5.416   6.101
 6274SOL    HW119721   2.945   5.485   6.143
 6274SOL    HW219722   2.942   5.340   6.068
 6275SOL     OW19723   2.056   6.429   5.433
 6275SOL    HW119724   1.967   6.405   5.395
 6275SOL    HW219725   2.044   6.463   5.527
 6276SOL     OW19726   2.429   4.402   2.849
 6276SOL    HW119727   2.406   4.444   2.761
 6276SOL    HW219728   2.384   4.313   2.857
 6277SOL     OW19729   5.554   3.415   1.855
 6277SOL    HW119730   5.496   3.343   1.817
 6277SOL    HW219731   5.508   3.458   1.932
 6278SOL     OW19732   5.389   6.385   4.480
 6278SOL    HW119733   5.298   6.343   4.485
 6278SOL    HW219734   5.382   6.482   4.504
 6279SOL     OW19735   4.255   0.453   6.981
 6279SOL    HW119736   4.213   0.393   0.020
 6279SOL    HW219737   4.348   0.477   7.010
 6280SOL     OW19738   1.101   2.096   5.457
 6280SOL    HW119739   1.029   2.067   5.520
 6280SOL    HW219740   1.092   2.194   5.438
 6281SOL     OW19741   0.965   5.368   3.657
 6281SOL    HW119742   0.922   5.288   3.699
 6281SOL    HW219743   0.906   5.404   3.585
 6282SOL     OW19744   1.319   6.472   4.904
 6282SOL    HW119745   1.247   6.466   4.973
 6282SOL    HW219746   1.376   6.552   4.922
 6283SOL     OW19747   6.925   3.140   5.568
 6283SOL    HW119748   6.900   3.044   5.581
 6283SOL    HW219749   6.978   3.150   5.484
 6284SOL     OW19750   2.031   5.484   4.708
 6284SOL    HW119751   2.070   5.574   4.687
 6284SOL    HW219752   1.933   5.494   4.725
 6285SOL     OW19753   7.020   3.585   4.807
 6285SOL    HW119754   6.959   3.520   4.853
 6285SOL    HW219755   0.085   3.552   4.813
 6286SOL     OW19756   5.822   1.710   3.436
 6286SOL    HW119757   5.900   1.757   3.395
 6286SOL    HW219758   5.742   1.719   3.377
 6287SOL     OW19759   3.704   4.875   3.866
 6287SOL    HW119760   3.617   4.849   3.823
 6287SOL    HW219761   3.778   4.819   3.828
 6288SOL     OW19762   4.834   4.464   2.536
 6288SOL    HW119763   4.816   4.366   2.524
 6288SOL    HW219764   4.750   4.510   2.562
 6289SOL     OW19765   1.888   4.553   1.560
 6289SOL    HW119766   1.895   4.469   1.507
 6289SOL    HW219767   1.973   4.605   1.553
 6290SOL     OW19768   6.951   4.611   5.052
 6290SOL    HW119769   6.958   4.591   5.149
 6290SOL    HW219770   7.017   4.555   5.002
 6291SOL     OW19771   3.629   3.377   4.678
 6291SOL    HW119772   3.697   3.355   4.749
 6291SOL    HW219773   3.662   3.453   4.623
 6292SOL     OW19774   1.357   2.687   4.354
 6292SOL    HW119775   1.430   2.744   4.393
 6292SOL    HW219776   1.383   2.661   4.261
 6293SOL     OW19777   3.503   1.186   0.216
 6293SOL    HW119778   3.556   1.130   0.153
 6293SOL    HW219779   3.466   1.265   0.167
 6294SOL     OW19780   3.820   4.966   4.898
 6294SOL    HW119781   3.803   4.998   4.805
 6294SOL    HW219782   3.733   4.964   4.949
 6295SOL     OW19783   5.645   4.833   6.043
 6295SOL    HW119784   5.719   4.767   6.054
 6295SOL    HW219785   5.673   4.921   6.080
 6296SOL     OW19786   0.475   0.216   6.084
 6296SOL    HW119787   0.489   0.314   6.069
 6296SOL    HW219788   0.377   0.197   6.086
 6297SOL     OW19789   4.749   6.567   4.383
 6297SOL    HW119790   4.765   6.666   4.381
 6297SOL    HW219791   4.661   6.548   4.426
 6298SOL     OW19792   1.248   2.816   6.518
 6298SOL    HW119793   1.325   2.821   6.582
 6298SOL    HW219794   1.164   2.837   6.566
 6299SOL     OW19795   5.402   1.779   6.827
 6299SOL    HW119796   5.408   1.858   6.765
 6299SOL    HW219797   5.437   1.804   6.917
 6300SOL     OW19798   6.307   0.458   0.519
 6300SOL    HW119799   6.278   0.418   0.432
 6300SOL    HW219800   6.340   0.552   0.503
 6301SOL     OW19801   4.024   0.651   0.173
 6301SOL    HW119802   3.939   0.672   0.221
 6301SOL    HW219803   4.075   0.581   0.224
 6302SOL     OW19804   2.057   0.687   3.447
 6302SOL    HW119805   2.099   0.733   3.526
 6302SOL    HW219806   2.060   0.748   3.368
 6303SOL     OW19807   1.553   1.757   4.400
 6303SOL    HW119808   1.581   1.825   4.467
 6303SOL    HW219809   1.460   1.777   4.369
 6304SOL     OW19810   2.548   0.959   1.437
 6304SOL    HW119811   2.499   0.990   1.519
 6304SOL    HW219812   2.645   0.984   1.444
 6305SOL     OW19813   6.263   6.878   1.642
 6305SOL    HW119814   6.241   6.958   1.586
 6305SOL    HW219815   6.179   6.843   1.684
 6306SOL     OW19816   0.584   4.403   4.224
 6306SOL    HW119817   0.537   4.317   4.204
 6306SOL    HW219818   0.643   4.428   4.147
 6307SOL     OW19819   4.133   4.168   5.457
 6307SOL    HW119820   4.121   4.128   5.366
 6307SOL    HW219821   4.046   4.166   5.506
 6308SOL     OW19822   1.651   2.748   4.388
 6308SOL    HW119823   1.653   2.743   4.288
 6308SOL    HW219824   1.717   2.683   4.426
 6309SOL     OW19825   5.103   4.788   5.465
 6309SOL    HW119826   5.152   4.842   5.533
 6309SOL    HW219827   5.166   4.764   5.391
 6310SOL     OW19828   1.608   6.027   2.985
 6310SOL    HW119829   1.589   5.968   2.906
 6310SOL    HW219830   1.574   5.982   3.068
 6311SOL     OW19831   4.487   0.881   5.619
 6311SOL    HW119832   4.478   0.805   5.554
 6311SOL    HW219833   4.477   0.846   5.712
 6312SOL     OW19834   6.264   5.699   5.720
 6312SOL    HW119835   6.234   5.611   5.758
 6312SOL    HW219836   6.228   5.709   5.627
 6313SOL     OW19837   1.394   6.692   4.256
 6313SOL    HW119838   1.475   6.657   4.304
 6313SOL    HW219839   1.365   6.627   4.186
 6314SOL     OW19840   3.412   6.352   1.266
 6314SOL    HW119841   3.417   6.309   1.176
 6314SOL    HW219842   3.421   6.451   1.257
 6315SOL     OW19843   1.945   2.785   5.372
 6315SOL    HW119844   2.032   2.784   5.421
 6315SOL    HW219845   1.907   2.692   5.370
 6316SOL     OW19846   4.314   1.292   6.729
 6316SOL    HW119847   4.404   1.331   6.748
 6316SOL    HW219848   4.262   1.287   6.814
 6317SOL     OW19849   4.536   5.787   2.674
 6317SOL    HW119850   4.593   5.759   2.597
 6317SOL    HW219851   4.446   5.815   2.641
 6318SOL     OW19852   3.797   1.404   4.783
 6318SOL    HW119853   3.860   1.336   4.745
 6318SOL    HW219854   3.790   1.393   4.882
 6319SOL     OW19855   6.605   1.579   4.494
 6319SOL    HW119856   6.522   1.631   4.472
 6319SOL    HW219857   6.580   1.487   4.522
 6320SOL     OW19858   5.473   5.808   5.361
 6320SOL    HW119859   5.399   5.838   5.421
 6320SOL    HW219860   5.508   5.720   5.393
 6321SOL     OW19861   3.246   3.491   0.698
 6321SOL    HW119862   3.275   3.517   0.790
 6321SOL    HW219863   3.158   3.535   0.677
 6322SOL     OW19864   1.660   2.202   0.010
 6322SOL    HW119865   1.616   2.211   0.099
 6322SOL    HW219866   1.734   2.136   0.015
 6323SOL     OW19867   3.307   2.532   1.744
 6323SOL    HW119868   3.370   2.563   1.673
 6323SOL    HW219869   3.345   2.451   1.788
 6324SOL     OW19870   5.090   7.003   6.459
 6324SOL    HW119871   5.123   6.976   6.368
 6324SOL    HW219872   5.121   0.066   6.479
 6325SOL     OW19873   2.299   1.895   2.453
 6325SOL    HW119874   2.336   1.819   2.505
 6325SOL    HW219875   2.344   1.900   2.364
 6326SOL     OW19876   4.681   4.743   1.911
 6326SOL    HW119877   4.636   4.766   1.998
 6326SOL    HW219878   4.648   4.653   1.880
 6327SOL     OW19879   6.893   0.197   4.754
 6327SOL    HW119880   6.946   0.218   4.836
 6327SOL    HW219881   6.856   0.105   4.761
 6328SOL     OW19882   3.034   2.916   0.858
 6328SOL    HW119883   2.992   2.993   0.907
 6328SOL    HW219884   2.991   2.907   0.768
 6329SOL     OW19885   2.124   2.752   3.867
 6329SOL    HW119886   2.164   2.843   3.856
 6329SOL    HW219887   2.094   2.740   3.962
 6330SOL     OW19888   4.606   0.789   1.115
 6330SOL    HW119889   4.518   0.788   1.161
 6330SOL    HW219890   4.622   0.700   1.072
 6331SOL     OW19891   6.367   2.485   6.413
 6331SOL    HW119892   6.368   2.525   6.321
 6331SOL    HW219893   6.461   2.462   6.440
 6332SOL     OW19894   6.353   3.298   1.390
 6332SOL    HW119895   6.421   3.352   1.439
 6332SOL    HW219896   6.380   3.288   1.294
 6333SOL     OW19897   4.836   5.670   5.366
 6333SOL    HW119898   4.814   5.573   5.378
 6333SOL    HW219899   4.752   5.724   5.371
 6334SOL     OW19900   3.298   0.501   1.656
 6334SOL    HW119901   3.274   0.439   1.730
 6334SOL    HW219902   3.230   0.574   1.650
 6335SOL     OW19903   4.401   1.165   0.624
 6335SOL    HW119904   4.446   1.162   0.535
 6335SOL    HW219905   4.403   1.073   0.664
 6336SOL     OW19906   0.702   2.334   5.769
 6336SOL    HW119907   0.712   2.348   5.867
 6336SOL    HW219908   0.621   2.383   5.737
 6337SOL     OW19909   5.203   4.100   6.156
 6337SOL    HW119910   5.203   4.197   6.131
 6337SOL    HW219911   5.215   4.091   6.255
 6338SOL     OW19912   3.657   1.806   4.354
 6338SOL    HW119913   3.721   1.753   4.410
 6338SOL    HW219914   3.665   1.903   4.379
 6339SOL     OW19915   1.574   4.029   2.899
 6339SOL    HW119916   1.507   4.099   2.925
 6339SOL    HW219917   1.652   4.033   2.961
 6340SOL     OW19918   1.771   5.086   3.017
 6340SOL    HW119919   1.733   5.097   2.925
 6340SOL    HW219920   1.850   5.025   3.014
 6341SOL     OW19921   1.044   4.299   4.610
 6341SOL    HW119922   1.115   4.336   4.671
 6341SOL    HW219923   1.004   4.217   4.652
 6342SOL     OW19924   1.997   1.378   1.765
 6342SOL    HW119925   1.934   1.438   1.814
 6342SOL    HW219926   2.091   1.396   1.794
 6343SOL     OW19927   4.728   1.958   6.491
 6343SOL    HW119928   4.693   1.911   6.572
 6343SOL    HW219929   4.677   1.928   6.411
 6344SOL     OW19930   5.697   3.018   5.491
 6344SOL    HW119931   5.731   3.004   5.398
 6344SOL    HW219932   5.610   2.970   5.502
 6345SOL     OW19933   5.580   2.804   2.251
 6345SOL    HW119934   5.562   2.781   2.347
 6345SOL    HW219935   5.548   2.729   2.192
 6346SOL     OW19936   6.789   4.569   3.580
 6346SOL    HW119937   6.741   4.561   3.493
 6346SOL    HW219938   6.882   4.604   3.564
 6347SOL     OW19939   2.417   0.444   0.563
 6347SOL    HW119940   2.465   0.366   0.601
 6347SOL    HW219941   2.318   0.430   0.569
 6348SOL     OW19942   0.780   4.283   5.481
 6348SOL    HW119943   0.863   4.316   5.436
 6348SOL    HW219944   0.797   4.275   5.579
 6349SOL     OW19945   2.451   0.413   1.680
 6349SOL    HW119946   2.476   0.500   1.638
 6349SOL    HW219947   2.531   0.354   1.684
 6350SOL     OW19948   2.282   4.985   4.128
 6350SOL    HW119949   2.251   5.048   4.199
 6350SOL    HW219950   2.348   5.031   4.069
 6351SOL     OW19951   6.419   3.539   3.378
 6351SOL    HW119952   6.410   3.440   3.394
 6351SOL    HW219953   6.343   3.586   3.423
 6352SOL     OW19954   3.778   5.834   4.638
 6352SOL    HW119955   3.705   5.766   4.637
 6352SOL    HW219956   3.741   5.924   4.617
 6353SOL     OW19957   0.448   0.496   6.037
 6353SOL    HW119958   0.409   0.536   6.120
 6353SOL    HW219959   0.409   0.541   5.957
 6354SOL     OW19960   1.701   5.954   3.296
 6354SOL    HW119961   1.762   5.924   3.369
 6354SOL    HW219962   1.672   5.875   3.242
 6355SOL     OW19963   0.704   5.086   6.457
 6355SOL    HW119964   0.738   5.156   6.520
 6355SOL    HW219965   0.649   5.020   6.507
 6356SOL     OW19966   4.082   5.698   1.958
 6356SOL    HW119967   4.035   5.620   2.001
 6356SOL    HW219968   4.014   5.762   1.923
 6357SOL     OW19969   5.496   3.296   2.279
 6357SOL    HW119970   5.579   3.266   2.231
 6357SOL    HW219971   5.426   3.226   2.272
 6358SOL     OW19972   0.776   1.806   6.401
 6358SOL    HW119973   0.807   1.815   6.306
 6358SOL    HW219974   0.849   1.835   6.463
 6359SOL     OW19975   5.844   6.744   6.383
 6359SOL    HW119976   5.824   6.764   6.478
 6359SOL    HW219977   5.928   6.791   6.356
 6360SOL     OW19978   1.352   4.015   3.854
 6360SOL    HW119979   1.319   3.952   3.784
 6360SOL    HW219980   1.443   3.987   3.884
 6361SOL     OW19981   6.171   6.943   0.720
 6361SOL    HW119982   6.270   6.926   0.718
 6361SOL    HW219983   6.154   0.004   0.759
 6362SOL     OW19984   0.542   6.459   0.286
 6362SOL    HW119985   0.458   6.469   0.234
 6362SOL    HW219986   0.601   6.539   0.270
 6363SOL     OW19987   2.528   4.508   3.506
 6363SOL    HW119988   2.606   4.570   3.502
 6363SOL    HW219989   2.511   4.470   3.415
 6364SOL     OW19990   3.235   1.181   5.979
 6364SOL    HW119991   3.242   1.281   5.971
 6364SOL    HW219992   3.315   1.146   6.027
 6365SOL     OW19993   5.418   0.093   3.951
 6365SOL    HW119994   5.502   0.125   3.908
 6365SOL    HW219995   5.404   0.142   4.037
 6366SOL     OW19996   0.903   6.325   5.625
 6366SOL    HW119997   0.902   6.342   5.527
 6366SOL    HW219998   0.811   6.300   5.655
 6367SOL     OW19999   4.000   0.854   4.940
 6367SOL    HW120000   4.095   0.832   4.960
 6367SOL    HW220001   3.941   0.816   5.012
 6368SOL     OW20002   3.699   4.930   3.499
 6368SOL    HW120003   3.791   4.906   3.529
 6368SOL    HW220004   3.695   4.933   3.399
 6369SOL     OW20005   2.021   5.199   3.776
 6369SOL    HW120006   2.041   5.237   3.867
 6369SOL    HW220007   2.101   5.150   3.742
 6370SOL     OW20008   0.549   3.251   3.055
 6370SOL    HW120009   0.544   3.350   3.067
 6370SOL    HW220010   0.542   3.228   2.958
 6371SOL     OW20011   5.263   4.223   4.090
 6371SOL    HW120012   5.344   4.179   4.051
 6371SOL    HW220013   5.291   4.301   4.146
 6372SOL     OW20014   2.328   0.163   2.169
 6372SOL    HW120015   2.252   0.205   2.218
 6372SOL    HW220016   2.302   0.071   2.140
 6373SOL     OW20017   4.960   4.345   3.074
 6373SOL    HW120018   4.960   4.352   2.975
 6373SOL    HW220019   4.867   4.327   3.107
 6374SOL     OW20020   3.014   3.937   4.057
 6374SOL    HW120021   2.949   3.881   4.109
 6374SOL    HW220022   3.053   4.007   4.116
 6375SOL     OW20023   6.433   1.754   4.049
 6375SOL    HW120024   6.530   1.777   4.062
 6375SOL    HW220025   6.397   1.807   3.972
 6376SOL     OW20026   6.021   2.738   4.698
 6376SOL    HW120027   6.015   2.769   4.603
 6376SOL    HW220028   5.957   2.662   4.711
 6377SOL     OW20029   6.114   1.733   5.699
 6377SOL    HW120030   6.190   1.672   5.677
 6377SOL    HW220031   6.064   1.755   5.615
 6378SOL     OW20032   4.855   5.350   3.963
 6378SOL    HW120033   4.900   5.428   3.920
 6378SOL    HW220034   4.771   5.328   3.912
 6379SOL     OW20035   1.592   3.826   3.900
 6379SOL    HW120036   1.589   3.771   3.984
 6379SOL    HW220037   1.680   3.872   3.894
 6380SOL     OW20038   0.367   1.958   6.034
 6380SOL    HW120039   0.383   2.033   6.099
 6380SOL    HW220040   0.364   1.872   6.084
 6381SOL     OW20041   3.339   3.145   1.667
 6381SOL    HW120042   3.405   3.165   1.595
 6381SOL    HW220043   3.367   3.190   1.751
 6382SOL     OW20044   1.185   1.311   1.042
 6382SOL    HW120045   1.172   1.356   0.954
 6382SOL    HW220046   1.101   1.265   1.070
 6383SOL     OW20047   1.449   1.642   3.021
 6383SOL    HW120048   1.539   1.647   3.065
 6383SOL    HW220049   1.428   1.546   3.001
 6384SOL     OW20050   5.924   3.780   1.745
 6384SOL    HW120051   5.908   3.861   1.689
 6384SOL    HW220052   5.836   3.736   1.766
 6385SOL     OW20053   6.997   4.752   3.536
 6385SOL    HW120054   6.995   4.829   3.473
 6385SOL    HW220055   0.053   4.753   3.587
 6386SOL     OW20056   2.189   4.408   5.991
 6386SOL    HW120057   2.159   4.312   5.986
 6386SOL    HW220058   2.110   4.468   5.980
 6387SOL     OW20059   0.947   1.593   6.655
 6387SOL    HW120060   1.034   1.598   6.608
 6387SOL    HW220061   0.879   1.549   6.597
 6388SOL     OW20062   4.130   4.624   1.200
 6388SOL    HW120063   4.034   4.597   1.197
 6388SOL    HW220064   4.185   4.555   1.153
 6389SOL     OW20065   0.763   6.135   2.597
 6389SOL    HW120066   0.754   6.199   2.520
 6389SOL    HW220067   0.860   6.128   2.622
 6390SOL     OW20068   0.498   2.007   5.431
 6390SOL    HW120069   0.502   2.048   5.340
 6390SOL    HW220070   0.530   1.913   5.427
 6391SOL     OW20071   2.454   0.235   6.038
 6391SOL    HW120072   2.429   0.159   6.097
 6391SOL    HW220073   2.424   0.216   5.944
 6392SOL     OW20074   2.453   6.674   3.210
 6392SOL    HW120075   2.501   6.762   3.213
 6392SOL    HW220076   2.396   6.664   3.292
 6393SOL     OW20077   6.809   6.852   1.919
 6393SOL    HW120078   6.797   6.949   1.942
 6393SOL    HW220079   6.725   6.818   1.876
 6394SOL     OW20080   2.075   4.702   0.893
 6394SOL    HW120081   2.054   4.674   0.986
 6394SOL    HW220082   2.161   4.661   0.864
 6395SOL     OW20083   6.777   2.437   1.045
 6395SOL    HW120084   6.759   2.371   0.973
 6395SOL    HW220085   6.727   2.412   1.128
 6396SOL     OW20086   4.917   3.400   6.155
 6396SOL    HW120087   4.823   3.373   6.176
 6396SOL    HW220088   4.927   3.412   6.056
 6397SOL     OW20089   5.612   2.472   6.599
 6397SOL    HW120090   5.571   2.563   6.594
 6397SOL    HW220091   5.710   2.479   6.618
 6398SOL     OW20092   3.182   0.451   0.400
 6398SOL    HW120093   3.194   0.362   0.356
 6398SOL    HW220094   3.190   0.441   0.499
 6399SOL     OW20095   0.965   5.819   6.379
 6399SOL    HW120096   1.033   5.753   6.412
 6399SOL    HW220097   1.006   5.911   6.377
 6400SOL     OW20098   2.149   6.256   1.881
 6400SOL    HW120099   2.092   6.244   1.800
 6400SOL    HW220100   2.218   6.183   1.884
 6401SOL     OW20101   0.055   4.999   3.730
 6401SOL    HW120102   0.128   5.014   3.796
 6401SOL    HW220103   0.035   4.901   3.724
 6402SOL     OW20104   4.011   1.492   2.556
 6402SOL    HW120105   4.033   1.586   2.528
 6402SOL    HW220106   4.010   1.433   2.475
 6403SOL     OW20107   6.743   6.721   6.225
 6403SOL    HW120108   6.755   6.621   6.229
 6403SOL    HW220109   6.829   6.766   6.250
 6404SOL     OW20110   4.417   1.681   2.186
 6404SOL    HW120111   4.437   1.777   2.166
 6404SOL    HW220112   4.337   1.675   2.247
 6405SOL     OW20113   2.977   0.433   3.764
 6405SOL    HW120114   3.063   0.400   3.804
 6405SOL    HW220115   2.997   0.495   3.688
 6406SOL     OW20116   1.080   2.399   3.048
 6406SOL    HW120117   1.069   2.497   3.029
 6406SOL    HW220118   1.037   2.346   2.975
 6407SOL     OW20119   2.604   6.180   4.136
 6407SOL    HW120120   2.694   6.214   4.162
 6407SOL    HW220121   2.609   6.136   4.046
 6408SOL     OW20122   5.972   2.200   0.789
 6408SOL    HW120123   5.945   2.293   0.811
 6408SOL    HW220124   5.940   2.138   0.860
 6409SOL     OW20125   6.655   4.524   3.334
 6409SOL    HW120126   6.698   4.553   3.249
 6409SOL    HW220127   6.644   4.424   3.333
 6410SOL     OW20128   1.714   1.492   0.613
 6410SOL    HW120129   1.722   1.592   0.604
 6410SOL    HW220130   1.672   1.455   0.530
 6411SOL     OW20131   0.540   2.730   3.144
 6411SOL    HW120132   0.609   2.722   3.216
 6411SOL    HW220133   0.570   2.796   3.076
 6412SOL     OW20134   0.355   2.250   5.207
 6412SOL    HW120135   0.389   2.163   5.174
 6412SOL    HW220136   0.377   2.322   5.141
 6413SOL     OW20137   4.255   4.770   3.774
 6413SOL    HW120138   4.294   4.861   3.782
 6413SOL    HW220139   4.327   4.701   3.787
 6414SOL     OW20140   6.096   1.014   0.347
 6414SOL    HW120141   6.150   0.973   0.273
 6414SOL    HW220142   6.059   0.941   0.405
 6415SOL     OW20143   1.890   3.097   3.264
 6415SOL    HW120144   1.822   3.137   3.203
 6415SOL    HW220145   1.874   2.999   3.273
 6416SOL     OW20146   1.510   1.488   6.348
 6416SOL    HW120147   1.564   1.498   6.265
 6416SOL    HW220148   1.482   1.392   6.359
 6417SOL     OW20149   6.391   5.151   2.180
 6417SOL    HW120150   6.369   5.055   2.164
 6417SOL    HW220151   6.448   5.159   2.262
 6418SOL     OW20152   4.985   4.473   1.896
 6418SOL    HW120153   4.987   4.569   1.923
 6418SOL    HW220154   4.895   4.435   1.918
 6419SOL     OW20155   2.445   4.786   2.989
 6419SOL    HW120156   2.469   4.692   3.012
 6419SOL    HW220157   2.501   4.848   3.043
 6420SOL     OW20158   3.409   4.505   5.584
 6420SOL    HW120159   3.346   4.576   5.614
 6420SOL    HW220160   3.357   4.427   5.548
 6421SOL     OW20161   5.279   0.894   2.913
 6421SOL    HW120162   5.342   0.966   2.942
 6421SOL    HW220163   5.188   0.912   2.949
 6422SOL     OW20164   0.544   0.861   3.842
 6422SOL    HW120165   0.633   0.836   3.803
 6422SOL    HW220166   0.524   0.957   3.820
 6423SOL     OW20167   4.765   5.210   2.485
 6423SOL    HW120168   4.860   5.208   2.518
 6423SOL    HW220169   4.761   5.263   2.401
 6424SOL     OW20170   6.997   6.348   6.033
 6424SOL    HW120171   6.985   6.270   5.971
 6424SOL    HW220172   0.056   6.341   6.078
 6425SOL     OW20173   6.391   5.968   2.853
 6425SOL    HW120174   6.326   5.963   2.776
 6425SOL    HW220175   6.390   6.060   2.891
 6426SOL     OW20176   1.089   4.794   3.077
 6426SOL    HW120177   1.135   4.827   3.159
 6426SOL    HW220178   1.127   4.840   2.996
 6427SOL     OW20179   3.214   3.004   5.540
 6427SOL    HW120180   3.193   3.001   5.442
 6427SOL    HW220181   3.150   3.066   5.586
 6428SOL     OW20182   6.072   3.186   6.509
 6428SOL    HW120183   6.049   3.112   6.573
 6428SOL    HW220184   6.165   3.218   6.528
 6429SOL     OW20185   1.856   2.211   5.810
 6429SOL    HW120186   1.861   2.117   5.846
 6429SOL    HW220187   1.947   2.252   5.813
 6430SOL     OW20188   5.855   0.967   2.186
 6430SOL    HW120189   5.788   0.892   2.188
 6430SOL    HW220190   5.844   1.018   2.101
 6431SOL     OW20191   5.147   6.566   4.157
 6431SOL    HW120192   5.148   6.611   4.246
 6431SOL    HW220193   5.060   6.519   4.144
 6432SOL     OW20194   3.765   4.222   6.343
 6432SOL    HW120195   3.730   4.315   6.356
 6432SOL    HW220196   3.694   4.165   6.303
 6433SOL     OW20197   2.614   4.353   0.123
 6433SOL    HW120198   2.597   4.435   0.069
 6433SOL    HW220199   2.586   4.272   0.071
 6434SOL     OW20200   1.847   3.942   0.021
 6434SOL    HW120201   1.921   3.955   0.087
 6434SOL    HW220202   1.858   3.854   7.005
 6435SOL     OW20203   4.254   6.383   0.093
 6435SOL    HW120204   4.291   6.308   0.147
 6435SOL    HW220205   4.159   6.363   0.069
 6436SOL     OW20206   2.010   3.344   3.613
 6436SOL    HW120207   2.063   3.260   3.624
 6436SOL    HW220208   1.988   3.357   3.517
 6437SOL     OW20209   2.355   1.392   0.750
 6437SOL    HW120210   2.448   1.356   0.754
 6437SOL    HW220211   2.301   1.338   0.686
 6438SOL     OW20212   0.222   3.793   6.427
 6438SOL    HW120213   0.162   3.839   6.492
 6438SOL    HW220214   0.317   3.822   6.443
 6439SOL     OW20215   5.329   0.928   1.774
 6439SOL    HW120216   5.343   0.845   1.828
 6439SOL    HW220217   5.257   0.983   1.815
 6440SOL     OW20218   2.356   1.583   6.927
 6440SOL    HW120219   2.348   1.521   6.850
 6440SOL    HW220220   2.311   1.543   7.007
 6441SOL     OW20221   0.897   6.348   1.855
 6441SOL    HW120222   0.817   6.294   1.882
 6441SOL    HW220223   0.883   6.385   1.763
 6442SOL     OW20224   2.397   0.405   4.525
 6442SOL    HW120225   2.384   0.381   4.429
 6442SOL    HW220226   2.421   0.323   4.577
 6443SOL     OW20227   3.871   2.501   5.580
 6443SOL    HW120228   3.841   2.576   5.522
 6443SOL    HW220229   3.847   2.414   5.537
 6444SOL     OW20230   6.655   2.469   3.784
 6444SOL    HW120231   6.694   2.438   3.870
 6444SOL    HW220232   6.567   2.514   3.801
 6445SOL     OW20233   4.522   3.272   5.564
 6445SOL    HW120234   4.573   3.300   5.483
 6445SOL    HW220235   4.482   3.182   5.549
 6446SOL     OW20236   2.050   1.218   5.956
 6446SOL    HW120237   2.083   1.142   6.012
 6446SOL    HW220238   1.976   1.265   6.004
 6447SOL     OW20239   6.804   4.676   2.820
 6447SOL    HW120240   6.839   4.749   2.879
 6447SOL    HW220241   6.781   4.714   2.731
 6448SOL     OW20242   4.908   5.892   2.629
 6448SOL    HW120243   4.879   5.825   2.561
 6448SOL    HW220244   4.943   5.845   2.710
 6449SOL     OW20245   2.371   4.834   0.600
 6449SOL    HW120246   2.306   4.768   0.636
 6449SOL    HW220247   2.439   4.856   0.669
 6450SOL     OW20248   0.367   3.690   1.229
 6450SOL    HW120249   0.289   3.749   1.208
 6450SOL    HW220250   0.335   3.608   1.277
 6451SOL     OW20251   2.281   0.017   4.972
 6451SOL    HW120252   2.225   0.029   4.890
 6451SOL    HW220253   2.266   6.956   5.010
 6452SOL     OW20254   3.468   6.606   4.577
 6452SOL    HW120255   3.435   6.512   4.591
 6452SOL    HW220256   3.409   6.669   4.627
 6453SOL     OW20257   2.433   6.342   1.130
 6453SOL    HW120258   2.529   6.355   1.155
 6453SOL    HW220259   2.378   6.416   1.168
 6454SOL     OW20260   2.476   2.265   3.678
 6454SOL    HW120261   2.532   2.185   3.695
 6454SOL    HW220262   2.506   2.311   3.594
 6455SOL     OW20263   0.246   2.224   3.917
 6455SOL    HW120264   0.262   2.173   4.002
 6455SOL    HW220265   0.190   2.170   3.856
 6456SOL     OW20266   1.747   0.250   3.562
 6456SOL    HW120267   1.723   0.245   3.465
 6456SOL    HW220268   1.830   0.304   3.572
 6457SOL     OW20269   4.999   1.765   1.032
 6457SOL    HW120270   4.957   1.825   0.964
 6457SOL    HW220271   4.952   1.776   1.120
 6458SOL     OW20272   0.625   6.933   3.677
 6458SOL    HW120273   0.632   6.843   3.719
 6458SOL    HW220274   0.529   6.957   3.665
 6459SOL     OW20275   6.333   4.565   0.030
 6459SOL    HW120276   6.290   4.481   7.028
 6459SOL    HW220277   6.268   4.641   0.022
 6460SOL     OW20278   4.958   5.922   5.721
 6460SOL    HW120279   4.875   5.890   5.767
 6460SOL    HW220280   4.972   6.019   5.742
 6461SOL     OW20281   2.608   4.834   5.712
 6461SOL    HW120282   2.660   4.919   5.716
 6461SOL    HW220283   2.601   4.804   5.616
 6462SOL     OW20284   2.219   2.553   4.640
 6462SOL    HW120285   2.273   2.507   4.570
 6462SOL    HW220286   2.203   2.490   4.717
 6463SOL     OW20287   6.766   3.537   6.992
 6463SOL    HW120288   6.678   3.573   6.960
 6463SOL    HW220289   6.835   3.609   6.984
 6464SOL     OW20290   1.678   5.196   4.062
 6464SOL    HW120291   1.649   5.103   4.040
 6464SOL    HW220292   1.622   5.232   4.136
 6465SOL     OW20293   6.708   2.689   3.211
 6465SOL    HW120294   6.685   2.608   3.157
 6465SOL    HW220295   6.698   2.770   3.155
 6466SOL     OW20296   1.740   1.192   6.095
 6466SOL    HW120297   1.710   1.115   6.039
 6466SOL    HW220298   1.766   1.158   6.186
 6467SOL     OW20299   3.293   0.993   6.956
 6467SOL    HW120300   3.379   1.036   6.985
 6467SOL    HW220301   3.311   0.900   6.924
 6468SOL     OW20302   3.931   6.347   0.910
 6468SOL    HW120303   3.953   6.356   1.008
 6468SOL    HW220304   3.832   6.336   0.899
 6469SOL     OW20305   4.851   0.653   4.845
 6469SOL    HW120306   4.818   0.615   4.759
 6469SOL    HW220307   4.778   0.707   4.887
 6470SOL     OW20308   6.563   4.423   0.353
 6470SOL    HW120309   6.551   4.437   0.451
 6470SOL    HW220310   6.508   4.345   0.322
 6471SOL     OW20311   6.497   6.230   5.711
 6471SOL    HW120312   6.585   6.260   5.748
 6471SOL    HW220313   6.459   6.303   5.654
 6472SOL     OW20314   0.828   5.186   1.369
 6472SOL    HW120315   0.740   5.196   1.416
 6472SOL    HW220316   0.878   5.110   1.410
 6473SOL     OW20317   3.165   1.332   4.098
 6473SOL    HW120318   3.248   1.276   4.101
 6473SOL    HW220319   3.173   1.408   4.163
 6474SOL     OW20320   2.350   3.983   5.792
 6474SOL    HW120321   2.366   4.062   5.734
 6474SOL    HW220322   2.298   3.914   5.741
 6475SOL     OW20323   6.585   5.347   4.406
 6475SOL    HW120324   6.489   5.325   4.421
 6475SOL    HW220325   6.641   5.308   4.480
 6476SOL     OW20326   4.392   3.063   1.097
 6476SOL    HW120327   4.360   3.154   1.122
 6476SOL    HW220328   4.379   3.000   1.174
 6477SOL     OW20329   6.174   4.892   1.299
 6477SOL    HW120330   6.144   4.987   1.287
 6477SOL    HW220331   6.109   4.831   1.255
 6478SOL     OW20332   3.645   6.638   1.640
 6478SOL    HW120333   3.597   6.551   1.622
 6478SOL    HW220334   3.727   6.643   1.583
 6479SOL     OW20335   3.849   5.502   4.120
 6479SOL    HW120336   3.875   5.573   4.055
 6479SOL    HW220337   3.931   5.460   4.159
 6480SOL     OW20338   3.186   2.668   5.709
 6480SOL    HW120339   3.090   2.653   5.684
 6480SOL    HW220340   3.219   2.592   5.764
 6481SOL     OW20341   3.765   2.259   1.619
 6481SOL    HW120342   3.744   2.300   1.707
 6481SOL    HW220343   3.686   2.204   1.588
 6482SOL     OW20344   6.733   0.741   5.660
 6482SOL    HW120345   6.765   0.783   5.575
 6482SOL    HW220346   6.635   0.724   5.654
 6483SOL     OW20347   1.154   6.151   0.933
 6483SOL    HW120348   1.179   6.159   1.030
 6483SOL    HW220349   1.166   6.056   0.904
 6484SOL     OW20350   3.547   0.312   1.644
 6484SOL    HW120351   3.571   0.373   1.569
 6484SOL    HW220352   3.501   0.231   1.608
 6485SOL     OW20353   1.811   4.480   3.229
 6485SOL    HW120354   1.765   4.556   3.275
 6485SOL    HW220355   1.910   4.494   3.231
 6486SOL     OW20356   2.041   4.530   4.240
 6486SOL    HW120357   2.101   4.502   4.315
 6486SOL    HW220358   1.951   4.488   4.251
 6487SOL     OW20359   6.974   6.424   5.278
 6487SOL    HW120360   6.990   6.496   5.211
 6487SOL    HW220361   6.965   6.336   5.232
 6488SOL     OW20362   3.519   6.032   5.376
 6488SOL    HW120363   3.423   6.027   5.350
 6488SOL    HW220364   3.546   5.947   5.422
 6489SOL     OW20365   2.722   2.564   6.397
 6489SOL    HW120366   2.763   2.640   6.448
 6489SOL    HW220367   2.786   2.487   6.394
 6490SOL     OW20368   3.944   1.579   6.237
 6490SOL    HW120369   4.043   1.567   6.226
 6490SOL    HW220370   3.921   1.676   6.230
 6491SOL     OW20371   4.068   1.285   0.275
 6491SOL    HW120372   4.127   1.223   0.223
 6491SOL    HW220373   4.095   1.286   0.371
 6492SOL     OW20374   5.708   5.218   0.284
 6492SOL    HW120375   5.761   5.198   0.366
 6492SOL    HW220376   5.755   5.181   0.204
 6493SOL     OW20377   1.445   5.473   4.783
 6493SOL    HW120378   1.376   5.401   4.773
 6493SOL    HW220379   1.402   5.555   4.821
 6494SOL     OW20380   0.349   1.415   3.598
 6494SOL    HW120381   0.277   1.460   3.651
 6494SOL    HW220382   0.330   1.425   3.500
 6495SOL     OW20383   5.036   6.290   4.200
 6495SOL    HW120384   5.055   6.345   4.282
 6495SOL    HW220385   5.080   6.201   4.210
 6496SOL     OW20386   6.752   0.258   2.400
 6496SOL    HW120387   6.696   0.192   2.348
 6496SOL    HW220388   6.760   0.343   2.347
 6497SOL     OW20389   2.472   2.575   1.178
 6497SOL    HW120390   2.556   2.630   1.185
 6497SOL    HW220391   2.393   2.635   1.172
 6498SOL     OW20392   2.077   3.751   4.458
 6498SOL    HW120393   2.103   3.740   4.554
 6498SOL    HW220394   2.145   3.807   4.411
 6499SOL     OW20395   5.447   2.233   5.012
 6499SOL    HW120396   5.477   2.189   5.098
 6499SOL    HW220397   5.389   2.170   4.961
 6500SOL     OW20398   0.012   4.223   3.689
 6500SOL    HW120399   6.967   4.189   3.747
 6500SOL    HW220400   0.100   4.207   3.734
 6501SOL     OW20401   6.111   2.744   6.592
 6501SOL    HW120402   6.159   2.666   6.633
 6501SOL    HW220403   6.158   2.773   6.509
 6502SOL     OW20404   6.644   3.174   1.430
 6502SOL    HW120405   6.585   3.155   1.352
 6502SOL    HW220406   6.657   3.091   1.484
 6503SOL     OW20407   4.505   1.493   3.718
 6503SOL    HW120408   4.495   1.454   3.627
 6503SOL    HW220409   4.521   1.420   3.785
 6504SOL     OW20410   4.882   5.857   6.304
 6504SOL    HW120411   4.876   5.931   6.372
 6504SOL    HW220412   4.874   5.896   6.212
 6505SOL     OW20413   5.202   5.569   1.510
 6505SOL    HW120414   5.215   5.474   1.481
 6505SOL    HW220415   5.122   5.574   1.570
 6506SOL     OW20416   6.539   3.326   1.883
 6506SOL    HW120417   6.589   3.343   1.798
 6506SOL    HW220418   6.591   3.262   1.940
 6507SOL     OW20419   2.236   5.123   6.074
 6507SOL    HW120420   2.208   5.081   6.161
 6507SOL    HW220421   2.209   5.063   5.999
 6508SOL     OW20422   2.198   0.573   3.025
 6508SOL    HW120423   2.263   0.592   3.099
 6508SOL    HW220424   2.211   0.479   2.993
 6509SOL     OW20425   3.124   1.901   4.688
 6509SOL    HW120426   3.143   1.929   4.783
 6509SOL    HW220427   3.184   1.826   4.662
 6510SOL     OW20428   0.243   4.188   6.709
 6510SOL    HW120429   0.204   4.189   6.801
 6510SOL    HW220430   0.233   4.279   6.669
 6511SOL     OW20431   4.678   1.309   4.778
 6511SOL    HW120432   4.701   1.277   4.870
 6511SOL    HW220433   4.755   1.360   4.740
 6512SOL     OW20434   5.139   6.791   2.216
 6512SOL    HW120435   5.122   6.850   2.296
 6512SOL    HW220436   5.230   6.809   2.179
 6513SOL     OW20437   3.280   4.929   2.868
 6513SOL    HW120438   3.316   5.022   2.862
 6513SOL    HW220439   3.276   4.888   2.776
 6514SOL     OW20440   5.191   0.963   4.036
 6514SOL    HW120441   5.231   0.905   4.108
 6514SOL    HW220442   5.250   0.960   3.955
 6515SOL     OW20443   0.531   5.336   4.150
 6515SOL    HW120444   0.591   5.282   4.091
 6515SOL    HW220445   0.454   5.279   4.180
 6516SOL     OW20446   0.304   3.138   1.740
 6516SOL    HW120447   0.278   3.045   1.769
 6516SOL    HW220448   0.275   3.153   1.646
 6517SOL     OW20449   6.871   0.949   0.351
 6517SOL    HW120450   6.877   0.925   0.448
 6517SOL    HW220451   6.863   1.049   0.342
 6518SOL     OW20452   0.219   6.877   6.497
 6518SOL    HW120453   0.171   6.790   6.493
 6518SOL    HW220454   0.211   6.924   6.409
 6519SOL     OW20455   2.461   1.927   3.532
 6519SOL    HW120456   2.552   1.967   3.521
 6519SOL    HW220457   2.409   1.939   3.447
 6520SOL     OW20458   5.655   5.091   2.052
 6520SOL    HW120459   5.637   5.105   2.149
 6520SOL    HW220460   5.581   5.132   1.998
 6521SOL     OW20461   1.782   3.025   4.226
 6521SOL    HW120462   1.801   2.976   4.140
 6521SOL    HW220463   1.855   3.006   4.292
 6522SOL     OW20464   3.572   4.611   0.172
 6522SOL    HW120465   3.652   4.670   0.186
 6522SOL    HW220466   3.541   4.575   0.260
 6523SOL     OW20467   3.560   1.002   7.020
 6523SOL    HW120468   3.618   0.925   0.017
 6523SOL    HW220469   3.607   1.057   6.951
 6524SOL     OW20470   2.870   3.414   2.252
 6524SOL    HW120471   2.847   3.504   2.216
 6524SOL    HW220472   2.847   3.344   2.183
 6525SOL     OW20473   1.410   4.264   3.401
 6525SOL    HW120474   1.319   4.232   3.429
 6525SOL    HW220475   1.474   4.253   3.477
 6526SOL     OW20476   2.267   0.183   6.538
 6526SOL    HW120477   2.258   0.278   6.569
 6526SOL    HW220478   2.271   0.122   6.617
 6527SOL     OW20479   0.645   2.557   5.005
 6527SOL    HW120480   0.659   2.570   4.907
 6527SOL    HW220481   0.734   2.544   5.050
 6528SOL     OW20482   0.198   1.023   4.135
 6528SOL    HW120483   0.117   1.061   4.180
 6528SOL    HW220484   0.173   0.938   4.088
 6529SOL     OW20485   0.672   1.634   2.413
 6529SOL    HW120486   0.706   1.683   2.333
 6529SOL    HW220487   0.651   1.700   2.486
 6530SOL     OW20488   0.006   3.638   1.519
 6530SOL    HW120489   0.054   3.563   1.565
 6530SOL    HW220490   6.944   3.647   1.559
 6531SOL     OW20491   5.595   3.907   4.854
 6531SOL    HW120492   5.596   3.981   4.787
 6531SOL    HW220493   5.550   3.939   4.938
 6532SOL     OW20494   6.371   0.490   6.848
 6532SOL    HW120495   6.425   0.569   6.821
 6532SOL    HW220496   6.278   0.499   6.811
 6533SOL     OW20497   4.487   5.988   0.843
 6533SOL    HW120498   4.390   6.003   0.865
 6533SOL    HW220499   4.543   6.057   0.890
 6534SOL     OW20500   3.343   4.321   0.776
 6534SOL    HW120501   3.330   4.374   0.692
 6534SOL    HW220502   3.386   4.233   0.754
 6535SOL     OW20503   6.324   4.088   3.741
 6535SOL    HW120504   6.240   4.107   3.793
 6535SOL    HW220505   6.403   4.116   3.795
 6536SOL     OW20506   0.738   2.069   6.033
 6536SOL    HW120507   0.653   2.057   5.983
 6536SOL    HW220508   0.747   1.996   6.101
 6537SOL     OW20509   6.334   5.395   6.911
 6537SOL    HW120510   6.304   5.338   6.835
 6537SOL    HW220511   6.264   5.396   6.983
 6538SOL     OW20512   3.071   4.060   6.956
 6538SOL    HW120513   3.171   4.066   6.965
 6538SOL    HW220514   3.029   4.138   7.002
 6539SOL     OW20515   3.601   0.451   6.215
 6539SOL    HW120516   3.514   0.408   6.238
 6539SOL    HW220517   3.590   0.550   6.214
 6540SOL     OW20518   5.275   1.513   5.027
 6540SOL    HW120519   5.232   1.511   4.937
 6540SOL    HW220520   5.281   1.420   5.064
 6541SOL     OW20521   4.127   1.328   5.183
 6541SOL    HW120522   4.074   1.386   5.245
 6541SOL    HW220523   4.078   1.242   5.167
 6542SOL     OW20524   6.698   4.345   4.400
 6542SOL    HW120525   6.729   4.308   4.487
 6542SOL    HW220526   6.617   4.402   4.415
 6543SOL     OW20527   5.944   3.536   5.882
 6543SOL    HW120528   5.984   3.456   5.925
 6543SOL    HW220529   6.010   3.576   5.818
 6544SOL     OW20530   0.325   6.362   3.093
 6544SOL    HW120531   0.307   6.452   3.053
 6544SOL    HW220532   0.381   6.373   3.175
 6545SOL     OW20533   5.164   1.902   6.468
 6545SOL    HW120534   5.244   1.856   6.429
 6545SOL    HW220535   5.132   1.972   6.404
 6546SOL     OW20536   3.627   4.535   6.523
 6546SOL    HW120537   3.677   4.483   6.593
 6546SOL    HW220538   3.639   4.633   6.539
 6547SOL     OW20539   4.964   1.240   6.011
 6547SOL    HW120540   4.872   1.274   5.995
 6547SOL    HW220541   4.991   1.258   6.105
 6548SOL     OW20542   1.131   3.395   0.070
 6548SOL    HW120543   1.156   3.491   0.076
 6548SOL    HW220544   1.065   3.382   7.025
 6549SOL     OW20545   4.470   1.320   1.038
 6549SOL    HW120546   4.489   1.354   0.946
 6549SOL    HW220547   4.517   1.234   1.053
 6550SOL     OW20548   0.626   6.661   3.763
 6550SOL    HW120549   0.716   6.627   3.790
 6550SOL    HW220550   0.556   6.596   3.794
 6551SOL     OW20551   1.881   4.649   2.666
 6551SOL    HW120552   1.787   4.677   2.646
 6551SOL    HW220553   1.912   4.584   2.596
 6552SOL     OW20554   2.433   6.956   5.519
 6552SOL    HW120555   2.363   7.011   5.564
 6552SOL    HW220556   2.411   6.859   5.530
 6553SOL     OW20557   0.659   1.355   3.153
 6553SOL    HW120558   0.561   1.365   3.169
 6553SOL    HW220559   0.685   1.408   3.072
 6554SOL     OW20560   5.695   1.236   5.365
 6554SOL    HW120561   5.771   1.291   5.401
 6554SOL    HW220562   5.615   1.247   5.425
 6555SOL     OW20563   0.187   1.901   2.099
 6555SOL    HW120564   0.093   1.913   2.065
 6555SOL    HW220565   0.241   1.981   2.073
 6556SOL     OW20566   4.566   4.549   5.197
 6556SOL    HW120567   4.660   4.564   5.166
 6556SOL    HW220568   4.509   4.520   5.120
 6557SOL     OW20569   3.316   5.578   1.202
 6557SOL    HW120570   3.289   5.608   1.294
 6557SOL    HW220571   3.235   5.553   1.150
 6558SOL     OW20572   6.367   4.865   0.418
 6558SOL    HW120573   6.428   4.881   0.340
 6558SOL    HW220574   6.334   4.953   0.453
 6559SOL     OW20575   6.921   4.175   6.578
 6559SOL    HW120576   7.000   4.114   6.571
 6559SOL    HW220577   6.927   4.227   6.663
 6560SOL     OW20578   4.483   4.061   1.083
 6560SOL    HW120579   4.444   4.035   0.994
 6560SOL    HW220580   4.505   3.978   1.135
 6561SOL     OW20581   3.706   4.072   2.448
 6561SOL    HW120582   3.657   4.090   2.363
 6561SOL    HW220583   3.762   4.152   2.471
 6562SOL     OW20584   5.389   4.184   0.246
 6562SOL    HW120585   5.379   4.087   0.267
 6562SOL    HW220586   5.465   4.222   0.298
 6563SOL     OW20587   6.717   6.067   0.170
 6563SOL    HW120588   6.669   6.078   0.083
 6563SOL    HW220589   6.705   6.149   0.225
 6564SOL     OW20590   6.699   3.914   2.696
 6564SOL    HW120591   6.629   3.973   2.735
 6564SOL    HW220592   6.790   3.945   2.725
 6565SOL     OW20593   6.745   2.358   4.044
 6565SOL    HW120594   6.740   2.276   4.101
 6565SOL    HW220595   6.825   2.412   4.069
 6566SOL     OW20596   3.014   6.338   2.487
 6566SOL    HW120597   3.048   6.430   2.505
 6566SOL    HW220598   3.087   6.281   2.450
 6567SOL     OW20599   3.982   2.378   0.991
 6567SOL    HW120600   3.945   2.292   0.956
 6567SOL    HW220601   3.968   2.450   0.923
 6568SOL     OW20602   5.074   0.216   3.589
 6568SOL    HW120603   5.095   0.120   3.573
 6568SOL    HW220604   5.089   0.269   3.505
 6569SOL     OW20605   2.805   3.853   6.732
 6569SOL    HW120606   2.756   3.778   6.777
 6569SOL    HW220607   2.903   3.844   6.752
 6570SOL     OW20608   4.169   6.743   2.565
 6570SOL    HW120609   4.081   6.790   2.566
 6570SOL    HW220610   4.196   6.720   2.659
 6571SOL     OW20611   2.627   5.521   2.514
 6571SOL    HW120612   2.687   5.598   2.491
 6571SOL    HW220613   2.669   5.436   2.482
 6572SOL     OW20614   6.986   5.819   5.581
 6572SOL    HW120615   6.929   5.898   5.602
 6572SOL    HW220616   6.928   5.739   5.566
 6573SOL     OW20617   2.868   1.452   2.068
 6573SOL    HW120618   2.859   1.353   2.078
 6573SOL    HW220619   2.904   1.474   1.978
 6574SOL     OW20620   2.835   6.273   2.679
 6574SOL    HW120621   2.898   6.317   2.616
 6574SOL    HW220622   2.776   6.209   2.628
 6575SOL     OW20623   1.233   0.846   2.076
 6575SOL    HW120624   1.253   0.766   2.020
 6575SOL    HW220625   1.223   0.818   2.172
 6576SOL     OW20626   2.102   5.858   6.224
 6576SOL    HW120627   2.035   5.797   6.181
 6576SOL    HW220628   2.070   5.952   6.216
 6577SOL     OW20629   0.902   1.940   3.890
 6577SOL    HW120630   0.976   1.875   3.872
 6577SOL    HW220631   0.929   2.030   3.855
 6578SOL     OW20632   0.900   4.401   2.943
 6578SOL    HW120633   0.984   4.442   2.905
 6578SOL    HW220634   0.830   4.400   2.872
 6579SOL     OW20635   0.020   3.896   4.866
 6579SOL    HW120636   0.019   3.804   4.827
 6579SOL    HW220637   6.956   3.926   4.882
 6580SOL     OW20638   6.458   1.381   1.034
 6580SOL    HW120639   6.442   1.296   1.084
 6580SOL    HW220640   6.551   1.413   1.051
 6581SOL     OW20641   2.749   1.533   6.973
 6581SOL    HW120642   2.734   1.624   7.011
 6581SOL    HW220643   2.722   1.531   6.877
 6582SOL     OW20644   1.571   0.924   1.657
 6582SOL    HW120645   1.590   0.862   1.581
 6582SOL    HW220646   1.485   0.897   1.700
 6583SOL     OW20647   4.400   0.263   4.918
 6583SOL    HW120648   4.471   0.259   4.989
 6583SOL    HW220649   4.435   0.315   4.839
 6584SOL     OW20650   5.010   1.971   6.683
 6584SOL    HW120651   5.064   1.935   6.607
 6584SOL    HW220652   4.918   1.994   6.650
 6585SOL     OW20653   6.989   0.193   6.898
 6585SOL    HW120654   6.988   0.166   6.801
 6585SOL    HW220655   6.946   0.122   6.953
 6586SOL     OW20656   6.409   1.811   6.168
 6586SOL    HW120657   6.371   1.896   6.205
 6586SOL    HW220658   6.402   1.739   6.236
 6587SOL     OW20659   2.645   6.205   5.361
 6587SOL    HW120660   2.632   6.260   5.444
 6587SOL    HW220661   2.557   6.195   5.313
 6588SOL     OW20662   1.489   3.606   1.688
 6588SOL    HW120663   1.439   3.553   1.621
 6588SOL    HW220664   1.566   3.553   1.723
 6589SOL     OW20665   4.700   0.127   0.319
 6589SOL    HW120666   4.689   0.188   0.241
 6589SOL    HW220667   4.769   0.164   0.381
 6590SOL     OW20668   0.972   1.199   5.635
 6590SOL    HW120669   0.964   1.273   5.702
 6590SOL    HW220670   1.054   1.145   5.655
 6591SOL     OW20671   5.360   6.100   2.559
 6591SOL    HW120672   5.389   6.027   2.621
 6591SOL    HW220673   5.338   6.062   2.470
 6592SOL     OW20674   5.966   6.449   3.778
 6592SOL    HW120675   6.056   6.460   3.821
 6592SOL    HW220676   5.904   6.404   3.842
 6593SOL     OW20677   2.729   1.763   3.857
 6593SOL    HW120678   2.767   1.738   3.768
 6593SOL    HW220679   2.646   1.709   3.874
 6594SOL     OW20680   3.924   1.373   6.955
 6594SOL    HW120681   3.878   1.315   7.022
 6594SOL    HW220682   3.857   1.411   6.892
 6595SOL     OW20683   0.755   2.331   0.869
 6595SOL    HW120684   0.769   2.420   0.911
 6595SOL    HW220685   0.842   2.296   0.834
 6596SOL     OW20686   3.169   6.786   4.409
 6596SOL    HW120687   3.159   6.687   4.397
 6596SOL    HW220688   3.250   6.804   4.465
 6597SOL     OW20689   2.371   6.094   2.828
 6597SOL    HW120690   2.415   6.098   2.917
 6597SOL    HW220691   2.396   6.175   2.775
 6598SOL     OW20692   0.607   0.308   4.497
 6598SOL    HW120693   0.611   0.403   4.466
 6598SOL    HW220694   0.681   0.291   4.563
 6599SOL     OW20695   4.408   6.218   5.448
 6599SOL    HW120696   4.493   6.227   5.395
 6599SOL    HW220697   4.370   6.309   5.465
 6600SOL     OW20698   5.086   5.100   6.196
 6600SOL    HW120699   5.082   5.001   6.213
 6600SOL    HW220700   5.147   5.117   6.118
 6601SOL     OW20701   1.224   1.692   5.488
 6601SOL    HW120702   1.187   1.613   5.439
 6601SOL    HW220703   1.238   1.768   5.425
 6602SOL     OW20704   0.379   1.743   1.632
 6602SOL    HW120705   0.476   1.723   1.643
 6602SOL    HW220706   0.337   1.754   1.722
 6603SOL     OW20707   0.329   2.685   3.849
 6603SOL    HW120708   0.250   2.734   3.810
 6603SOL    HW220709   0.413   2.719   3.806
 6604SOL     OW20710   2.474   6.511   0.763
 6604SOL    HW120711   2.557   6.464   0.793
 6604SOL    HW220712   2.394   6.458   0.791
 6605SOL     OW20713   5.731   4.023   1.677
 6605SOL    HW120714   5.664   4.096   1.666
 6605SOL    HW220715   5.737   3.970   1.593
 6606SOL     OW20716   6.750   6.792   2.233
 6606SOL    HW120717   6.759   6.744   2.146
 6606SOL    HW220718   6.760   6.891   2.218
 6607SOL     OW20719   1.523   2.538   2.121
 6607SOL    HW120720   1.556   2.631   2.134
 6607SOL    HW220721   1.479   2.531   2.031
 6608SOL     OW20722   5.262   6.048   2.076
 6608SOL    HW120723   5.300   6.139   2.094
 6608SOL    HW220724   5.321   6.000   2.012
 6609SOL     OW20725   4.742   0.832   5.995
 6609SOL    HW120726   4.683   0.784   6.061
 6609SOL    HW220727   4.827   0.780   5.982
 6610SOL     OW20728   2.778   1.097   6.301
 6610SOL    HW120729   2.718   1.062   6.229
 6610SOL    HW220730   2.761   1.046   6.385
 6611SOL     OW20731   6.071   3.046   4.300
 6611SOL    HW120732   6.170   3.042   4.281
 6611SOL    HW220733   6.050   3.129   4.350
 6612SOL     OW20734   6.622   2.232   6.578
 6612SOL    HW120735   6.636   2.223   6.677
 6612SOL    HW220736   6.575   2.318   6.559
 6613SOL     OW20737   6.135   6.840   5.173
 6613SOL    HW120738   6.224   6.845   5.128
 6613SOL    HW220739   6.145   6.860   5.271
 6614SOL     OW20740   5.508   6.276   0.355
 6614SOL    HW120741   5.473   6.326   0.435
 6614SOL    HW220742   5.476   6.181   0.358
 6615SOL     OW20743   0.699   4.713   3.221
 6615SOL    HW120744   0.776   4.757   3.267
 6615SOL    HW220745   0.732   4.663   3.141
 6616SOL     OW20746   4.188   0.953   5.997
 6616SOL    HW120747   4.104   0.943   6.051
 6616SOL    HW220748   4.257   0.888   6.030
 6617SOL     OW20749   3.639   5.293   2.680
 6617SOL    HW120750   3.692   5.274   2.763
 6617SOL    HW220751   3.561   5.351   2.704
 6618SOL     OW20752   1.445   3.645   2.726
 6618SOL    HW120753   1.401   3.556   2.722
 6618SOL    HW220754   1.417   3.692   2.810
 6619SOL     OW20755   6.392   0.621   4.417
 6619SOL    HW120756   6.321   0.573   4.365
 6619SOL    HW220757   6.472   0.563   4.425
 6620SOL     OW20758   2.163   2.561   5.182
 6620SOL    HW120759   2.068   2.549   5.211
 6620SOL    HW220760   2.183   2.658   5.171
 6621SOL     OW20761   2.259   3.723   6.690
 6621SOL    HW120762   2.202   3.789   6.739
 6621SOL    HW220763   2.280   3.646   6.749
 6622SOL     OW20764   5.751   6.778   1.741
 6622SOL    HW120765   5.725   6.861   1.692
 6622SOL    HW220766   5.704   6.776   1.829
 6623SOL     OW20767   2.484   3.455   6.664
 6623SOL    HW120768   2.396   3.409   6.649
 6623SOL    HW220769   2.558   3.387   6.660
 6624SOL     OW20770   1.818   6.792   4.336
 6624SOL    HW120771   1.902   6.759   4.295
 6624SOL    HW220772   1.799   6.885   4.303
 6625SOL     OW20773   5.344   1.926   5.853
 6625SOL    HW120774   5.416   1.900   5.918
 6625SOL    HW220775   5.266   1.864   5.863
 6626SOL     OW20776   4.256   5.199   5.408
 6626SOL    HW120777   4.297   5.108   5.410
 6626SOL    HW220778   4.166   5.193   5.364
 6627SOL     OW20779   2.402   0.644   5.955
 6627SOL    HW120780   2.310   0.607   5.939
 6627SOL    HW220781   2.436   0.686   5.871
 6628SOL     OW20782   4.583   4.643   4.469
 6628SOL    HW120783   4.601   4.725   4.523
 6628SOL    HW220784   4.484   4.630   4.460
 6629SOL     OW20785   4.032   6.286   0.246
 6629SOL    HW120786   3.974   6.245   0.176
 6629SOL    HW220787   4.122   6.242   0.245
 6630SOL     OW20788   3.672   1.209   1.990
 6630SOL    HW120789   3.768   1.209   2.018
 6630SOL    HW220790   3.625   1.288   2.031
 6631SOL     OW20791   3.151   0.038   2.524
 6631SOL    HW120792   3.147   6.967   2.530
 6631SOL    HW220793   3.131   0.066   2.430
 6632SOL     OW20794   0.580   5.955   1.386
 6632SOL    HW120795   0.562   5.896   1.464
 6632SOL    HW220796   0.551   5.908   1.302
 6633SOL     OW20797   0.525   3.686   6.161
 6633SOL    HW120798   0.475   3.692   6.075
 6633SOL    HW220799   0.460   3.675   6.237
 6634SOL     OW20800   6.081   2.802   4.437
 6634SOL    HW120801   6.181   2.797   4.443
 6634SOL    HW220802   6.055   2.881   4.380
 6635SOL     OW20803   4.345   4.733   3.146
 6635SOL    HW120804   4.411   4.807   3.135
 6635SOL    HW220805   4.253   4.772   3.156
 6636SOL     OW20806   4.409   1.427   5.761
 6636SOL    HW120807   4.451   1.489   5.695
 6636SOL    HW220808   4.350   1.362   5.713
 6637SOL     OW20809   1.509   6.949   6.346
 6637SOL    HW120810   1.557   0.001   6.315
 6637SOL    HW220811   1.470   6.965   6.436
 6638SOL     OW20812   3.227   4.092   4.176
 6638SOL    HW120813   3.231   3.993   4.189
 6638SOL    HW220814   3.276   4.138   4.250
 6639SOL     OW20815   5.890   5.501   6.528
 6639SOL    HW120816   5.801   5.545   6.516
 6639SOL    HW220817   5.937   5.494   6.440
 6640SOL     OW20818   0.992   1.446   5.117
 6640SOL    HW120819   0.905   1.487   5.092
 6640SOL    HW220820   1.023   1.482   5.205
 6641SOL     OW20821   2.611   2.245   7.013
 6641SOL    HW120822   2.605   2.210   0.077
 6641SOL    HW220823   2.531   2.302   6.994
 6642SOL     OW20824   2.962   5.331   6.842
 6642SOL    HW120825   2.905   5.357   6.920
 6642SOL    HW220826   3.057   5.325   6.870
 6643SOL     OW20827   0.089   5.735   6.569
 6643SOL    HW120828   0.058   5.695   6.655
 6643SOL    HW220829   0.029   5.704   6.495
 6644SOL     OW20830   2.869   4.744   2.291
 6644SOL    HW120831   2.833   4.697   2.210
 6644SOL    HW220832   2.907   4.676   2.354
 6645SOL     OW20833   6.948   4.922   0.557
 6645SOL    HW120834   0.002   4.970   0.531
 6645SOL    HW220835   6.897   4.898   0.474
 6646SOL     OW20836   3.672   6.826   4.721
 6646SOL    HW120837   3.658   6.735   4.681
 6646SOL    HW220838   3.758   6.864   4.687
 6647SOL     OW20839   4.229   1.116   2.344
 6647SOL    HW120840   4.253   1.129   2.440
 6647SOL    HW220841   4.159   1.044   2.336
 6648SOL     OW20842   3.449   5.989   2.981
 6648SOL    HW120843   3.508   6.064   3.011
 6648SOL    HW220844   3.354   6.020   2.976
 6649SOL     OW20845   5.558   0.989   6.960
 6649SOL    HW120846   5.601   0.962   6.874
 6649SOL    HW220847   5.474   1.040   6.941
 6650SOL     OW20848   2.908   1.698   4.785
 6650SOL    HW120849   3.002   1.731   4.781
 6650SOL    HW220850   2.895   1.646   4.870
 6651SOL     OW20851   2.099   1.759   6.570
 6651SOL    HW120852   2.055   1.686   6.622
 6651SOL    HW220853   2.196   1.763   6.595
 6652SOL     OW20854   6.971   4.268   0.533
 6652SOL    HW120855   6.919   4.246   0.450
 6652SOL    HW220856   6.912   4.315   0.598
 6653SOL     OW20857   3.786   3.017   2.022
 6653SOL    HW120858   3.778   2.976   2.113
 6653SOL    HW220859   3.724   2.969   1.959
 6654SOL     OW20860   1.684   3.158   1.680
 6654SOL    HW120861   1.699   3.107   1.765
 6654SOL    HW220862   1.772   3.174   1.635
 6655SOL     OW20863   2.634   6.865   1.782
 6655SOL    HW120864   2.717   6.920   1.789
 6655SOL    HW220865   2.560   6.921   1.746
 6656SOL     OW20866   5.926   1.630   1.698
 6656SOL    HW120867   6.025   1.626   1.690
 6656SOL    HW220868   5.900   1.638   1.794
 6657SOL     OW20869   5.526   6.090   6.659
 6657SOL    HW120870   5.616   6.060   6.628
 6657SOL    HW220871   5.465   6.102   6.581
 6658SOL     OW20872   6.221   1.279   4.951
 6658SOL    HW120873   6.265   1.190   4.960
 6658SOL    HW220874   6.122   1.266   4.946
 6659SOL     OW20875   2.004   1.870   0.664
 6659SOL    HW120876   2.009   1.963   0.700
 6659SOL    HW220877   2.084   1.852   0.608
 6660SOL     OW20878   0.475   5.688   0.557
 6660SOL    HW120879   0.469   5.608   0.497
 6660SOL    HW220880   0.544   5.671   0.628
 6661SOL     OW20881   1.220   6.470   4.660
 6661SOL    HW120882   1.289   6.398   4.647
 6661SOL    HW220883   1.211   6.490   4.757
 6662SOL     OW20884   1.063   1.190   0.259
 6662SOL    HW120885   1.135   1.166   0.324
 6662SOL    HW220886   1.084   1.277   0.216
 6663SOL     OW20887   0.104   5.381   3.502
 6663SOL    HW120888   0.044   5.421   3.571
 6663SOL    HW220889   0.144   5.455   3.447
 6664SOL     OW20890   2.197   6.523   0.154
 6664SOL    HW120891   2.152   6.550   0.240
 6664SOL    HW220892   2.127   6.495   0.088
 6665SOL     OW20893   1.552   0.027   3.218
 6665SOL    HW120894   1.486   7.025   3.286
 6665SOL    HW220895   1.582   6.979   3.162
 6666SOL     OW20896   5.444   6.893   6.326
 6666SOL    HW120897   5.408   6.804   6.298
 6666SOL    HW220898   5.531   6.910   6.280
 6667SOL     OW20899   6.747   5.740   6.300
 6667SOL    HW120900   6.737   5.838   6.314
 6667SOL    HW220901   6.675   5.691   6.350
 6668SOL     OW20902   6.466   5.840   2.132
 6668SOL    HW120903   6.371   5.869   2.149
 6668SOL    HW220904   6.521   5.861   2.212
 6669SOL     OW20905   1.936   3.061   3.935
 6669SOL    HW120906   1.892   2.978   3.968
 6669SOL    HW220907   2.015   3.083   3.993
 6670SOL     OW20908   3.640   2.115   5.585
 6670SOL    HW120909   3.541   2.105   5.573
 6670SOL    HW220910   3.673   2.193   5.533
 6671SOL     OW20911   5.758   5.296   1.551
 6671SOL    HW120912   5.678   5.346   1.585
 6671SOL    HW220913   5.759   5.298   1.451
 6672SOL     OW20914   0.326   2.189   5.623
 6672SOL    HW120915   0.371   2.126   5.559
 6672SOL    HW220916   0.297   2.139   5.704
 6673SOL     OW20917   5.002   5.979   4.030
 6673SOL    HW120918   5.091   6.024   4.034
 6673SOL    HW220919   4.974   5.954   4.122
 6674SOL     OW20920   1.064   5.181   5.736
 6674SOL    HW120921   1.104   5.090   5.728
 6674SOL    HW220922   1.064   5.226   5.647
 6675SOL     OW20923   4.417   3.983   1.701
 6675SOL    HW120924   4.434   4.056   1.767
 6675SOL    HW220925   4.320   3.960   1.701
 6676SOL     OW20926   6.830   4.905   5.514
 6676SOL    HW120927   6.880   4.884   5.598
 6676SOL    HW220928   6.889   4.956   5.452
 6677SOL     OW20929   0.833   1.787   6.122
 6677SOL    HW120930   0.929   1.773   6.097
 6677SOL    HW220931   0.788   1.699   6.132
 6678SOL     OW20932   2.513   3.075   0.094
 6678SOL    HW120933   2.475   3.013   0.163
 6678SOL    HW220934   2.607   3.047   0.073
 6679SOL     OW20935   2.847   1.998   3.812
 6679SOL    HW120936   2.779   1.932   3.843
 6679SOL    HW220937   2.899   2.032   3.890
 6680SOL     OW20938   4.469   0.009   6.264
 6680SOL    HW120939   4.415   6.997   6.191
 6680SOL    HW220940   4.563   0.023   6.233
 6681SOL     OW20941   4.491   5.293   0.701
 6681SOL    HW120942   4.408   5.267   0.652
 6681SOL    HW220943   4.493   5.248   0.790
 6682SOL     OW20944   1.665   4.293   2.494
 6682SOL    HW120945   1.616   4.306   2.581
 6682SOL    HW220946   1.664   4.196   2.469
 6683SOL     OW20947   5.285   3.459   5.164
 6683SOL    HW120948   5.252   3.549   5.192
 6683SOL    HW220949   5.243   3.388   5.221
 6684SOL     OW20950   2.809   6.032   0.979
 6684SOL    HW120951   2.879   6.092   0.941
 6684SOL    HW220952   2.808   5.946   0.929
 6685SOL     OW20953   5.740   3.242   6.159
 6685SOL    HW120954   5.689   3.303   6.098
 6685SOL    HW220955   5.812   3.196   6.107
 6686SOL     OW20956   5.210   5.893   4.540
 6686SOL    HW120957   5.129   5.855   4.494
 6686SOL    HW220958   5.181   5.944   4.620
 6687SOL     OW20959   0.549   2.579   0.881
 6687SOL    HW120960   0.640   2.590   0.920
 6687SOL    HW220961   0.531   2.482   0.866
 6688SOL     OW20962   6.854   4.338   2.190
 6688SOL    HW120963   6.845   4.287   2.275
 6688SOL    HW220964   6.944   4.382   2.187
 6689SOL     OW20965   4.395   3.416   0.088
 6689SOL    HW120966   4.410   3.418   7.019
 6689SOL    HW220967   4.388   3.510   0.122
 6690SOL     OW20968   2.361   1.291   1.199
 6690SOL    HW120969   2.393   1.325   1.287
 6690SOL    HW220970   2.394   1.197   1.186
 6691SOL     OW20971   3.127   6.585   1.296
 6691SOL    HW120972   3.071   6.525   1.353
 6691SOL    HW220973   3.070   6.656   1.256
 6692SOL     OW20974   3.933   4.163   5.667
 6692SOL    HW120975   3.921   4.107   5.748
 6692SOL    HW220976   3.983   4.247   5.691
 6693SOL     OW20977   4.278   3.662   6.024
 6693SOL    HW120978   4.260   3.577   6.072
 6693SOL    HW220979   4.320   3.727   6.087
 6694SOL     OW20980   5.054   5.033   0.561
 6694SOL    HW120981   5.034   5.028   0.659
 6694SOL    HW220982   5.011   4.956   0.514
 6695SOL     OW20983   2.853   1.956   6.731
 6695SOL    HW120984   2.860   1.930   6.828
 6695SOL    HW220985   2.766   2.002   6.716
 6696SOL     OW20986   1.125   2.896   0.022
 6696SOL    HW120987   1.210   2.857   0.059
 6696SOL    HW220988   1.144   2.984   7.009
 6697SOL     OW20989   5.027   2.784   2.798
 6697SOL    HW120990   5.088   2.819   2.869
 6697SOL    HW220991   5.078   2.773   2.712
 6698SOL     OW20992   3.025   2.643   0.889
 6698SOL    HW120993   2.937   2.638   0.841
 6698SOL    HW220994   3.060   2.736   0.886
 6699SOL     OW20995   3.270   5.385   6.566
 6699SOL    HW120996   3.309   5.414   6.479
 6699SOL    HW220997   3.176   5.417   6.573
 6700SOL     OW20998   0.070   6.201   0.756
 6700SOL    HW120999   0.071   6.102   0.761
 6700SOL    HW221000   0.086   6.240   0.847
 6701SOL     OW21001   5.764   2.882   1.240
 6701SOL    HW121002   5.717   2.795   1.227
 6701SOL    HW221003   5.761   2.935   1.155
 6702SOL     OW21004   3.089   2.723   1.805
 6702SOL    HW121005   3.112   2.688   1.896
 6702SOL    HW221006   3.075   2.646   1.743
 6703SOL     OW21007   6.177   1.968   6.857
 6703SOL    HW121008   6.195   2.062   6.888
 6703SOL    HW221009   6.261   1.929   6.818
 6704SOL     OW21010   4.242   1.937   2.697
 6704SOL    HW121011   4.203   1.900   2.612
 6704SOL    HW221012   4.266   1.862   2.758
 6705SOL     OW21013   6.759   2.388   1.512
 6705SOL    HW121014   6.791   2.482   1.496
 6705SOL    HW221015   6.714   2.354   1.429
 6706SOL     OW21016   0.410   4.309   1.710
 6706SOL    HW121017   0.326   4.344   1.751
 6706SOL    HW221018   0.400   4.305   1.611
 6707SOL     OW21019   7.026   6.396   3.671
 6707SOL    HW121020   0.055   6.365   3.747
 6707SOL    HW221021   0.046   6.387   3.585
 6708SOL     OW21022   0.741   5.214   2.613
 6708SOL    HW121023   0.733   5.232   2.515
 6708SOL    HW221024   0.784   5.292   2.658
 6709SOL     OW21025   3.305   6.596   1.872
 6709SOL    HW121026   3.352   6.681   1.851
 6709SOL    HW221027   3.302   6.582   1.971
 6710SOL     OW21028   2.779   0.854   5.774
 6710SOL    HW121029   2.790   0.953   5.763
 6710SOL    HW221030   2.837   0.824   5.850
 6711SOL     OW21031   5.427   4.909   0.052
 6711SOL    HW121032   5.379   4.945   0.132
 6711SOL    HW221033   5.430   4.809   0.057
 6712SOL     OW21034   4.717   5.171   0.496
 6712SOL    HW121035   4.753   5.235   0.565
 6712SOL    HW221036   4.719   5.078   0.533
 6713SOL     OW21037   2.532   1.720   1.964
 6713SOL    HW121038   2.530   1.692   2.060
 6713SOL    HW221039   2.517   1.640   1.905
 6714SOL     OW21040   5.750   0.680   6.499
 6714SOL    HW121041   5.750   0.660   6.597
 6714SOL    HW221042   5.842   0.710   6.471
 6715SOL     OW21043   0.789   0.131   6.526
 6715SOL    HW121044   0.747   0.154   6.438
 6715SOL    HW221045   0.741   0.053   6.566
 6716SOL     OW21046   0.395   5.338   2.159
 6716SOL    HW121047   0.369   5.330   2.255
 6716SOL    HW221048   0.315   5.328   2.101
 6717SOL     OW21049   4.715   3.207   0.893
 6717SOL    HW121050   4.627   3.195   0.848
 6717SOL    HW221051   4.774   3.129   0.874
 6718SOL     OW21052   4.563   6.695   6.114
 6718SOL    HW121053   4.514   6.612   6.088
 6718SOL    HW221054   4.509   6.775   6.089
 6719SOL     OW21055   1.017   0.021   5.858
 6719SOL    HW121056   0.938   6.990   5.872
 6719SOL    HW221057   0.994   0.089   5.788
 6720SOL     OW21058   0.591   5.447   2.984
 6720SOL    HW121059   0.497   5.424   3.008
 6720SOL    HW221060   0.653   5.378   3.022
 6721SOL     OW21061   6.389   0.064   5.343
 6721SOL    HW121062   6.294   0.095   5.345
 6721SOL    HW221063   6.399   7.022   5.274
 6722SOL     OW21064   6.453   3.497   1.588
 6722SOL    HW121065   6.539   3.454   1.615
 6722SOL    HW221066   6.460   3.596   1.602
 6723SOL     OW21067   2.280   6.742   2.742
 6723SOL    HW121068   2.303   6.654   2.782
 6723SOL    HW221069   2.359   6.803   2.746
 6724SOL     OW21070   1.090   3.378   5.940
 6724SOL    HW121071   1.112   3.282   5.956
 6724SOL    HW221072   1.166   3.435   5.971
 6725SOL     OW21073   0.857   4.485   1.269
 6725SOL    HW121074   0.844   4.527   1.359
 6725SOL    HW221075   0.836   4.552   1.198
 6726SOL     OW21076   1.011   2.189   4.658
 6726SOL    HW121077   0.959   2.250   4.717
 6726SOL    HW221078   0.964   2.180   4.570
 6727SOL     OW21079   6.279   3.753   5.596
 6727SOL    HW121080   6.290   3.852   5.607
 6727SOL    HW221081   6.330   3.722   5.515
 6728SOL     OW21082   5.058   1.466   4.435
 6728SOL    HW121083   5.069   1.517   4.349
 6728SOL    HW221084   5.082   1.370   4.420
 6729SOL     OW21085   0.125   1.274   2.275
 6729SOL    HW121086   0.035   1.233   2.259
 6729SOL    HW221087   0.189   1.203   2.303
 6730SOL     OW21088   2.456   6.505   6.330
 6730SOL    HW121089   2.487   6.600   6.336
 6730SOL    HW221090   2.471   6.459   6.417
 6731SOL     OW21091   1.325   4.558   1.147
 6731SOL    HW121092   1.260   4.527   1.077
 6731SOL    HW221093   1.374   4.480   1.184
 6732SOL     OW21094   4.270   5.414   6.494
 6732SOL    HW121095   4.255   5.499   6.544
 6732SOL    HW221096   4.340   5.429   6.425
 6733SOL     OW21097   3.714   5.420   0.598
 6733SOL    HW121098   3.788   5.429   0.532
 6733SOL    HW221099   3.711   5.326   0.632
 6734SOL     OW21100   6.625   2.733   4.976
 6734SOL    HW121101   6.639   2.759   5.071
 6734SOL    HW221102   6.712   2.704   4.936
 6735SOL     OW21103   0.307   5.348   5.027
 6735SOL    HW121104   0.312   5.299   4.940
 6735SOL    HW221105   0.400   5.373   5.056
 6736SOL     OW21106   2.303   2.978   0.284
 6736SOL    HW121107   2.304   3.076   0.266
 6736SOL    HW221108   2.209   2.944   0.280
 6737SOL     OW21109   2.036   2.419   1.103
 6737SOL    HW121110   2.112   2.437   1.041
 6737SOL    HW221111   2.047   2.328   1.143
 6738SOL     OW21112   2.171   3.800   2.297
 6738SOL    HW121113   2.245   3.850   2.252
 6738SOL    HW221114   2.172   3.820   2.395
 6739SOL     OW21115   3.641   5.039   6.391
 6739SOL    HW121116   3.690   5.108   6.338
 6739SOL    HW221117   3.556   5.078   6.427
 6740SOL     OW21118   1.554   1.475   4.469
 6740SOL    HW121119   1.626   1.436   4.526
 6740SOL    HW221120   1.551   1.574   4.481
 6741SOL     OW21121   4.556   1.020   5.900
 6741SOL    HW121122   4.630   0.960   5.931
 6741SOL    HW221123   4.544   1.095   5.965
 6742SOL     OW21124   0.003   5.175   2.732
 6742SOL    HW121125   0.089   5.215   2.765
 6742SOL    HW221126   6.958   5.239   2.748
 6743SOL     OW21127   4.137   4.429   0.298
 6743SOL    HW121128   4.111   4.406   0.392
 6743SOL    HW221129   4.055   4.442   0.243
 6744SOL     OW21130   5.312   5.619   5.537
 6744SOL    HW121131   5.219   5.657   5.539
 6744SOL    HW221132   5.310   5.526   5.573
 6745SOL     OW21133   0.874   6.604   1.990
 6745SOL    HW121134   0.938   6.571   2.060
 6745SOL    HW221135   0.873   6.540   1.913
 6746SOL     OW21136   0.965   1.070   3.310
 6746SOL    HW121137   0.882   1.027   3.273
 6746SOL    HW221138   1.045   1.019   3.280
 6747SOL     OW21139   5.335   6.941   4.790
 6747SOL    HW121140   5.354   6.851   4.828
 6747SOL    HW221141   5.391   7.009   4.838
 6748SOL     OW21142   1.417   0.786   2.921
 6748SOL    HW121143   1.381   0.864   2.871
 6748SOL    HW221144   1.503   0.811   2.966
 6749SOL     OW21145   2.817   5.615   0.247
 6749SOL    HW121146   2.719   5.595   0.243
 6749SOL    HW221147   2.855   5.617   0.154
 6750SOL     OW21148   4.308   0.967   4.946
 6750SOL    HW121149   4.400   0.978   4.984
 6750SOL    HW221150   4.257   1.052   4.956
 6751SOL     OW21151   3.843   1.497   4.099
 6751SOL    HW121152   3.877   1.403   4.095
 6751SOL    HW221153   3.884   1.551   4.025
 6752SOL     OW21154   6.400   3.148   2.463
 6752SOL    HW121155   6.307   3.154   2.500
 6752SOL    HW221156   6.414   3.221   2.395
 6753SOL     OW21157   4.674   1.007   6.620
 6753SOL    HW121158   4.709   0.916   6.597
 6753SOL    HW221159   4.599   1.031   6.557
 6754SOL     OW21160   6.362   1.690   6.417
 6754SOL    HW121161   6.354   1.784   6.450
 6754SOL    HW221162   6.273   1.659   6.383
 6755SOL     OW21163   4.572   1.935   3.440
 6755SOL    HW121164   4.562   1.958   3.537
 6755SOL    HW221165   4.527   2.004   3.384
 6756SOL     OW21166   4.637   4.284   4.490
 6756SOL    HW121167   4.606   4.350   4.558
 6756SOL    HW221168   4.615   4.317   4.398
 6757SOL     OW21169   4.754   6.307   0.753
 6757SOL    HW121170   4.787   6.379   0.814
 6757SOL    HW221171   4.726   6.228   0.808
 6758SOL     OW21172   6.386   3.601   1.322
 6758SOL    HW121173   6.405   3.634   1.415
 6758SOL    HW221174   6.316   3.530   1.327
 6759SOL     OW21175   1.169   3.564   4.440
 6759SOL    HW121176   1.223   3.591   4.520
 6759SOL    HW221177   1.073   3.552   4.468
 6760SOL     OW21178   6.455   5.072   4.681
 6760SOL    HW121179   6.428   5.095   4.774
 6760SOL    HW221180   6.416   4.983   4.656
 6761SOL     OW21181   5.822   2.430   6.399
 6761SOL    HW121182   5.843   2.353   6.340
 6761SOL    HW221183   5.723   2.443   6.404
 6762SOL     OW21184   0.003   5.939   3.602
 6762SOL    HW121185   6.991   6.030   3.600
 6762SOL    HW221186   6.985   5.879   3.537
 6763SOL     OW21187   6.640   6.059   3.726
 6763SOL    HW121188   6.734   6.087   3.709
 6763SOL    HW221189   6.638   5.988   3.797
 6764SOL     OW21190   2.785   5.048   6.917
 6764SOL    HW121191   2.836   5.052   6.831
 6764SOL    HW221192   2.705   5.108   6.911
 6765SOL     OW21193   5.005   5.345   3.250
 6765SOL    HW121194   5.017   5.377   3.156
 6765SOL    HW221195   5.062   5.400   3.311
 6766SOL     OW21196   3.421   6.944   6.741
 6766SOL    HW121197   3.397   6.984   6.829
 6766SOL    HW221198   3.351   6.967   6.673
 6767SOL     OW21199   0.580   2.163   1.038
 6767SOL    HW121200   0.497   2.163   0.984
 6767SOL    HW221201   0.654   2.208   0.987
 6768SOL     OW21202   0.837   0.068   3.678
 6768SOL    HW121203   0.760   0.004   3.672
 6768SOL    HW221204   0.917   0.021   3.713
 6769SOL     OW21205   2.739   1.116   5.211
 6769SOL    HW121206   2.780   1.060   5.139
 6769SOL    HW221207   2.810   1.148   5.273
 6770SOL     OW21208   6.710   2.120   3.493
 6770SOL    HW121209   6.633   2.074   3.537
 6770SOL    HW221210   6.719   2.213   3.529
 6771SOL     OW21211   3.737   2.031   3.295
 6771SOL    HW121212   3.756   2.097   3.222
 6771SOL    HW221213   3.806   2.040   3.367
 6772SOL     OW21214   5.534   1.450   2.135
 6772SOL    HW121215   5.496   1.440   2.227
 6772SOL    HW221216   5.633   1.461   2.141
 6773SOL     OW21217   0.380   6.770   1.286
 6773SOL    HW121218   0.353   6.732   1.198
 6773SOL    HW221219   0.438   6.850   1.271
 6774SOL     OW21220   1.975   2.054   4.874
 6774SOL    HW121221   2.063   2.075   4.916
 6774SOL    HW221222   1.908   2.122   4.901
 6775SOL     OW21223   0.676   2.432   3.302
 6775SOL    HW121224   0.674   2.523   3.343
 6775SOL    HW221225   0.667   2.363   3.373
 6776SOL     OW21226   4.119   3.777   1.974
 6776SOL    HW121227   4.039   3.837   1.970
 6776SOL    HW221228   4.182   3.802   1.901
 6777SOL     OW21229   4.472   5.283   1.018
 6777SOL    HW121230   4.488   5.196   1.064
 6777SOL    HW221231   4.545   5.347   1.040
 6778SOL     OW21232   5.733   3.011   2.596
 6778SOL    HW121233   5.827   2.985   2.575
 6778SOL    HW221234   5.719   3.014   2.695
 6779SOL     OW21235   5.380   4.509   6.464
 6779SOL    HW121236   5.405   4.444   6.392
 6779SOL    HW221237   5.413   4.475   6.552
 6780SOL     OW21238   2.127   3.808   2.587
 6780SOL    HW121239   2.118   3.729   2.648
 6780SOL    HW221240   2.038   3.829   2.547
 6781SOL     OW21241   6.717   1.173   3.468
 6781SOL    HW121242   6.802   1.224   3.458
 6781SOL    HW221243   6.686   1.141   3.378
 6782SOL     OW21244   1.196   0.910   3.562
 6782SOL    HW121245   1.249   0.907   3.477
 6782SOL    HW221246   1.148   0.823   3.574
 6783SOL     OW21247   0.760   4.101   4.739
 6783SOL    HW121248   0.694   4.161   4.784
 6783SOL    HW221249   0.845   4.100   4.791
 6784SOL     OW21250   2.631   3.991   1.695
 6784SOL    HW121251   2.698   4.005   1.622
 6784SOL    HW221252   2.658   4.043   1.775
 6785SOL     OW21253   5.866   4.824   5.825
 6785SOL    HW121254   5.774   4.803   5.790
 6785SOL    HW221255   5.872   4.798   5.921
 6786SOL     OW21256   6.584   2.733   0.249
 6786SOL    HW121257   6.488   2.719   0.275
 6786SOL    HW221258   6.610   2.667   0.179
 6787SOL     OW21259   3.032   2.523   1.367
 6787SOL    HW121260   3.063   2.560   1.455
 6787SOL    HW221261   2.945   2.477   1.380
 6788SOL     OW21262   0.311   3.835   2.477
 6788SOL    HW121263   0.216   3.810   2.496
 6788SOL    HW221264   0.331   3.924   2.518
 6789SOL     OW21265   0.017   4.779   4.551
 6789SOL    HW121266   7.020   4.697   4.602
 6789SOL    HW221267   6.982   4.793   4.475
 6790SOL     OW21268   0.147   4.400   6.093
 6790SOL    HW121269   0.209   4.377   6.168
 6790SOL    HW221270   0.183   4.479   6.042
 6791SOL     OW21271   4.766   1.958   3.273
 6791SOL    HW121272   4.718   1.994   3.193
 6791SOL    HW221273   4.700   1.936   3.345
 6792SOL     OW21274   4.085   6.764   5.561
 6792SOL    HW121275   4.138   6.848   5.565
 6792SOL    HW221276   4.025   6.765   5.481
 6793SOL     OW21277   3.267   2.084   0.148
 6793SOL    HW121278   3.250   2.013   0.216
 6793SOL    HW221279   3.226   2.057   0.061
 6794SOL     OW21280   5.051   1.119   5.761
 6794SOL    HW121281   5.061   1.188   5.833
 6794SOL    HW221282   4.956   1.117   5.730
 6795SOL     OW21283   1.392   7.013   1.076
 6795SOL    HW121284   1.313   0.044   1.068
 6795SOL    HW221285   1.403   6.985   1.172
 6796SOL     OW21286   5.444   1.203   1.955
 6796SOL    HW121287   5.418   1.286   2.004
 6796SOL    HW221288   5.369   1.176   1.894
 6797SOL     OW21289   6.640   2.325   1.259
 6797SOL    HW121290   6.543   2.345   1.273
 6797SOL    HW221291   6.654   2.226   1.264
 6798SOL     OW21292   5.404   6.820   1.742
 6798SOL    HW121293   5.455   6.740   1.712
 6798SOL    HW221294   5.425   6.898   1.682
 6799SOL     OW21295   5.571   0.637   2.882
 6799SOL    HW121296   5.537   0.731   2.873
 6799SOL    HW221297   5.550   0.585   2.799
 6800SOL     OW21298   2.116   2.303   1.603
 6800SOL    HW121299   2.085   2.398   1.607
 6800SOL    HW221300   2.189   2.289   1.670
 6801SOL     OW21301   1.362   6.485   4.089
 6801SOL    HW121302   1.417   6.402   4.075
 6801SOL    HW221303   1.265   6.461   4.090
 6802SOL     OW21304   3.458   6.244   0.898
 6802SOL    HW121305   3.421   6.192   0.975
 6802SOL    HW221306   3.490   6.180   0.828
 6803SOL     OW21307   5.484   4.389   0.047
 6803SOL    HW121308   5.475   4.323   0.122
 6803SOL    HW221309   5.426   4.360   7.000
 6804SOL     OW21310   2.859   5.290   2.644
 6804SOL    HW121311   2.799   5.356   2.690
 6804SOL    HW221312   2.897   5.227   2.712
 6805SOL     OW21313   0.294   4.682   6.699
 6805SOL    HW121314   0.294   4.701   6.601
 6805SOL    HW221315   0.230   4.744   6.745
 6806SOL     OW21316   6.659   1.073   4.299
 6806SOL    HW121317   6.572   1.043   4.339
 6806SOL    HW221318   6.731   1.065   4.368
 6807SOL     OW21319   3.485   3.347   3.390
 6807SOL    HW121320   3.554   3.276   3.379
 6807SOL    HW221321   3.509   3.427   3.335
 6808SOL     OW21322   5.335   1.234   5.081
 6808SOL    HW121323   5.337   1.181   5.166
 6808SOL    HW221324   5.396   1.192   5.014
 6809SOL     OW21325   6.585   3.957   0.927
 6809SOL    HW121326   6.543   3.874   0.966
 6809SOL    HW221327   6.639   3.933   0.847
 6810SOL     OW21328   3.445   0.877   3.412
 6810SOL    HW121329   3.478   0.970   3.428
 6810SOL    HW221330   3.346   0.877   3.401
 6811SOL     OW21331   6.590   2.688   2.517
 6811SOL    HW121332   6.636   2.677   2.605
 6811SOL    HW221333   6.496   2.654   2.524
 6812SOL     OW21334   3.190   3.614   4.459
 6812SOL    HW121335   3.278   3.572   4.476
 6812SOL    HW221336   3.203   3.702   4.413
 6813SOL     OW21337   5.403   3.489   2.071
 6813SOL    HW121338   5.395   3.578   2.118
 6813SOL    HW221339   5.417   3.417   2.138
 6814SOL     OW21340   4.400   1.470   6.426
 6814SOL    HW121341   4.427   1.553   6.475
 6814SOL    HW221342   4.482   1.418   6.403
 6815SOL     OW21343   1.436   5.193   6.689
 6815SOL    HW121344   1.420   5.264   6.621
 6815SOL    HW221345   1.391   5.108   6.661
 6816SOL     OW21346   6.726   1.804   4.560
 6816SOL    HW121347   6.686   1.725   4.514
 6816SOL    HW221348   6.655   1.851   4.613
 6817SOL     OW21349   2.520   2.573   4.010
 6817SOL    HW121350   2.533   2.613   4.101
 6817SOL    HW221351   2.423   2.575   3.986
 6818SOL     OW21352   2.242   5.996   6.010
 6818SOL    HW121353   2.220   6.038   6.097
 6818SOL    HW221354   2.228   5.897   6.015
 6819SOL     OW21355   4.888   6.209   2.888
 6819SOL    HW121356   4.824   6.175   2.957
 6819SOL    HW221357   4.841   6.220   2.801
 6820SOL     OW21358   1.611   6.182   1.311
 6820SOL    HW121359   1.539   6.246   1.338
 6820SOL    HW221360   1.687   6.233   1.270
 6821SOL     OW21361   4.584   2.613   5.460
 6821SOL    HW121362   4.583   2.678   5.384
 6821SOL    HW221363   4.658   2.635   5.523
 6822SOL     OW21364   6.960   2.625   6.510
 6822SOL    HW121365   6.997   2.704   6.462
 6822SOL    HW221366   7.000   2.620   6.602
 6823SOL     OW21367   5.424   3.918   6.424
 6823SOL    HW121368   5.463   3.850   6.362
 6823SOL    HW221369   5.438   3.888   6.518
 6824SOL     OW21370   1.269   1.668   0.073
 6824SOL    HW121371   1.186   1.614   0.056
 6824SOL    HW221372   1.260   1.757   0.030
 6825SOL     OW21373   6.681   6.144   0.462
 6825SOL    HW121374   6.719   6.065   0.509
 6825SOL    HW221375   6.688   6.225   0.520
 6826SOL     OW21376   0.577   3.205   3.330
 6826SOL    HW121377   0.497   3.173   3.380
 6826SOL    HW221378   0.555   3.215   3.233
 6827SOL     OW21379   4.884   4.923   5.422
 6827SOL    HW121380   4.913   5.016   5.400
 6827SOL    HW221381   4.963   4.862   5.420
 6828SOL     OW21382   3.371   1.506   2.969
 6828SOL    HW121383   3.350   1.591   2.922
 6828SOL    HW221384   3.463   1.511   3.009
 6829SOL     OW21385   5.324   0.252   5.464
 6829SOL    HW121386   5.281   0.162   5.456
 6829SOL    HW221387   5.314   0.301   5.377
 6830SOL     OW21388   6.291   1.526   3.441
 6830SOL    HW121389   6.378   1.493   3.476
 6830SOL    HW221390   6.229   1.448   3.428
 6831SOL     OW21391   1.166   1.535   5.764
 6831SOL    HW121392   1.162   1.555   5.666
 6831SOL    HW221393   1.079   1.496   5.794
 6832SOL     OW21394   2.792   3.037   0.022
 6832SOL    HW121395   2.768   2.996   6.963
 6832SOL    HW221396   2.809   3.134   0.010
 6833SOL     OW21397   3.520   5.567   6.092
 6833SOL    HW121398   3.583   5.547   6.016
 6833SOL    HW221399   3.465   5.648   6.069
 6834SOL     OW21400   5.066   0.060   0.621
 6834SOL    HW121401   5.107   0.129   0.562
 6834SOL    HW221402   5.018   0.106   0.696
 6835SOL     OW21403   3.687   1.545   5.320
 6835SOL    HW121404   3.678   1.478   5.247
 6835SOL    HW221405   3.664   1.636   5.286
 6836SOL     OW21406   1.823   4.316   6.581
 6836SOL    HW121407   1.773   4.350   6.660
 6836SOL    HW221408   1.921   4.334   6.592
 6837SOL     OW21409   1.473   1.404   2.701
 6837SOL    HW121410   1.489   1.329   2.637
 6837SOL    HW221411   1.477   1.491   2.651
 6838SOL     OW21412   3.070   4.305   5.284
 6838SOL    HW121413   3.156   4.321   5.334
 6838SOL    HW221414   3.041   4.390   5.240
 6839SOL     OW21415   5.331   1.927   3.681
 6839SOL    HW121416   5.411   1.955   3.734
 6839SOL    HW221417   5.342   1.957   3.586
 6840SOL     OW21418   2.555   6.488   5.108
 6840SOL    HW121419   2.503   6.404   5.127
 6840SOL    HW221420   2.611   6.473   5.027
 6841SOL     OW21421   4.319   5.063   1.707
 6841SOL    HW121422   4.382   5.116   1.650
 6841SOL    HW221423   4.365   5.036   1.792
 6842SOL     OW21424   1.176   2.330   6.557
 6842SOL    HW121425   1.236   2.392   6.507
 6842SOL    HW221426   1.092   2.315   6.505
 6843SOL     OW21427   4.608   0.945   1.697
 6843SOL    HW121428   4.549   0.955   1.618
 6843SOL    HW221429   4.590   1.019   1.762
 6844SOL     OW21430   5.442   5.854   4.134
 6844SOL    HW121431   5.518   5.832   4.073
 6844SOL    HW221432   5.474   5.916   4.206
 6845SOL     OW21433   4.837   3.762   1.836
 6845SOL    HW121434   4.779   3.770   1.754
 6845SOL    HW221435   4.892   3.845   1.845
 6846SOL     OW21436   3.951   3.274   0.905
 6846SOL    HW121437   3.929   3.178   0.920
 6846SOL    HW221438   3.873   3.321   0.863
 6847SOL     OW21439   5.168   3.791   2.307
 6847SOL    HW121440   5.156   3.881   2.349
 6847SOL    HW221441   5.239   3.797   2.236
 6848SOL     OW21442   1.609   4.963   3.702
 6848SOL    HW121443   1.538   5.028   3.675
 6848SOL    HW221444   1.611   4.955   3.802
 6849SOL     OW21445   3.138   5.795   4.512
 6849SOL    HW121446   3.179   5.707   4.487
 6849SOL    HW221447   3.102   5.789   4.605
 6850SOL     OW21448   5.801   2.578   2.977
 6850SOL    HW121449   5.713   2.620   3.000
 6850SOL    HW221450   5.874   2.624   3.028
 6851SOL     OW21451   1.846   4.910   4.806
 6851SOL    HW121452   1.809   4.831   4.759
 6851SOL    HW221453   1.784   4.938   4.879
 6852SOL     OW21454   1.325   4.276   1.019
 6852SOL    HW121455   1.371   4.270   1.108
 6852SOL    HW221456   1.226   4.273   1.033
 6853SOL     OW21457   6.776   4.504   6.899
 6853SOL    HW121458   6.692   4.548   6.865
 6853SOL    HW221459   6.767   4.488   6.997
 6854SOL     OW21460   5.977   0.743   6.018
 6854SOL    HW121461   6.052   0.810   6.020
 6854SOL    HW221462   5.890   0.791   6.027
 6855SOL     OW21463   3.243   6.616   3.180
 6855SOL    HW121464   3.332   6.646   3.214
 6855SOL    HW221465   3.228   6.521   3.207
 6856SOL     OW21466   5.360   4.973   5.329
 6856SOL    HW121467   5.274   4.955   5.281
 6856SOL    HW221468   5.361   5.067   5.362
 6857SOL     OW21469   3.332   1.003   6.498
 6857SOL    HW121470   3.306   0.917   6.541
 6857SOL    HW221471   3.391   1.055   6.559
 6858SOL     OW21472   3.841   3.245   4.807
 6858SOL    HW121473   3.829   3.218   4.902
 6858SOL    HW221474   3.851   3.164   4.750
 6859SOL     OW21475   1.514   6.214   0.952
 6859SOL    HW121476   1.452   6.280   0.910
 6859SOL    HW221477   1.461   6.150   1.009
 6860SOL     OW21478   6.098   5.011   2.135
 6860SOL    HW121479   6.034   4.940   2.105
 6860SOL    HW221480   6.154   5.041   2.058
 6861SOL     OW21481   5.658   4.273   0.960
 6861SOL    HW121482   5.738   4.266   1.020
 6861SOL    HW221483   5.582   4.223   1.000
 6862SOL     OW21484   2.680   4.669   4.570
 6862SOL    HW121485   2.604   4.626   4.521
 6862SOL    HW221486   2.647   4.706   4.657
 6863SOL     OW21487   5.684   1.337   5.092
 6863SOL    HW121488   5.674   1.313   5.189
 6863SOL    HW221489   5.648   1.263   5.036
 6864SOL     OW21490   3.418   5.977   4.031
 6864SOL    HW121491   3.460   5.896   4.072
 6864SOL    HW221492   3.414   6.051   4.098
 6865SOL     OW21493   6.383   4.889   3.421
 6865SOL    HW121494   6.475   4.899   3.458
 6865SOL    HW221495   6.316   4.919   3.489
 6866SOL     OW21496   6.241   4.727   1.979
 6866SOL    HW121497   6.184   4.650   2.010
 6866SOL    HW221498   6.310   4.693   1.915
 6867SOL     OW21499   1.118   4.777   1.207
 6867SOL    HW121500   1.175   4.696   1.190
 6867SOL    HW221501   1.022   4.753   1.191
 6868SOL     OW21502   1.722   5.531   5.202
 6868SOL    HW121503   1.732   5.494   5.295
 6868SOL    HW221504   1.796   5.596   5.184
 6869SOL     OW21505   5.688   2.650   5.447
 6869SOL    HW121506   5.717   2.564   5.405
 6869SOL    HW221507   5.741   2.726   5.409
 6870SOL     OW21508   6.329   3.884   2.772
 6870SOL    HW121509   6.336   3.794   2.816
 6870SOL    HW221510   6.242   3.891   2.723
 6871SOL     OW21511   6.410   4.897   2.109
 6871SOL    HW121512   6.479   4.911   2.038
 6871SOL    HW221513   6.341   4.833   2.076
 6872SOL     OW21514   2.289   3.502   1.065
 6872SOL    HW121515   2.199   3.477   1.101
 6872SOL    HW221516   2.331   3.571   1.124
 6873SOL     OW21517   5.747   3.217   5.706
 6873SOL    HW121518   5.847   3.228   5.712
 6873SOL    HW221519   5.723   3.180   5.617
 6874SOL     OW21520   0.787   4.063   3.495
 6874SOL    HW121521   0.790   4.037   3.398
 6874SOL    HW221522   0.879   4.060   3.533
 6875SOL     OW21523   1.822   2.189   3.752
 6875SOL    HW121524   1.778   2.219   3.837
 6875SOL    HW221525   1.900   2.131   3.773
 6876SOL     OW21526   3.745   5.310   6.799
 6876SOL    HW121527   3.817   5.270   6.855
 6876SOL    HW221528   3.717   5.398   6.839
 6877SOL     OW21529   2.490   4.123   0.013
 6877SOL    HW121530   2.540   4.042   7.013
 6877SOL    HW221531   2.428   4.152   6.970
 6878SOL     OW21532   2.476   2.048   5.347
 6878SOL    HW121533   2.515   2.067   5.437
 6878SOL    HW221534   2.396   2.107   5.332
 6879SOL     OW21535   1.163   1.948   0.275
 6879SOL    HW121536   1.082   1.891   0.290
 6879SOL    HW221537   1.181   2.003   0.356
 6880SOL     OW21538   2.231   3.490   5.141
 6880SOL    HW121539   2.260   3.557   5.072
 6880SOL    HW221540   2.239   3.398   5.103
 6881SOL     OW21541   6.533   4.554   2.289
 6881SOL    HW121542   6.573   4.464   2.306
 6881SOL    HW221543   6.434   4.545   2.278
 6882SOL     OW21544   1.990   0.300   6.040
 6882SOL    HW121545   1.960   0.266   6.129
 6882SOL    HW221546   2.075   0.353   6.052
 6883SOL     OW21547   3.549   1.032   0.889
 6883SOL    HW121548   3.477   1.095   0.918
 6883SOL    HW221549   3.632   1.084   0.868
 6884SOL     OW21550   2.216   3.962   4.340
 6884SOL    HW121551   2.254   3.990   4.252
 6884SOL    HW221552   2.184   4.043   4.389
 6885SOL     OW21553   3.177   5.320   4.115
 6885SOL    HW121554   3.208   5.313   4.020
 6885SOL    HW221555   3.207   5.408   4.153
 6886SOL     OW21556   6.824   1.120   2.552
 6886SOL    HW121557   6.915   1.080   2.557
 6886SOL    HW221558   6.823   1.195   2.486
 6887SOL     OW21559   5.283   7.007   5.520
 6887SOL    HW121560   5.201   6.991   5.575
 6887SOL    HW221561   5.361   7.020   5.580
 6888SOL     OW21562   5.725   6.459   6.287
 6888SOL    HW121563   5.762   6.548   6.263
 6888SOL    HW221564   5.673   6.466   6.372
 6889SOL     OW21565   0.853   2.942   5.748
 6889SOL    HW121566   0.835   2.930   5.650
 6889SOL    HW221567   0.821   3.033   5.776
 6890SOL     OW21568   2.401   6.149   0.748
 6890SOL    HW121569   2.349   6.066   0.727
 6890SOL    HW221570   2.337   6.225   0.764
 6891SOL     OW21571   1.940   4.004   4.810
 6891SOL    HW121572   1.842   3.986   4.815
 6891SOL    HW221573   1.966   4.065   4.885
 6892SOL     OW21574   3.759   0.714   4.006
 6892SOL    HW121575   3.844   0.701   3.954
 6892SOL    HW221576   3.701   0.634   3.997
 6893SOL     OW21577   5.977   6.426   1.144
 6893SOL    HW121578   5.884   6.443   1.113
 6893SOL    HW221579   6.041   6.442   1.069
 6894SOL     OW21580   6.175   5.715   0.053
 6894SOL    HW121581   6.172   5.794   0.114
 6894SOL    HW221582   6.193   5.745   6.989
 6895SOL     OW21583   2.855   5.384   0.066
 6895SOL    HW121584   2.910   5.302   0.082
 6895SOL    HW221585   2.759   5.364   0.087
 6896SOL     OW21586   3.384   6.907   3.914
 6896SOL    HW121587   3.340   6.854   3.987
 6896SOL    HW221588   3.315   6.963   3.868
 6897SOL     OW21589   2.762   3.978   0.170
 6897SOL    HW121590   2.703   3.920   0.114
 6897SOL    HW221591   2.713   4.004   0.253
 6898SOL     OW21592   3.486   1.930   1.630
 6898SOL    HW121593   3.555   1.991   1.669
 6898SOL    HW221594   3.409   1.985   1.596
 6899SOL     OW21595   4.871   6.950   6.853
 6899SOL    HW121596   4.819   6.892   6.791
 6899SOL    HW221597   4.937   6.894   6.903
 6900SOL     OW21598   6.337   0.551   6.437
 6900SOL    HW121599   6.287   0.597   6.364
 6900SOL    HW221600   6.273   0.501   6.496
 6901SOL     OW21601   0.669   0.197   6.285
 6901SOL    HW121602   0.607   0.193   6.207
 6901SOL    HW221603   0.755   0.239   6.257
 6902SOL     OW21604   0.445   6.165   0.604
 6902SOL    HW121605   0.528   6.111   0.617
 6902SOL    HW221606   0.373   6.129   0.664
 6903SOL     OW21607   3.578   4.067   6.209
 6903SOL    HW121608   3.487   4.106   6.194
 6903SOL    HW221609   3.573   3.968   6.203
 6904SOL     OW21610   0.186   1.541   3.788
 6904SOL    HW121611   0.271   1.593   3.799
 6904SOL    HW221612   0.124   1.590   3.727
 6905SOL     OW21613   6.751   6.822   6.616
 6905SOL    HW121614   6.737   6.875   6.532
 6905SOL    HW221615   6.662   6.801   6.658
 6906SOL     OW21616   4.304   1.053   4.001
 6906SOL    HW121617   4.225   1.006   3.962
 6906SOL    HW221618   4.297   1.052   4.101
 6907SOL     OW21619   4.565   1.569   1.187
 6907SOL    HW121620   4.591   1.483   1.142
 6907SOL    HW221621   4.503   1.620   1.128
 6908SOL     OW21622   1.357   0.161   5.285
 6908SOL    HW121623   1.282   0.226   5.277
 6908SOL    HW221624   1.320   0.070   5.308
 6909SOL     OW21625   5.238   4.654   1.343
 6909SOL    HW121626   5.302   4.689   1.274
 6909SOL    HW221627   5.227   4.723   1.415
 6910SOL     OW21628   6.349   2.537   2.751
 6910SOL    HW121629   6.281   2.465   2.763
 6910SOL    HW221630   6.332   2.586   2.665
 6911SOL     OW21631   3.942   0.190   3.197
 6911SOL    HW121632   3.943   0.259   3.125
 6911SOL    HW221633   3.870   0.123   3.177
 6912SOL     OW21634   4.617   5.020   1.828
 6912SOL    HW121635   4.672   5.075   1.891
 6912SOL    HW221636   4.646   4.924   1.835
 6913SOL     OW21637   5.203   4.648   5.274
 6913SOL    HW121638   5.233   4.553   5.265
 6913SOL    HW221639   5.131   4.667   5.208
 6914SOL     OW21640   6.362   5.000   6.840
 6914SOL    HW121641   6.430   4.982   6.910
 6914SOL    HW221642   6.404   5.052   6.766
 6915SOL     OW21643   6.935   4.619   1.774
 6915SOL    HW121644   6.967   4.579   1.688
 6915SOL    HW221645   7.008   4.613   1.843
 6916SOL     OW21646   6.284   3.869   7.008
 6916SOL    HW121647   6.365   3.835   0.026
 6916SOL    HW221648   6.311   3.923   6.929
 6917SOL     OW21649   3.508   5.321   0.261
 6917SOL    HW121650   3.430   5.298   0.319
 6917SOL    HW221651   3.540   5.239   0.213
 6918SOL     OW21652   0.935   4.493   4.330
 6918SOL    HW121653   0.922   4.402   4.370
 6918SOL    HW221654   0.870   4.557   4.370
 6919SOL     OW21655   0.764   5.833   2.703
 6919SOL    HW121656   0.836   5.764   2.694
 6919SOL    HW221657   0.702   5.807   2.777
 6920SOL     OW21658   4.331   5.332   5.627
 6920SOL    HW121659   4.293   5.294   5.542
 6920SOL    HW221660   4.387   5.412   5.607
 6921SOL     OW21661   4.877   5.865   3.112
 6921SOL    HW121662   4.859   5.942   3.173
 6921SOL    HW221663   4.850   5.779   3.156
 6922SOL     OW21664   1.633   5.636   6.695
 6922SOL    HW121665   1.578   5.595   6.768
 6922SOL    HW221666   1.585   5.627   6.608
 6923SOL     OW21667   5.514   6.778   3.336
 6923SOL    HW121668   5.571   6.804   3.413
 6923SOL    HW221669   5.500   6.679   3.336
 6924SOL     OW21670   0.668   4.127   6.507
 6924SOL    HW121671   0.754   4.105   6.553
 6924SOL    HW221672   0.592   4.117   6.572
 6925SOL     OW21673   3.767   6.141   3.952
 6925SOL    HW121674   3.736   6.176   4.040
 6925SOL    HW221675   3.693   6.147   3.885
 6926SOL     OW21676   3.542   2.947   2.419
 6926SOL    HW121677   3.601   2.975   2.496
 6926SOL    HW221678   3.599   2.912   2.345
 6927SOL     OW21679   6.065   3.407   6.114
 6927SOL    HW121680   6.059   3.308   6.132
 6927SOL    HW221681   6.024   3.457   6.190
 6928SOL     OW21682   6.201   6.715   0.903
 6928SOL    HW121683   6.202   6.793   0.840
 6928SOL    HW221684   6.133   6.731   0.975
 6929SOL     OW21685   5.066   5.569   0.905
 6929SOL    HW121686   4.986   5.622   0.875
 6929SOL    HW221687   5.046   5.471   0.897
 6930SOL     OW21688   0.439   0.026   1.879
 6930SOL    HW121689   0.378   0.006   1.956
 6930SOL    HW221690   0.532   0.036   1.912
 6931SOL     OW21691   0.708   0.679   2.050
 6931SOL    HW121692   0.690   0.773   2.020
 6931SOL    HW221693   0.794   0.676   2.101
 6932SOL     OW21694   3.945   1.422   0.694
 6932SOL    HW121695   4.028   1.386   0.652
 6932SOL    HW221696   3.908   1.495   0.636
 6933SOL     OW21697   3.226   6.812   5.285
 6933SOL    HW121698   3.156   6.883   5.298
 6933SOL    HW221699   3.191   6.743   5.222
 6934SOL     OW21700   4.636   4.228   6.007
 6934SOL    HW121701   4.557   4.202   5.951
 6934SOL    HW221702   4.684   4.146   6.038
 6935SOL     OW21703   4.172   6.344   3.249
 6935SOL    HW121704   4.117   6.420   3.283
 6935SOL    HW221705   4.248   6.327   3.311
 6936SOL     OW21706   6.424   2.383   2.370
 6936SOL    HW121707   6.446   2.297   2.418
 6936SOL    HW221708   6.395   2.362   2.277
 6937SOL     OW21709   6.355   6.634   6.884
 6937SOL    HW121710   6.387   6.566   6.951
 6937SOL    HW221711   6.273   6.599   6.838
 6938SOL     OW21712   5.233   4.039   5.365
 6938SOL    HW121713   5.232   4.042   5.465
 6938SOL    HW221714   5.305   3.977   5.334
 6939SOL     OW21715   6.705   4.960   2.262
 6939SOL    HW121716   6.615   4.936   2.298
 6939SOL    HW221717   6.736   5.045   2.305
 6940SOL     OW21718   5.102   1.437   0.375
 6940SOL    HW121719   5.074   1.442   0.471
 6940SOL    HW221720   5.102   1.341   0.345
 6941SOL     OW21721   3.956   3.012   2.835
 6941SOL    HW121722   3.988   2.917   2.838
 6941SOL    HW221723   3.937   3.044   2.928
 6942SOL     OW21724   6.404   2.914   0.665
 6942SOL    HW121725   6.437   2.820   0.672
 6942SOL    HW221726   6.306   2.915   0.683
 6943SOL     OW21727   4.736   6.241   6.993
 6943SOL    HW121728   4.789   6.291   6.924
 6943SOL    HW221729   4.771   6.263   0.054
 6944SOL     OW21730   1.402   4.565   5.668
 6944SOL    HW121731   1.362   4.479   5.637
 6944SOL    HW221732   1.495   4.548   5.701
 6945SOL     OW21733   5.821   2.923   6.531
 6945SOL    HW121734   5.827   2.823   6.528
 6945SOL    HW221735   5.876   2.957   6.607
 6946SOL     OW21736   6.004   5.921   2.354
 6946SOL    HW121737   6.029   5.904   2.449
 6946SOL    HW221738   5.919   5.973   2.351
 6947SOL     OW21739   3.371   0.090   5.215
 6947SOL    HW121740   3.383   0.186   5.190
 6947SOL    HW221741   3.454   0.057   5.259
 6948SOL     OW21742   6.025   0.306   0.284
 6948SOL    HW121743   5.964   0.347   0.216
 6948SOL    HW221744   6.002   0.342   0.374
 6949SOL     OW21745   5.705   6.774   3.982
 6949SOL    HW121746   5.609   6.797   3.969
 6949SOL    HW221747   5.746   6.752   3.893
 6950SOL     OW21748   2.664   0.103   2.977
 6950SOL    HW121749   2.665   0.199   3.004
 6950SOL    HW221750   2.744   0.057   3.016
 6951SOL     OW21751   5.467   5.913   5.738
 6951SOL    HW121752   5.552   5.961   5.763
 6951SOL    HW221753   5.452   5.922   5.640
 6952SOL     OW21754   6.884   6.164   3.628
 6952SOL    HW121755   6.819   6.177   3.553
 6952SOL    HW221756   6.901   6.252   3.673
 6953SOL     OW21757   5.094   6.797   6.694
 6953SOL    HW121758   5.099   6.853   6.611
 6953SOL    HW221759   5.125   6.850   6.772
 6954SOL     OW21760   0.872   3.655   4.169
 6954SOL    HW121761   0.924   3.672   4.086
 6954SOL    HW221762   0.891   3.726   4.236
 6955SOL     OW21763   6.729   0.024   2.186
 6955SOL    HW121764   6.630   0.016   2.175
 6955SOL    HW221765   6.768   0.070   2.106
 6956SOL     OW21766   4.417   6.349   2.996
 6956SOL    HW121767   4.462   6.264   2.969
 6956SOL    HW221768   4.318   6.335   3.001
 6957SOL     OW21769   6.375   4.946   1.710
 6957SOL    HW121770   6.298   4.921   1.652
 6957SOL    HW221771   6.422   5.025   1.672
 6958SOL     OW21772   3.163   3.955   5.517
 6958SOL    HW121773   3.195   3.863   5.537
 6958SOL    HW221774   3.160   3.969   5.418
 6959SOL     OW21775   2.371   0.915   4.762
 6959SOL    HW121776   2.402   0.889   4.670
 6959SOL    HW221777   2.303   0.988   4.754
 6960SOL     OW21778   0.771   4.945   0.428
 6960SOL    HW121779   0.731   4.882   0.495
 6960SOL    HW221780   0.715   5.027   0.421
 6961SOL     OW21781   7.029   2.644   4.306
 6961SOL    HW121782   0.023   2.734   4.270
 6961SOL    HW221783   7.025   2.577   4.231
 6962SOL     OW21784   5.122   5.348   2.468
 6962SOL    HW121785   5.061   5.399   2.407
 6962SOL    HW221786   5.068   5.305   2.540
 6963SOL     OW21787   6.999   5.561   0.597
 6963SOL    HW121788   6.992   5.478   0.541
 6963SOL    HW221789   0.066   5.589   0.603
 6964SOL     OW21790   4.940   4.822   4.345
 6964SOL    HW121791   4.937   4.854   4.440
 6964SOL    HW221792   5.004   4.746   4.337
 6965SOL     OW21793   0.892   3.782   5.836
 6965SOL    HW121794   0.893   3.849   5.762
 6965SOL    HW221795   0.890   3.690   5.798
 6966SOL     OW21796   6.189   2.427   3.000
 6966SOL    HW121797   6.114   2.456   3.058
 6966SOL    HW221798   6.276   2.443   3.046
 6967SOL     OW21799   1.549   1.821   5.340
 6967SOL    HW121800   1.455   1.852   5.358
 6967SOL    HW221801   1.554   1.722   5.356
 6968SOL     OW21802   3.545   6.605   2.814
 6968SOL    HW121803   3.546   6.509   2.841
 6968SOL    HW221804   3.594   6.615   2.727
 6969SOL     OW21805   3.508   2.165   1.479
 6969SOL    HW121806   3.421   2.116   1.475
 6969SOL    HW221807   3.544   2.176   1.386
 6970SOL     OW21808   4.614   3.637   0.272
 6970SOL    HW121809   4.662   3.597   0.194
 6970SOL    HW221810   4.676   3.642   0.350
 6971SOL     OW21811   6.415   4.144   2.234
 6971SOL    HW121812   6.350   4.118   2.305
 6971SOL    HW221813   6.451   4.061   2.190
 6972SOL     OW21814   5.667   5.146   4.139
 6972SOL    HW121815   5.624   5.080   4.200
 6972SOL    HW221816   5.737   5.100   4.084
 6973SOL     OW21817   1.027   3.922   5.230
 6973SOL    HW121818   1.049   3.840   5.177
 6973SOL    HW221819   0.928   3.930   5.239
 6974SOL     OW21820   3.108   3.152   2.951
 6974SOL    HW121821   3.068   3.093   2.882
 6974SOL    HW221822   3.068   3.244   2.943
 6975SOL     OW21823   2.953   6.985   6.356
 6975SOL    HW121824   2.935   6.924   6.279
 6975SOL    HW221825   2.978   6.931   6.436
 6976SOL     OW21826   4.120   4.685   6.000
 6976SOL    HW121827   4.053   4.612   6.012
 6976SOL    HW221828   4.073   4.770   5.978
 6977SOL     OW21829   5.419   2.156   1.781
 6977SOL    HW121830   5.494   2.136   1.844
 6977SOL    HW221831   5.379   2.245   1.804
 6978SOL     OW21832   6.212   2.222   1.186
 6978SOL    HW121833   6.230   2.264   1.275
 6978SOL    HW221834   6.161   2.137   1.200
 6979SOL     OW21835   1.103   5.360   0.763
 6979SOL    HW121836   1.068   5.325   0.850
 6979SOL    HW221837   1.199   5.386   0.774
 6980SOL     OW21838   2.051   0.662   3.854
 6980SOL    HW121839   2.063   0.563   3.860
 6980SOL    HW221840   1.997   0.694   3.931
 6981SOL     OW21841   2.430   2.914   6.765
 6981SOL    HW121842   2.366   2.862   6.708
 6981SOL    HW221843   2.380   2.984   6.815
 6982SOL     OW21844   1.077   1.507   4.118
 6982SOL    HW121845   1.073   1.442   4.042
 6982SOL    HW221846   1.062   1.459   4.204
 6983SOL     OW21847   5.819   2.396   3.385
 6983SOL    HW121848   5.731   2.442   3.371
 6983SOL    HW221849   5.891   2.445   3.337
 6984SOL     OW21850   1.927   2.422   4.605
 6984SOL    HW121851   1.928   2.475   4.520
 6984SOL    HW221852   1.966   2.332   4.588
 6985SOL     OW21853   3.886   5.448   2.027
 6985SOL    HW121854   3.923   5.358   2.051
 6985SOL    HW221855   3.806   5.468   2.083
 6986SOL     OW21856   1.559   6.042   6.368
 6986SOL    HW121857   1.621   6.118   6.351
 6986SOL    HW221858   1.582   5.998   6.455
 6987SOL     OW21859   1.202   1.780   6.085
 6987SOL    HW121860   1.230   1.864   6.132
 6987SOL    HW221861   1.134   1.803   6.015
 6988SOL     OW21862   6.277   0.964   5.337
 6988SOL    HW121863   6.226   1.011   5.264
 6988SOL    HW221864   6.242   0.871   5.347
 6989SOL     OW21865   0.271   3.556   3.750
 6989SOL    HW121866   0.306   3.491   3.683
 6989SOL    HW221867   0.347   3.588   3.807
 6990SOL     OW21868   5.669   2.079   0.278
 6990SOL    HW121869   5.577   2.072   0.316
 6990SOL    HW221870   5.692   2.176   0.267
 6991SOL     OW21871   2.381   4.403   3.805
 6991SOL    HW121872   2.450   4.408   3.733
 6991SOL    HW221873   2.357   4.495   3.835
 6992SOL     OW21874   6.295   6.235   4.779
 6992SOL    HW121875   6.288   6.141   4.812
 6992SOL    HW221876   6.225   6.251   4.709
 6993SOL     OW21877   6.782   0.530   2.323
 6993SOL    HW121878   6.746   0.604   2.266
 6993SOL    HW221879   6.779   0.558   2.419
 6994SOL     OW21880   0.776   2.918   4.876
 6994SOL    HW121881   0.683   2.886   4.895
 6994SOL    HW221882   0.840   2.842   4.885
 6995SOL     OW21883   6.141   5.708   5.454
 6995SOL    HW121884   6.098   5.618   5.453
 6995SOL    HW221885   6.099   5.765   5.383
 6996SOL     OW21886   1.998   0.494   4.952
 6996SOL    HW121887   2.018   0.477   5.049
 6996SOL    HW221888   2.068   0.553   4.913
 6997SOL     OW21889   5.774   6.074   5.000
 6997SOL    HW121890   5.754   6.070   5.097
 6997SOL    HW221891   5.743   5.989   4.956
 6998SOL     OW21892   2.064   2.057   1.921
 6998SOL    HW121893   2.117   2.086   2.000
 6998SOL    HW221894   2.066   2.129   1.851
 6999SOL     OW21895   2.243   2.171   6.765
 6999SOL    HW121896   2.261   2.260   6.807
 6999SOL    HW221897   2.260   2.177   6.666
 7000SOL     OW21898   6.812   5.800   2.881
 7000SOL    HW121899   6.753   5.856   2.823
 7000SOL    HW221900   6.833   5.850   2.965
 7001SOL     OW21901   2.587   3.003   5.464
 7001SOL    HW121902   2.544   3.008   5.373
 7001SOL    HW221903   2.580   3.092   5.509
 7002SOL     OW21904   2.170   4.960   2.720
 7002SOL    HW121905   2.235   4.885   2.709
 7002SOL    HW221906   2.215   5.035   2.770
 7003SOL     OW21907   3.698   6.090   0.226
 7003SOL    HW121908   3.761   6.083   0.150
 7003SOL    HW221909   3.659   6.183   0.230
 7004SOL     OW21910   2.086   5.023   1.839
 7004SOL    HW121911   2.020   4.980   1.776
 7004SOL    HW221912   2.152   4.954   1.869
 7005SOL     OW21913   0.571   6.121   6.086
 7005SOL    HW121914   0.619   6.118   5.998
 7005SOL    HW221915   0.634   6.148   6.158
 7006SOL     OW21916   5.389   4.969   4.850
 7006SOL    HW121917   5.472   4.927   4.885
 7006SOL    HW221918   5.358   5.040   4.913
 7007SOL     OW21919   5.090   6.963   3.237
 7007SOL    HW121920   5.177   6.940   3.192
 7007SOL    HW221921   5.068   6.893   3.304
 7008SOL     OW21922   2.037   5.543   4.244
 7008SOL    HW121923   2.041   5.457   4.294
 7008SOL    HW221924   2.130   5.577   4.229
 7009SOL     OW21925   5.775   5.640   2.388
 7009SOL    HW121926   5.854   5.688   2.350
 7009SOL    HW221927   5.807   5.558   2.437
 7010SOL     OW21928   4.499   3.712   5.841
 7010SOL    HW121929   4.411   3.683   5.878
 7010SOL    HW221930   4.521   3.655   5.761
 7011SOL     OW21931   1.963   0.734   6.712
 7011SOL    HW121932   2.004   0.711   6.801
 7011SOL    HW221933   2.036   0.747   6.645
 7012SOL     OW21934   2.256   0.765   2.338
 7012SOL    HW121935   2.268   0.797   2.244
 7012SOL    HW221936   2.284   0.669   2.344
 7013SOL     OW21937   0.399   6.703   1.019
 7013SOL    HW121938   0.394   6.623   0.960
 7013SOL    HW221939   0.493   6.715   1.052
 7014SOL     OW21940   4.949   3.008   1.125
 7014SOL    HW121941   4.900   2.959   1.054
 7014SOL    HW221942   4.992   2.943   1.187
 7015SOL     OW21943   5.773   4.859   2.358
 7015SOL    HW121944   5.723   4.831   2.277
 7015SOL    HW221945   5.870   4.871   2.335
 7016SOL     OW21946   3.711   5.023   2.098
 7016SOL    HW121947   3.708   4.968   2.015
 7016SOL    HW221948   3.771   5.102   2.085
 7017SOL     OW21949   2.049   6.896   2.355
 7017SOL    HW121950   2.141   6.937   2.353
 7017SOL    HW221951   1.981   6.969   2.350
 7018SOL     OW21952   6.546   4.281   5.191
 7018SOL    HW121953   6.545   4.381   5.198
 7018SOL    HW221954   6.526   4.241   5.281
 7019SOL     OW21955   3.121   4.486   0.026
 7019SOL    HW121956   3.132   4.457   6.961
 7019SOL    HW221957   3.128   4.585   0.032
 7020SOL     OW21958   6.327   6.879   6.437
 7020SOL    HW121959   6.362   6.829   6.516
 7020SOL    HW221960   6.398   6.884   6.366
 7021SOL     OW21961   2.071   1.119   5.345
 7021SOL    HW121962   1.985   1.082   5.308
 7021SOL    HW221963   2.092   1.206   5.301
 7022SOL     OW21964   4.469   5.012   1.141
 7022SOL    HW121965   4.518   5.007   1.228
 7022SOL    HW221966   4.394   4.945   1.141
 7023SOL     OW21967   0.553   2.020   3.770
 7023SOL    HW121968   0.562   2.120   3.763
 7023SOL    HW221969   0.553   1.994   3.867
 7024SOL     OW21970   1.726   4.966   6.067
 7024SOL    HW121971   1.628   4.946   6.065
 7024SOL    HW221972   1.772   4.909   5.999
 7025SOL     OW21973   2.852   1.325   0.167
 7025SOL    HW121974   2.824   1.392   0.099
 7025SOL    HW221975   2.823   1.356   0.258
 7026SOL     OW21976   3.054   1.577   2.231
 7026SOL    HW121977   3.087   1.635   2.157
 7026SOL    HW221978   2.976   1.523   2.199
 7027SOL     OW21979   2.701   4.799   2.674
 7027SOL    HW121980   2.728   4.742   2.752
 7027SOL    HW221981   2.694   4.743   2.592
 7028SOL     OW21982   6.323   0.054   4.237
 7028SOL    HW121983   6.325   0.091   4.330
 7028SOL    HW221984   6.394   0.097   4.182
 7029SOL     OW21985   4.162   6.902   6.650
 7029SOL    HW121986   4.119   6.813   6.639
 7029SOL    HW221987   4.261   6.891   6.659
 7030SOL     OW21988   6.641   2.188   5.721
 7030SOL    HW121989   6.614   2.109   5.665
 7030SOL    HW221990   6.610   2.174   5.815
 7031SOL     OW21991   2.126   5.926   4.383
 7031SOL    HW121992   2.222   5.905   4.405
 7031SOL    HW221993   2.121   5.968   4.293
 7032SOL     OW21994   3.394   6.541   3.841
 7032SOL    HW121995   3.437   6.614   3.789
 7032SOL    HW221996   3.409   6.453   3.796
 7033SOL     OW21997   0.107   2.011   3.813
 7033SOL    HW121998   0.025   2.068   3.806
 7033SOL    HW221999   0.091   1.938   3.879
 7034SOL     OW22000   6.288   0.578   2.564
 7034SOL    HW122001   6.194   0.555   2.588
 7034SOL    HW222002   6.346   0.497   2.577
 7035SOL     OW22003   1.238   6.631   2.035
 7035SOL    HW122004   1.262   6.727   2.026
 7035SOL    HW222005   1.179   6.618   2.115
 7036SOL     OW22006   0.024   0.482   1.631
 7036SOL    HW122007   0.102   0.488   1.693
 7036SOL    HW222008   6.978   0.537   1.667
 7037SOL     OW22009   1.452   0.741   6.175
 7037SOL    HW122010   1.471   0.659   6.228
 7037SOL    HW222011   1.389   0.800   6.227
 7038SOL     OW22012   1.740   3.528   3.993
 7038SOL    HW122013   1.727   3.438   4.034
 7038SOL    HW222014   1.673   3.592   4.030
 7039SOL     OW22015   2.988   5.745   0.969
 7039SOL    HW122016   2.936   5.741   1.054
 7039SOL    HW222017   2.998   5.652   0.932
 7040SOL     OW22018   5.558   1.708   5.260
 7040SOL    HW122019   5.460   1.723   5.270
 7040SOL    HW222020   5.575   1.668   5.170
 7041SOL     OW22021   0.366   2.024   2.944
 7041SOL    HW122022   0.450   1.972   2.926
 7041SOL    HW222023   0.307   2.020   2.863
 7042SOL     OW22024   5.694   5.292   6.939
 7042SOL    HW122025   5.706   5.362   6.869
 7042SOL    HW222026   5.747   5.317   7.020
 7043SOL     OW22027   2.284   2.934   3.309
 7043SOL    HW122028   2.318   2.843   3.332
 7043SOL    HW222029   2.184   2.933   3.309
 7044SOL     OW22030   4.995   4.670   2.615
 7044SOL    HW122031   4.959   4.689   2.706
 7044SOL    HW222032   4.941   4.599   2.571
 7045SOL     OW22033   5.162   5.737   2.236
 7045SOL    HW122034   5.217   5.806   2.188
 7045SOL    HW222035   5.144   5.660   2.175
 7046SOL     OW22036   3.587   1.880   3.466
 7046SOL    HW122037   3.622   1.932   3.388
 7046SOL    HW222038   3.625   1.918   3.550
 7047SOL     OW22039   0.773   2.459   2.704
 7047SOL    HW122040   0.830   2.389   2.747
 7047SOL    HW222041   0.744   2.525   2.773
 7048SOL     OW22042   7.021   5.348   1.822
 7048SOL    HW122043   6.998   5.444   1.804
 7048SOL    HW222044   6.965   5.289   1.765
 7049SOL     OW22045   2.268   1.566   1.220
 7049SOL    HW122046   2.172   1.567   1.194
 7049SOL    HW222047   2.309   1.479   1.194
 7050SOL     OW22048   4.104   3.705   2.867
 7050SOL    HW122049   4.041   3.778   2.842
 7050SOL    HW222050   4.165   3.686   2.790
 7051SOL     OW22051   0.047   1.063   0.890
 7051SOL    HW122052   0.063   0.994   0.819
 7051SOL    HW222053   0.081   1.028   0.978
 7052SOL     OW22054   5.931   2.915   4.086
 7052SOL    HW122055   5.986   2.947   4.163
 7052SOL    HW222056   5.964   2.826   4.055
 7053SOL     OW22057   0.890   3.417   4.829
 7053SOL    HW122058   0.813   3.477   4.849
 7053SOL    HW222059   0.871   3.325   4.865
 7054SOL     OW22060   1.175   5.832   1.349
 7054SOL    HW122061   1.244   5.857   1.281
 7054SOL    HW222062   1.084   5.850   1.312
 7055SOL     OW22063   3.547   6.310   5.395
 7055SOL    HW122064   3.536   6.211   5.396
 7055SOL    HW222065   3.636   6.334   5.357
 7056SOL     OW22066   6.039   5.998   2.669
 7056SOL    HW122067   5.957   6.029   2.717
 7056SOL    HW222068   6.088   6.078   2.633
 7057SOL     OW22069   1.378   5.570   3.692
 7057SOL    HW122070   1.347   5.507   3.621
 7057SOL    HW222071   1.475   5.590   3.678
 7058SOL     OW22072   6.105   5.779   6.364
 7058SOL    HW122073   6.182   5.819   6.314
 7058SOL    HW222074   6.117   5.680   6.370
 7059SOL     OW22075   0.171   0.987   3.141
 7059SOL    HW122076   0.212   1.048   3.209
 7059SOL    HW222077   0.147   0.900   3.185
 7060SOL     OW22078   3.753   6.818   1.835
 7060SOL    HW122079   3.699   6.747   1.791
 7060SOL    HW222080   3.788   6.881   1.766
 7061SOL     OW22081   0.134   2.802   3.707
 7061SOL    HW122082   0.104   2.812   3.612
 7061SOL    HW222083   0.206   2.869   3.726
 7062SOL     OW22084   5.541   1.175   5.962
 7062SOL    HW122085   5.602   1.240   5.917
 7062SOL    HW222086   5.568   1.165   6.058
 7063SOL     OW22087   0.314   0.345   0.803
 7063SOL    HW122088   0.358   0.423   0.760
 7063SOL    HW222089   0.248   0.304   0.740
 7064SOL     OW22090   4.230   2.191   2.056
 7064SOL    HW122091   4.144   2.202   2.006
 7064SOL    HW222092   4.295   2.138   2.001
 7065SOL     OW22093   4.250   3.356   6.883
 7065SOL    HW122094   4.247   3.445   6.838
 7065SOL    HW222095   4.270   3.285   6.815
 7066SOL     OW22096   4.353   0.462   0.780
 7066SOL    HW122097   4.323   0.535   0.719
 7066SOL    HW222098   4.278   0.437   0.842
 7067SOL     OW22099   1.770   1.889   5.186
 7067SOL    HW122100   1.682   1.889   5.233
 7067SOL    HW222101   1.817   1.976   5.202
 7068SOL     OW22102   0.744   4.519   4.021
 7068SOL    HW122103   0.792   4.432   4.027
 7068SOL    HW222104   0.809   4.594   4.031
 7069SOL     OW22105   5.928   2.511   4.062
 7069SOL    HW122106   5.925   2.541   4.157
 7069SOL    HW222107   5.835   2.504   4.026
 7070SOL     OW22108   0.027   6.675   4.840
 7070SOL    HW122109   0.082   6.592   4.848
 7070SOL    HW222110   0.074   6.740   4.779
 7071SOL     OW22111   1.382   6.208   6.029
 7071SOL    HW122112   1.286   6.226   6.004
 7071SOL    HW222113   1.440   6.274   5.982
 7072SOL     OW22114   0.300   6.179   6.084
 7072SOL    HW122115   0.284   6.256   6.022
 7072SOL    HW222116   0.398   6.160   6.088
 7073SOL     OW22117   5.675   6.678   4.666
 7073SOL    HW122118   5.652   6.772   4.640
 7073SOL    HW222119   5.688   6.623   4.584
 7074SOL     OW22120   4.243   2.470   1.286
 7074SOL    HW122121   4.250   2.542   1.218
 7074SOL    HW222122   4.215   2.385   1.242
 7075SOL     OW22123   0.902   5.486   5.736
 7075SOL    HW122124   0.969   5.524   5.799
 7075SOL    HW222125   0.949   5.446   5.657
 7076SOL     OW22126   4.542   2.040   6.880
 7076SOL    HW122127   4.456   2.065   6.835
 7076SOL    HW222128   4.610   2.112   6.863
 7077SOL     OW22129   2.225   4.280   4.988
 7077SOL    HW122130   2.297   4.338   4.951
 7077SOL    HW222131   2.261   4.188   5.003
 7078SOL     OW22132   6.304   0.593   1.251
 7078SOL    HW122133   6.237   0.530   1.213
 7078SOL    HW222134   6.279   0.687   1.227
 7079SOL     OW22135   6.430   6.730   5.412
 7079SOL    HW122136   6.340   6.774   5.414
 7079SOL    HW222137   6.429   6.651   5.473
 7080SOL     OW22138   3.280   2.131   4.509
 7080SOL    HW122139   3.183   2.131   4.485
 7080SOL    HW222140   3.290   2.152   4.607
 7081SOL     OW22141   2.981   1.554   6.671
 7081SOL    HW122142   3.052   1.567   6.601
 7081SOL    HW222143   2.931   1.470   6.652
 7082SOL     OW22144   6.557   4.669   6.809
 7082SOL    HW122145   6.463   4.636   6.800
 7082SOL    HW222146   6.577   4.731   6.733
 7083SOL     OW22147   3.128   1.292   0.214
 7083SOL    HW122148   3.136   1.208   0.267
 7083SOL    HW222149   3.040   1.293   0.167
 7084SOL     OW22150   0.287   6.687   5.701
 7084SOL    HW122151   0.286   6.783   5.675
 7084SOL    HW222152   0.330   6.677   5.790
 7085SOL     OW22153   1.853   1.610   2.126
 7085SOL    HW122154   1.804   1.524   2.135
 7085SOL    HW222155   1.940   1.594   2.078
 7086SOL     OW22156   4.918   0.867   5.549
 7086SOL    HW122157   4.855   0.881   5.472
 7086SOL    HW222158   5.010   0.851   5.513
 7087SOL     OW22159   5.835   4.748   4.048
 7087SOL    HW122160   5.856   4.700   4.133
 7087SOL    HW222161   5.748   4.716   4.011
 7088SOL     OW22162   5.418   2.383   3.517
 7088SOL    HW122163   5.375   2.300   3.483
 7088SOL    HW222164   5.509   2.362   3.553
 7089SOL     OW22165   3.851   2.267   5.434
 7089SOL    HW122166   3.924   2.217   5.388
 7089SOL    HW222167   3.770   2.270   5.375
 7090SOL     OW22168   2.395   1.727   6.417
 7090SOL    HW122169   2.341   1.644   6.402
 7090SOL    HW222170   2.404   1.743   6.515
 7091SOL     OW22171   0.246   1.765   0.155
 7091SOL    HW122172   0.174   1.696   0.161
 7091SOL    HW222173   0.318   1.733   0.093
 7092SOL     OW22174   4.519   2.889   6.467
 7092SOL    HW122175   4.543   2.984   6.449
 7092SOL    HW222176   4.467   2.853   6.390
 7093SOL     OW22177   2.923   3.714   3.237
 7093SOL    HW122178   2.886   3.783   3.174
 7093SOL    HW222179   2.905   3.623   3.200
 7094SOL     OW22180   0.722   5.159   5.742
 7094SOL    HW122181   0.764   5.211   5.668
 7094SOL    HW222182   0.646   5.104   5.705
 7095SOL     OW22183   3.644   3.688   6.591
 7095SOL    HW122184   3.617   3.601   6.551
 7095SOL    HW222185   3.627   3.687   6.689
 7096SOL     OW22186   6.188   0.406   3.625
 7096SOL    HW122187   6.196   0.490   3.572
 7096SOL    HW222188   6.118   0.418   3.695
 7097SOL     OW22189   6.008   0.981   1.467
 7097SOL    HW122190   5.910   0.981   1.484
 7097SOL    HW222191   6.034   1.064   1.418
 7098SOL     OW22192   0.747   0.736   4.104
 7098SOL    HW122193   0.721   0.780   4.018
 7098SOL    HW222194   0.670   0.682   4.139
 7099SOL     OW22195   2.934   0.969   5.059
 7099SOL    HW122196   3.019   0.998   5.103
 7099SOL    HW222197   2.938   0.871   5.041
 7100SOL     OW22198   5.804   3.364   1.151
 7100SOL    HW122199   5.900   3.339   1.163
 7100SOL    HW222200   5.756   3.289   1.106
 7101SOL     OW22201   1.942   0.242   4.851
 7101SOL    HW122202   1.955   0.329   4.898
 7101SOL    HW222203   1.846   0.216   4.854
 7102SOL     OW22204   4.548   0.628   0.881
 7102SOL    HW122205   4.611   0.657   0.809
 7102SOL    HW222206   4.523   0.532   0.866
 7103SOL     OW22207   4.569   5.124   1.418
 7103SOL    HW122208   4.483   5.175   1.419
 7103SOL    HW222209   4.551   5.028   1.395
 7104SOL     OW22210   1.262   3.600   4.981
 7104SOL    HW122211   1.168   3.585   5.014
 7104SOL    HW222212   1.326   3.555   5.043
 7105SOL     OW22213   2.975   2.815   5.406
 7105SOL    HW122214   2.991   2.901   5.357
 7105SOL    HW222215   3.063   2.777   5.436
 7106SOL     OW22216   2.998   3.766   2.800
 7106SOL    HW122217   3.055   3.690   2.832
 7106SOL    HW222218   2.979   3.755   2.702
 7107SOL     OW22219   3.123   1.478   1.123
 7107SOL    HW122220   3.077   1.566   1.131
 7107SOL    HW222221   3.212   1.491   1.078
 7108SOL     OW22222   3.819   6.475   2.773
 7108SOL    HW122223   3.866   6.388   2.786
 7108SOL    HW222224   3.720   6.459   2.775
 7109SOL     OW22225   3.594   0.107   6.497
 7109SOL    HW122226   3.694   0.106   6.494
 7109SOL    HW222227   3.562   0.184   6.551
 7110SOL     OW22228   3.546   6.177   3.788
 7110SOL    HW122229   3.572   6.237   3.712
 7110SOL    HW222230   3.447   6.177   3.798
 7111SOL     OW22231   2.216   2.387   4.410
 7111SOL    HW122232   2.258   2.322   4.348
 7111SOL    HW222233   2.145   2.341   4.464
 7112SOL     OW22234   2.176   5.831   4.009
 7112SOL    HW122235   2.211   5.773   4.083
 7112SOL    HW222236   2.161   5.923   4.043
 7113SOL     OW22237   3.495   3.833   4.903
 7113SOL    HW122238   3.458   3.763   4.964
 7113SOL    HW222239   3.572   3.795   4.852
 7114SOL     OW22240   3.739   6.468   1.371
 7114SOL    HW122241   3.785   6.523   1.301
 7114SOL    HW222242   3.667   6.413   1.327
 7115SOL     OW22243   5.259   3.170   2.186
 7115SOL    HW122244   5.194   3.231   2.140
 7115SOL    HW222245   5.258   3.080   2.142
 7116SOL     OW22246   5.259   4.159   3.502
 7116SOL    HW122247   5.279   4.069   3.541
 7116SOL    HW222248   5.328   4.181   3.433
 7117SOL     OW22249   6.738   6.384   4.781
 7117SOL    HW122250   6.792   6.324   4.722
 7117SOL    HW222251   6.642   6.378   4.756
 7118SOL     OW22252   2.433   4.200   0.531
 7118SOL    HW122253   2.367   4.274   0.530
 7118SOL    HW222254   2.441   4.163   0.624
 7119SOL     OW22255   5.035   1.476   3.311
 7119SOL    HW122256   4.946   1.518   3.295
 7119SOL    HW222257   5.097   1.502   3.236
 7120SOL     OW22258   4.062   2.046   2.244
 7120SOL    HW122259   4.143   2.103   2.231
 7120SOL    HW222260   4.001   2.057   2.165
 7121SOL     OW22261   2.314   6.899   2.306
 7121SOL    HW122262   2.332   6.943   2.393
 7121SOL    HW222263   2.394   6.908   2.246
 7122SOL     OW22264   0.325   0.622   5.816
 7122SOL    HW122265   0.304   0.619   5.718
 7122SOL    HW222266   0.359   0.712   5.841
 7123SOL     OW22267   2.174   4.766   2.245
 7123SOL    HW122268   2.267   4.764   2.283
 7123SOL    HW222269   2.155   4.857   2.210
 7124SOL     OW22270   0.163   2.433   0.454
 7124SOL    HW122271   0.254   2.428   0.414
 7124SOL    HW222272   0.129   2.527   0.449
 7125SOL     OW22273   6.441   6.581   0.939
 7125SOL    HW122274   6.470   6.507   0.879
 7125SOL    HW222275   6.349   6.611   0.914
 7126SOL     OW22276   3.447   4.450   0.385
 7126SOL    HW122277   3.504   4.411   0.457
 7126SOL    HW222278   3.358   4.476   0.423
 7127SOL     OW22279   1.962   6.064   4.562
 7127SOL    HW122280   2.016   6.004   4.503
 7127SOL    HW222281   1.940   6.149   4.513
 7128SOL     OW22282   2.861   5.261   0.399
 7128SOL    HW122283   2.851   5.164   0.378
 7128SOL    HW222284   2.805   5.315   0.336
 7129SOL     OW22285   2.855   0.995   0.831
 7129SOL    HW122286   2.945   0.995   0.873
 7129SOL    HW222287   2.863   1.016   0.733
 7130SOL     OW22288   3.668   4.626   5.559
 7130SOL    HW122289   3.591   4.563   5.570
 7130SOL    HW222290   3.750   4.584   5.597
 7131SOL     OW22291   2.729   1.453   0.556
 7131SOL    HW122292   2.780   1.396   0.620
 7131SOL    HW222293   2.678   1.523   0.607
 7132SOL     OW22294   3.547   3.442   6.998
 7132SOL    HW122295   3.501   3.353   6.994
 7132SOL    HW222296   3.479   3.514   7.014
 7133SOL     OW22297   5.031   5.802   4.357
 7133SOL    HW122298   4.977   5.726   4.396
 7133SOL    HW222299   5.106   5.764   4.303
 7134SOL     OW22300   5.892   5.800   1.810
 7134SOL    HW122301   5.837   5.860   1.752
 7134SOL    HW222302   5.968   5.853   1.848
 7135SOL     OW22303   1.307   2.497   2.828
 7135SOL    HW122304   1.386   2.465   2.775
 7135SOL    HW222305   1.339   2.559   2.900
 7136SOL     OW22306   1.599   2.300   0.978
 7136SOL    HW122307   1.619   2.235   1.052
 7136SOL    HW222308   1.579   2.390   1.018
 7137SOL     OW22309   4.623   0.331   0.124
 7137SOL    HW122310   4.647   0.420   0.163
 7137SOL    HW222311   4.633   0.335   0.024
 7138SOL     OW22312   1.657   2.876   0.512
 7138SOL    HW122313   1.587   2.809   0.486
 7138SOL    HW222314   1.739   2.829   0.544
 7139SOL     OW22315   5.088   4.251   2.551
 7139SOL    HW122316   5.095   4.221   2.646
 7139SOL    HW222317   5.023   4.327   2.544
 7140SOL     OW22318   5.887   4.133   4.055
 7140SOL    HW122319   5.804   4.186   4.041
 7140SOL    HW222320   5.872   4.066   4.128
 7141SOL     OW22321   3.238   5.543   1.723
 7141SOL    HW122322   3.179   5.474   1.680
 7141SOL    HW222323   3.184   5.596   1.789
 7142SOL     OW22324   4.658   0.115   3.863
 7142SOL    HW122325   4.572   0.165   3.849
 7142SOL    HW222326   4.711   0.116   3.778
 7143SOL     OW22327   1.598   3.026   5.964
 7143SOL    HW122328   1.665   3.078   6.017
 7143SOL    HW222329   1.594   3.061   5.871
 7144SOL     OW22330   1.602   1.884   3.677
 7144SOL    HW122331   1.569   1.825   3.751
 7144SOL    HW222332   1.524   1.920   3.626
 7145SOL     OW22333   4.428   6.878   6.484
 7145SOL    HW122334   4.426   6.936   6.402
 7145SOL    HW222335   4.475   6.926   6.558
 7146SOL     OW22336   2.216   0.696   0.283
 7146SOL    HW122337   2.271   0.666   0.205
 7146SOL    HW222338   2.135   0.638   0.291
 7147SOL     OW22339   6.519   6.302   3.275
 7147SOL    HW122340   6.512   6.365   3.352
 7147SOL    HW222341   6.490   6.348   3.191
 7148SOL     OW22342   0.340   0.001   0.394
 7148SOL    HW122343   0.407   0.048   0.452
 7148SOL    HW222344   0.389   6.982   0.321
 7149SOL     OW22345   6.569   6.458   3.021
 7149SOL    HW122346   6.523   6.372   2.996
 7149SOL    HW222347   6.667   6.442   3.032
 7150SOL     OW22348   3.985   1.795   2.280
 7150SOL    HW122349   4.020   1.885   2.254
 7150SOL    HW222350   3.893   1.783   2.242
 7151SOL     OW22351   1.526   6.359   0.656
 7151SOL    HW122352   1.470   6.276   0.649
 7151SOL    HW222353   1.584   6.353   0.737
 7152SOL     OW22354   0.730   1.825   4.831
 7152SOL    HW122355   0.810   1.878   4.805
 7152SOL    HW222356   0.738   1.732   4.796
 7153SOL     OW22357   3.213   5.545   2.609
 7153SOL    HW122358   3.162   5.512   2.530
 7153SOL    HW222359   3.159   5.533   2.692
 7154SOL     OW22360   3.902   0.263   4.231
 7154SOL    HW122361   3.816   0.232   4.193
 7154SOL    HW222362   3.944   0.190   4.285
 7155SOL     OW22363   2.426   4.669   1.455
 7155SOL    HW122364   2.386   4.721   1.379
 7155SOL    HW222365   2.517   4.638   1.430
 7156SOL     OW22366   0.564   4.681   4.562
 7156SOL    HW122367   0.553   4.780   4.556
 7156SOL    HW222368   0.550   4.651   4.657
 7157SOL     OW22369   6.181   4.836   0.903
 7157SOL    HW122370   6.273   4.849   0.939
 7157SOL    HW222371   6.176   4.748   0.854
 7158SOL     OW22372   1.201   0.430   2.681
 7158SOL    HW122373   1.140   0.375   2.625
 7158SOL    HW222374   1.196   0.400   2.776
 7159SOL     OW22375   0.419   4.042   2.824
 7159SOL    HW122376   0.451   4.073   2.735
 7159SOL    HW222377   0.419   4.119   2.888
 7160SOL     OW22378   5.480   1.030   3.063
 7160SOL    HW122379   5.490   0.998   3.158
 7160SOL    HW222380   5.510   1.125   3.058
 7161SOL     OW22381   3.030   3.795   4.902
 7161SOL    HW122382   3.054   3.880   4.854
 7161SOL    HW222383   3.019   3.722   4.835
 7162SOL     OW22384   2.377   5.674   5.849
 7162SOL    HW122385   2.279   5.691   5.866
 7162SOL    HW222386   2.421   5.644   5.934
 7163SOL     OW22387   2.740   6.404   2.888
 7163SOL    HW122388   2.782   6.353   2.813
 7163SOL    HW222389   2.757   6.502   2.876
 7164SOL     OW22390   1.812   1.101   3.966
 7164SOL    HW122391   1.772   1.148   4.045
 7164SOL    HW222392   1.749   1.031   3.934
 7165SOL     OW22393   7.020   1.568   1.372
 7165SOL    HW122394   6.975   1.655   1.393
 7165SOL    HW222395   0.085   1.571   1.404
 7166SOL     OW22396   5.558   3.211   0.060
 7166SOL    HW122397   5.527   3.231   6.996
 7166SOL    HW222398   5.610   3.126   0.061
 7167SOL     OW22399   5.089   3.451   4.592
 7167SOL    HW122400   5.070   3.491   4.682
 7167SOL    HW222401   5.007   3.456   4.535
 7168SOL     OW22402   1.417   3.052   3.686
 7168SOL    HW122403   1.340   3.029   3.745
 7168SOL    HW222404   1.495   3.080   3.742
 7169SOL     OW22405   0.219   3.697   5.108
 7169SOL    HW122406   0.255   3.712   5.200
 7169SOL    HW222407   0.140   3.757   5.093
 7170SOL     OW22408   4.830   6.442   3.292
 7170SOL    HW122409   4.898   6.452   3.220
 7170SOL    HW222410   4.871   6.395   3.370
 7171SOL     OW22411   5.799   4.421   6.348
 7171SOL    HW122412   5.755   4.503   6.310
 7171SOL    HW222413   5.742   4.341   6.328
 7172SOL     OW22414   1.748   0.645   5.170
 7172SOL    HW122415   1.659   0.640   5.214
 7172SOL    HW222416   1.816   0.679   5.236
 7173SOL     OW22417   6.991   4.832   5.733
 7173SOL    HW122418   6.976   4.899   5.806
 7173SOL    HW222419   0.051   4.789   5.745
 7174SOL     OW22420   0.794   4.378   0.158
 7174SOL    HW122421   0.763   4.438   0.084
 7174SOL    HW222422   0.763   4.415   0.245
 7175SOL     OW22423   5.364   3.433   6.772
 7175SOL    HW122424   5.455   3.476   6.763
 7175SOL    HW222425   5.369   3.339   6.740
 7176SOL     OW22426   1.077   6.244   3.384
 7176SOL    HW122427   1.129   6.284   3.308
 7176SOL    HW222428   1.034   6.159   3.354
 7177SOL     OW22429   2.224   6.759   4.370
 7177SOL    HW122430   2.223   6.694   4.446
 7177SOL    HW222431   2.256   6.848   4.403
 7178SOL     OW22432   2.263   3.317   5.558
 7178SOL    HW122433   2.254   3.405   5.513
 7178SOL    HW222434   2.298   3.249   5.493
 7179SOL     OW22435   1.676   3.987   4.707
 7179SOL    HW122436   1.638   4.061   4.650
 7179SOL    HW222437   1.699   3.909   4.649
 7180SOL     OW22438   1.552   4.109   6.424
 7180SOL    HW122439   1.629   4.064   6.378
 7180SOL    HW222440   1.580   4.136   6.517
 7181SOL     OW22441   2.026   5.819   0.346
 7181SOL    HW122442   2.006   5.885   0.273
 7181SOL    HW222443   2.125   5.808   0.354
 7182SOL     OW22444   1.992   3.015   5.219
 7182SOL    HW122445   1.969   2.924   5.252
 7182SOL    HW222446   1.939   3.035   5.137
 7183SOL     OW22447   1.584   6.145   0.115
 7183SOL    HW122448   1.682   6.150   0.138
 7183SOL    HW222449   1.532   6.126   0.199
 7184SOL     OW22450   0.453   0.388   3.156
 7184SOL    HW122451   0.514   0.403   3.078
 7184SOL    HW222452   0.502   0.406   3.241
 7185SOL     OW22453   5.640   0.531   5.328
 7185SOL    HW122454   5.634   0.598   5.254
 7185SOL    HW222455   5.722   0.548   5.382
 7186SOL     OW22456   6.916   0.017   6.693
 7186SOL    HW122457   6.913   0.058   6.602
 7186SOL    HW222458   6.906   6.947   6.684
 7187SOL     OW22459   3.164   4.083   0.340
 7187SOL    HW122460   3.180   4.144   0.262
 7187SOL    HW222461   3.096   4.015   0.316
 7188SOL     OW22462   6.370   6.862   0.388
 7188SOL    HW122463   6.316   6.789   0.346
 7188SOL    HW222464   6.466   6.833   0.392
 7189SOL     OW22465   6.926   1.013   6.353
 7189SOL    HW122466   6.901   1.042   6.261
 7189SOL    HW222467   6.917   0.913   6.360
 7190SOL     OW22468   6.857   4.023   3.127
 7190SOL    HW122469   6.819   3.963   3.197
 7190SOL    HW222470   6.789   4.092   3.102
 7191SOL     OW22471   0.390   4.081   3.395
 7191SOL    HW122472   0.449   4.117   3.468
 7191SOL    HW222473   0.307   4.136   3.390
 7192SOL     OW22474   3.247   4.863   5.962
 7192SOL    HW122475   3.320   4.852   6.029
 7192SOL    HW222476   3.247   4.785   5.899
 7193SOL     OW22477   2.183   2.221   2.474
 7193SOL    HW122478   2.228   2.279   2.405
 7193SOL    HW222479   2.085   2.243   2.477
 7194SOL     OW22480   2.680   2.058   0.886
 7194SOL    HW122481   2.776   2.083   0.900
 7194SOL    HW222482   2.642   2.022   0.971
 7195SOL     OW22483   0.079   5.206   6.551
 7195SOL    HW122484   0.073   5.120   6.500
 7195SOL    HW222485   0.147   5.265   6.509
 7196SOL     OW22486   3.246   4.303   1.605
 7196SOL    HW122487   3.301   4.243   1.663
 7196SOL    HW222488   3.286   4.395   1.606
 7197SOL     OW22489   6.957   2.026   6.003
 7197SOL    HW122490   6.942   2.088   6.080
 7197SOL    HW222491   6.931   2.071   5.918
 7198SOL     OW22492   0.795   1.121   6.410
 7198SOL    HW122493   0.777   1.209   6.367
 7198SOL    HW222494   0.886   1.122   6.453
 7199SOL     OW22495   2.321   0.499   2.353
 7199SOL    HW122496   2.253   0.429   2.332
 7199SOL    HW222497   2.366   0.477   2.440
 7200SOL     OW22498   2.419   2.028   6.921
 7200SOL    HW122499   2.352   2.082   6.870
 7200SOL    HW222500   2.499   2.085   6.941
 7201SOL     OW22501   1.375   5.770   4.208
 7201SOL    HW122502   1.418   5.737   4.292
 7201SOL    HW222503   1.444   5.777   4.136
 7202SOL     OW22504   4.482   0.596   5.830
 7202SOL    HW122505   4.438   0.560   5.748
 7202SOL    HW222506   4.581   0.580   5.825
 7203SOL     OW22507   0.283   2.373   1.254
 7203SOL    HW122508   0.285   2.437   1.178
 7203SOL    HW222509   0.371   2.375   1.302
 7204SOL     OW22510   6.847   0.116   5.321
 7204SOL    HW122511   6.802   0.195   5.363
 7204SOL    HW222512   6.802   0.032   5.352
 7205SOL     OW22513   1.194   5.700   3.046
 7205SOL    HW122514   1.282   5.707   3.093
 7205SOL    HW222515   1.167   5.604   3.040
 7206SOL     OW22516   1.894   0.467   0.961
 7206SOL    HW122517   1.869   0.555   0.920
 7206SOL    HW222518   1.815   0.430   1.010
 7207SOL     OW22519   3.686   6.974   2.088
 7207SOL    HW122520   3.730   6.892   2.053
 7207SOL    HW222521   3.739   0.025   2.060
 7208SOL     OW22522   4.367   6.345   3.959
 7208SOL    HW122523   4.345   6.403   4.037
 7208SOL    HW222524   4.456   6.372   3.922
 7209SOL     OW22525   3.354   3.534   2.104
 7209SOL    HW122526   3.282   3.515   2.171
 7209SOL    HW222527   3.435   3.479   2.125
 7210SOL     OW22528   4.431   6.767   4.166
 7210SOL    HW122529   4.341   6.755   4.125
 7210SOL    HW222530   4.452   6.865   4.173
 7211SOL     OW22531   2.727   5.367   3.749
 7211SOL    HW122532   2.716   5.282   3.801
 7211SOL    HW222533   2.761   5.439   3.809
 7212SOL     OW22534   0.873   6.575   4.051
 7212SOL    HW122535   0.946   6.510   4.071
 7212SOL    HW222536   0.909   6.650   3.995
 7213SOL     OW22537   6.135   0.365   6.521
 7213SOL    HW122538   6.162   0.274   6.555
 7213SOL    HW222539   6.101   0.420   6.596
 7214SOL     OW22540   1.124   6.255   5.056
 7214SOL    HW122541   1.069   6.337   5.042
 7214SOL    HW222542   1.095   6.210   5.141
 7215SOL     OW22543   0.193   2.950   4.475
 7215SOL    HW122544   0.263   2.886   4.444
 7215SOL    HW222545   0.114   2.900   4.508
 7216SOL     OW22546   2.231   6.231   0.426
 7216SOL    HW122547   2.190   6.227   0.335
 7216SOL    HW222548   2.323   6.194   0.423
 7217SOL     OW22549   2.234   4.050   2.598
 7217SOL    HW122550   2.283   4.066   2.513
 7217SOL    HW222551   2.196   3.958   2.598
 7218SOL     OW22552   5.150   2.190   5.208
 7218SOL    HW122553   5.115   2.240   5.129
 7218SOL    HW222554   5.191   2.254   5.273
 7219SOL     OW22555   4.770   6.182   4.409
 7219SOL    HW122556   4.853   6.237   4.405
 7219SOL    HW222557   4.690   6.243   4.415
 7220SOL     OW22558   0.604   5.740   4.372
 7220SOL    HW122559   0.516   5.782   4.350
 7220SOL    HW222560   0.593   5.641   4.380
 7221SOL     OW22561   5.024   4.840   4.629
 7221SOL    HW122562   4.995   4.920   4.681
 7221SOL    HW222563   4.960   4.765   4.646
 7222SOL     OW22564   6.337   0.216   1.830
 7222SOL    HW122565   6.389   0.259   1.904
 7222SOL    HW222566   6.300   0.129   1.861
 7223SOL     OW22567   3.013   1.996   1.521
 7223SOL    HW122568   3.003   1.962   1.427
 7223SOL    HW222569   2.925   2.032   1.553
 7224SOL     OW22570   5.643   2.238   4.351
 7224SOL    HW122571   5.728   2.230   4.300
 7224SOL    HW222572   5.572   2.275   4.291
 7225SOL     OW22573   1.121   5.746   5.765
 7225SOL    HW122574   1.154   5.652   5.763
 7225SOL    HW222575   1.198   5.808   5.781
 7226SOL     OW22576   0.852   0.907   0.625
 7226SOL    HW122577   0.757   0.933   0.640
 7226SOL    HW222578   0.868   0.815   0.658
 7227SOL     OW22579   0.955   1.977   0.914
 7227SOL    HW122580   0.878   1.960   0.975
 7227SOL    HW222581   0.922   1.984   0.819
 7228SOL     OW22582   0.294   1.160   1.901
 7228SOL    HW122583   0.236   1.090   1.860
 7228SOL    HW222584   0.246   1.248   1.896
 7229SOL     OW22585   0.518   0.273   4.929
 7229SOL    HW122586   0.569   0.348   4.886
 7229SOL    HW222587   0.424   0.302   4.948
 7230SOL     OW22588   5.131   5.487   4.307
 7230SOL    HW122589   5.172   5.565   4.260
 7230SOL    HW222590   5.145   5.497   4.406
 7231SOL     OW22591   4.842   6.522   0.156
 7231SOL    HW122592   4.933   6.559   0.137
 7231SOL    HW222593   4.776   6.563   0.092
 7232SOL     OW22594   4.810   5.146   3.232
 7232SOL    HW122595   4.849   5.238   3.240
 7232SOL    HW222596   4.757   5.140   3.148
 7233SOL     OW22597   0.075   2.395   4.463
 7233SOL    HW122598   7.012   2.370   4.434
 7233SOL    HW222599   0.074   2.487   4.502
 7234SOL     OW22600   5.584   2.515   3.334
 7234SOL    HW122601   5.511   2.482   3.393
 7234SOL    HW222602   5.562   2.607   3.302
 7235SOL     OW22603   6.463   4.274   3.362
 7235SOL    HW122604   6.364   4.280   3.359
 7235SOL    HW222605   6.490   4.181   3.390
 7236SOL     OW22606   2.914   1.674   3.263
 7236SOL    HW122607   2.860   1.697   3.182
 7236SOL    HW222608   3.000   1.632   3.234
 7237SOL     OW22609   6.577   6.922   5.639
 7237SOL    HW122610   6.557   6.842   5.582
 7237SOL    HW222611   6.502   6.987   5.633
 7238SOL     OW22612   2.442   2.139   1.260
 7238SOL    HW122613   2.493   2.185   1.187
 7238SOL    HW222614   2.376   2.076   1.219
 7239SOL     OW22615   2.751   1.177   3.485
 7239SOL    HW122616   2.798   1.198   3.570
 7239SOL    HW222617   2.730   1.262   3.436
 7240SOL     OW22618   2.586   4.088   6.335
 7240SOL    HW122619   2.671   4.071   6.384
 7240SOL    HW222620   2.594   4.055   6.241
 7241SOL     OW22621   3.263   0.669   6.898
 7241SOL    HW122622   3.328   0.672   6.974
 7241SOL    HW222623   3.209   0.585   6.903
 7242SOL     OW22624   6.730   5.781   0.000
 7242SOL    HW122625   6.793   5.853   7.001
 7242SOL    HW222626   6.636   5.815   7.026
 7243SOL     OW22627   0.580   4.497   6.051
 7243SOL    HW122628   0.639   4.417   6.067
 7243SOL    HW222629   0.531   4.486   5.965
 7244SOL     OW22630   5.138   0.680   0.803
 7244SOL    HW122631   5.052   0.665   0.853
 7244SOL    HW222632   5.117   0.699   0.707
 7245SOL     OW22633   0.805   1.976   5.066
 7245SOL    HW122634   0.768   1.911   4.999
 7245SOL    HW222635   0.881   1.934   5.115
 7246SOL     OW22636   5.981   6.833   4.779
 7246SOL    HW122637   5.901   6.858   4.724
 7246SOL    HW222638   5.982   6.734   4.793
 7247SOL     OW22639   3.196   6.506   3.639
 7247SOL    HW122640   3.239   6.550   3.719
 7247SOL    HW222641   3.185   6.574   3.566
 7248SOL     OW22642   3.839   1.329   3.198
 7248SOL    HW122643   3.780   1.274   3.138
 7248SOL    HW222644   3.913   1.369   3.144
 7249SOL     OW22645   5.441   5.084   1.658
 7249SOL    HW122646   5.362   5.061   1.715
 7249SOL    HW222647   5.524   5.046   1.699
 7250SOL     OW22648   3.922   5.473   6.105
 7250SOL    HW122649   3.864   5.481   6.024
 7250SOL    HW222650   3.985   5.396   6.094
 7251SOL     OW22651   0.073   6.393   5.549
 7251SOL    HW122652   0.015   6.404   5.468
 7251SOL    HW222653   0.162   6.436   5.532
 7252SOL     OW22654   3.405   3.327   3.666
 7252SOL    HW122655   3.357   3.243   3.691
 7252SOL    HW222656   3.426   3.325   3.569
 7253SOL     OW22657   2.089   6.814   0.421
 7253SOL    HW122658   2.127   6.748   0.486
 7253SOL    HW222659   2.003   6.779   0.385
 7254SOL     OW22660   4.652   5.454   5.463
 7254SOL    HW122661   4.671   5.392   5.387
 7254SOL    HW222662   4.660   5.404   5.549
 7255SOL     OW22663   3.439   3.792   1.227
 7255SOL    HW122664   3.413   3.706   1.272
 7255SOL    HW222665   3.536   3.808   1.241
 7256SOL     OW22666   5.163   5.022   4.497
 7256SOL    HW122667   5.102   4.950   4.528
 7256SOL    HW222668   5.110   5.095   4.453
 7257SOL     OW22669   5.033   2.767   3.711
 7257SOL    HW122670   4.936   2.773   3.687
 7257SOL    HW222671   5.059   2.670   3.717
 7258SOL     OW22672   3.938   1.445   3.625
 7258SOL    HW122673   3.939   1.346   3.610
 7258SOL    HW222674   3.851   1.482   3.592
 7259SOL     OW22675   3.833   3.908   1.655
 7259SOL    HW122676   3.837   3.950   1.564
 7259SOL    HW222677   3.739   3.910   1.688
 7260SOL     OW22678   3.259   2.048   2.866
 7260SOL    HW122679   3.357   2.054   2.851
 7260SOL    HW222680   3.218   2.139   2.859
 7261SOL     OW22681   2.743   3.019   0.964
 7261SOL    HW122682   2.728   2.959   1.042
 7261SOL    HW222683   2.810   3.089   0.988
 7262SOL     OW22684   5.249   1.838   4.490
 7262SOL    HW122685   5.349   1.837   4.488
 7262SOL    HW222686   5.214   1.877   4.405
 7263SOL     OW22687   0.200   5.912   2.573
 7263SOL    HW122688   0.131   5.907   2.645
 7263SOL    HW222689   0.246   6.001   2.578
 7264SOL     OW22690   6.376   1.469   0.092
 7264SOL    HW122691   6.432   1.400   0.139
 7264SOL    HW222692   6.342   1.430   0.006
 7265SOL     OW22693   5.927   5.160   5.917
 7265SOL    HW122694   6.006   5.201   5.873
 7265SOL    HW222695   5.853   5.150   5.851
 7266SOL     OW22696   4.142   0.447   0.940
 7266SOL    HW122697   4.058   0.412   0.897
 7266SOL    HW222698   4.122   0.472   1.035
 7267SOL     OW22699   0.105   5.060   5.533
 7267SOL    HW122700   0.118   4.973   5.579
 7267SOL    HW222701   0.160   5.063   5.450
 7268SOL     OW22702   4.567   4.887   3.509
 7268SOL    HW122703   4.491   4.825   3.527
 7268SOL    HW222704   4.613   4.908   3.595
 7269SOL     OW22705   6.954   6.071   1.156
 7269SOL    HW122706   6.900   6.153   1.137
 7269SOL    HW222707   6.904   5.990   1.127
 7270SOL     OW22708   1.220   2.412   3.706
 7270SOL    HW122709   1.165   2.451   3.780
 7270SOL    HW222710   1.302   2.369   3.744
 7271SOL     OW22711   0.174   4.720   3.741
 7271SOL    HW122712   0.156   4.626   3.716
 7271SOL    HW222713   0.215   4.723   3.832
 7272SOL     OW22714   5.897   4.206   2.244
 7272SOL    HW122715   5.965   4.225   2.173
 7272SOL    HW222716   5.910   4.113   2.278
 7273SOL     OW22717   5.704   4.309   2.020
 7273SOL    HW122718   5.748   4.257   2.093
 7273SOL    HW222719   5.633   4.254   1.977
 7274SOL     OW22720   0.352   6.852   5.978
 7274SOL    HW122721   0.279   6.879   6.040
 7274SOL    HW222722   0.349   6.753   5.963
 7275SOL     OW22723   6.821   0.841   1.410
 7275SOL    HW122724   6.824   0.926   1.358
 7275SOL    HW222725   6.781   0.858   1.500
 7276SOL     OW22726   3.358   1.285   3.662
 7276SOL    HW122727   3.381   1.221   3.735
 7276SOL    HW222728   3.383   1.378   3.690
 7277SOL     OW22729   5.759   0.806   4.985
 7277SOL    HW122730   5.706   0.784   5.067
 7277SOL    HW222731   5.697   0.812   4.906
 7278SOL     OW22732   3.465   2.084   3.197
 7278SOL    HW122733   3.560   2.098   3.222
 7278SOL    HW222734   3.459   2.014   3.125
 7279SOL     OW22735   4.430   3.740   6.480
 7279SOL    HW122736   4.427   3.641   6.471
 7279SOL    HW222737   4.357   3.771   6.540
 7280SOL     OW22738   6.121   2.327   5.070
 7280SOL    HW122739   6.114   2.301   4.974
 7280SOL    HW222740   6.064   2.407   5.087
 7281SOL     OW22741   2.721   0.026   0.488
 7281SOL    HW122742   2.768   0.086   0.424
 7281SOL    HW222743   2.641   7.016   0.444
 7282SOL     OW22744   6.855   6.300   1.002
 7282SOL    HW122745   6.872   6.356   0.921
 7282SOL    HW222746   6.803   6.352   1.069
 7283SOL     OW22747   2.483   6.625   2.197
 7283SOL    HW122748   2.521   6.710   2.159
 7283SOL    HW222749   2.392   6.643   2.234
 7284SOL     OW22750   6.478   2.865   4.046
 7284SOL    HW122751   6.475   2.814   3.960
 7284SOL    HW222752   6.533   2.816   4.113
 7285SOL     OW22753   5.436   3.609   1.671
 7285SOL    HW122754   5.354   3.633   1.723
 7285SOL    HW222755   5.479   3.529   1.713
 7286SOL     OW22756   0.982   1.183   0.769
 7286SOL    HW122757   1.068   1.232   0.784
 7286SOL    HW222758   0.938   1.217   0.686
 7287SOL     OW22759   6.845   2.961   4.283
 7287SOL    HW122760   6.822   3.034   4.220
 7287SOL    HW222761   6.939   2.931   4.268
 7288SOL     OW22762   1.378   2.975   2.123
 7288SOL    HW122763   1.440   2.964   2.045
 7288SOL    HW222764   1.324   2.891   2.134
 7289SOL     OW22765   6.211   2.894   2.042
 7289SOL    HW122766   6.154   2.917   2.121
 7289SOL    HW222767   6.306   2.888   2.070
 7290SOL     OW22768   3.158   1.154   5.058
 7290SOL    HW122769   3.156   1.162   5.158
 7290SOL    HW222770   3.153   1.244   5.017
 7291SOL     OW22771   3.778   6.770   0.718
 7291SOL    HW122772   3.875   6.788   0.733
 7291SOL    HW222773   3.733   6.852   0.683
 7292SOL     OW22774   1.874   0.004   3.309
 7292SOL    HW122775   1.813   6.955   3.313
 7292SOL    HW222776   1.944   7.018   3.239
 7293SOL     OW22777   1.903   1.049   6.272
 7293SOL    HW122778   1.819   0.995   6.281
 7293SOL    HW222779   1.944   1.061   6.362
 7294SOL     OW22780   3.102   4.457   1.232
 7294SOL    HW122781   3.032   4.475   1.163
 7294SOL    HW222782   3.147   4.370   1.213
 7295SOL     OW22783   6.597   4.006   1.204
 7295SOL    HW122784   6.622   3.998   1.107
 7295SOL    HW222785   6.604   4.102   1.232
 7296SOL     OW22786   3.992   5.109   2.776
 7296SOL    HW122787   4.022   5.150   2.690
 7296SOL    HW222788   4.011   5.011   2.774
 7297SOL     OW22789   2.884   6.793   2.600
 7297SOL    HW122790   2.806   6.729   2.600
 7297SOL    HW222791   2.889   6.838   2.511
 7298SOL     OW22792   5.299   5.299   0.105
 7298SOL    HW122793   5.335   5.250   0.025
 7298SOL    HW222794   5.368   5.363   0.138
 7299SOL     OW22795   0.674   1.341   1.003
 7299SOL    HW122796   0.690   1.366   0.908
 7299SOL    HW222797   0.687   1.243   1.015
 7300SOL     OW22798   1.272   4.951   1.845
 7300SOL    HW122799   1.311   4.903   1.767
 7300SOL    HW222800   1.220   5.031   1.813
 7301SOL     OW22801   6.772   0.831   5.388
 7301SOL    HW122802   6.805   0.925   5.397
 7301SOL    HW222803   6.680   0.831   5.349
 7302SOL     OW22804   6.594   1.917   4.864
 7302SOL    HW122805   6.549   2.003   4.843
 7302SOL    HW222806   6.528   1.842   4.857
 7303SOL     OW22807   3.352   1.321   6.840
 7303SOL    HW122808   3.438   1.359   6.876
 7303SOL    HW222809   3.373   1.249   6.773
 7304SOL     OW22810   2.027   5.264   1.712
 7304SOL    HW122811   2.066   5.335   1.772
 7304SOL    HW222812   2.025   5.178   1.761
 7305SOL     OW22813   5.348   2.596   1.527
 7305SOL    HW122814   5.255   2.564   1.542
 7305SOL    HW222815   5.411   2.542   1.584
 7306SOL     OW22816   3.752   1.744   2.130
 7306SOL    HW122817   3.657   1.755   2.102
 7306SOL    HW222818   3.811   1.795   2.068
 7307SOL     OW22819   3.700   6.595   2.554
 7307SOL    HW122820   3.766   6.670   2.556
 7307SOL    HW222821   3.736   6.518   2.608
 7308SOL     OW22822   6.957   1.308   3.398
 7308SOL    HW122823   7.006   1.317   3.311
 7308SOL    HW222824   6.902   1.390   3.413
 7309SOL     OW22825   2.002   6.331   2.298
 7309SOL    HW122826   1.908   6.300   2.290
 7309SOL    HW222827   2.007   6.410   2.359
 7310SOL     OW22828   1.288   3.517   6.027
 7310SOL    HW122829   1.350   3.474   6.092
 7310SOL    HW222830   1.286   3.616   6.044
 7311SOL     OW22831   1.006   0.427   0.439
 7311SOL    HW122832   1.055   0.512   0.455
 7311SOL    HW222833   1.049   0.377   0.363
 7312SOL     OW22834   0.742   1.286   5.019
 7312SOL    HW122835   0.833   1.246   5.010
 7312SOL    HW222836   0.678   1.236   4.961
 7313SOL     OW22837   2.701   1.702   0.934
 7313SOL    HW122838   2.652   1.723   0.850
 7313SOL    HW222839   2.676   1.611   0.966
 7314SOL     OW22840   0.083   3.297   6.466
 7314SOL    HW122841   0.070   3.387   6.423
 7314SOL    HW222842   0.143   3.241   6.409
 7315SOL     OW22843   6.046   5.605   2.560
 7315SOL    HW122844   6.145   5.613   2.552
 7315SOL    HW222845   6.014   5.524   2.510
 7316SOL     OW22846   3.431   2.011   5.973
 7316SOL    HW122847   3.494   1.964   5.911
 7316SOL    HW222848   3.338   2.004   5.938
 7317SOL     OW22849   3.725   1.438   2.200
 7317SOL    HW122850   3.651   1.462   2.263
 7317SOL    HW222851   3.757   1.520   2.154
 7318SOL     OW22852   3.457   6.728   2.431
 7318SOL    HW122853   3.488   6.773   2.347
 7318SOL    HW222854   3.523   6.659   2.458
 7319SOL     OW22855   6.233   2.865   6.392
 7319SOL    HW122856   6.298   2.822   6.329
 7319SOL    HW222857   6.155   2.901   6.340
 7320SOL     OW22858   0.127   3.942   0.827
 7320SOL    HW122859   0.039   3.989   0.834
 7320SOL    HW222860   0.113   3.843   0.839
 7321SOL     OW22861   1.768   6.308   6.105
 7321SOL    HW122862   1.805   6.222   6.069
 7321SOL    HW222863   1.683   6.329   6.057
 7322SOL     OW22864   0.440   3.016   3.134
 7322SOL    HW122865   0.502   3.083   3.094
 7322SOL    HW222866   0.346   3.035   3.103
 7323SOL     OW22867   3.014   1.732   1.179
 7323SOL    HW122868   2.968   1.806   1.131
 7323SOL    HW222869   2.986   1.732   1.275
 7324SOL     OW22870   6.219   4.452   2.516
 7324SOL    HW122871   6.199   4.354   2.512
 7324SOL    HW222872   6.244   4.478   2.609
 7325SOL     OW22873   2.749   0.367   5.835
 7325SOL    HW122874   2.754   0.276   5.877
 7325SOL    HW222875   2.717   0.434   5.901
 7326SOL     OW22876   4.584   0.766   6.429
 7326SOL    HW122877   4.560   0.861   6.409
 7326SOL    HW222878   4.520   0.728   6.496
 7327SOL     OW22879   5.732   3.862   3.907
 7327SOL    HW122880   5.805   3.808   3.949
 7327SOL    HW222881   5.772   3.928   3.843
 7328SOL     OW22882   3.980   6.257   5.821
 7328SOL    HW122883   3.899   6.204   5.847
 7328SOL    HW222884   4.060   6.220   5.869
 7329SOL     OW22885   1.070   2.556   6.868
 7329SOL    HW122886   1.011   2.637   6.861
 7329SOL    HW222887   1.016   2.474   6.851
 7330SOL     OW22888   3.099   3.060   1.296
 7330SOL    HW122889   3.167   3.006   1.247
 7330SOL    HW222890   3.065   3.007   1.374
 7331SOL     OW22891   4.555   0.289   1.997
 7331SOL    HW122892   4.534   0.371   2.050
 7331SOL    HW222893   4.484   0.221   2.012
 7332SOL     OW22894   3.913   4.548   0.120
 7332SOL    HW122895   3.891   4.629   0.174
 7332SOL    HW222896   3.851   4.541   0.042
 7333SOL     OW22897   5.942   3.267   3.219
 7333SOL    HW122898   5.870   3.239   3.283
 7333SOL    HW222899   5.977   3.187   3.171
 7334SOL     OW22900   3.050   5.786   6.005
 7334SOL    HW122901   3.072   5.883   6.012
 7334SOL    HW222902   2.997   5.757   6.085
 7335SOL     OW22903   0.418   3.456   2.844
 7335SOL    HW122904   0.414   3.515   2.763
 7335SOL    HW222905   0.478   3.497   2.912
 7336SOL     OW22906   2.494   6.446   1.433
 7336SOL    HW122907   2.569   6.399   1.387
 7336SOL    HW222908   2.524   6.477   1.523
 7337SOL     OW22909   3.138   2.947   1.567
 7337SOL    HW122910   3.194   3.027   1.588
 7337SOL    HW222911   3.075   2.930   1.643
 7338SOL     OW22912   6.282   2.306   1.788
 7338SOL    HW122913   6.378   2.334   1.792
 7338SOL    HW222914   6.230   2.373   1.735
 7339SOL     OW22915   0.246   6.359   5.905
 7339SOL    HW122916   0.277   6.453   5.920
 7339SOL    HW222917   0.266   6.332   5.811
 7340SOL     OW22918   4.077   1.589   6.850
 7340SOL    HW122919   4.032   1.508   6.888
 7340SOL    HW222920   4.175   1.586   6.872
 7341SOL     OW22921   1.767   5.481   4.796
 7341SOL    HW122922   1.816   5.428   4.865
 7341SOL    HW222923   1.673   5.446   4.788
 7342SOL     OW22924   6.429   6.877   0.694
 7342SOL    HW122925   6.516   6.884   0.742
 7342SOL    HW222926   6.434   6.805   0.625
 7343SOL     OW22927   5.707   3.293   2.060
 7343SOL    HW122928   5.677   3.333   1.973
 7343SOL    HW222929   5.685   3.195   2.061
 7344SOL     OW22930   1.876   6.918   6.523
 7344SOL    HW122931   1.922   6.992   6.474
 7344SOL    HW222932   1.789   6.950   6.560
 7345SOL     OW22933   4.348   5.498   6.134
 7345SOL    HW122934   4.297   5.456   6.209
 7345SOL    HW222935   4.402   5.575   6.169
 7346SOL     OW22936   4.165   3.812   1.128
 7346SOL    HW122937   4.241   3.821   1.193
 7346SOL    HW222938   4.163   3.891   1.067
 7347SOL     OW22939   6.911   2.623   1.924
 7347SOL    HW122940   6.931   2.544   1.981
 7347SOL    HW222941   6.885   2.700   1.983
 7348SOL     OW22942   1.720   3.972   3.526
 7348SOL    HW122943   1.635   3.944   3.483
 7348SOL    HW222944   1.789   3.991   3.455
 7349SOL     OW22945   3.636   1.781   1.459
 7349SOL    HW122946   3.675   1.845   1.393
 7349SOL    HW222947   3.564   1.825   1.512
 7350SOL     OW22948   0.329   2.984   3.727
 7350SOL    HW122949   0.371   3.048   3.662
 7350SOL    HW222950   0.290   3.035   3.803
 7351SOL     OW22951   4.023   4.827   6.808
 7351SOL    HW122952   4.113   4.869   6.802
 7351SOL    HW222953   4.031   4.737   6.851
 7352SOL     OW22954   1.597   2.202   3.504
 7352SOL    HW122955   1.573   2.298   3.497
 7352SOL    HW222956   1.684   2.192   3.552
 7353SOL     OW22957   0.763   1.401   5.395
 7353SOL    HW122958   0.759   1.318   5.338
 7353SOL    HW222959   0.708   1.387   5.477
 7354SOL     OW22960   0.500   0.782   6.384
 7354SOL    HW122961   0.423   0.759   6.325
 7354SOL    HW222962   0.524   0.702   6.440
 7355SOL     OW22963   1.822   6.212   0.317
 7355SOL    HW122964   1.754   6.276   0.354
 7355SOL    HW222965   1.799   6.119   0.347
 7356SOL     OW22966   5.217   2.610   6.517
 7356SOL    HW122967   5.133   2.557   6.503
 7356SOL    HW222968   5.296   2.553   6.495
 7357SOL     OW22969   4.408   0.972   1.507
 7357SOL    HW122970   4.326   1.001   1.556
 7357SOL    HW222971   4.381   0.933   1.418
 7358SOL     OW22972   2.556   1.986   2.572
 7358SOL    HW122973   2.464   1.991   2.532
 7358SOL    HW222974   2.553   1.932   2.656
 7359SOL     OW22975   3.400   2.532   1.016
 7359SOL    HW122976   3.496   2.513   0.995
 7359SOL    HW222977   3.369   2.610   0.962
 7360SOL     OW22978   2.501   2.060   5.059
 7360SOL    HW122979   2.518   2.158   5.052
 7360SOL    HW222980   2.502   2.033   5.156
 7361SOL     OW22981   4.692   6.132   2.246
 7361SOL    HW122982   4.647   6.137   2.157
 7361SOL    HW222983   4.763   6.063   2.244
 7362SOL     OW22984   0.458   6.712   4.690
 7362SOL    HW122985   0.488   6.664   4.772
 7362SOL    HW222986   0.495   6.805   4.690
 7363SOL     OW22987   4.627   1.904   0.340
 7363SOL    HW122988   4.573   1.887   0.422
 7363SOL    HW222989   4.706   1.841   0.339
 7364SOL     OW22990   4.089   7.002   1.462
 7364SOL    HW122991   4.033   0.015   1.390
 7364SOL    HW222992   4.174   0.023   1.472
 7365SOL     OW22993   1.736   5.995   2.258
 7365SOL    HW122994   1.676   6.071   2.233
 7365SOL    HW222995   1.746   5.991   2.358
 7366SOL     OW22996   1.025   5.246   0.485
 7366SOL    HW122997   1.074   5.262   0.571
 7366SOL    HW222998   1.085   5.267   0.408
 7367SOL     OW22999   4.432   3.561   1.109
 7367SOL    HW123000   4.490   3.480   1.097
 7367SOL    HW223001   4.433   3.615   1.024
 7368SOL     OW23002   3.305   2.979   3.869
 7368SOL    HW123003   3.243   3.042   3.823
 7368SOL    HW223004   3.255   2.926   3.937
 7369SOL     OW23005   4.958   3.220   0.517
 7369SOL    HW123006   5.034   3.255   0.463
 7369SOL    HW223007   4.873   3.261   0.484
 7370SOL     OW23008   2.209   0.565   6.393
 7370SOL    HW123009   2.293   0.546   6.343
 7370SOL    HW223010   2.143   0.611   6.334
 7371SOL     OW23011   3.028   5.654   4.152
 7371SOL    HW123012   3.122   5.619   4.147
 7371SOL    HW223013   2.983   5.617   4.233
 7372SOL     OW23014   3.240   0.694   5.366
 7372SOL    HW123015   3.338   0.706   5.353
 7372SOL    HW223016   3.214   0.726   5.457
 7373SOL     OW23017   4.651   1.648   3.536
 7373SOL    HW123018   4.628   1.578   3.604
 7373SOL    HW223019   4.567   1.691   3.504
 7374SOL     OW23020   2.636   2.489   5.282
 7374SOL    HW123021   2.691   2.572   5.292
 7374SOL    HW223022   2.669   2.436   5.204
 7375SOL     OW23023   1.464   2.307   3.820
 7375SOL    HW123024   1.527   2.275   3.891
 7375SOL    HW223025   1.430   2.228   3.768
 7376SOL     OW23026   3.670   2.336   0.433
 7376SOL    HW123027   3.614   2.255   0.452
 7376SOL    HW223028   3.695   2.380   0.519
 7377SOL     OW23029   4.461   5.869   2.087
 7377SOL    HW123030   4.496   5.959   2.114
 7377SOL    HW223031   4.507   5.839   2.004
 7378SOL     OW23032   0.054   1.987   4.288
 7378SOL    HW123033   0.021   1.964   4.380
 7378SOL    HW223034   0.096   2.078   4.290
 7379SOL     OW23035   4.196   1.902   3.041
 7379SOL    HW123036   4.207   1.878   3.137
 7379SOL    HW223037   4.184   2.000   3.032
 7380SOL     OW23038   0.082   3.100   5.363
 7380SOL    HW123039   0.067   3.126   5.268
 7380SOL    HW223040   0.171   3.056   5.373
 7381SOL     OW23041   5.040   3.001   2.453
 7381SOL    HW123042   5.124   2.948   2.439
 7381SOL    HW223043   4.995   3.017   2.365
 7382SOL     OW23044   0.054   5.474   5.097
 7382SOL    HW123045   0.143   5.430   5.084
 7382SOL    HW223046   7.018   5.437   5.032
 7383SOL     OW23047   0.163   6.749   2.773
 7383SOL    HW123048   0.078   6.786   2.736
 7383SOL    HW223049   0.207   6.818   2.831
 7384SOL     OW23050   5.133   0.788   2.079
 7384SOL    HW123051   5.053   0.807   2.136
 7384SOL    HW223052   5.107   0.728   2.004
 7385SOL     OW23053   3.820   6.434   2.273
 7385SOL    HW123054   3.807   6.508   2.338
 7385SOL    HW223055   3.846   6.350   2.322
 7386SOL     OW23056   0.229   2.696   5.321
 7386SOL    HW123057   0.218   2.597   5.332
 7386SOL    HW223058   0.191   2.724   5.233
 7387SOL     OW23059   4.359   6.617   4.771
 7387SOL    HW123060   4.376   6.525   4.806
 7387SOL    HW223061   4.262   6.640   4.784
 7388SOL     OW23062   7.023   5.987   3.891
 7388SOL    HW123063   7.026   5.965   3.793
 7388SOL    HW223064   0.033   6.077   3.906
 7389SOL     OW23065   0.900   4.761   6.567
 7389SOL    HW123066   0.976   4.804   6.616
 7389SOL    HW223067   0.814   4.779   6.615
 7390SOL     OW23068   1.633   1.837   6.641
 7390SOL    HW123069   1.709   1.893   6.607
 7390SOL    HW223070   1.575   1.893   6.700
 7391SOL     OW23071   4.655   4.173   5.182
 7391SOL    HW123072   4.670   4.129   5.093
 7391SOL    HW223073   4.742   4.184   5.228
 7392SOL     OW23074   2.616   6.146   6.260
 7392SOL    HW123075   2.529   6.155   6.309
 7392SOL    HW223076   2.600   6.109   6.169
 7393SOL     OW23077   6.061   5.423   1.502
 7393SOL    HW123078   6.093   5.513   1.531
 7393SOL    HW223079   5.972   5.433   1.457
 7394SOL     OW23080   2.973   2.748   5.985
 7394SOL    HW123081   2.946   2.668   5.930
 7394SOL    HW223082   2.900   2.816   5.981
 7395SOL     OW23083   1.261   1.102   0.001
 7395SOL    HW123084   1.244   1.147   0.089
 7395SOL    HW223085   1.263   1.171   6.958
 7396SOL     OW23086   1.220   0.997   6.765
 7396SOL    HW123087   1.275   0.917   6.739
 7396SOL    HW223088   1.233   1.017   6.862
 7397SOL     OW23089   5.420   5.225   4.500
 7397SOL    HW123090   5.456   5.142   4.541
 7397SOL    HW223091   5.329   5.207   4.462
 7398SOL     OW23092   3.280   4.896   4.087
 7398SOL    HW123093   3.192   4.904   4.133
 7398SOL    HW223094   3.268   4.909   3.989
 7399SOL     OW23095   0.314   3.721   5.375
 7399SOL    HW123096   0.369   3.805   5.382
 7399SOL    HW223097   0.263   3.708   5.460
 7400SOL     OW23098   3.370   3.926   6.957
 7400SOL    HW123099   3.421   3.996   7.005
 7400SOL    HW223100   3.401   3.920   6.862
 7401SOL     OW23101   0.755   1.539   3.443
 7401SOL    HW123102   0.748   1.442   3.467
 7401SOL    HW223103   0.790   1.548   3.350
 7402SOL     OW23104   1.910   6.250   4.357
 7402SOL    HW123105   1.859   6.307   4.422
 7402SOL    HW223106   1.973   6.308   4.306
 7403SOL     OW23107   1.793   3.423   2.825
 7403SOL    HW123108   1.889   3.396   2.814
 7403SOL    HW223109   1.733   3.353   2.787
 7404SOL     OW23110   2.024   5.932   1.583
 7404SOL    HW123111   1.962   5.913   1.659
 7404SOL    HW223112   2.090   6.002   1.611
 7405SOL     OW23113   1.539   4.987   4.710
 7405SOL    HW123114   1.629   5.030   4.712
 7405SOL    HW223115   1.497   4.996   4.800
 7406SOL     OW23116   1.613   4.029   2.428
 7406SOL    HW123117   1.533   4.030   2.368
 7406SOL    HW223118   1.597   3.966   2.504
 7407SOL     OW23119   0.414   6.315   4.842
 7407SOL    HW123120   0.376   6.233   4.799
 7407SOL    HW223121   0.461   6.289   4.926
 7408SOL     OW23122   1.001   4.315   5.260
 7408SOL    HW123123   0.932   4.295   5.191
 7408SOL    HW223124   1.079   4.361   5.217
 7409SOL     OW23125   0.144   0.674   4.266
 7409SOL    HW123126   0.059   0.635   4.302
 7409SOL    HW223127   0.123   0.745   4.199
 7410SOL     OW23128   6.756   4.905   0.741
 7410SOL    HW123129   6.810   4.959   0.805
 7410SOL    HW223130   6.798   4.908   0.651
 7411SOL     OW23131   3.173   6.515   4.400
 7411SOL    HW123132   3.169   6.477   4.493
 7411SOL    HW223133   3.243   6.467   4.347
 7412SOL     OW23134   3.906   1.369   1.409
 7412SOL    HW123135   3.970   1.420   1.466
 7412SOL    HW223136   3.935   1.373   1.313
 7413SOL     OW23137   6.910   5.021   4.099
 7413SOL    HW123138   6.832   5.076   4.129
 7413SOL    HW223139   6.893   4.925   4.122
 7414SOL     OW23140   7.016   0.279   2.980
 7414SOL    HW123141   0.085   0.267   2.994
 7414SOL    HW223142   6.991   0.247   2.888
 7415SOL     OW23143   0.828   4.038   3.220
 7415SOL    HW123144   0.823   4.138   3.219
 7415SOL    HW223145   0.737   4.001   3.237
 7416SOL     OW23146   3.299   0.355   4.132
 7416SOL    HW123147   3.266   0.419   4.201
 7416SOL    HW223148   3.242   0.273   4.133
 7417SOL     OW23149   1.382   0.016   6.569
 7417SOL    HW123150   1.308   0.058   6.517
 7417SOL    HW223151   1.356   0.010   6.665
 7418SOL     OW23152   4.287   4.843   1.266
 7418SOL    HW123153   4.230   4.914   1.307
 7418SOL    HW223154   4.232   4.760   1.252
 7419SOL     OW23155   6.496   2.574   4.626
 7419SOL    HW123156   6.546   2.521   4.695
 7419SOL    HW223157   6.397   2.563   4.641
 7420SOL     OW23158   6.416   6.266   2.412
 7420SOL    HW123159   6.452   6.250   2.504
 7420SOL    HW223160   6.385   6.361   2.404
 7421SOL     OW23161   3.168   3.161   2.211
 7421SOL    HW123162   3.076   3.198   2.201
 7421SOL    HW223163   3.208   3.148   2.120
 7422SOL     OW23164   0.182   3.436   2.520
 7422SOL    HW123165   0.113   3.473   2.581
 7422SOL    HW223166   0.155   3.451   2.425
 7423SOL     OW23167   6.622   3.460   6.368
 7423SOL    HW123168   6.567   3.537   6.335
 7423SOL    HW223169   6.696   3.494   6.425
 7424SOL     OW23170   6.239   1.058   4.127
 7424SOL    HW123171   6.264   1.148   4.162
 7424SOL    HW223172   6.220   1.065   4.029
 7425SOL     OW23173   4.523   5.045   6.478
 7425SOL    HW123174   4.541   5.114   6.548
 7425SOL    HW223175   4.455   4.980   6.511
 7426SOL     OW23176   1.213   2.226   6.949
 7426SOL    HW123177   1.147   2.266   6.884
 7426SOL    HW223178   1.303   2.268   6.935
 7427SOL     OW23179   2.785   5.922   4.431
 7427SOL    HW123180   2.867   5.952   4.382
 7427SOL    HW223181   2.811   5.886   4.521
 7428SOL     OW23182   3.409   1.391   5.270
 7428SOL    HW123183   3.457   1.460   5.325
 7428SOL    HW223184   3.362   1.435   5.194
 7429SOL     OW23185   5.584   0.732   3.564
 7429SOL    HW123186   5.645   0.769   3.494
 7429SOL    HW223187   5.574   0.800   3.638
 7430SOL     OW23188   6.944   4.579   6.153
 7430SOL    HW123189   7.011   4.509   6.129
 7430SOL    HW223190   6.858   4.559   6.107
 7431SOL     OW23191   0.424   3.847   1.875
 7431SOL    HW123192   0.346   3.786   1.865
 7431SOL    HW223193   0.488   3.808   1.942
 7432SOL     OW23194   0.172   6.901   3.202
 7432SOL    HW123195   0.169   6.980   3.264
 7432SOL    HW223196   0.135   6.821   3.248
 7433SOL     OW23197   6.800   5.693   0.462
 7433SOL    HW123198   6.713   5.687   0.512
 7433SOL    HW223199   6.873   5.659   0.520
 7434SOL     OW23200   4.216   1.249   6.424
 7434SOL    HW123201   4.170   1.249   6.335
 7434SOL    HW223202   4.291   1.315   6.422
 7435SOL     OW23203   3.734   6.485   6.631
 7435SOL    HW123204   3.725   6.573   6.679
 7435SOL    HW223205   3.781   6.419   6.690
 7436SOL     OW23206   5.891   3.362   6.377
 7436SOL    HW123207   5.935   3.280   6.414
 7436SOL    HW223208   5.828   3.335   6.304
 7437SOL     OW23209   6.980   6.133   6.742
 7437SOL    HW123210   0.001   6.066   6.687
 7437SOL    HW223211   0.010   6.209   6.766
 7438SOL     OW23212   1.143   4.800   0.501
 7438SOL    HW123213   1.136   4.817   0.600
 7438SOL    HW223214   1.077   4.857   0.453
 7439SOL     OW23215   1.814   6.415   4.548
 7439SOL    HW123216   1.893   6.456   4.594
 7439SOL    HW223217   1.747   6.387   4.617
 7440SOL     OW23218   0.749   2.989   4.604
 7440SOL    HW123219   0.820   3.058   4.591
 7440SOL    HW223220   0.748   2.961   4.700
 7441SOL     OW23221   5.492   6.161   4.638
 7441SOL    HW123222   5.548   6.208   4.570
 7441SOL    HW223223   5.396   6.187   4.626
 7442SOL     OW23224   1.432   1.076   6.107
 7442SOL    HW123225   1.335   1.060   6.124
 7442SOL    HW223226   1.472   1.124   6.185
 7443SOL     OW23227   0.269   1.208   1.250
 7443SOL    HW123228   0.252   1.260   1.334
 7443SOL    HW223229   0.339   1.139   1.267
 7444SOL     OW23230   6.709   3.581   5.032
 7444SOL    HW123231   6.641   3.626   4.975
 7444SOL    HW223232   6.752   3.506   4.980
 7445SOL     OW23233   3.774   0.785   1.425
 7445SOL    HW123234   3.845   0.731   1.470
 7445SOL    HW223235   3.761   0.871   1.474
 7446SOL     OW23236   5.672   4.265   0.258
 7446SOL    HW123237   5.696   4.338   0.194
 7446SOL    HW223238   5.733   4.269   0.337
 7447SOL     OW23239   1.824   3.165   6.094
 7447SOL    HW123240   1.870   3.079   6.116
 7447SOL    HW223241   1.843   3.232   6.166
 7448SOL     OW23242   5.066   6.621   5.569
 7448SOL    HW123243   5.072   6.605   5.470
 7448SOL    HW223244   5.018   6.544   5.612
 7449SOL     OW23245   5.254   2.877   2.126
 7449SOL    HW123246   5.156   2.857   2.129
 7449SOL    HW223247   5.290   2.851   2.036
 7450SOL     OW23248   4.828   1.995   4.253
 7450SOL    HW123249   4.868   1.908   4.281
 7450SOL    HW223250   4.858   2.016   4.159
 7451SOL     OW23251   2.027   0.222   3.404
 7451SOL    HW123252   1.962   0.157   3.366
 7451SOL    HW223253   2.110   0.174   3.432
 7452SOL     OW23254   0.725   6.801   4.783
 7452SOL    HW123255   0.690   6.733   4.847
 7452SOL    HW223256   0.752   6.756   4.698
 7453SOL     OW23257   5.256   5.533   6.174
 7453SOL    HW123258   5.275   5.461   6.242
 7453SOL    HW223259   5.323   5.526   6.100
 7454SOL     OW23260   0.923   3.149   2.182
 7454SOL    HW123261   0.847   3.165   2.245
 7454SOL    HW223262   1.007   3.190   2.220
 7455SOL     OW23263   6.845   1.167   1.728
 7455SOL    HW123264   6.923   1.195   1.672
 7455SOL    HW223265   6.760   1.193   1.681
 7456SOL     OW23266   0.697   2.021   4.508
 7456SOL    HW123267   0.677   1.930   4.471
 7456SOL    HW223268   0.776   2.059   4.460
 7457SOL     OW23269   3.685   0.468   5.923
 7457SOL    HW123270   3.769   0.452   5.872
 7457SOL    HW223271   3.663   0.388   5.978
 7458SOL     OW23272   1.460   0.323   6.490
 7458SOL    HW123273   1.557   0.302   6.501
 7458SOL    HW223274   1.420   0.261   6.423
 7459SOL     OW23275   4.606   6.903   0.245
 7459SOL    HW123276   4.635   6.995   0.275
 7459SOL    HW223277   4.657   6.834   0.296
 7460SOL     OW23278   1.570   4.190   0.979
 7460SOL    HW123279   1.474   4.212   0.999
 7460SOL    HW223280   1.595   4.229   0.890
 7461SOL     OW23281   5.313   1.348   6.332
 7461SOL    HW123282   5.329   1.407   6.253
 7461SOL    HW223283   5.320   1.252   6.303
 7462SOL     OW23284   2.124   3.007   2.209
 7462SOL    HW123285   2.135   3.092   2.158
 7462SOL    HW223286   2.178   2.935   2.167
 7463SOL     OW23287   3.522   4.203   1.308
 7463SOL    HW123288   3.438   4.149   1.313
 7463SOL    HW223289   3.575   4.189   1.391
 7464SOL     OW23290   3.438   6.953   6.376
 7464SOL    HW123291   3.362   6.966   6.439
 7464SOL    HW223292   3.491   0.008   6.370
 7465SOL     OW23293   1.791   0.416   0.494
 7465SOL    HW123294   1.858   0.376   0.558
 7465SOL    HW223295   1.703   0.370   0.504
 7466SOL     OW23296   0.774   0.351   0.072
 7466SOL    HW123297   0.718   0.281   0.028
 7466SOL    HW223298   0.807   0.416   0.004
 7467SOL     OW23299   6.682   1.603   0.739
 7467SOL    HW123300   6.589   1.566   0.730
 7467SOL    HW223301   6.742   1.533   0.777
 7468SOL     OW23302   5.487   3.001   2.502
 7468SOL    HW123303   5.444   3.064   2.568
 7468SOL    HW223304   5.582   2.985   2.529
 7469SOL     OW23305   0.851   0.185   0.540
 7469SOL    HW123306   0.828   0.145   0.451
 7469SOL    HW223307   0.808   0.131   0.612
 7470SOL     OW23308   0.106   3.248   3.731
 7470SOL    HW123309   0.130   3.243   3.634
 7470SOL    HW223310   0.018   3.203   3.746
 7471SOL     OW23311   5.859   6.832   5.247
 7471SOL    HW123312   5.941   6.825   5.191
 7471SOL    HW223313   5.794   6.761   5.219
 7472SOL     OW23314   5.721   6.576   4.394
 7472SOL    HW123315   5.797   6.511   4.403
 7472SOL    HW223316   5.754   6.660   4.350
 7473SOL     OW23317   0.523   4.223   3.134
 7473SOL    HW123318   0.518   4.126   3.154
 7473SOL    HW223319   0.609   4.261   3.170
 7474SOL     OW23320   2.115   1.170   5.009
 7474SOL    HW123321   2.021   1.143   5.026
 7474SOL    HW223322   2.138   1.249   5.066
 7475SOL     OW23323   3.515   1.843   2.522
 7475SOL    HW123324   3.534   1.821   2.426
 7475SOL    HW223325   3.593   1.817   2.579
 7476SOL     OW23326   3.369   6.161   4.221
 7476SOL    HW123327   3.382   6.106   4.303
 7476SOL    HW223328   3.393   6.256   4.240
 7477SOL     OW23329   5.855   1.404   4.006
 7477SOL    HW123330   5.844   1.398   4.105
 7477SOL    HW223331   5.809   1.326   3.963
 7478SOL     OW23332   3.963   4.783   6.556
 7478SOL    HW123333   3.977   4.802   6.653
 7478SOL    HW223334   4.027   4.839   6.502
 7479SOL     OW23335   4.285   2.427   0.912
 7479SOL    HW123336   4.203   2.431   0.970
 7479SOL    HW223337   4.311   2.520   0.885
 7480SOL     OW23338   6.289   4.484   1.804
 7480SOL    HW123339   6.323   4.438   1.886
 7480SOL    HW223340   6.359   4.548   1.771
 7481SOL     OW23341   5.856   5.175   1.876
 7481SOL    HW123342   5.783   5.167   1.944
 7481SOL    HW223343   5.885   5.084   1.847
 7482SOL     OW23344   4.945   1.447   2.669
 7482SOL    HW123345   5.000   1.506   2.611
 7482SOL    HW223346   5.005   1.388   2.723
 7483SOL     OW23347   4.386   2.188   5.103
 7483SOL    HW123348   4.333   2.104   5.091
 7483SOL    HW223349   4.466   2.185   5.043
 7484SOL     OW23350   0.278   0.183   2.811
 7484SOL    HW123351   0.308   0.136   2.728
 7484SOL    HW223352   0.233   0.269   2.787
 7485SOL     OW23353   3.205   6.038   5.059
 7485SOL    HW123354   3.284   6.073   5.009
 7485SOL    HW223355   3.128   6.100   5.048
 7486SOL     OW23356   2.501   0.634   6.402
 7486SOL    HW123357   2.521   0.620   6.499
 7486SOL    HW223358   2.505   0.547   6.354
 7487SOL     OW23359   2.213   6.329   2.148
 7487SOL    HW123360   2.142   6.368   2.206
 7487SOL    HW223361   2.175   6.307   2.058
 7488SOL     OW23362   2.036   6.758   4.993
 7488SOL    HW123363   1.967   6.789   4.927
 7488SOL    HW223364   1.992   6.697   5.059
 7489SOL     OW23365   5.823   2.069   4.987
 7489SOL    HW123366   5.909   2.035   4.947
 7489SOL    HW223367   5.819   2.043   5.084
 7490SOL     OW23368   0.883   1.527   1.094
 7490SOL    HW123369   0.809   1.536   1.027
 7490SOL    HW223370   0.863   1.583   1.174
 7491SOL     OW23371   6.726   4.183   6.903
 7491SOL    HW123372   6.688   4.169   6.812
 7491SOL    HW223373   6.806   4.243   6.897
 7492SOL     OW23374   3.018   1.255   4.699
 7492SOL    HW123375   2.951   1.196   4.745
 7492SOL    HW223376   3.059   1.204   4.623
 7493SOL     OW23377   0.175   4.448   6.606
 7493SOL    HW123378   0.220   4.525   6.650
 7493SOL    HW223379   0.087   4.478   6.568
 7494SOL     OW23380   6.032   1.257   2.377
 7494SOL    HW123381   6.057   1.315   2.300
 7494SOL    HW223382   6.022   1.162   2.346
 7495SOL     OW23383   2.699   1.036   1.072
 7495SOL    HW123384   2.599   1.032   1.076
 7495SOL    HW223385   2.730   0.994   0.986
 7496SOL     OW23386   0.822   3.386   6.444
 7496SOL    HW123387   0.780   3.453   6.383
 7496SOL    HW223388   0.910   3.357   6.406
 7497SOL     OW23389   2.640   4.805   0.747
 7497SOL    HW123390   2.676   4.760   0.665
 7497SOL    HW223391   2.683   4.765   0.828
 7498SOL     OW23392   1.629   1.128   4.762
 7498SOL    HW123393   1.610   1.141   4.665
 7498SOL    HW223394   1.548   1.151   4.815
 7499SOL     OW23395   5.759   1.099   3.246
 7499SOL    HW123396   5.758   1.167   3.320
 7499SOL    HW223397   5.753   1.146   3.158
 7500SOL     OW23398   3.962   6.090   3.757
 7500SOL    HW123399   3.953   6.133   3.668
 7500SOL    HW223400   3.879   6.105   3.810
 7501SOL     OW23401   6.674   4.353   4.103
 7501SOL    HW123402   6.679   4.450   4.079
 7501SOL    HW223403   6.674   4.343   4.202
 7502SOL     OW23404   1.120   0.786   5.180
 7502SOL    HW123405   1.162   0.869   5.215
 7502SOL    HW223406   1.032   0.772   5.225
 7503SOL     OW23407   1.800   1.260   0.098
 7503SOL    HW123408   1.768   1.222   0.011
 7503SOL    HW223409   1.724   1.261   0.163
 7504SOL     OW23410   2.714   0.532   4.002
 7504SOL    HW123411   2.722   0.468   3.926
 7504SOL    HW223412   2.697   0.624   3.968
 7505SOL     OW23413   2.224   0.739   5.572
 7505SOL    HW123414   2.285   0.736   5.492
 7505SOL    HW223415   2.273   0.777   5.650
 7506SOL     OW23416   4.336   6.874   3.238
 7506SOL    HW123417   4.296   6.961   3.209
 7506SOL    HW223418   4.331   6.868   3.338
 7507SOL     OW23419   0.751   0.523   1.058
 7507SOL    HW123420   0.719   0.516   1.153
 7507SOL    HW223421   0.850   0.515   1.055
 7508SOL     OW23422   6.599   6.714   1.734
 7508SOL    HW123423   6.548   6.717   1.648
 7508SOL    HW223424   6.581   6.627   1.780
 7509SOL     OW23425   5.542   4.110   1.319
 7509SOL    HW123426   5.556   4.015   1.346
 7509SOL    HW223427   5.522   4.114   1.221
 7510SOL     OW23428   2.732   4.460   5.325
 7510SOL    HW123429   2.809   4.480   5.264
 7510SOL    HW223430   2.765   4.406   5.403
 7511SOL     OW23431   1.370   0.004   3.446
 7511SOL    HW123432   1.389   0.098   3.418
 7511SOL    HW223433   1.300   0.003   3.517
 7512SOL     OW23434   3.752   4.391   0.902
 7512SOL    HW123435   3.763   4.456   0.827
 7512SOL    HW223436   3.686   4.321   0.875
 7513SOL     OW23437   1.814   1.826   1.518
 7513SOL    HW123438   1.867   1.741   1.520
 7513SOL    HW223439   1.826   1.874   1.605
 7514SOL     OW23440   2.491   5.330   2.086
 7514SOL    HW123441   2.449   5.270   2.018
 7514SOL    HW223442   2.421   5.387   2.129
 7515SOL     OW23443   1.252   5.916   2.334
 7515SOL    HW123444   1.158   5.893   2.313
 7515SOL    HW223445   1.312   5.885   2.260
 7516SOL     OW23446   6.805   6.358   4.267
 7516SOL    HW123447   6.790   6.456   4.271
 7516SOL    HW223448   6.791   6.318   4.358
 7517SOL     OW23449   0.110   3.184   1.133
 7517SOL    HW123450   0.114   3.192   1.233
 7517SOL    HW223451   0.127   3.089   1.107
 7518SOL     OW23452   4.135   5.534   3.564
 7518SOL    HW123453   4.072   5.468   3.607
 7518SOL    HW223454   4.229   5.506   3.581
 7519SOL     OW23455   0.497   6.539   3.533
 7519SOL    HW123456   0.416   6.597   3.518
 7519SOL    HW223457   0.538   6.562   3.621
 7520SOL     OW23458   3.463   6.966   1.942
 7520SOL    HW123459   3.553   6.968   1.985
 7520SOL    HW223460   3.470   6.925   1.851
 7521SOL     OW23461   4.701   4.697   6.142
 7521SOL    HW123462   4.636   4.684   6.216
 7521SOL    HW223463   4.746   4.610   6.121
 7522SOL     OW23464   2.545   0.087   6.790
 7522SOL    HW123465   2.597   0.134   6.718
 7522SOL    HW223466   2.559   0.135   6.877
 7523SOL     OW23467   5.360   0.526   6.148
 7523SOL    HW123468   5.404   0.592   6.088
 7523SOL    HW223469   5.277   0.491   6.103
 7524SOL     OW23470   1.447   1.977   6.781
 7524SOL    HW123471   1.386   1.965   6.859
 7524SOL    HW223472   1.502   2.060   6.795
 7525SOL     OW23473   2.786   0.095   0.043
 7525SOL    HW123474   2.762   0.036   0.120
 7525SOL    HW223475   2.707   0.151   0.018
 7526SOL     OW23476   3.774   2.923   2.272
 7526SOL    HW123477   3.832   2.995   2.310
 7526SOL    HW223478   3.824   2.836   2.275
 7527SOL     OW23479   4.270   5.654   3.224
 7527SOL    HW123480   4.224   5.703   3.298
 7527SOL    HW223481   4.233   5.685   3.136
 7528SOL     OW23482   3.886   2.039   6.752
 7528SOL    HW123483   3.893   1.942   6.730
 7528SOL    HW223484   3.856   2.050   6.847
 7529SOL     OW23485   5.844   0.507   4.391
 7529SOL    HW123486   5.827   0.572   4.317
 7529SOL    HW223487   5.762   0.452   4.407
 7530SOL     OW23488   6.561   4.292   2.392
 7530SOL    HW123489   6.517   4.268   2.478
 7530SOL    HW223490   6.522   4.238   2.318
 7531SOL     OW23491   4.431   2.475   4.089
 7531SOL    HW123492   4.388   2.519   4.010
 7531SOL    HW223493   4.365   2.417   4.135
 7532SOL     OW23494   5.479   5.347   1.604
 7532SOL    HW123495   5.467   5.254   1.637
 7532SOL    HW223496   5.425   5.360   1.520
 7533SOL     OW23497   2.584   0.841   3.187
 7533SOL    HW123498   2.581   0.906   3.262
 7533SOL    HW223499   2.565   0.888   3.101
 7534SOL     OW23500   3.656   6.479   5.824
 7534SOL    HW123501   3.740   6.500   5.774
 7534SOL    HW223502   3.679   6.430   5.908
 7535SOL     OW23503   2.821   0.889   5.420
 7535SOL    HW123504   2.822   0.870   5.519
 7535SOL    HW223505   2.871   0.974   5.402
 7536SOL     OW23506   5.350   5.165   5.042
 7536SOL    HW123507   5.448   5.152   5.054
 7536SOL    HW223508   5.332   5.258   5.010
 7537SOL     OW23509   2.748   5.713   4.211
 7537SOL    HW123510   2.668   5.753   4.257
 7537SOL    HW223511   2.830   5.764   4.238
 7538SOL     OW23512   3.346   2.802   1.928
 7538SOL    HW123513   3.294   2.773   1.848
 7538SOL    HW223514   3.302   2.768   2.011
 7539SOL     OW23515   2.228   2.482   4.091
 7539SOL    HW123516   2.201   2.483   3.995
 7539SOL    HW223517   2.271   2.394   4.113
 7540SOL     OW23518   2.546   0.249   5.328
 7540SOL    HW123519   2.551   0.151   5.310
 7540SOL    HW223520   2.550   0.265   5.427
 7541SOL     OW23521   0.184   3.800   4.544
 7541SOL    HW123522   0.093   3.838   4.532
 7541SOL    HW223523   0.179   3.701   4.546
 7542SOL     OW23524   0.772   5.501   0.188
 7542SOL    HW123525   0.704   5.557   0.140
 7542SOL    HW223526   0.854   5.555   0.203
 7543SOL     OW23527   4.079   2.207   1.196
 7543SOL    HW123528   4.131   2.137   1.147
 7543SOL    HW223529   4.064   2.286   1.136
 7544SOL     OW23530   0.306   2.584   3.558
 7544SOL    HW123531   0.360   2.654   3.605
 7544SOL    HW223532   0.298   2.606   3.461
 7545SOL     OW23533   5.639   6.221   2.803
 7545SOL    HW123534   5.720   6.163   2.809
 7545SOL    HW223535   5.558   6.166   2.823
 7546SOL     OW23536   4.081   0.922   1.603
 7546SOL    HW123537   3.993   0.900   1.644
 7546SOL    HW223538   4.137   0.973   1.668
 7547SOL     OW23539   4.482   0.163   0.510
 7547SOL    HW123540   4.474   0.067   0.539
 7547SOL    HW223541   4.541   0.168   0.430
 7548SOL     OW23542   3.213   2.157   0.465
 7548SOL    HW123543   3.192   2.169   0.368
 7548SOL    HW223544   3.128   2.141   0.516
 7549SOL     OW23545   5.561   1.426   1.192
 7549SOL    HW123546   5.519   1.504   1.237
 7549SOL    HW223547   5.494   1.352   1.183
 7550SOL     OW23548   2.326   4.557   1.882
 7550SOL    HW123549   2.237   4.572   1.925
 7550SOL    HW223550   2.395   4.541   1.952
 7551SOL     OW23551   4.786   4.036   6.644
 7551SOL    HW123552   4.866   4.024   6.586
 7551SOL    HW223553   4.726   4.106   6.604
 7552SOL     OW23554   1.909   5.843   3.920
 7552SOL    HW123555   1.995   5.862   3.967
 7552SOL    HW223556   1.840   5.813   3.986
 7553SOL     OW23557   4.374   5.080   5.786
 7553SOL    HW123558   4.373   5.100   5.884
 7553SOL    HW223559   4.377   5.165   5.734
 7554SOL     OW23560   5.229   0.365   0.877
 7554SOL    HW123561   5.295   0.432   0.844
 7554SOL    HW223562   5.151   0.412   0.917
 7555SOL     OW23563   1.819   5.339   5.017
 7555SOL    HW123564   1.763   5.410   5.060
 7555SOL    HW223565   1.846   5.272   5.086
 7556SOL     OW23566   0.473   2.436   5.668
 7556SOL    HW123567   0.492   2.512   5.606
 7556SOL    HW223568   0.412   2.370   5.622
 7557SOL     OW23569   5.108   2.884   6.180
 7557SOL    HW123570   5.040   2.882   6.252
 7557SOL    HW223571   5.168   2.804   6.188
 7558SOL     OW23572   1.939   2.588   3.433
 7558SOL    HW123573   1.915   2.608   3.528
 7558SOL    HW223574   2.038   2.573   3.426
 7559SOL     OW23575   6.140   5.456   0.083
 7559SOL    HW123576   6.160   5.554   0.074
 7559SOL    HW223577   6.156   5.427   0.177
 7560SOL     OW23578   5.025   6.171   0.330
 7560SOL    HW123579   4.926   6.178   0.340
 7560SOL    HW223580   5.067   6.258   0.354
 7561SOL     OW23581   0.686   2.961   0.474
 7561SOL    HW123582   0.644   3.000   0.392
 7561SOL    HW223583   0.733   2.876   0.450
 7562SOL     OW23584   5.585   6.268   4.935
 7562SOL    HW123585   5.546   6.220   4.856
 7562SOL    HW223586   5.663   6.217   4.970
 7563SOL     OW23587   2.669   6.328   0.818
 7563SOL    HW123588   2.727   6.273   0.759
 7563SOL    HW223589   2.648   6.276   0.901
 7564SOL     OW23590   5.670   1.460   2.693
 7564SOL    HW123591   5.597   1.528   2.702
 7564SOL    HW223592   5.758   1.507   2.688
 7565SOL     OW23593   5.416   4.644   0.114
 7565SOL    HW123594   5.443   4.555   0.077
 7565SOL    HW223595   5.459   4.657   0.204
 7566SOL     OW23596   0.355   5.391   3.204
 7566SOL    HW123597   0.277   5.414   3.263
 7566SOL    HW223598   0.360   5.292   3.194
 7567SOL     OW23599   1.819   2.595   4.812
 7567SOL    HW123600   1.885   2.647   4.867
 7567SOL    HW223601   1.867   2.546   4.739
 7568SOL     OW23602   5.605   6.205   3.114
 7568SOL    HW123603   5.645   6.259   3.040
 7568SOL    HW223604   5.506   6.198   3.102
 7569SOL     OW23605   4.314   4.886   6.866
 7569SOL    HW123606   4.287   4.947   6.941
 7569SOL    HW223607   4.306   4.791   6.896
 7570SOL     OW23608   5.505   4.660   5.206
 7570SOL    HW123609   5.532   4.705   5.291
 7570SOL    HW223610   5.405   4.665   5.196
 7571SOL     OW23611   5.121   4.909   2.505
 7571SOL    HW123612   5.190   4.908   2.578
 7571SOL    HW223613   5.068   4.824   2.508
 7572SOL     OW23614   5.026   0.897   3.112
 7572SOL    HW123615   4.982   0.921   3.025
 7572SOL    HW223616   5.004   0.967   3.180
 7573SOL     OW23617   6.358   6.579   4.523
 7573SOL    HW123618   6.299   6.611   4.598
 7573SOL    HW223619   6.422   6.510   4.558
 7574SOL     OW23620   6.822   0.981   4.507
 7574SOL    HW123621   6.799   0.886   4.484
 7574SOL    HW223622   6.904   0.982   4.564
 7575SOL     OW23623   4.153   0.281   5.799
 7575SOL    HW123624   4.224   0.244   5.859
 7575SOL    HW223625   4.187   0.283   5.705
 7576SOL     OW23626   6.281   5.565   6.671
 7576SOL    HW123627   6.225   5.499   6.621
 7576SOL    HW223628   6.285   5.539   6.767
 7577SOL     OW23629   6.907   6.727   6.002
 7577SOL    HW123630   6.911   6.645   6.059
 7577SOL    HW223631   6.812   6.748   5.980
 7578SOL     OW23632   2.734   6.021   3.034
 7578SOL    HW123633   2.667   5.957   2.997
 7578SOL    HW223634   2.690   6.109   3.051
 7579SOL     OW23635   5.220   2.237   2.111
 7579SOL    HW123636   5.180   2.165   2.055
 7579SOL    HW223637   5.320   2.230   2.108
 7580SOL     OW23638   1.218   4.185   4.026
 7580SOL    HW123639   1.283   4.171   4.101
 7580SOL    HW223640   1.239   4.122   3.951
 7581SOL     OW23641   5.681   6.851   1.211
 7581SOL    HW123642   5.596   6.881   1.167
 7581SOL    HW223643   5.661   6.777   1.275
 7582SOL     OW23644   3.204   1.469   0.542
 7582SOL    HW123645   3.255   1.513   0.468
 7582SOL    HW223646   3.108   1.495   0.535
 7583SOL     OW23647   6.199   2.687   1.736
 7583SOL    HW123648   6.108   2.721   1.711
 7583SOL    HW223649   6.203   2.674   1.835
 7584SOL     OW23650   2.989   6.622   0.612
 7584SOL    HW123651   2.954   6.613   0.705
 7584SOL    HW223652   2.913   6.642   0.550
 7585SOL     OW23653   1.891   3.350   6.321
 7585SOL    HW123654   1.801   3.377   6.356
 7585SOL    HW223655   1.942   3.432   6.296
 7586SOL     OW23656   3.710   0.689   3.495
 7586SOL    HW123657   3.778   0.627   3.534
 7586SOL    HW223658   3.620   0.669   3.533
 7587SOL     OW23659   3.435   1.620   6.728
 7587SOL    HW123660   3.387   1.707   6.718
 7587SOL    HW223661   3.370   1.548   6.753
 7588SOL     OW23662   1.481   3.154   2.476
 7588SOL    HW123663   1.412   3.084   2.492
 7588SOL    HW223664   1.471   3.190   2.383
 7589SOL     OW23665   6.797   6.970   1.074
 7589SOL    HW123666   6.865   6.920   1.126
 7589SOL    HW223667   6.728   6.907   1.040
 7590SOL     OW23668   3.597   2.138   6.669
 7590SOL    HW123669   3.656   2.161   6.746
 7590SOL    HW223670   3.502   2.133   6.701
 7591SOL     OW23671   0.050   4.591   0.546
 7591SOL    HW123672   0.046   4.662   0.617
 7591SOL    HW223673   0.067   4.633   0.457
 7592SOL     OW23674   6.774   4.190   6.360
 7592SOL    HW123675   6.829   4.197   6.444
 7592SOL    HW223676   6.835   4.197   6.280
 7593SOL     OW23677   5.698   2.507   1.066
 7593SOL    HW123678   5.788   2.510   1.111
 7593SOL    HW223679   5.626   2.518   1.135
 7594SOL     OW23680   6.841   4.787   2.536
 7594SOL    HW123681   6.749   4.787   2.498
 7594SOL    HW223682   6.878   4.880   2.535
 7595SOL     OW23683   6.796   2.411   5.986
 7595SOL    HW123684   6.767   2.317   5.968
 7595SOL    HW223685   6.781   2.432   6.082
 7596SOL     OW23686   4.101   5.721   3.037
 7596SOL    HW123687   4.147   5.793   2.986
 7596SOL    HW223688   4.041   5.670   2.976
 7597SOL     OW23689   2.552   6.088   2.143
 7597SOL    HW123690   2.523   6.025   2.215
 7597SOL    HW223691   2.545   6.182   2.175
 7598SOL     OW23692   7.002   1.492   3.181
 7598SOL    HW123693   6.940   1.456   3.111
 7598SOL    HW223694   6.972   1.584   3.207
 7599SOL     OW23695   5.736   1.506   3.226
 7599SOL    HW123696   5.746   1.474   3.320
 7599SOL    HW223697   5.791   1.588   3.212
 7600SOL     OW23698   1.777   1.351   2.050
 7600SOL    HW123699   1.711   1.309   2.113
 7600SOL    HW223700   1.767   1.309   1.960
 7601SOL     OW23701   1.869   5.655   2.804
 7601SOL    HW123702   1.858   5.556   2.812
 7601SOL    HW223703   1.912   5.677   2.716
 7602SOL     OW23704   1.253   4.352   6.398
 7602SOL    HW123705   1.329   4.319   6.341
 7602SOL    HW223706   1.167   4.339   6.349
 7603SOL     OW23707   1.841   5.008   6.319
 7603SOL    HW123708   1.807   4.998   6.226
 7603SOL    HW223709   1.808   5.095   6.357
 7604SOL     OW23710   1.791   4.106   4.242
 7604SOL    HW123711   1.866   4.041   4.237
 7604SOL    HW223712   1.763   4.132   4.150
 7605SOL     OW23713   0.735   6.947   0.474
 7605SOL    HW123714   0.705   6.932   0.568
 7605SOL    HW223715   0.822   6.901   0.459
 7606SOL     OW23716   6.687   3.023   3.739
 7606SOL    HW123717   6.648   2.933   3.759
 7606SOL    HW223718   6.784   3.012   3.714
 7607SOL     OW23719   4.820   5.405   0.662
 7607SOL    HW123720   4.785   5.366   0.748
 7607SOL    HW223721   4.745   5.443   0.609
 7608SOL     OW23722   3.185   4.081   3.266
 7608SOL    HW123723   3.114   4.138   3.307
 7608SOL    HW223724   3.165   4.068   3.169
 7609SOL     OW23725   0.227   4.183   3.858
 7609SOL    HW123726   0.312   4.235   3.862
 7609SOL    HW223727   0.192   4.167   3.951
 7610SOL     OW23728   6.119   0.051   6.854
 7610SOL    HW123729   6.191   0.075   6.918
 7610SOL    HW223730   6.154   0.057   6.760
 7611SOL     OW23731   0.577   1.664   0.466
 7611SOL    HW123732   0.557   1.659   0.564
 7611SOL    HW223733   0.541   1.750   0.430
 7612SOL     OW23734   4.887   3.270   4.781
 7612SOL    HW123735   4.881   3.235   4.875
 7612SOL    HW223736   4.902   3.369   4.784
 7613SOL     OW23737   6.073   3.322   1.381
 7613SOL    HW123738   6.154   3.324   1.440
 7613SOL    HW223739   5.999   3.372   1.425
 7614SOL     OW23740   5.278   3.580   1.148
 7614SOL    HW123741   5.328   3.604   1.231
 7614SOL    HW223742   5.221   3.500   1.165
 7615SOL     OW23743   4.865   4.075   6.308
 7615SOL    HW123744   4.888   4.169   6.334
 7615SOL    HW223745   4.916   4.011   6.365
 7616SOL     OW23746   6.902   4.535   4.677
 7616SOL    HW123747   6.890   4.484   4.591
 7616SOL    HW223748   6.816   4.578   4.702
 7617SOL     OW23749   3.429   5.440   2.765
 7617SOL    HW123750   3.360   5.406   2.828
 7617SOL    HW223751   3.385   5.492   2.692
 7618SOL     OW23752   0.508   1.941   6.324
 7618SOL    HW123753   0.528   2.036   6.299
 7618SOL    HW223754   0.593   1.893   6.346
 7619SOL     OW23755   5.536   3.637   5.126
 7619SOL    HW123756   5.475   3.559   5.113
 7619SOL    HW223757   5.614   3.629   5.063
 7620SOL     OW23758   4.012   5.238   0.321
 7620SOL    HW123759   4.108   5.248   0.294
 7620SOL    HW223760   3.973   5.329   0.338
 7621SOL     OW23761   0.213   1.876   0.412
 7621SOL    HW123762   0.204   1.842   0.319
 7621SOL    HW223763   0.150   1.826   0.472
 7622SOL     OW23764   5.141   5.730   1.826
 7622SOL    HW123765   5.090   5.796   1.772
 7622SOL    HW223766   5.222   5.700   1.776
 7623SOL     OW23767   4.819   4.694   6.695
 7623SOL    HW123768   4.813   4.774   6.754
 7623SOL    HW223769   4.810   4.611   6.750
 7624SOL     OW23770   6.881   2.643   4.907
 7624SOL    HW123771   6.936   2.602   4.980
 7624SOL    HW223772   6.918   2.614   4.818
 7625SOL     OW23773   4.844   0.545   1.294
 7625SOL    HW123774   4.853   0.641   1.323
 7625SOL    HW223775   4.754   0.532   1.252
 7626SOL     OW23776   6.645   6.630   4.258
 7626SOL    HW123777   6.716   6.662   4.195
 7626SOL    HW223778   6.592   6.557   4.215
 7627SOL     OW23779   5.348   3.117   6.713
 7627SOL    HW123780   5.278   3.062   6.667
 7627SOL    HW223781   5.333   3.114   6.812
 7628SOL     OW23782   3.623   0.496   2.510
 7628SOL    HW123783   3.718   0.500   2.539
 7628SOL    HW223784   3.612   0.546   2.424
 7629SOL     OW23785   6.913   0.137   3.210
 7629SOL    HW123786   6.897   0.041   3.183
 7629SOL    HW223787   6.944   0.189   3.130
 7630SOL     OW23788   6.378   6.938   1.139
 7630SOL    HW123789   6.292   6.965   1.097
 7630SOL    HW223790   6.375   6.957   1.237
 7631SOL     OW23791   0.633   0.993   5.734
 7631SOL    HW123792   0.610   1.030   5.644
 7631SOL    HW223793   0.653   0.896   5.726
 7632SOL     OW23794   3.663   2.829   1.859
 7632SOL    HW123795   3.565   2.819   1.874
 7632SOL    HW223796   3.696   2.752   1.803
 7633SOL     OW23797   4.655   2.094   0.989
 7633SOL    HW123798   4.712   2.122   1.067
 7633SOL    HW223799   4.618   2.176   0.945
 7634SOL     OW23800   0.668   1.895   2.550
 7634SOL    HW123801   0.573   1.926   2.548
 7634SOL    HW223802   0.715   1.925   2.467
 7635SOL     OW23803   2.884   5.820   5.375
 7635SOL    HW123804   2.856   5.897   5.318
 7635SOL    HW223805   2.804   5.785   5.424
 7636SOL     OW23806   1.544   2.452   3.425
 7636SOL    HW123807   1.446   2.461   3.411
 7636SOL    HW223808   1.578   2.534   3.471
 7637SOL     OW23809   2.672   6.272   3.118
 7637SOL    HW123810   2.682   6.333   3.039
 7637SOL    HW223811   2.618   6.317   3.189
 7638SOL     OW23812   3.780   6.031   1.415
 7638SOL    HW123813   3.773   5.940   1.376
 7638SOL    HW223814   3.805   6.097   1.344
 7639SOL     OW23815   1.701   2.006   0.730
 7639SOL    HW123816   1.604   2.003   0.708
 7639SOL    HW223817   1.728   1.922   0.776
 7640SOL     OW23818   3.187   1.873   0.324
 7640SOL    HW123819   3.225   1.786   0.294
 7640SOL    HW223820   3.217   1.892   0.418
 7641SOL     OW23821   0.877   4.262   1.589
 7641SOL    HW123822   0.854   4.359   1.578
 7641SOL    HW223823   0.948   4.253   1.658
 7642SOL     OW23824   2.893   0.841   2.293
 7642SOL    HW123825   2.944   0.892   2.224
 7642SOL    HW223826   2.841   0.768   2.248
 7643SOL     OW23827   4.662   2.774   4.415
 7643SOL    HW123828   4.747   2.751   4.366
 7643SOL    HW223829   4.668   2.867   4.450
 7644SOL     OW23830   5.759   2.435   2.209
 7644SOL    HW123831   5.774   2.498   2.285
 7644SOL    HW223832   5.806   2.349   2.227
 7645SOL     OW23833   4.263   3.809   5.311
 7645SOL    HW123834   4.344   3.753   5.329
 7645SOL    HW223835   4.287   3.883   5.249
 7646SOL     OW23836   2.095   2.664   2.398
 7646SOL    HW123837   2.144   2.694   2.316
 7646SOL    HW223838   2.124   2.572   2.423
 7647SOL     OW23839   6.653   3.554   2.328
 7647SOL    HW123840   6.602   3.639   2.319
 7647SOL    HW223841   6.699   3.532   2.242
 7648SOL     OW23842   3.336   1.587   3.678
 7648SOL    HW123843   3.291   1.584   3.767
 7648SOL    HW223844   3.434   1.600   3.691
 7649SOL     OW23845   0.922   1.282   2.845
 7649SOL    HW123846   1.001   1.317   2.896
 7649SOL    HW223847   0.893   1.195   2.885
 7650SOL     OW23848   5.090   2.848   1.587
 7650SOL    HW123849   5.113   2.791   1.666
 7650SOL    HW223850   5.117   2.942   1.605
 7651SOL     OW23851   2.247   6.810   5.152
 7651SOL    HW123852   2.310   6.734   5.136
 7651SOL    HW223853   2.163   6.795   5.100
 7652SOL     OW23854   6.746   4.116   4.621
 7652SOL    HW123855   6.681   4.104   4.545
 7652SOL    HW223856   6.743   4.211   4.651
 7653SOL     OW23857   2.982   1.635   0.453
 7653SOL    HW123858   2.896   1.632   0.504
 7653SOL    HW223859   2.964   1.668   0.360
 7654SOL     OW23860   5.161   3.232   4.086
 7654SOL    HW123861   5.246   3.182   4.070
 7654SOL    HW223862   5.084   3.181   4.049
 7655SOL     OW23863   3.547   0.339   3.426
 7655SOL    HW123864   3.490   0.413   3.390
 7655SOL    HW223865   3.643   0.360   3.409
 7656SOL     OW23866   2.125   4.798   6.582
 7656SOL    HW123867   2.028   4.777   6.596
 7656SOL    HW223868   2.166   4.726   6.526
 7657SOL     OW23869   2.526   2.620   3.707
 7657SOL    HW123870   2.581   2.679   3.767
 7657SOL    HW223871   2.466   2.563   3.762
 7658SOL     OW23872   3.417   0.347   5.816
 7658SOL    HW123873   3.317   0.341   5.824
 7658SOL    HW223874   3.446   0.440   5.839
 7659SOL     OW23875   5.909   5.632   7.009
 7659SOL    HW123876   6.000   5.663   0.008
 7659SOL    HW223877   5.919   5.573   6.929
 7660SOL     OW23878   0.166   6.599   3.964
 7660SOL    HW123879   0.117   6.576   3.880
 7660SOL    HW223880   0.206   6.691   3.955
 7661SOL     OW23881   5.604   2.360   4.855
 7661SOL    HW123882   5.543   2.367   4.776
 7661SOL    HW223883   5.557   2.315   4.930
 7662SOL     OW23884   0.941   2.249   2.467
 7662SOL    HW123885   0.851   2.285   2.493
 7662SOL    HW223886   1.006   2.324   2.460
 7663SOL     OW23887   0.671   6.649   5.837
 7663SOL    HW123888   0.701   6.605   5.921
 7663SOL    HW223889   0.697   6.746   5.839
 7664SOL     OW23890   4.092   0.015   2.487
 7664SOL    HW123891   4.060   0.052   2.573
 7664SOL    HW223892   4.192   0.005   2.490
 7665SOL     OW23893   4.846   0.195   5.279
 7665SOL    HW123894   4.872   0.106   5.317
 7665SOL    HW223895   4.925   0.238   5.237
 7666SOL     OW23896   0.812   6.435   1.598
 7666SOL    HW123897   0.735   6.379   1.566
 7666SOL    HW223898   0.822   6.515   1.538
 7667SOL     OW23899   4.291   6.222   2.046
 7667SOL    HW123900   4.321   6.287   2.116
 7667SOL    HW223901   4.361   6.153   2.032
 7668SOL     OW23902   3.452   4.377   1.076
 7668SOL    HW123903   3.398   4.307   1.123
 7668SOL    HW223904   3.456   4.356   0.978
 7669SOL     OW23905   5.576   1.701   5.961
 7669SOL    HW123906   5.661   1.712   5.909
 7669SOL    HW223907   5.583   1.753   6.046
 7670SOL     OW23908   0.548   4.520   6.697
 7670SOL    HW123909   0.612   4.468   6.640
 7670SOL    HW223910   0.478   4.562   6.639
 7671SOL     OW23911   4.018   0.515   3.850
 7671SOL    HW123912   4.011   0.478   3.942
 7671SOL    HW223913   4.041   0.612   3.855
 7672SOL     OW23914   5.961   6.600   3.156
 7672SOL    HW123915   5.899   6.561   3.088
 7672SOL    HW223916   5.924   6.687   3.188
 7673SOL     OW23917   1.801   5.364   6.891
 7673SOL    HW123918   1.755   5.280   6.863
 7673SOL    HW223919   1.891   5.342   6.927
 7674SOL     OW23920   6.103   1.966   4.091
 7674SOL    HW123921   6.074   1.935   4.000
 7674SOL    HW223922   6.027   1.956   4.155
 7675SOL     OW23923   5.189   6.886   2.701
 7675SOL    HW123924   5.275   6.837   2.696
 7675SOL    HW223925   5.150   6.895   2.610
 7676SOL     OW23926   2.023   1.815   0.179
 7676SOL    HW123927   2.119   1.810   0.208
 7676SOL    HW223928   2.010   1.896   0.122
 7677SOL     OW23929   0.066   4.085   2.203
 7677SOL    HW123930   0.026   4.116   2.290
 7677SOL    HW223931   0.121   4.159   2.163
 7678SOL     OW23932   2.256   1.634   4.556
 7678SOL    HW123933   2.329   1.575   4.522
 7678SOL    HW223934   2.272   1.655   4.652
 7679SOL     OW23935   2.681   5.883   6.586
 7679SOL    HW123936   2.763   5.867   6.641
 7679SOL    HW223937   2.622   5.950   6.631
 7680SOL     OW23938   1.654   1.751   0.365
 7680SOL    HW123939   1.737   1.695   0.359
 7680SOL    HW223940   1.643   1.802   0.279
 7681SOL     OW23941   2.807   6.697   0.425
 7681SOL    HW123942   2.857   6.692   0.338
 7681SOL    HW223943   2.711   6.716   0.406
 7682SOL     OW23944   3.206   0.363   1.857
 7682SOL    HW123945   3.137   0.375   1.929
 7682SOL    HW223946   3.220   0.266   1.840
 7683SOL     OW23947   6.407   1.891   3.815
 7683SOL    HW123948   6.420   1.893   3.716
 7683SOL    HW223949   6.338   1.960   3.841
 7684SOL     OW23950   4.224   2.111   1.697
 7684SOL    HW123951   4.188   2.088   1.607
 7684SOL    HW223952   4.189   2.201   1.725
 7685SOL     OW23953   3.255   3.476   6.562
 7685SOL    HW123954   3.282   3.419   6.484
 7685SOL    HW223955   3.161   3.453   6.590
 7686SOL     OW23956   5.782   6.885   2.946
 7686SOL    HW123957   5.763   6.870   3.043
 7686SOL    HW223958   5.849   6.959   2.936
 7687SOL     OW23959   5.916   5.406   4.984
 7687SOL    HW123960   6.003   5.450   5.007
 7687SOL    HW223961   5.932   5.311   4.956
 7688SOL     OW23962   0.510   6.634   5.337
 7688SOL    HW123963   0.432   6.696   5.336
 7688SOL    HW223964   0.590   6.681   5.375
 7689SOL     OW23965   4.748   6.651   2.669
 7689SOL    HW123966   4.800   6.709   2.731
 7689SOL    HW223967   4.798   6.566   2.653
 7690SOL     OW23968   6.627   4.944   1.455
 7690SOL    HW123969   6.602   5.040   1.466
 7690SOL    HW223970   6.661   4.908   1.541
 7691SOL     OW23971   5.246   2.714   4.176
 7691SOL    HW123972   5.251   2.743   4.271
 7691SOL    HW223973   5.169   2.760   4.131
 7692SOL     OW23974   1.031   6.326   2.147
 7692SOL    HW123975   1.021   6.331   2.047
 7692SOL    HW223976   1.029   6.418   2.185
 7693SOL     OW23977   3.328   0.177   1.463
 7693SOL    HW123978   3.413   0.129   1.487
 7693SOL    HW223979   3.264   0.170   1.539
 7694SOL     OW23980   0.449   4.623   4.284
 7694SOL    HW123981   0.462   4.637   4.382
 7694SOL    HW223982   0.505   4.547   4.253
 7695SOL     OW23983   4.331   6.361   0.537
 7695SOL    HW123984   4.251   6.311   0.570
 7695SOL    HW223985   4.314   6.459   0.542
 7696SOL     OW23986   6.896   1.272   4.740
 7696SOL    HW123987   6.863   1.190   4.693
 7696SOL    HW223988   6.818   1.319   4.782
 7697SOL     OW23989   3.030   6.966   1.634
 7697SOL    HW123990   3.060   6.882   1.680
 7697SOL    HW223991   3.025   6.949   1.535
 7698SOL     OW23992   6.587   2.085   3.889
 7698SOL    HW123993   6.525   2.037   3.828
 7698SOL    HW223994   6.545   2.170   3.921
 7699SOL     OW23995   3.401   5.991   0.705
 7699SOL    HW123996   3.458   5.937   0.643
 7699SOL    HW223997   3.332   5.932   0.747
 7700SOL     OW23998   4.786   6.339   4.771
 7700SOL    HW123999   4.844   6.276   4.823
 7700SOL    HW224000   4.841   6.416   4.739
 7701SOL     OW24001   6.893   1.520   6.932
 7701SOL    HW124002   6.826   1.541   6.861
 7701SOL    HW224003   6.973   1.477   6.891
 7702SOL     OW24004   2.997   6.551   6.222
 7702SOL    HW124005   2.931   6.532   6.149
 7702SOL    HW224006   2.971   6.502   6.305
 7703SOL     OW24007   6.563   1.083   5.219
 7703SOL    HW124008   6.651   1.078   5.265
 7703SOL    HW224009   6.491   1.052   5.281
 7704SOL     OW24010   5.502   4.715   5.475
 7704SOL    HW124011   5.464   4.807   5.478
 7704SOL    HW224012   5.443   4.653   5.526
 7705SOL     OW24013   3.848   4.999   5.657
 7705SOL    HW124014   3.823   5.037   5.568
 7705SOL    HW224015   3.947   5.001   5.668
 7706SOL     OW24016   4.546   2.424   4.549
 7706SOL    HW124017   4.463   2.371   4.533
 7706SOL    HW224018   4.559   2.490   4.475
 7707SOL     OW24019   1.023   5.477   6.064
 7707SOL    HW124020   1.002   5.381   6.043
 7707SOL    HW224021   0.950   5.535   6.029
 7708SOL     OW24022   5.748   6.698   5.583
 7708SOL    HW124023   5.727   6.666   5.675
 7708SOL    HW224024   5.671   6.752   5.548
 7709SOL     OW24025   5.749   4.270   1.406
 7709SOL    HW124026   5.727   4.184   1.360
 7709SOL    HW224027   5.673   4.335   1.394
 7710SOL     OW24028   3.778   0.609   0.856
 7710SOL    HW124029   3.856   0.657   0.896
 7710SOL    HW224030   3.693   0.648   0.891
 7711SOL     OW24031   5.939   6.430   4.959
 7711SOL    HW124032   5.966   6.375   4.879
 7711SOL    HW224033   6.016   6.486   4.988
 7712SOL     OW24034   5.494   5.542   2.314
 7712SOL    HW124035   5.584   5.577   2.341
 7712SOL    HW224036   5.467   5.469   2.377
 7713SOL     OW24037   1.554   5.086   0.616
 7713SOL    HW124038   1.509   5.051   0.534
 7713SOL    HW224039   1.653   5.076   0.608
 7714SOL     OW24040   6.598   4.469   5.577
 7714SOL    HW124041   6.509   4.510   5.597
 7714SOL    HW224042   6.658   4.480   5.657
 7715SOL     OW24043   4.621   1.886   0.065
 7715SOL    HW124044   4.581   1.958   0.009
 7715SOL    HW224045   4.627   1.917   0.160
 7716SOL     OW24046   6.694   4.636   3.992
 7716SOL    HW124047   6.671   4.731   4.011
 7716SOL    HW224048   6.622   4.594   3.937
 7717SOL     OW24049   1.307   1.171   4.718
 7717SOL    HW124050   1.264   1.260   4.701
 7717SOL    HW224051   1.340   1.133   4.631
 7718SOL     OW24052   1.879   1.584   2.844
 7718SOL    HW124053   1.906   1.614   2.935
 7718SOL    HW224054   1.821   1.503   2.852
 7719SOL     OW24055   6.673   3.688   4.318
 7719SOL    HW124056   6.735   3.628   4.369
 7719SOL    HW224057   6.588   3.700   4.370
 7720SOL     OW24058   0.308   0.497   6.881
 7720SOL    HW124059   0.400   0.476   6.848
 7720SOL    HW224060   0.289   0.442   6.963
 7721SOL     OW24061   0.417   4.859   2.618
 7721SOL    HW124062   0.436   4.765   2.644
 7721SOL    HW224063   0.318   4.871   2.604
 7722SOL     OW24064   0.320   5.988   3.128
 7722SOL    HW124065   0.243   6.018   3.071
 7722SOL    HW224066   0.291   5.983   3.223
 7723SOL     OW24067   6.516   3.584   6.921
 7723SOL    HW124068   6.470   3.637   6.851
 7723SOL    HW224069   6.449   3.542   6.982
 7724SOL     OW24070   2.477   4.284   1.724
 7724SOL    HW124071   2.450   4.373   1.761
 7724SOL    HW224072   2.557   4.296   1.665
 7725SOL     OW24073   5.429   2.973   3.598
 7725SOL    HW124074   5.429   2.874   3.614
 7725SOL    HW224075   5.394   3.019   3.680
 7726SOL     OW24076   1.464   6.240   4.889
 7726SOL    HW124077   1.427   6.182   4.816
 7726SOL    HW224078   1.402   6.317   4.905
 7727SOL     OW24079   0.344   0.825   2.946
 7727SOL    HW124080   0.334   0.738   2.995
 7727SOL    HW224081   0.281   0.892   2.985
 7728SOL     OW24082   0.958   5.297   3.272
 7728SOL    HW124083   0.935   5.215   3.323
 7728SOL    HW224084   0.944   5.378   3.329
 7729SOL     OW24085   5.703   3.113   0.805
 7729SOL    HW124086   5.729   3.034   0.749
 7729SOL    HW224087   5.693   3.193   0.747
 7730SOL     OW24088   5.982   5.854   1.361
 7730SOL    HW124089   6.018   5.768   1.398
 7730SOL    HW224090   5.882   5.855   1.370
 7731SOL     OW24091   5.930   0.931   0.936
 7731SOL    HW124092   5.906   1.028   0.927
 7731SOL    HW224093   5.960   0.913   1.030
 7732SOL     OW24094   4.450   6.630   0.468
 7732SOL    HW124095   4.373   6.688   0.494
 7732SOL    HW224096   4.435   6.594   0.376
 7733SOL     OW24097   4.510   6.755   2.361
 7733SOL    HW124098   4.445   6.739   2.287
 7733SOL    HW224099   4.475   6.716   2.445
 7734SOL     OW24100   2.217   5.398   3.613
 7734SOL    HW124101   2.153   5.391   3.536
 7734SOL    HW224102   2.227   5.309   3.656
 7735SOL     OW24103   4.694   6.163   6.188
 7735SOL    HW124104   4.667   6.253   6.155
 7735SOL    HW224105   4.623   6.097   6.168
 7736SOL     OW24106   3.733   4.057   6.919
 7736SOL    HW124107   3.649   4.107   6.937
 7736SOL    HW224108   3.748   3.988   6.990
 7737SOL     OW24109   3.893   0.738   2.293
 7737SOL    HW124110   3.818   0.697   2.346
 7737SOL    HW224111   3.967   0.762   2.355
 7738SOL     OW24112   2.506   5.602   6.823
 7738SOL    HW124113   2.465   5.618   6.733
 7738SOL    HW224114   2.528   5.689   6.866
 7739SOL     OW24115   0.944   2.307   1.950
 7739SOL    HW124116   0.873   2.246   1.986
 7739SOL    HW224117   0.918   2.402   1.965
 7740SOL     OW24118   1.889   1.064   3.012
 7740SOL    HW124119   1.953   1.139   2.998
 7740SOL    HW224120   1.940   0.979   3.027
 7741SOL     OW24121   1.303   5.251   4.714
 7741SOL    HW124122   1.208   5.220   4.715
 7741SOL    HW224123   1.335   5.256   4.619
 7742SOL     OW24124   5.644   2.427   3.874
 7742SOL    HW124125   5.707   2.497   3.839
 7742SOL    HW224126   5.573   2.470   3.929
 7743SOL     OW24127   4.871   1.835   6.987
 7743SOL    HW124128   4.946   1.900   6.997
 7743SOL    HW224129   4.785   1.880   7.008
 7744SOL     OW24130   1.296   6.070   3.633
 7744SOL    HW124131   1.351   6.000   3.679
 7744SOL    HW224132   1.201   6.041   3.629
 7745SOL     OW24133   2.976   1.119   5.379
 7745SOL    HW124134   3.072   1.129   5.354
 7745SOL    HW224135   2.962   1.157   5.471
 7746SOL     OW24136   2.636   6.317   7.001
 7746SOL    HW124137   2.716   6.300   0.028
 7746SOL    HW224138   2.554   6.314   0.028
 7747SOL     OW24139   4.761   5.865   1.618
 7747SOL    HW124140   4.703   5.909   1.549
 7747SOL    HW224141   4.854   5.902   1.612
 7748SOL     OW24142   3.739   3.070   5.378
 7748SOL    HW124143   3.806   3.115   5.436
 7748SOL    HW224144   3.699   2.992   5.427
 7749SOL     OW24145   2.711   2.744   5.387
 7749SOL    HW124146   2.682   2.836   5.413
 7749SOL    HW224147   2.810   2.743   5.375
 7750SOL     OW24148   6.828   6.460   1.490
 7750SOL    HW124149   6.759   6.482   1.559
 7750SOL    HW224150   6.918   6.488   1.523
 7751SOL     OW24151   1.103   1.989   2.495
 7751SOL    HW124152   1.067   2.080   2.477
 7751SOL    HW224153   1.202   1.988   2.480
 7752SOL     OW24154   4.907   0.060   5.777
 7752SOL    HW124155   4.918   6.999   5.736
 7752SOL    HW224156   4.826   0.060   5.837
 7753SOL     OW24157   2.352   1.042   4.282
 7753SOL    HW124158   2.267   1.082   4.315
 7753SOL    HW224159   2.398   0.995   4.358
 7754SOL     OW24160   3.656   6.375   1.036
 7754SOL    HW124161   3.649   6.472   1.012
 7754SOL    HW224162   3.580   6.325   0.994
 7755SOL     OW24163   1.443   2.299   6.193
 7755SOL    HW124164   1.512   2.333   6.130
 7755SOL    HW224165   1.488   2.253   6.270
 7756SOL     OW24166   3.116   6.715   1.707
 7756SOL    HW124167   3.163   6.640   1.752
 7756SOL    HW224168   3.131   6.710   1.608
 7757SOL     OW24169   6.121   4.817   1.614
 7757SOL    HW124170   6.118   4.723   1.646
 7757SOL    HW224171   6.095   4.821   1.518
 7758SOL     OW24172   1.844   6.860   6.097
 7758SOL    HW124173   1.869   6.785   6.158
 7758SOL    HW224174   1.893   6.852   6.011
 7759SOL     OW24175   2.463   1.488   5.462
 7759SOL    HW124176   2.421   1.578   5.467
 7759SOL    HW224177   2.557   1.497   5.429
 7760SOL     OW24178   5.257   2.489   2.323
 7760SOL    HW124179   5.331   2.530   2.269
 7760SOL    HW224180   5.169   2.528   2.295
 7761SOL     OW24181   6.601   6.192   4.970
 7761SOL    HW124182   6.663   6.271   4.971
 7761SOL    HW224183   6.512   6.220   5.005
 7762SOL     OW24184   2.721   0.381   3.766
 7762SOL    HW124185   2.819   0.398   3.754
 7762SOL    HW224186   2.685   0.333   3.687
 7763SOL     OW24187   2.731   6.922   0.227
 7763SOL    HW124188   2.764   6.874   0.146
 7763SOL    HW224189   2.673   6.861   0.281
 7764SOL     OW24190   3.461   3.797   5.917
 7764SOL    HW124191   3.470   3.702   5.889
 7764SOL    HW224192   3.492   3.808   6.011
 7765SOL     OW24193   6.177   2.958   5.183
 7765SOL    HW124194   6.264   2.975   5.136
 7765SOL    HW224195   6.164   3.027   5.255
 7766SOL     OW24196   6.914   3.688   1.249
 7766SOL    HW124197   6.821   3.656   1.265
 7766SOL    HW224198   6.969   3.673   1.331
 7767SOL     OW24199   4.150   6.516   2.432
 7767SOL    HW124200   4.053   6.503   2.448
 7767SOL    HW224201   4.181   6.600   2.476
 7768SOL     OW24202   4.716   5.066   3.701
 7768SOL    HW124203   4.779   5.046   3.626
 7768SOL    HW224204   4.757   5.039   3.788
 7769SOL     OW24205   4.321   1.502   5.122
 7769SOL    HW124206   4.292   1.578   5.181
 7769SOL    HW224207   4.266   1.421   5.144
 7770SOL     OW24208   0.255   3.392   4.307
 7770SOL    HW124209   0.206   3.479   4.295
 7770SOL    HW224210   0.350   3.403   4.278
 7771SOL     OW24211   2.955   1.548   5.810
 7771SOL    HW124212   2.873   1.573   5.861
 7771SOL    HW224213   2.938   1.557   5.712
 7772SOL     OW24214   5.511   6.662   0.761
 7772SOL    HW124215   5.478   6.644   0.668
 7772SOL    HW224216   5.595   6.715   0.756
 7773SOL     OW24217   1.734   5.571   5.732
 7773SOL    HW124218   1.729   5.554   5.633
 7773SOL    HW224219   1.645   5.552   5.774
 7774SOL     OW24220   4.809   2.477   4.577
 7774SOL    HW124221   4.742   2.496   4.505
 7774SOL    HW224222   4.772   2.409   4.640
 7775SOL     OW24223   4.369   6.592   0.198
 7775SOL    HW124224   4.332   6.505   0.166
 7775SOL    HW224225   4.299   6.664   0.191
 7776SOL     OW24226   0.632   6.036   6.810
 7776SOL    HW124227   0.629   5.974   6.731
 7776SOL    HW224228   0.720   6.027   6.856
 7777SOL     OW24229   6.044   5.683   4.779
 7777SOL    HW124230   6.002   5.735   4.705
 7777SOL    HW224231   6.011   5.589   4.777
 7778SOL     OW24232   5.696   3.849   2.245
 7778SOL    HW124233   5.766   3.779   2.262
 7778SOL    HW224234   5.701   3.878   2.149
 7779SOL     OW24235   2.685   1.176   2.422
 7779SOL    HW124236   2.633   1.092   2.435
 7779SOL    HW224237   2.650   1.226   2.343
 7780SOL     OW24238   1.164   5.252   5.369
 7780SOL    HW124239   1.205   5.169   5.407
 7780SOL    HW224240   1.126   5.232   5.278
 7781SOL     OW24241   0.818   3.563   1.208
 7781SOL    HW124242   0.824   3.585   1.111
 7781SOL    HW224243   0.735   3.604   1.246
 7782SOL     OW24244   5.265   5.401   3.929
 7782SOL    HW124245   5.196   5.462   3.967
 7782SOL    HW224246   5.250   5.308   3.964
 7783SOL     OW24247   0.458   0.332   5.514
 7783SOL    HW124248   0.468   0.236   5.488
 7783SOL    HW224249   0.364   0.349   5.544
 7784SOL     OW24250   3.072   2.443   1.642
 7784SOL    HW124251   3.030   2.433   1.732
 7784SOL    HW224252   3.163   2.484   1.653
 7785SOL     OW24253   2.313   6.669   3.828
 7785SOL    HW124254   2.306   6.679   3.927
 7785SOL    HW224255   2.364   6.586   3.806
 7786SOL     OW24256   4.455   0.682   6.655
 7786SOL    HW124257   4.360   0.652   6.640
 7786SOL    HW224258   4.512   0.602   6.676
 7787SOL     OW24259   1.830   2.769   0.050
 7787SOL    HW124260   1.875   2.798   6.995
 7787SOL    HW224261   1.741   2.814   0.057
 7788SOL     OW24262   0.911   5.375   1.912
 7788SOL    HW124263   0.892   5.450   1.848
 7788SOL    HW224264   1.010   5.362   1.918
 7789SOL     OW24265   3.217   7.003   6.556
 7789SOL    HW124266   3.210   0.073   6.565
 7789SOL    HW224267   3.137   6.960   6.598
 7790SOL     OW24268   5.540   4.958   2.687
 7790SOL    HW124269   5.448   4.927   2.662
 7790SOL    HW224270   5.586   4.887   2.740
 7791SOL     OW24271   2.003   5.132   2.217
 7791SOL    HW124272   1.931   5.159   2.153
 7791SOL    HW224273   1.963   5.106   2.304
 7792SOL     OW24274   1.504   6.773   3.452
 7792SOL    HW124275   1.454   6.698   3.493
 7792SOL    HW224276   1.447   6.856   3.451
 7793SOL     OW24277   4.516   1.219   0.373
 7793SOL    HW124278   4.453   1.290   0.341
 7793SOL    HW224279   4.528   1.150   0.301
 7794SOL     OW24280   0.170   4.306   2.104
 7794SOL    HW124281   0.103   4.376   2.082
 7794SOL    HW224282   0.252   4.318   2.048
 7795SOL     OW24283   3.416   5.438   5.137
 7795SOL    HW124284   3.347   5.392   5.192
 7795SOL    HW224285   3.420   5.396   5.047
 7796SOL     OW24286   3.441   2.571   5.916
 7796SOL    HW124287   3.534   2.588   5.948
 7796SOL    HW224288   3.442   2.494   5.852
 7797SOL     OW24289   0.752   5.536   1.161
 7797SOL    HW124290   0.653   5.538   1.176
 7797SOL    HW224291   0.798   5.514   1.247
 7798SOL     OW24292   1.604   1.556   2.474
 7798SOL    HW124293   1.675   1.626   2.470
 7798SOL    HW224294   1.519   1.596   2.510
 7799SOL     OW24295   2.108   5.735   3.023
 7799SOL    HW124296   2.018   5.753   2.984
 7799SOL    HW224297   2.152   5.661   2.973
 7800SOL     OW24298   0.703   6.458   3.204
 7800SOL    HW124299   0.622   6.419   3.249
 7800SOL    HW224300   0.754   6.384   3.159
 7801SOL     OW24301   1.687   1.362   2.892
 7801SOL    HW124302   1.611   1.387   2.832
 7801SOL    HW224303   1.659   1.371   2.987
 7802SOL     OW24304   0.013   3.371   0.171
 7802SOL    HW124305   0.046   3.462   0.149
 7802SOL    HW224306   6.973   3.376   0.243
 7803SOL     OW24307   4.799   1.602   6.829
 7803SOL    HW124308   4.843   1.658   6.900
 7803SOL    HW224309   4.861   1.591   6.752
 7804SOL     OW24310   4.084   2.131   5.220
 7804SOL    HW124311   4.149   2.111   5.147
 7804SOL    HW224312   4.101   2.222   5.256
 7805SOL     OW24313   4.848   3.793   2.554
 7805SOL    HW124314   4.808   3.843   2.631
 7805SOL    HW224315   4.882   3.705   2.585
 7806SOL     OW24316   6.233   1.013   6.765
 7806SOL    HW124317   6.135   1.024   6.778
 7806SOL    HW224318   6.281   1.096   6.793
 7807SOL     OW24319   0.777   4.279   5.085
 7807SOL    HW124320   0.715   4.289   5.007
 7807SOL    HW224321   0.748   4.201   5.141
 7808SOL     OW24322   5.333   3.378   3.078
 7808SOL    HW124323   5.288   3.421   2.999
 7808SOL    HW224324   5.406   3.437   3.111
 7809SOL     OW24325   5.035   5.233   4.399
 7809SOL    HW124326   5.061   5.323   4.363
 7809SOL    HW224327   4.967   5.244   4.471
 7810SOL     OW24328   2.882   6.607   5.633
 7810SOL    HW124329   2.959   6.553   5.669
 7810SOL    HW224330   2.877   6.596   5.534
 7811SOL     OW24331   1.133   5.203   2.044
 7811SOL    HW124332   1.051   5.149   2.029
 7811SOL    HW224333   1.206   5.145   2.080
 7812SOL     OW24334   2.176   2.850   5.139
 7812SOL    HW124335   2.126   2.932   5.166
 7812SOL    HW224336   2.270   2.874   5.115
 7813SOL     OW24337   4.368   2.088   1.310
 7813SOL    HW124338   4.276   2.084   1.347
 7813SOL    HW224339   4.368   2.056   1.216
 7814SOL     OW24340   0.135   3.675   2.893
 7814SOL    HW124341   0.072   3.695   2.968
 7814SOL    HW224342   0.089   3.616   2.826
 7815SOL     OW24343   5.753   1.930   4.533
 7815SOL    HW124344   5.817   1.858   4.559
 7815SOL    HW224345   5.724   1.980   4.615
 7816SOL     OW24346   0.249   2.448   6.368
 7816SOL    HW124347   0.322   2.468   6.301
 7816SOL    HW224348   0.269   2.495   6.454
 7817SOL     OW24349   4.377   4.081   5.296
 7817SOL    HW124350   4.305   4.062   5.362
 7817SOL    HW224351   4.466   4.056   5.334
 7818SOL     OW24352   4.521   1.030   3.105
 7818SOL    HW124353   4.496   1.065   3.015
 7818SOL    HW224354   4.448   1.051   3.170
 7819SOL     OW24355   0.420   3.781   4.164
 7819SOL    HW124356   0.453   3.693   4.131
 7819SOL    HW224357   0.481   3.814   4.237
 7820SOL     OW24358   1.996   1.098   5.638
 7820SOL    HW124359   2.046   1.037   5.700
 7820SOL    HW224360   2.040   1.097   5.549
 7821SOL     OW24361   5.664   5.786   0.798
 7821SOL    HW124362   5.734   5.831   0.852
 7821SOL    HW224363   5.654   5.833   0.710
 7822SOL     OW24364   1.490   1.692   6.060
 7822SOL    HW124365   1.516   1.596   6.065
 7822SOL    HW224366   1.392   1.701   6.078
 7823SOL     OW24367   2.163   4.119   6.410
 7823SOL    HW124368   2.169   4.204   6.358
 7823SOL    HW224369   2.218   4.048   6.366
 7824SOL     OW24370   5.896   0.279   4.824
 7824SOL    HW124371   5.884   0.366   4.775
 7824SOL    HW224372   5.971   0.228   4.782
 7825SOL     OW24373   1.927   3.230   1.529
 7825SOL    HW124374   1.964   3.141   1.503
 7825SOL    HW224375   1.986   3.302   1.494
 7826SOL     OW24376   4.956   1.872   6.216
 7826SOL    HW124377   4.927   1.963   6.185
 7826SOL    HW224378   4.968   1.873   6.315
 7827SOL     OW24379   3.034   4.471   0.956
 7827SOL    HW124380   2.948   4.494   0.911
 7827SOL    HW224381   3.098   4.547   0.947
 7828SOL     OW24382   6.997   5.283   0.540
 7828SOL    HW124383   6.963   5.292   0.447
 7828SOL    HW224384   0.046   5.221   0.541
 7829SOL     OW24385   2.046   2.956   0.817
 7829SOL    HW124386   2.108   3.034   0.821
 7829SOL    HW224387   2.064   2.904   0.733
 7830SOL     OW24388   5.576   4.004   6.157
 7830SOL    HW124389   5.527   3.946   6.222
 7830SOL    HW224390   5.630   3.947   6.095
 7831SOL     OW24391   1.234   5.333   0.331
 7831SOL    HW124392   1.326   5.295   0.315
 7831SOL    HW224393   1.242   5.417   0.384
 7832SOL     OW24394   3.601   1.350   4.043
 7832SOL    HW124395   3.597   1.448   4.022
 7832SOL    HW224396   3.656   1.303   3.975
 7833SOL     OW24397   0.470   0.678   0.237
 7833SOL    HW124398   0.568   0.672   0.220
 7833SOL    HW224399   0.426   0.593   0.209
 7834SOL     OW24400   0.818   1.769   2.781
 7834SOL    HW124401   0.777   1.777   2.690
 7834SOL    HW224402   0.903   1.820   2.785
 7835SOL     OW24403   2.132   2.341   5.028
 7835SOL    HW124404   2.156   2.417   5.088
 7835SOL    HW224405   2.049   2.296   5.062
 7836SOL     OW24406   3.461   1.751   6.410
 7836SOL    HW124407   3.540   1.737   6.469
 7836SOL    HW224408   3.485   1.814   6.336
 7837SOL     OW24409   7.029   6.528   1.205
 7837SOL    HW124410   6.950   6.472   1.179
 7837SOL    HW224411   0.084   6.481   1.179
 7838SOL     OW24412   4.470   6.367   6.464
 7838SOL    HW124413   4.547   6.318   6.503
 7838SOL    HW224414   4.467   6.461   6.500
 7839SOL     OW24415   6.375   4.630   5.585
 7839SOL    HW124416   6.383   4.659   5.490
 7839SOL    HW224417   6.385   4.710   5.645
 7840SOL     OW24418   5.280   3.492   3.650
 7840SOL    HW124419   5.266   3.492   3.749
 7840SOL    HW224420   5.331   3.573   3.623
 7841SOL     OW24421   5.488   1.312   6.712
 7841SOL    HW124422   5.460   1.388   6.771
 7841SOL    HW224423   5.581   1.284   6.735
 7842SOL     OW24424   1.732   0.868   3.415
 7842SOL    HW124425   1.693   0.951   3.455
 7842SOL    HW224426   1.830   0.865   3.433
 7843SOL     OW24427   5.793   4.565   1.946
 7843SOL    HW124428   5.764   4.482   1.992
 7843SOL    HW224429   5.776   4.558   1.848
 7844SOL     OW24430   4.624   6.994   3.411
 7844SOL    HW124431   4.663   0.015   3.488
 7844SOL    HW224432   4.664   7.027   3.326
 7845SOL     OW24433   0.567   1.173   3.925
 7845SOL    HW124434   0.600   1.254   3.877
 7845SOL    HW224435   0.473   1.188   3.955
 7846SOL     OW24436   1.784   0.481   1.824
 7846SOL    HW124437   1.710   0.468   1.890
 7846SOL    HW224438   1.868   0.439   1.859
 7847SOL     OW24439   6.824   1.708   1.643
 7847SOL    HW124440   6.780   1.776   1.585
 7847SOL    HW224441   6.917   1.738   1.665
 7848SOL     OW24442   3.011   4.204   0.894
 7848SOL    HW124443   3.013   4.282   0.958
 7848SOL    HW224444   3.089   4.210   0.832
 7849SOL     OW24445   5.214   3.945   4.054
 7849SOL    HW124446   5.228   4.044   4.067
 7849SOL    HW224447   5.287   3.908   3.997
 7850SOL     OW24448   0.574   1.413   3.737
 7850SOL    HW124449   0.499   1.397   3.672
 7850SOL    HW224450   0.659   1.429   3.687
 7851SOL     OW24451   6.588   0.166   0.692
 7851SOL    HW124452   6.552   0.246   0.739
 7851SOL    HW224453   6.675   0.138   0.733
 7852SOL     OW24454   2.818   0.099   5.923
 7852SOL    HW124455   2.737   0.049   5.892
 7852SOL    HW224456   2.897   0.039   5.923
 7853SOL     OW24457   3.904   1.882   1.938
 7853SOL    HW124458   3.933   1.968   1.980
 7853SOL    HW224459   3.961   1.862   1.859
 7854SOL     OW24460   3.574   4.830   0.739
 7854SOL    HW124461   3.495   4.878   0.700
 7854SOL    HW224462   3.619   4.889   0.806
 7855SOL     OW24463   3.896   5.815   5.961
 7855SOL    HW124464   3.905   5.846   6.056
 7855SOL    HW224465   3.800   5.794   5.943
 7856SOL     OW24466   6.053   4.700   3.869
 7856SOL    HW124467   6.019   4.759   3.942
 7856SOL    HW224468   5.982   4.688   3.800
 7857SOL     OW24469   6.575   2.746   5.670
 7857SOL    HW124470   6.569   2.675   5.741
 7857SOL    HW224471   6.535   2.712   5.585
 7858SOL     OW24472   5.020   5.231   3.761
 7858SOL    HW124473   5.075   5.154   3.793
 7858SOL    HW224474   4.941   5.243   3.820
 7859SOL     OW24475   6.974   4.398   5.758
 7859SOL    HW124476   6.965   4.338   5.678
 7859SOL    HW224477   6.904   4.469   5.753
 7860SOL     OW24478   3.982   6.268   2.731
 7860SOL    HW124479   4.052   6.265   2.659
 7860SOL    HW224480   4.021   6.238   2.817
 7861SOL     OW24481   3.904   5.408   2.392
 7861SOL    HW124482   3.822   5.465   2.382
 7861SOL    HW224483   3.949   5.431   2.479
 7862SOL     OW24484   3.080   4.619   1.675
 7862SOL    HW124485   3.015   4.595   1.746
 7862SOL    HW224486   3.077   4.549   1.603
 7863SOL     OW24487   6.701   6.738   3.983
 7863SOL    HW124488   6.604   6.728   3.962
 7863SOL    HW224489   6.741   6.648   3.999
 7864SOL     OW24490   6.593   6.278   6.090
 7864SOL    HW124491   6.494   6.277   6.074
 7864SOL    HW224492   6.640   6.244   6.008
 7865SOL     OW24493   4.932   0.054   4.237
 7865SOL    HW124494   4.905   0.148   4.259
 7865SOL    HW224495   4.890   0.027   4.150
 7866SOL     OW24496   2.433   1.980   0.716
 7866SOL    HW124497   2.383   2.032   0.785
 7866SOL    HW224498   2.531   1.983   0.737
 7867SOL     OW24499   5.392   5.297   2.416
 7867SOL    HW124500   5.414   5.211   2.369
 7867SOL    HW224501   5.296   5.295   2.445
 7868SOL     OW24502   5.882   6.968   2.566
 7868SOL    HW124503   5.875   6.898   2.496
 7868SOL    HW224504   5.923   6.929   2.649
 7869SOL     OW24505   6.339   3.501   0.080
 7869SOL    HW124506   6.296   3.565   0.144
 7869SOL    HW224507   6.269   3.447   0.034
 7870SOL     OW24508   5.175   5.739   3.856
 7870SOL    HW124509   5.203   5.831   3.887
 7870SOL    HW224510   5.137   5.745   3.764
 7871SOL     OW24511   6.049   3.844   2.704
 7871SOL    HW124512   5.949   3.846   2.698
 7871SOL    HW224513   6.081   3.750   2.693
 7872SOL     OW24514   1.443   4.602   2.553
 7872SOL    HW124515   1.426   4.630   2.647
 7872SOL    HW224516   1.533   4.635   2.524
 7873SOL     OW24517   5.179   0.008   5.021
 7873SOL    HW124518   5.236   6.980   5.080
 7873SOL    HW224519   5.236   0.080   4.980
 7874SOL     OW24520   5.768   1.474   0.326
 7874SOL    HW124521   5.826   1.550   0.353
 7874SOL    HW224522   5.820   1.408   0.272
 7875SOL     OW24523   4.028   3.522   7.016
 7875SOL    HW124524   4.086   3.451   6.976
 7875SOL    HW224525   3.932   3.503   6.994
 7876SOL     OW24526   0.030   6.984   4.889
 7876SOL    HW124527   0.070   6.940   4.809
 7876SOL    HW224528   6.990   6.924   4.929
 7877SOL     OW24529   0.093   3.193   2.693
 7877SOL    HW124530   0.114   3.261   2.763
 7877SOL    HW224531   0.124   3.226   2.604
 7878SOL     OW24532   4.894   4.989   3.884
 7878SOL    HW124533   4.951   4.917   3.845
 7878SOL    HW224534   4.923   5.009   3.978
 7879SOL     OW24535   4.390   5.940   3.520
 7879SOL    HW124536   4.462   5.880   3.556
 7879SOL    HW224537   4.310   5.886   3.496
 7880SOL     OW24538   0.508   5.436   1.219
 7880SOL    HW124539   0.435   5.379   1.183
 7880SOL    HW224540   0.475   5.488   1.298
 7881SOL     OW24541   6.339   3.327   4.563
 7881SOL    HW124542   6.353   3.337   4.465
 7881SOL    HW224543   6.400   3.390   4.612
 7882SOL     OW24544   2.032   2.820   3.268
 7882SOL    HW124545   1.982   2.756   3.327
 7882SOL    HW224546   2.031   2.786   3.174
 7883SOL     OW24547   2.136   6.851   1.152
 7883SOL    HW124548   2.117   6.859   1.250
 7883SOL    HW224549   2.072   6.786   1.111
 7884SOL     OW24550   1.989   4.134   3.776
 7884SOL    HW124551   2.028   4.182   3.854
 7884SOL    HW224552   1.975   4.198   3.701
 7885SOL     OW24553   6.083   6.414   2.418
 7885SOL    HW124554   6.006   6.435   2.357
 7885SOL    HW224555   6.115   6.498   2.462
 7886SOL     OW24556   4.514   3.580   1.419
 7886SOL    HW124557   4.469   3.537   1.341
 7886SOL    HW224558   4.612   3.558   1.416
 7887SOL     OW24559   3.483   2.493   5.495
 7887SOL    HW124560   3.406   2.518   5.435
 7887SOL    HW224561   3.569   2.524   5.454
 7888SOL     OW24562   0.013   0.233   4.998
 7888SOL    HW124563   0.079   0.278   5.059
 7888SOL    HW224564   0.034   0.135   4.994
 7889SOL     OW24565   0.341   5.030   6.653
 7889SOL    HW124566   0.403   5.089   6.705
 7889SOL    HW224567   0.262   5.082   6.623
 7890SOL     OW24568   0.508   3.543   3.870
 7890SOL    HW124569   0.570   3.526   3.793
 7890SOL    HW224570   0.561   3.561   3.952
 7891SOL     OW24571   1.154   3.974   4.335
 7891SOL    HW124572   1.205   4.044   4.385
 7891SOL    HW224573   1.186   3.971   4.240
 7892SOL     OW24574   0.797   2.365   4.164
 7892SOL    HW124575   0.779   2.459   4.136
 7892SOL    HW224576   0.728   2.304   4.125
 7893SOL     OW24577   5.879   6.654   2.048
 7893SOL    HW124578   5.927   6.723   1.994
 7893SOL    HW224579   5.839   6.586   1.987
 7894SOL     OW24580   2.951   1.079   1.099
 7894SOL    HW124581   2.979   1.145   1.029
 7894SOL    HW224582   2.853   1.061   1.090
 7895SOL     OW24583   4.179   6.498   5.184
 7895SOL    HW124584   4.270   6.468   5.157
 7895SOL    HW224585   4.110   6.454   5.126
 7896SOL     OW24586   5.905   3.750   1.315
 7896SOL    HW124587   5.960   3.714   1.390
 7896SOL    HW224588   5.957   3.821   1.267
 7897SOL     OW24589   3.151   3.251   0.646
 7897SOL    HW124590   3.186   3.344   0.656
 7897SOL    HW224591   3.222   3.186   0.669
 7898SOL     OW24592   4.107   6.875   4.208
 7898SOL    HW124593   4.020   6.904   4.169
 7898SOL    HW224594   4.147   6.803   4.150
 7899SOL     OW24595   5.932   6.748   1.547
 7899SOL    HW124596   5.891   6.768   1.636
 7899SOL    HW224597   5.954   6.834   1.500
 7900SOL     OW24598   0.720   4.254   1.241
 7900SOL    HW124599   0.776   4.188   1.191
 7900SOL    HW224600   0.772   4.339   1.254
 7901SOL     OW24601   4.955   0.976   6.104
 7901SOL    HW124602   4.975   1.072   6.085
 7901SOL    HW224603   4.869   0.951   6.061
 7902SOL     OW24604   6.522   5.915   3.336
 7902SOL    HW124605   6.458   5.889   3.265
 7902SOL    HW224606   6.509   5.856   3.416
 7903SOL     OW24607   4.510   1.732   3.178
 7903SOL    HW124608   4.483   1.669   3.251
 7903SOL    HW224609   4.538   1.819   3.218
 7904SOL     OW24610   5.709   0.849   3.310
 7904SOL    HW124611   5.739   0.942   3.290
 7904SOL    HW224612   5.737   0.788   3.235
 7905SOL     OW24613   6.047   1.511   0.700
 7905SOL    HW124614   6.121   1.578   0.701
 7905SOL    HW224615   6.054   1.453   0.782
 7906SOL     OW24616   0.956   5.751   0.272
 7906SOL    HW124617   0.972   5.840   0.314
 7906SOL    HW224618   1.044   5.707   0.252
 7907SOL     OW24619   6.635   1.119   3.183
 7907SOL    HW124620   6.724   1.083   3.156
 7907SOL    HW224621   6.637   1.219   3.181
 7908SOL     OW24622   1.420   1.410   5.768
 7908SOL    HW124623   1.467   1.398   5.855
 7908SOL    HW224624   1.325   1.438   5.784
 7909SOL     OW24625   4.739   4.327   3.719
 7909SOL    HW124626   4.735   4.297   3.815
 7909SOL    HW224627   4.748   4.427   3.717
 7910SOL     OW24628   1.339   3.411   0.887
 7910SOL    HW124629   1.342   3.363   0.799
 7910SOL    HW224630   1.433   3.432   0.916
 7911SOL     OW24631   0.874   4.010   1.456
 7911SOL    HW124632   0.845   4.093   1.504
 7911SOL    HW224633   0.826   3.931   1.493
 7912SOL     OW24634   5.364   4.134   0.688
 7912SOL    HW124635   5.361   4.101   0.783
 7912SOL    HW224636   5.428   4.078   0.635
 7913SOL     OW24637   1.063   4.317   1.340
 7913SOL    HW124638   0.998   4.363   1.279
 7913SOL    HW224639   1.023   4.307   1.431
 7914SOL     OW24640   0.441   4.580   1.179
 7914SOL    HW124641   0.367   4.591   1.244
 7914SOL    HW224642   0.441   4.486   1.145
 7915SOL     OW24643   4.666   2.027   3.025
 7915SOL    HW124644   4.733   2.097   2.999
 7915SOL    HW224645   4.663   1.957   2.954
 7916SOL     OW24646   0.609   6.478   5.142
 7916SOL    HW124647   0.576   6.529   5.221
 7916SOL    HW224648   0.561   6.390   5.136
 7917SOL     OW24649   4.282   3.006   5.424
 7917SOL    HW124650   4.251   3.081   5.365
 7917SOL    HW224651   4.306   2.927   5.367
 7918SOL     OW24652   6.689   0.890   4.905
 7918SOL    HW124653   6.655   0.979   4.934
 7918SOL    HW224654   6.787   0.896   4.886
 7919SOL     OW24655   0.763   4.316   2.162
 7919SOL    HW124656   0.786   4.400   2.112
 7919SOL    HW224657   0.828   4.244   2.137
 7920SOL     OW24658   5.456   0.234   1.702
 7920SOL    HW124659   5.377   0.199   1.754
 7920SOL    HW224660   5.478   0.326   1.733
 7921SOL     OW24661   5.482   0.058   2.192
 7921SOL    HW124662   5.446   0.077   2.283
 7921SOL    HW224663   5.520   6.995   2.189
 7922SOL     OW24664   0.774   5.835   0.068
 7922SOL    HW124665   0.854   5.810   0.124
 7922SOL    HW224666   0.805   5.878   7.013
 7923SOL     OW24667   3.426   1.708   5.795
 7923SOL    HW124668   3.327   1.708   5.811
 7923SOL    HW224669   3.473   1.677   5.877
 7924SOL     OW24670   4.591   0.468   1.140
 7924SOL    HW124671   4.496   0.489   1.161
 7924SOL    HW224672   4.605   0.369   1.138
 7925SOL     OW24673   1.188   0.168   1.073
 7925SOL    HW124674   1.152   0.227   1.000
 7925SOL    HW224675   1.162   0.206   1.162
 7926SOL     OW24676   5.118   1.765   6.821
 7926SOL    HW124677   5.214   1.791   6.834
 7926SOL    HW224678   5.065   1.845   6.792
 7927SOL     OW24679   4.922   6.898   2.029
 7927SOL    HW124680   5.001   6.881   2.089
 7927SOL    HW224681   4.842   6.850   2.066
 7928SOL     OW24682   6.882   1.843   4.170
 7928SOL    HW124683   6.926   1.756   4.148
 7928SOL    HW224684   6.943   1.898   4.227
 7929SOL     OW24685   3.822   3.880   5.723
 7929SOL    HW124686   3.728   3.868   5.693
 7929SOL    HW224687   3.824   3.933   5.808
 7930SOL     OW24688   3.927   5.312   6.591
 7930SOL    HW124689   3.869   5.269   6.661
 7930SOL    HW224690   4.013   5.262   6.585
 7931SOL     OW24691   4.067   2.775   0.764
 7931SOL    HW124692   4.157   2.733   0.752
 7931SOL    HW224693   4.065   2.824   0.851
 7932SOL     OW24694   1.179   5.237   6.786
 7932SOL    HW124695   1.131   5.217   6.700
 7932SOL    HW224696   1.262   5.289   6.766
 7933SOL     OW24697   6.549   0.540   5.864
 7933SOL    HW124698   6.483   0.575   5.931
 7933SOL    HW224699   6.640   0.540   5.905
 7934SOL     OW24700   1.640   5.141   6.899
 7934SOL    HW124701   1.570   5.160   6.831
 7934SOL    HW224702   1.608   5.168   6.989
 7935SOL     OW24703   5.352   6.192   1.641
 7935SOL    HW124704   5.368   6.111   1.698
 7935SOL    HW224705   5.298   6.258   1.693
 7936SOL     OW24706   3.191   5.498   3.184
 7936SOL    HW124707   3.102   5.459   3.209
 7936SOL    HW224708   3.185   5.598   3.186
 7937SOL     OW24709   1.266   5.960   3.970
 7937SOL    HW124710   1.190   6.000   3.920
 7937SOL    HW224711   1.237   5.937   4.063
 7938SOL     OW24712   5.651   6.114   5.414
 7938SOL    HW124713   5.720   6.186   5.404
 7938SOL    HW224714   5.695   6.025   5.417
 7939SOL     OW24715   1.244   2.018   5.741
 7939SOL    HW124716   1.196   2.012   5.654
 7939SOL    HW224717   1.182   2.055   5.811
 7940SOL     OW24718   2.897   2.295   2.849
 7940SOL    HW124719   2.866   2.261   2.760
 7940SOL    HW224720   2.862   2.387   2.863
 7941SOL     OW24721   5.463   6.753   2.717
 7941SOL    HW124722   5.533   6.824   2.729
 7941SOL    HW224723   5.502   6.678   2.663
 7942SOL     OW24724   0.833   3.251   3.116
 7942SOL    HW124725   0.740   3.229   3.144
 7942SOL    HW224726   0.839   3.253   3.017
 7943SOL     OW24727   0.739   4.543   5.686
 7943SOL    HW124728   0.775   4.471   5.746
 7943SOL    HW224729   0.812   4.577   5.627
 7944SOL     OW24730   0.636   2.923   1.371
 7944SOL    HW124731   0.585   2.944   1.454
 7944SOL    HW224732   0.704   2.995   1.355
 7945SOL     OW24733   6.180   5.630   2.215
 7945SOL    HW124734   6.242   5.702   2.185
 7945SOL    HW224735   6.085   5.658   2.199
 7946SOL     OW24736   3.450   0.622   5.903
 7946SOL    HW124737   3.403   0.559   5.965
 7946SOL    HW224738   3.549   0.605   5.908
 7947SOL     OW24739   2.480   1.775   5.305
 7947SOL    HW124740   2.470   1.872   5.328
 7947SOL    HW224741   2.540   1.732   5.373
 7948SOL     OW24742   0.613   5.579   0.763
 7948SOL    HW124743   0.650   5.670   0.781
 7948SOL    HW224744   0.688   5.516   0.741
 7949SOL     OW24745   4.425   4.398   6.157
 7949SOL    HW124746   4.487   4.420   6.233
 7949SOL    HW224747   4.478   4.385   6.074
 7950SOL     OW24748   4.375   5.929   4.451
 7950SOL    HW124749   4.334   5.977   4.373
 7950SOL    HW224750   4.458   5.883   4.421
 7951SOL     OW24751   1.787   5.256   2.084
 7951SOL    HW124752   1.699   5.250   2.131
 7951SOL    HW224753   1.773   5.296   1.993
 7952SOL     OW24754   0.165   3.147   0.536
 7952SOL    HW124755   0.202   3.229   0.494
 7952SOL    HW224756   0.165   3.072   0.469
 7953SOL     OW24757   4.887   2.251   1.927
 7953SOL    HW124758   4.831   2.280   1.850
 7953SOL    HW224759   4.903   2.328   1.988
 7954SOL     OW24760   3.731   4.518   6.274
 7954SOL    HW124761   3.688   4.529   6.363
 7954SOL    HW224762   3.779   4.602   6.250
 7955SOL     OW24763   2.386   1.356   6.713
 7955SOL    HW124764   2.392   1.272   6.767
 7955SOL    HW224765   2.303   1.355   6.657
 7956SOL     OW24766   4.778   0.822   1.873
 7956SOL    HW124767   4.770   0.879   1.955
 7956SOL    HW224768   4.718   0.858   1.802
 7957SOL     OW24769   1.547   1.365   0.450
 7957SOL    HW124770   1.566   1.268   0.459
 7957SOL    HW224771   1.469   1.379   0.389
 7958SOL     OW24772   4.874   4.556   5.916
 7958SOL    HW124773   4.838   4.500   5.991
 7958SOL    HW224774   4.902   4.645   5.952
 7959SOL     OW24775   5.470   6.903   0.060
 7959SOL    HW124776   5.442   6.888   6.994
 7959SOL    HW224777   5.390   6.931   0.114
 7960SOL     OW24778   1.623   0.945   5.991
 7960SOL    HW124779   1.545   0.983   6.041
 7960SOL    HW224780   1.590   0.886   5.917
 7961SOL     OW24781   6.708   0.423   1.151
 7961SOL    HW124782   6.751   0.467   1.229
 7961SOL    HW224783   6.681   0.330   1.175
 7962SOL     OW24784   0.552   1.369   5.593
 7962SOL    HW124785   0.533   1.285   5.644
 7962SOL    HW224786   0.467   1.418   5.576
 7963SOL     OW24787   6.436   5.677   4.255
 7963SOL    HW124788   6.414   5.657   4.351
 7963SOL    HW224789   6.532   5.655   4.239
 7964SOL     OW24790   6.279   3.442   2.915
 7964SOL    HW124791   6.292   3.345   2.893
 7964SOL    HW224792   6.198   3.452   2.973
 7965SOL     OW24793   3.948   2.199   6.535
 7965SOL    HW124794   3.926   2.143   6.615
 7965SOL    HW224795   3.866   2.246   6.504
 7966SOL     OW24796   3.071   3.131   6.324
 7966SOL    HW124797   3.042   3.123   6.229
 7966SOL    HW224798   2.995   3.166   6.379
 7967SOL     OW24799   2.505   5.639   1.890
 7967SOL    HW124800   2.573   5.626   1.819
 7967SOL    HW224801   2.550   5.647   1.979
 7968SOL     OW24802   6.185   2.227   4.781
 7968SOL    HW124803   6.224   2.299   4.722
 7968SOL    HW224804   6.158   2.149   4.725
 7969SOL     OW24805   6.028   6.010   1.078
 7969SOL    HW124806   5.969   6.058   1.143
 7969SOL    HW224807   6.120   6.004   1.116
 7970SOL     OW24808   6.479   3.912   2.051
 7970SOL    HW124809   6.578   3.897   2.049
 7970SOL    HW224810   6.435   3.853   1.984
 7971SOL     OW24811   3.286   1.787   1.306
 7971SOL    HW124812   3.350   1.809   1.233
 7971SOL    HW224813   3.200   1.752   1.267
 7972SOL     OW24814   3.225   3.452   1.472
 7972SOL    HW124815   3.194   3.539   1.511
 7972SOL    HW224816   3.155   3.382   1.486
 7973SOL     OW24817   4.776   5.092   4.346
 7973SOL    HW124818   4.807   5.140   4.429
 7973SOL    HW224819   4.830   5.009   4.333
 7974SOL     OW24820   6.160   0.902   6.112
 7974SOL    HW124821   6.250   0.943   6.126
 7974SOL    HW224822   6.090   0.961   6.152
 7975SOL     OW24823   5.640   0.173   0.851
 7975SOL    HW124824   5.625   0.265   0.885
 7975SOL    HW224825   5.710   0.128   0.906
 7976SOL     OW24826   0.890   0.487   6.030
 7976SOL    HW124827   0.956   0.559   6.051
 7976SOL    HW224828   0.809   0.527   5.988
 7977SOL     OW24829   4.192   5.932   2.915
 7977SOL    HW124830   4.116   5.977   2.962
 7977SOL    HW224831   4.273   5.991   2.920
 7978SOL     OW24832   7.008   2.406   6.340
 7978SOL    HW124833   6.983   2.483   6.399
 7978SOL    HW224834   0.077   2.408   6.323
 7979SOL     OW24835   2.805   4.882   5.391
 7979SOL    HW124836   2.772   4.965   5.436
 7979SOL    HW224837   2.826   4.903   5.295
 7980SOL     OW24838   3.346   5.541   6.785
 7980SOL    HW124839   3.305   5.629   6.761
 7980SOL    HW224840   3.338   5.478   6.708
 7981SOL     OW24841   0.828   4.526   1.864
 7981SOL    HW124842   0.756   4.506   1.797
 7981SOL    HW224843   0.906   4.568   1.817
 7982SOL     OW24844   1.366   1.728   6.381
 7982SOL    HW124845   1.435   1.655   6.377
 7982SOL    HW224846   1.360   1.764   6.474
 7983SOL     OW24847   6.422   2.284   0.542
 7983SOL    HW124848   6.499   2.346   0.530
 7983SOL    HW224849   6.371   2.278   0.456
 7984SOL     OW24850   0.307   1.127   0.618
 7984SOL    HW124851   0.387   1.069   0.637
 7984SOL    HW224852   0.322   1.218   0.657
 7985SOL     OW24853   2.692   1.649   4.602
 7985SOL    HW124854   2.622   1.705   4.647
 7985SOL    HW224855   2.768   1.635   4.664
 7986SOL     OW24856   2.915   0.817   6.320
 7986SOL    HW124857   2.917   0.795   6.418
 7986SOL    HW224858   2.961   0.905   6.305
 7987SOL     OW24859   2.054   2.338   0.211
 7987SOL    HW124860   2.030   2.323   0.307
 7987SOL    HW224861   1.990   2.404   0.171
 7988SOL     OW24862   1.575   1.006   2.703
 7988SOL    HW124863   1.555   1.075   2.634
 7988SOL    HW224864   1.557   1.044   2.794
 7989SOL     OW24865   2.827   3.042   0.293
 7989SOL    HW124866   2.736   3.061   0.329
 7989SOL    HW224867   2.825   3.046   0.193
 7990SOL     OW24868   2.351   4.781   4.532
 7990SOL    HW124869   2.395   4.770   4.443
 7990SOL    HW224870   2.419   4.812   4.599
 7991SOL     OW24871   6.043   1.596   4.031
 7991SOL    HW124872   6.032   1.682   3.982
 7991SOL    HW224873   5.960   1.540   4.020
 7992SOL     OW24874   1.388   0.605   0.608
 7992SOL    HW124875   1.421   0.695   0.636
 7992SOL    HW224876   1.379   0.546   0.689
 7993SOL     OW24877   0.473   7.022   1.233
 7993SOL    HW124878   0.469   0.046   1.318
 7993SOL    HW224879   0.395   0.017   1.175
 7994SOL     OW24880   4.102   0.048   3.520
 7994SOL    HW124881   4.144   0.111   3.454
 7994SOL    HW224882   4.174   0.005   3.574
 7995SOL     OW24883   6.029   5.518   3.095
 7995SOL    HW124884   5.978   5.599   3.066
 7995SOL    HW224885   6.126   5.540   3.102
 7996SOL     OW24886   3.707   6.150   4.207
 7996SOL    HW124887   3.760   6.100   4.276
 7996SOL    HW224888   3.613   6.162   4.239
 7997SOL     OW24889   6.834   1.257   0.188
 7997SOL    HW124890   6.917   1.297   0.226
 7997SOL    HW224891   6.857   1.207   0.104
 7998SOL     OW24892   3.569   0.504   0.126
 7998SOL    HW124893   3.594   0.534   0.034
 7998SOL    HW224894   3.482   0.545   0.152
 7999SOL     OW24895   0.974   1.258   6.151
 7999SOL    HW124896   0.920   1.182   6.117
 7999SOL    HW224897   0.914   1.324   6.197
 8000SOL     OW24898   5.215   6.369   6.658
 8000SOL    HW124899   5.181   6.288   6.706
 8000SOL    HW224900   5.269   6.341   6.579
 8001SOL     OW24901   4.120   6.343   1.813
 8001SOL    HW124902   4.120   6.441   1.793
 8001SOL    HW224903   4.183   6.324   1.888
 8002SOL     OW24904   1.331   0.544   6.392
 8002SOL    HW124905   1.382   0.482   6.451
 8002SOL    HW224906   1.236   0.514   6.387
 8003SOL     OW24907   2.261   5.711   1.823
 8003SOL    HW124908   2.351   5.682   1.855
 8003SOL    HW224909   2.262   5.717   1.723
 8004SOL     OW24910   1.525   3.841   3.358
 8004SOL    HW124911   1.556   3.917   3.300
 8004SOL    HW224912   1.556   3.755   3.319
 8005SOL     OW24913   2.714   0.476   3.496
 8005SOL    HW124914   2.806   0.442   3.479
 8005SOL    HW224915   2.716   0.575   3.509
 8006SOL     OW24916   2.014   5.704   5.457
 8006SOL    HW124917   1.958   5.760   5.517
 8006SOL    HW224918   2.099   5.680   5.503
 8007SOL     OW24919   5.893   1.718   6.332
 8007SOL    HW124920   5.870   1.805   6.288
 8007SOL    HW224921   5.810   1.680   6.374
 8008SOL     OW24922   4.034   6.133   6.614
 8008SOL    HW124923   3.947   6.096   6.581
 8008SOL    HW224924   4.036   6.232   6.599
 8009SOL     OW24925   4.732   0.503   0.581
 8009SOL    HW124926   4.795   0.435   0.545
 8009SOL    HW224927   4.664   0.459   0.640
 8010SOL     OW24928   2.248   2.189   4.812
 8010SOL    HW124929   2.347   2.199   4.803
 8010SOL    HW224930   2.219   2.223   4.902
 8011SOL     OW24931   3.525   2.145   1.153
 8011SOL    HW124932   3.549   2.133   1.056
 8011SOL    HW224933   3.437   2.191   1.160
 8012SOL     OW24934   1.757   3.132   6.852
 8012SOL    HW124935   1.790   3.141   6.946
 8012SOL    HW224936   1.661   3.104   6.854
 8013SOL     OW24937   1.140   4.897   3.355
 8013SOL    HW124938   1.041   4.893   3.350
 8013SOL    HW224939   1.169   4.899   3.450
 8014SOL     OW24940   1.665   0.246   4.599
 8014SOL    HW124941   1.699   0.323   4.545
 8014SOL    HW224942   1.671   0.162   4.545
 8015SOL     OW24943   1.948   0.113   6.413
 8015SOL    HW124944   2.023   0.176   6.395
 8015SOL    HW224945   1.881   0.119   6.339
 8016SOL     OW24946   4.194   0.930   5.395
 8016SOL    HW124947   4.155   0.958   5.482
 8016SOL    HW224948   4.269   0.991   5.370
 8017SOL     OW24949   6.497   0.244   6.677
 8017SOL    HW124950   6.537   0.174   6.736
 8017SOL    HW224951   6.446   0.309   6.733
 8018SOL     OW24952   3.444   2.608   0.597
 8018SOL    HW124953   3.500   2.640   0.520
 8018SOL    HW224954   3.348   2.622   0.576
 8019SOL     OW24955   1.998   4.764   1.180
 8019SOL    HW124956   1.921   4.812   1.222
 8019SOL    HW224957   2.050   4.716   1.251
 8020SOL     OW24958   6.535   6.900   6.251
 8020SOL    HW124959   6.606   6.830   6.242
 8020SOL    HW224960   6.550   6.971   6.182
 8021SOL     OW24961   1.501   3.117   1.445
 8021SOL    HW124962   1.550   3.159   1.368
 8021SOL    HW224963   1.531   3.159   1.531
 8022SOL     OW24964   6.092   0.421   1.864
 8022SOL    HW124965   6.110   0.460   1.954
 8022SOL    HW224966   6.146   0.338   1.852
 8023SOL     OW24967   5.739   4.593   2.406
 8023SOL    HW124968   5.764   4.687   2.429
 8023SOL    HW224969   5.818   4.533   2.417
 8024SOL     OW24970   1.058   5.215   6.542
 8024SOL    HW124971   1.123   5.262   6.482
 8024SOL    HW224972   0.980   5.275   6.559
 8025SOL     OW24973   1.973   5.776   0.724
 8025SOL    HW124974   1.911   5.722   0.781
 8025SOL    HW224975   2.066   5.738   0.729
 8026SOL     OW24976   6.904   3.893   1.053
 8026SOL    HW124977   6.881   3.815   1.111
 8026SOL    HW224978   6.899   3.978   1.107
 8027SOL     OW24979   3.285   0.216   5.556
 8027SOL    HW124980   3.329   0.256   5.476
 8027SOL    HW224981   3.333   0.246   5.639
 8028SOL     OW24982   3.581   4.968   5.026
 8028SOL    HW124983   3.507   4.950   4.961
 8028SOL    HW224984   3.552   4.943   5.118
 8029SOL     OW24985   5.381   2.844   1.836
 8029SOL    HW124986   5.323   2.764   1.824
 8029SOL    HW224987   5.400   2.885   1.746
 8030SOL     OW24988   5.780   5.554   0.349
 8030SOL    HW124989   5.710   5.582   0.284
 8030SOL    HW224990   5.831   5.634   0.381
 8031SOL     OW24991   0.041   6.166   2.756
 8031SOL    HW124992   0.049   6.168   2.855
 8031SOL    HW224993   7.028   6.080   2.727
 8032SOL     OW24994   5.673   3.897   1.974
 8032SOL    HW124995   5.692   3.970   1.908
 8032SOL    HW224996   5.688   3.808   1.931
 8033SOL     OW24997   4.785   3.199   6.859
 8033SOL    HW124998   4.884   3.186   6.851
 8033SOL    HW224999   4.739   3.113   6.839
 8034SOL     OW25000   4.722   0.104   6.000
 8034SOL    HW125001   4.665   0.186   6.002
 8034SOL    HW225002   4.759   0.087   6.092
 8035SOL     OW25003   5.114   1.872   2.056
 8035SOL    HW125004   5.100   1.940   1.984
 8035SOL    HW225005   5.044   1.883   2.126
 8036SOL     OW25006   6.433   3.823   3.833
 8036SOL    HW125007   6.356   3.775   3.875
 8036SOL    HW225008   6.400   3.901   3.781
 8037SOL     OW25009   2.289   3.141   6.989
 8037SOL    HW125010   2.297   3.219   6.927
 8037SOL    HW225011   2.361   3.146   0.029
 8038SOL     OW25012   4.772   6.841   2.488
 8038SOL    HW125013   4.753   6.765   2.550
 8038SOL    HW225014   4.717   6.831   2.405
 8039SOL     OW25015   6.722   1.495   4.826
 8039SOL    HW125016   6.768   1.570   4.874
 8039SOL    HW225017   6.673   1.531   4.747
 8040SOL     OW25018   1.155   5.884   6.752
 8040SOL    HW125019   1.207   5.968   6.763
 8040SOL    HW225020   1.145   5.839   6.841
 8041SOL     OW25021   2.982   0.948   2.952
 8041SOL    HW125022   2.919   0.998   3.012
 8041SOL    HW225023   2.933   0.917   2.871
 8042SOL     OW25024   4.086   3.578   5.365
 8042SOL    HW125025   4.029   3.576   5.448
 8042SOL    HW225026   4.121   3.671   5.352
 8043SOL     OW25027   3.423   5.217   0.805
 8043SOL    HW125028   3.455   5.183   0.894
 8043SOL    HW225029   3.381   5.307   0.817
 8044SOL     OW25030   4.160   3.542   0.795
 8044SOL    HW125031   4.131   3.620   0.740
 8044SOL    HW225032   4.155   3.459   0.740
 8045SOL     OW25033   5.902   2.200   2.331
 8045SOL    HW125034   5.999   2.221   2.325
 8045SOL    HW225035   5.888   2.123   2.393
 8046SOL     OW25036   0.815   4.411   2.483
 8046SOL    HW125037   0.817   4.324   2.434
 8046SOL    HW225038   0.909   4.440   2.503
 8047SOL     OW25039   3.591   6.211   6.540
 8047SOL    HW125040   3.616   6.140   6.606
 8047SOL    HW225041   3.594   6.301   6.585
 8048SOL     OW25042   3.689   1.733   0.314
 8048SOL    HW125043   3.700   1.680   0.230
 8048SOL    HW225044   3.667   1.828   0.291
 8049SOL     OW25045   1.123   0.082   0.429
 8049SOL    HW125046   1.077   0.137   0.498
 8049SOL    HW225047   1.205   0.131   0.397
 8050SOL     OW25048   1.710   3.090   3.780
 8050SOL    HW125049   1.798   3.094   3.827
 8050SOL    HW225050   1.711   3.152   3.702
 8051SOL     OW25051   4.891   6.110   4.902
 8051SOL    HW125052   4.961   6.105   4.973
 8051SOL    HW225053   4.879   6.019   4.861
 8052SOL     OW25054   2.884   1.676   1.415
 8052SOL    HW125055   2.946   1.623   1.471
 8052SOL    HW225056   2.837   1.744   1.472
 8053SOL     OW25057   3.728   2.850   4.882
 8053SOL    HW125058   3.787   2.884   4.955
 8053SOL    HW225059   3.733   2.750   4.879
 8054SOL     OW25060   6.815   4.155   5.052
 8054SOL    HW125061   6.780   4.236   5.005
 8054SOL    HW225062   6.803   4.075   4.994
 8055SOL     OW25063   6.351   1.076   5.802
 8055SOL    HW125064   6.305   0.987   5.809
 8055SOL    HW225065   6.369   1.096   5.706
 8056SOL     OW25066   2.809   1.122   4.859
 8056SOL    HW125067   2.857   1.075   4.933
 8056SOL    HW225068   2.744   1.059   4.816
 8057SOL     OW25069   2.722   2.285   3.137
 8057SOL    HW125070   2.765   2.239   3.214
 8057SOL    HW225071   2.789   2.301   3.065
 8058SOL     OW25072   3.768   6.793   3.242
 8058SOL    HW125073   3.832   6.760   3.172
 8058SOL    HW225074   3.746   6.889   3.224
 8059SOL     OW25075   2.178   0.923   5.087
 8059SOL    HW125076   2.249   0.958   5.147
 8059SOL    HW225077   2.127   0.999   5.047
 8060SOL     OW25078   0.352   2.179   6.192
 8060SOL    HW125079   0.261   2.175   6.232
 8060SOL    HW225080   0.385   2.274   6.194
 8061SOL     OW25081   0.566   0.209   2.396
 8061SOL    HW125082   0.641   0.247   2.342
 8061SOL    HW225083   0.603   0.168   2.479
 8062SOL     OW25084   3.866   5.154   3.976
 8062SOL    HW125085   3.964   5.169   3.965
 8062SOL    HW225086   3.834   5.089   3.906
 8063SOL     OW25087   2.416   1.411   3.039
 8063SOL    HW125088   2.463   1.471   3.104
 8063SOL    HW225089   2.344   1.361   3.087
 8064SOL     OW25090   5.956   2.500   0.599
 8064SOL    HW125091   5.878   2.488   0.660
 8064SOL    HW225092   6.041   2.503   0.652
 8065SOL     OW25093   2.900   6.254   4.087
 8065SOL    HW125094   2.936   6.326   4.027
 8065SOL    HW225095   2.963   6.176   4.087
 8066SOL     OW25096   6.841   0.453   5.563
 8066SOL    HW125097   6.749   0.469   5.527
 8066SOL    HW225098   6.864   0.523   5.630
 8067SOL     OW25099   5.166   2.680   2.590
 8067SOL    HW125100   5.203   2.727   2.510
 8067SOL    HW225101   5.198   2.585   2.591
 8068SOL     OW25102   6.662   4.361   1.486
 8068SOL    HW125103   6.646   4.299   1.562
 8068SOL    HW225104   6.674   4.454   1.521
 8069SOL     OW25105   1.767   4.869   1.299
 8069SOL    HW125106   1.690   4.929   1.276
 8069SOL    HW225107   1.737   4.774   1.294
 8070SOL     OW25108   4.308   3.224   0.564
 8070SOL    HW125109   4.342   3.236   0.471
 8070SOL    HW225110   4.227   3.282   0.578
 8071SOL     OW25111   2.932   6.889   5.226
 8071SOL    HW125112   2.913   6.814   5.163
 8071SOL    HW225113   2.988   6.957   5.179
 8072SOL     OW25114   3.431   1.807   1.085
 8072SOL    HW125115   3.507   1.768   1.137
 8072SOL    HW225116   3.388   1.734   1.031
 8073SOL     OW25117   3.832   6.320   5.335
 8073SOL    HW125118   3.874   6.383   5.270
 8073SOL    HW225119   3.903   6.284   5.397
 8074SOL     OW25120   2.854   2.261   0.448
 8074SOL    HW125121   2.899   2.179   0.484
 8074SOL    HW225122   2.918   2.338   0.450
 8075SOL     OW25123   6.573   6.827   0.976
 8075SOL    HW125124   6.516   6.863   1.050
 8075SOL    HW225125   6.544   6.734   0.953
 8076SOL     OW25126   6.111   0.121   5.383
 8076SOL    HW125127   6.030   0.080   5.339
 8076SOL    HW225128   6.084   0.205   5.430
 8077SOL     OW25129   3.618   5.935   2.759
 8077SOL    HW125130   3.559   5.998   2.809
 8077SOL    HW225131   3.660   5.871   2.824
 8078SOL     OW25132   0.885   1.951   1.232
 8078SOL    HW125133   0.891   2.011   1.312
 8078SOL    HW225134   0.963   1.889   1.231
 8079SOL     OW25135   6.386   1.493   3.103
 8079SOL    HW125136   6.360   1.542   3.019
 8079SOL    HW225137   6.314   1.503   3.171
 8080SOL     OW25138   1.044   1.919   2.754
 8080SOL    HW125139   1.116   1.894   2.820
 8080SOL    HW225140   1.086   1.966   2.677
 8081SOL     OW25141   6.008   5.495   6.277
 8081SOL    HW125142   6.104   5.518   6.295
 8081SOL    HW225143   5.992   5.492   6.179
 8082SOL     OW25144   3.643   0.830   2.492
 8082SOL    HW125145   3.715   0.878   2.542
 8082SOL    HW225146   3.560   0.887   2.491
 8083SOL     OW25147   4.928   2.516   3.509
 8083SOL    HW125148   4.832   2.488   3.503
 8083SOL    HW225149   4.953   2.529   3.605
 8084SOL     OW25150   3.537   0.286   6.678
 8084SOL    HW125151   3.451   0.250   6.714
 8084SOL    HW225152   3.540   0.385   6.689
 8085SOL     OW25153   5.693   5.808   2.150
 8085SOL    HW125154   5.702   5.799   2.250
 8085SOL    HW225155   5.705   5.904   2.124
 8086SOL     OW25156   6.570   0.846   1.886
 8086SOL    HW125157   6.657   0.803   1.910
 8086SOL    HW225158   6.495   0.796   1.928
 8087SOL     OW25159   1.553   0.073   0.082
 8087SOL    HW125160   1.485   0.074   0.009
 8087SOL    HW225161   1.583   7.008   0.098
 8088SOL     OW25162   5.902   0.680   1.402
 8088SOL    HW125163   5.989   0.640   1.431
 8088SOL    HW225164   5.837   0.679   1.479
 8089SOL     OW25165   5.133   2.606   0.165
 8089SOL    HW125166   5.141   2.693   0.213
 8089SOL    HW225167   5.223   2.573   0.140
 8090SOL     OW25168   3.667   1.009   6.303
 8090SOL    HW125169   3.753   0.969   6.337
 8090SOL    HW225170   3.618   1.051   6.378
 8091SOL     OW25171   1.640   4.042   4.973
 8091SOL    HW125172   1.561   4.005   5.022
 8091SOL    HW225173   1.650   3.996   4.885
 8092SOL     OW25174   5.281   1.694   5.318
 8092SOL    HW125175   5.326   1.714   5.405
 8092SOL    HW225176   5.267   1.595   5.309
 8093SOL     OW25177   2.942   5.435   3.352
 8093SOL    HW125178   2.982   5.450   3.442
 8093SOL    HW225179   2.847   5.405   3.362
 8094SOL     OW25180   6.946   3.275   4.693
 8094SOL    HW125181   6.890   3.279   4.611
 8094SOL    HW225182   0.013   3.281   4.668
 8095SOL     OW25183   0.949   4.464   4.921
 8095SOL    HW125184   0.902   4.381   4.952
 8095SOL    HW225185   0.925   4.540   4.982
 8096SOL     OW25186   2.499   0.372   2.531
 8096SOL    HW125187   2.508   0.315   2.449
 8096SOL    HW225188   2.472   0.315   2.608
 8097SOL     OW25189   4.390   6.989   4.974
 8097SOL    HW125190   4.397   0.036   4.910
 8097SOL    HW225191   4.417   7.018   5.066
 8098SOL     OW25192   1.922   6.421   3.547
 8098SOL    HW125193   1.928   6.328   3.510
 8098SOL    HW225194   1.912   6.486   3.473
 8099SOL     OW25195   4.140   6.137   4.025
 8099SOL    HW125196   4.126   6.109   3.930
 8099SOL    HW225197   4.173   6.232   4.027
 8100SOL     OW25198   0.030   0.475   6.929
 8100SOL    HW125199   0.117   0.506   6.893
 8100SOL    HW225200   0.025   0.375   6.924
 8101SOL     OW25201   1.558   5.673   1.374
 8101SOL    HW125202   1.572   5.751   1.436
 8101SOL    HW225203   1.645   5.626   1.361
 8102SOL     OW25204   0.369   3.467   3.503
 8102SOL    HW125205   0.363   3.518   3.417
 8102SOL    HW225206   0.464   3.461   3.532
 8103SOL     OW25207   3.089   6.914   1.364
 8103SOL    HW125208   3.140   6.987   1.319
 8103SOL    HW225209   3.026   6.872   1.297
 8104SOL     OW25210   1.768   0.685   6.467
 8104SOL    HW125211   1.695   0.628   6.506
 8104SOL    HW225212   1.843   0.692   6.533
 8105SOL     OW25213   0.058   3.514   3.208
 8105SOL    HW125214   0.003   3.459   3.270
 8105SOL    HW225215   0.001   3.586   3.168
 8106SOL     OW25216   3.261   5.521   3.497
 8106SOL    HW125217   3.228   5.580   3.422
 8106SOL    HW225218   3.350   5.555   3.528
 8107SOL     OW25219   0.768   5.409   3.911
 8107SOL    HW125220   0.689   5.421   3.851
 8107SOL    HW225221   0.834   5.482   3.894
 8108SOL     OW25222   6.799   2.819   6.642
 8108SOL    HW125223   6.833   2.739   6.594
 8108SOL    HW225224   6.700   2.815   6.650
 8109SOL     OW25225   6.786   3.805   6.085
 8109SOL    HW125226   6.724   3.837   6.158
 8109SOL    HW225227   6.868   3.766   6.126
 8110SOL     OW25228   3.632   5.499   2.145
 8110SOL    HW125229   3.627   5.436   2.223
 8110SOL    HW225230   3.567   5.574   2.158
 8111SOL     OW25231   4.972   1.015   4.652
 8111SOL    HW125232   5.012   0.949   4.716
 8111SOL    HW225233   5.003   1.107   4.675
 8112SOL     OW25234   2.471   2.599   4.294
 8112SOL    HW125235   2.515   2.598   4.383
 8112SOL    HW225236   2.386   2.548   4.298
 8113SOL     OW25237   0.989   3.795   0.910
 8113SOL    HW125238   1.037   3.859   0.850
 8113SOL    HW225239   1.051   3.721   0.936
 8114SOL     OW25240   1.283   4.039   2.617
 8114SOL    HW125241   1.287   4.138   2.604
 8114SOL    HW225242   1.294   4.018   2.714
 8115SOL     OW25243   3.684   6.870   6.653
 8115SOL    HW125244   3.606   6.933   6.659
 8115SOL    HW225245   3.718   6.868   6.559
 8116SOL     OW25246   4.151   4.726   0.601
 8116SOL    HW125247   4.244   4.758   0.580
 8116SOL    HW225248   4.156   4.648   0.663
 8117SOL     OW25249   1.795   7.016   3.610
 8117SOL    HW125250   1.761   0.070   3.652
 8117SOL    HW225251   1.785   7.023   3.510
 8118SOL     OW25252   5.037   4.364   6.512
 8118SOL    HW125253   5.042   4.342   6.609
 8118SOL    HW225254   5.129   4.382   6.477
 8119SOL     OW25255   5.310   5.340   6.355
 8119SOL    HW125256   5.218   5.339   6.396
 8119SOL    HW225257   5.379   5.341   6.428
 8120SOL     OW25258   3.378   4.638   1.094
 8120SOL    HW125259   3.405   4.542   1.098
 8120SOL    HW225260   3.304   4.649   1.028
 8121SOL     OW25261   0.255   4.909   1.708
 8121SOL    HW125262   0.256   4.909   1.808
 8121SOL    HW225263   0.162   4.921   1.676
 8122SOL     OW25264   0.012   4.383   3.279
 8122SOL    HW125265   0.040   4.313   3.213
 8122SOL    HW225266   0.013   4.473   3.234
 8123SOL     OW25267   6.739   1.947   6.280
 8123SOL    HW125268   6.690   1.937   6.367
 8123SOL    HW225269   6.789   2.033   6.280
 8124SOL     OW25270   4.968   6.154   1.819
 8124SOL    HW125271   4.899   6.210   1.774
 8124SOL    HW225272   5.049   6.210   1.839
 8125SOL     OW25273   1.694   1.683   3.131
 8125SOL    HW125274   1.706   1.601   3.187
 8125SOL    HW225275   1.779   1.735   3.131
 8126SOL     OW25276   5.254   4.438   3.063
 8126SOL    HW125277   5.258   4.530   3.102
 8126SOL    HW225278   5.158   4.412   3.050
 8127SOL     OW25279   2.784   3.693   6.076
 8127SOL    HW125280   2.695   3.660   6.045
 8127SOL    HW225281   2.829   3.743   6.002
 8128SOL     OW25282   2.985   2.219   2.316
 8128SOL    HW125283   2.950   2.251   2.228
 8128SOL    HW225284   2.970   2.291   2.385
 8129SOL     OW25285   3.807   1.737   5.879
 8129SOL    HW125286   3.766   1.828   5.888
 8129SOL    HW225287   3.855   1.731   5.791
 8130SOL     OW25288   0.494   4.078   6.689
 8130SOL    HW125289   0.520   4.063   6.784
 8130SOL    HW225290   0.402   4.116   6.685
 8131SOL     OW25291   2.411   2.227   1.717
 8131SOL    HW125292   2.439   2.233   1.621
 8131SOL    HW225293   2.439   2.139   1.755
 8132SOL     OW25294   5.544   6.795   5.222
 8132SOL    HW125295   5.610   6.720   5.208
 8132SOL    HW225296   5.578   6.856   5.293
 8133SOL     OW25297   3.232   5.264   2.384
 8133SOL    HW125298   3.184   5.177   2.385
 8133SOL    HW225299   3.169   5.338   2.406
 8134SOL     OW25300   6.939   2.139   6.293
 8134SOL    HW125301   7.008   2.072   6.321
 8134SOL    HW225302   6.979   2.230   6.294
 8135SOL     OW25303   2.917   6.756   1.198
 8135SOL    HW125304   2.891   6.787   1.106
 8135SOL    HW225305   2.836   6.726   1.247
 8136SOL     OW25306   4.571   5.758   3.144
 8136SOL    HW125307   4.487   5.805   3.119
 8136SOL    HW225308   4.605   5.793   3.231
 8137SOL     OW25309   3.084   1.720   5.374
 8137SOL    HW125310   3.117   1.627   5.356
 8137SOL    HW225311   3.019   1.747   5.303
 8138SOL     OW25312   5.431   1.052   0.874
 8138SOL    HW125313   5.345   1.003   0.885
 8138SOL    HW225314   5.460   1.049   0.778
 8139SOL     OW25315   0.308   0.471   1.851
 8139SOL    HW125316   0.314   0.452   1.753
 8139SOL    HW225317   0.343   0.563   1.869
 8140SOL     OW25318   5.717   0.451   6.334
 8140SOL    HW125319   5.686   0.376   6.393
 8140SOL    HW225320   5.689   0.538   6.375
 8141SOL     OW25321   4.336   5.296   4.818
 8141SOL    HW125322   4.270   5.333   4.883
 8141SOL    HW225323   4.424   5.285   4.864
 8142SOL     OW25324   0.219   5.808   0.114
 8142SOL    HW125325   0.312   5.844   0.107
 8142SOL    HW225326   0.222   5.710   0.132
 8143SOL     OW25327   6.001   3.939   0.634
 8143SOL    HW125328   5.963   3.858   0.589
 8143SOL    HW225329   5.940   3.969   0.707
 8144SOL     OW25330   5.787   6.011   6.643
 8144SOL    HW125331   5.810   5.941   6.711
 8144SOL    HW225332   5.812   5.978   6.552
 8145SOL     OW25333   5.397   5.839   1.252
 8145SOL    HW125334   5.309   5.876   1.222
 8145SOL    HW225335   5.470   5.877   1.194
 8146SOL     OW25336   3.723   0.729   4.617
 8146SOL    HW125337   3.774   0.659   4.567
 8146SOL    HW225338   3.639   0.689   4.653
 8147SOL     OW25339   6.117   1.993   1.376
 8147SOL    HW125340   6.205   1.957   1.407
 8147SOL    HW225341   6.043   1.947   1.425
 8148SOL     OW25342   5.091   4.806   0.969
 8148SOL    HW125343   5.179   4.759   0.981
 8148SOL    HW225344   5.038   4.800   1.053
 8149SOL     OW25345   2.466   6.227   1.692
 8149SOL    HW125346   2.490   6.171   1.771
 8149SOL    HW225347   2.429   6.315   1.723
 8150SOL     OW25348   0.688   4.415   0.427
 8150SOL    HW125349   0.667   4.340   0.489
 8150SOL    HW225350   0.759   4.473   0.469
 8151SOL     OW25351   6.542   1.986   1.227
 8151SOL    HW125352   6.629   1.973   1.179
 8151SOL    HW225353   6.471   2.009   1.162
 8152SOL     OW25354   0.174   1.602   2.573
 8152SOL    HW125355   0.207   1.665   2.503
 8152SOL    HW225356   0.252   1.558   2.618
 8153SOL     OW25357   3.485   0.087   3.306
 8153SOL    HW125358   3.392   0.054   3.322
 8153SOL    HW225359   3.500   0.171   3.359
 8154SOL     OW25360   2.929   5.792   3.485
 8154SOL    HW125361   2.989   5.732   3.434
 8154SOL    HW225362   2.848   5.741   3.516
 8155SOL     OW25363   2.284   3.928   1.791
 8155SOL    HW125364   2.344   3.859   1.752
 8155SOL    HW225365   2.244   3.983   1.718
 8156SOL     OW25366   5.368   6.867   6.850
 8156SOL    HW125367   5.354   6.778   6.805
 8156SOL    HW225368   5.363   6.940   6.781
 8157SOL     OW25369   6.407   5.096   6.559
 8157SOL    HW125370   6.482   5.160   6.579
 8157SOL    HW225371   6.358   5.127   6.478
 8158SOL     OW25372   6.778   5.407   1.212
 8158SOL    HW125373   6.686   5.394   1.248
 8158SOL    HW225374   6.815   5.320   1.181
 8159SOL     OW25375   2.675   6.100   2.518
 8159SOL    HW125376   2.745   6.084   2.449
 8159SOL    HW225377   2.589   6.058   2.489
 8160SOL     OW25378   4.833   0.997   2.474
 8160SOL    HW125379   4.827   1.078   2.415
 8160SOL    HW225380   4.747   0.984   2.522
 8161SOL     OW25381   5.108   1.421   6.857
 8161SOL    HW125382   5.118   1.512   6.896
 8161SOL    HW225383   5.056   1.363   6.920
 8162SOL     OW25384   5.871   6.761   5.981
 8162SOL    HW125385   5.875   6.673   5.934
 8162SOL    HW225386   5.955   6.813   5.962
 8163SOL     OW25387   2.735   3.719   5.459
 8163SOL    HW125388   2.735   3.789   5.387
 8163SOL    HW225389   2.794   3.643   5.432
 8164SOL     OW25390   5.962   3.185   0.406
 8164SOL    HW125391   5.863   3.188   0.407
 8164SOL    HW225392   5.997   3.178   0.500
 8165SOL     OW25393   0.670   5.180   6.728
 8165SOL    HW125394   0.594   5.183   6.792
 8165SOL    HW225395   0.737   5.112   6.758
 8166SOL     OW25396   2.413   0.397   1.943
 8166SOL    HW125397   2.416   0.401   1.843
 8166SOL    HW225398   2.411   0.302   1.972
 8167SOL     OW25399   6.062   0.885   4.242
 8167SOL    HW125400   6.030   0.863   4.150
 8167SOL    HW225401   6.157   0.916   4.237
 8168SOL     OW25402   2.951   1.562   3.963
 8168SOL    HW125403   2.983   1.556   3.868
 8168SOL    HW225404   2.857   1.596   3.963
 8169SOL     OW25405   5.211   3.069   1.261
 8169SOL    HW125406   5.124   3.048   1.216
 8169SOL    HW225407   5.259   2.983   1.281
 8170SOL     OW25408   1.610   5.822   2.803
 8170SOL    HW125409   1.594   5.806   2.706
 8170SOL    HW225410   1.650   5.741   2.845
 8171SOL     OW25411   1.045   1.445   0.192
 8171SOL    HW125412   1.037   1.492   0.104
 8171SOL    HW225413   0.973   1.476   0.254
 8172SOL     OW25414   1.122   1.096   2.152
 8172SOL    HW125415   1.181   1.028   2.109
 8172SOL    HW225416   1.143   1.187   2.115
 8173SOL     OW25417   3.960   1.915   0.785
 8173SOL    HW125418   4.002   1.825   0.778
 8173SOL    HW225419   3.952   1.956   0.694
 8174SOL     OW25420   5.106   2.115   0.932
 8174SOL    HW125421   5.125   2.040   0.995
 8174SOL    HW225422   5.190   2.169   0.918
 8175SOL     OW25423   0.336   3.167   5.894
 8175SOL    HW125424   0.404   3.174   5.968
 8175SOL    HW225425   0.370   3.108   5.822
 8176SOL     OW25426   2.608   5.275   2.358
 8176SOL    HW125427   2.535   5.206   2.362
 8176SOL    HW225428   2.575   5.356   2.311
 8177SOL     OW25429   2.296   6.241   4.198
 8177SOL    HW125430   2.342   6.299   4.131
 8177SOL    HW225431   2.349   6.241   4.283
 8178SOL     OW25432   2.348   6.660   6.585
 8178SOL    HW125433   2.264   6.711   6.602
 8178SOL    HW225434   2.328   6.562   6.586
 8179SOL     OW25435   3.907   2.524   6.406
 8179SOL    HW125436   3.848   2.443   6.406
 8179SOL    HW225437   3.899   2.571   6.318
 8180SOL     OW25438   6.967   0.299   4.521
 8180SOL    HW125439   6.949   0.277   4.617
 8180SOL    HW225440   6.897   0.257   4.463
 8181SOL     OW25441   2.396   1.947   2.089
 8181SOL    HW125442   2.418   1.871   2.029
 8181SOL    HW225443   2.314   1.924   2.143
 8182SOL     OW25444   3.792   1.566   0.116
 8182SOL    HW125445   3.867   1.626   0.146
 8182SOL    HW225446   3.788   1.566   0.016
 8183SOL     OW25447   0.831   2.381   4.761
 8183SOL    HW125448   0.856   2.418   4.851
 8183SOL    HW225449   0.772   2.446   4.714
 8184SOL     OW25450   5.037   1.533   5.627
 8184SOL    HW125451   5.042   1.577   5.717
 8184SOL    HW225452   5.011   1.601   5.558
 8185SOL     OW25453   3.153   0.196   0.146
 8185SOL    HW125454   3.117   0.112   0.106
 8185SOL    HW225455   3.252   0.187   0.157
 8186SOL     OW25456   3.686   6.180   6.260
 8186SOL    HW125457   3.631   6.169   6.343
 8186SOL    HW225458   3.625   6.196   6.182
 8187SOL     OW25459   1.383   2.324   5.473
 8187SOL    HW125460   1.286   2.326   5.449
 8187SOL    HW225461   1.402   2.244   5.529
 8188SOL     OW25462   5.166   2.045   2.580
 8188SOL    HW125463   5.160   2.077   2.674
 8188SOL    HW225464   5.206   2.116   2.523
 8189SOL     OW25465   5.290   4.772   2.254
 8189SOL    HW125466   5.238   4.858   2.260
 8189SOL    HW225467   5.341   4.759   2.339
 8190SOL     OW25468   4.868   5.511   4.164
 8190SOL    HW125469   4.964   5.517   4.192
 8190SOL    HW225470   4.856   5.432   4.104
 8191SOL     OW25471   3.255   5.209   3.836
 8191SOL    HW125472   3.241   5.110   3.826
 8191SOL    HW225473   3.329   5.238   3.776
 8192SOL     OW25474   3.397   6.076   0.190
 8192SOL    HW125475   3.494   6.063   0.205
 8192SOL    HW225476   3.345   6.042   0.269
 8193SOL     OW25477   6.842   0.294   3.927
 8193SOL    HW125478   6.829   0.374   3.985
 8193SOL    HW225479   6.861   0.214   3.984
 8194SOL     OW25480   6.191   2.565   0.731
 8194SOL    HW125481   6.264   2.502   0.759
 8194SOL    HW225482   6.214   2.604   0.642
 8195SOL     OW25483   0.950   0.456   0.692
 8195SOL    HW125484   0.858   0.431   0.721
 8195SOL    HW225485   0.978   0.398   0.616
 8196SOL     OW25486   3.299   0.405   5.329
 8196SOL    HW125487   3.361   0.434   5.257
 8196SOL    HW225488   3.266   0.485   5.379
 8197SOL     OW25489   4.717   1.321   5.967
 8197SOL    HW125490   4.732   1.303   5.870
 8197SOL    HW225491   4.715   1.420   5.983
 8198SOL     OW25492   2.816   6.678   2.935
 8198SOL    HW125493   2.872   6.751   2.896
 8198SOL    HW225494   2.845   6.661   3.029
 8199SOL     OW25495   6.799   3.629   0.566
 8199SOL    HW125496   6.846   3.658   0.650
 8199SOL    HW225497   6.864   3.627   0.490
 8200SOL     OW25498   4.784   4.256   1.425
 8200SOL    HW125499   4.715   4.278   1.495
 8200SOL    HW225500   4.843   4.182   1.459
 8201SOL     OW25501   5.137   0.632   4.455
 8201SOL    HW125502   5.178   0.616   4.366
 8201SOL    HW225503   5.065   0.701   4.447
 8202SOL     OW25504   0.933   5.625   3.912
 8202SOL    HW125505   0.994   5.645   3.988
 8202SOL    HW225506   0.976   5.655   3.827
 8203SOL     OW25507   4.640   3.347   0.171
 8203SOL    HW125508   4.547   3.365   0.140
 8203SOL    HW225509   4.705   3.369   0.098
 8204SOL     OW25510   3.523   5.449   1.497
 8204SOL    HW125511   3.474   5.536   1.500
 8204SOL    HW225512   3.536   5.421   1.402
 8205SOL     OW25513   6.638   4.903   1.938
 8205SOL    HW125514   6.681   4.923   1.850
 8205SOL    HW225515   6.702   4.856   1.997
 8206SOL     OW25516   2.841   2.315   5.572
 8206SOL    HW125517   2.742   2.308   5.563
 8206SOL    HW225518   2.881   2.333   5.482
 8207SOL     OW25519   3.570   4.580   5.289
 8207SOL    HW125520   3.625   4.497   5.284
 8207SOL    HW225521   3.575   4.618   5.382
 8208SOL     OW25522   2.670   6.355   1.243
 8208SOL    HW125523   2.742   6.409   1.286
 8208SOL    HW225524   2.706   6.264   1.219
 8209SOL     OW25525   0.985   1.792   5.161
 8209SOL    HW125526   1.069   1.741   5.144
 8209SOL    HW225527   0.922   1.736   5.215
 8210SOL     OW25528   3.592   0.327   0.338
 8210SOL    HW125529   3.622   0.378   0.257
 8210SOL    HW225530   3.543   0.389   0.400
 8211SOL     OW25531   3.427   4.125   3.852
 8211SOL    HW125532   3.452   4.185   3.777
 8211SOL    HW225533   3.473   4.154   3.936
 8212SOL     OW25534   3.153   0.629   0.934
 8212SOL    HW125535   3.251   0.615   0.949
 8212SOL    HW225536   3.119   0.698   0.998
 8213SOL     OW25537   4.966   5.009   3.550
 8213SOL    HW125538   4.953   4.961   3.463
 8213SOL    HW225539   4.946   5.106   3.537
 8214SOL     OW25540   2.116   6.467   3.914
 8214SOL    HW125541   2.120   6.382   3.862
 8214SOL    HW225542   2.166   6.538   3.865
 8215SOL     OW25543   4.207   5.134   0.587
 8215SOL    HW125544   4.113   5.101   0.595
 8215SOL    HW225545   4.206   5.230   0.559
 8216SOL     OW25546   5.267   0.111   2.951
 8216SOL    HW125547   5.318   0.108   2.865
 8216SOL    HW225548   5.168   0.106   2.932
 8217SOL     OW25549   2.352   4.137   1.932
 8217SOL    HW125550   2.318   4.048   1.902
 8217SOL    HW225551   2.401   4.182   1.857
 8218SOL     OW25552   1.384   0.197   4.431
 8218SOL    HW125553   1.346   0.189   4.339
 8218SOL    HW225554   1.444   0.119   4.449
 8219SOL     OW25555   2.755   4.070   0.904
 8219SOL    HW125556   2.849   4.086   0.876
 8219SOL    HW225557   2.750   3.988   0.961
 8220SOL     OW25558   3.427   4.184   5.294
 8220SOL    HW125559   3.363   4.255   5.322
 8220SOL    HW225560   3.506   4.226   5.249
 8221SOL     OW25561   6.146   4.162   3.165
 8221SOL    HW125562   6.221   4.191   3.106
 8221SOL    HW225563   6.161   4.196   3.258
 8222SOL     OW25564   5.471   2.014   0.605
 8222SOL    HW125565   5.569   1.996   0.618
 8222SOL    HW225566   5.424   1.928   0.586
 8223SOL     OW25567   0.246   5.087   5.914
 8223SOL    HW125568   0.318   5.148   5.881
 8223SOL    HW225569   0.158   5.119   5.880
 8224SOL     OW25570   4.846   1.943   1.460
 8224SOL    HW125571   4.770   1.909   1.516
 8224SOL    HW225572   4.932   1.904   1.495
 8225SOL     OW25573   3.766   0.417   1.154
 8225SOL    HW125574   3.771   0.318   1.146
 8225SOL    HW225575   3.752   0.442   1.250
 8226SOL     OW25576   3.487   0.559   0.511
 8226SOL    HW125577   3.404   0.504   0.510
 8226SOL    HW225578   3.470   0.645   0.559
 8227SOL     OW25579   6.803   1.467   2.235
 8227SOL    HW125580   6.881   1.528   2.225
 8227SOL    HW225581   6.745   1.474   2.154
 8228SOL     OW25582   0.051   1.102   5.681
 8228SOL    HW125583   0.031   1.091   5.779
 8228SOL    HW225584   0.110   1.182   5.668
 8229SOL     OW25585   4.463   4.233   1.300
 8229SOL    HW125586   4.415   4.175   1.234
 8229SOL    HW225587   4.559   4.205   1.304
 8230SOL     OW25588   3.439   6.985   5.840
 8230SOL    HW125589   3.401   6.972   5.749
 8230SOL    HW225590   3.409   6.911   5.900
 8231SOL     OW25591   3.225   1.891   2.551
 8231SOL    HW125592   3.182   1.816   2.602
 8231SOL    HW225593   3.322   1.895   2.575
 8232SOL     OW25594   5.056   1.656   2.492
 8232SOL    HW125595   5.120   1.683   2.564
 8232SOL    HW225596   5.002   1.736   2.464
 8233SOL     OW25597   1.218   0.632   5.665
 8233SOL    HW125598   1.200   0.722   5.626
 8233SOL    HW225599   1.169   0.563   5.611
 8234SOL     OW25600   3.513   3.004   0.129
 8234SOL    HW125601   3.599   2.960   0.157
 8234SOL    HW225602   3.443   2.934   0.113
 8235SOL     OW25603   0.453   4.390   0.243
 8235SOL    HW125604   0.521   4.410   0.313
 8235SOL    HW225605   0.494   4.336   0.170
 8236SOL     OW25606   0.223   5.782   5.609
 8236SOL    HW125607   0.125   5.765   5.606
 8236SOL    HW225608   0.267   5.743   5.529
 8237SOL     OW25609   4.191   5.723   5.835
 8237SOL    HW125610   4.178   5.624   5.843
 8237SOL    HW225611   4.117   5.762   5.780
 8238SOL     OW25612   0.774   5.414   6.830
 8238SOL    HW125613   0.692   5.472   6.830
 8238SOL    HW225614   0.749   5.321   6.805
 8239SOL     OW25615   0.365   1.437   4.909
 8239SOL    HW125616   0.366   1.514   4.846
 8239SOL    HW225617   0.399   1.466   4.999
 8240SOL     OW25618   3.172   3.585   2.931
 8240SOL    HW125619   3.243   3.539   2.877
 8240SOL    HW225620   3.214   3.637   3.005
 8241SOL     OW25621   1.613   3.561   6.764
 8241SOL    HW125622   1.529   3.592   6.720
 8241SOL    HW225623   1.608   3.576   6.863
 8242SOL     OW25624   1.298   3.566   4.691
 8242SOL    HW125625   1.261   3.553   4.783
 8242SOL    HW225626   1.376   3.628   4.694
 8243SOL     OW25627   0.468   3.844   6.528
 8243SOL    HW125628   0.525   3.924   6.509
 8243SOL    HW225629   0.514   3.784   6.593
 8244SOL     OW25630   0.697   0.281   3.762
 8244SOL    HW125631   0.758   0.207   3.733
 8244SOL    HW225632   0.610   0.274   3.713
 8245SOL     OW25633   4.247   2.003   3.411
 8245SOL    HW125634   4.240   2.000   3.511
 8245SOL    HW225635   4.179   1.942   3.371
 8246SOL     OW25636   0.989   4.394   6.162
 8246SOL    HW125637   1.071   4.409   6.108
 8246SOL    HW225638   0.965   4.478   6.212
 8247SOL     OW25639   2.686   5.681   3.559
 8247SOL    HW125640   2.594   5.706   3.530
 8247SOL    HW225641   2.710   5.591   3.523
 8248SOL     OW25642   1.007   6.086   4.800
 8248SOL    HW125643   0.944   6.036   4.741
 8248SOL    HW225644   0.963   6.171   4.831
 8249SOL     OW25645   2.384   1.443   4.980
 8249SOL    HW125646   2.403   1.352   5.017
 8249SOL    HW225647   2.448   1.509   5.020
 8250SOL     OW25648   3.125   1.804   0.755
 8250SOL    HW125649   3.027   1.788   0.752
 8250SOL    HW225650   3.147   1.865   0.831
 8251SOL     OW25651   5.938   1.650   4.468
 8251SOL    HW125652   6.002   1.632   4.393
 8251SOL    HW225653   5.990   1.671   4.551
 8252SOL     OW25654   3.064   2.261   0.033
 8252SOL    HW125655   3.098   2.318   6.988
 8252SOL    HW225656   2.981   2.302   0.071
 8253SOL     OW25657   4.205   5.709   6.685
 8253SOL    HW125658   4.185   5.798   6.726
 8253SOL    HW225659   4.122   5.672   6.643
 8254SOL     OW25660   6.057   4.979   6.391
 8254SOL    HW125661   6.052   4.881   6.370
 8254SOL    HW225662   5.997   4.999   6.468
 8255SOL     OW25663   0.780   6.899   5.925
 8255SOL    HW125664   0.769   6.898   6.024
 8255SOL    HW225665   0.716   6.965   5.885
 8256SOL     OW25666   6.896   0.222   3.489
 8256SOL    HW125667   6.799   0.240   3.508
 8256SOL    HW225668   6.910   0.216   3.391
 8257SOL     OW25669   5.547   3.848   4.134
 8257SOL    HW125670   5.619   3.869   4.067
 8257SOL    HW225671   5.564   3.900   4.218
 8258SOL     OW25672   5.650   2.778   1.580
 8258SOL    HW125673   5.638   2.862   1.527
 8258SOL    HW225674   5.746   2.751   1.580
 8259SOL     OW25675   3.901   1.712   5.107
 8259SOL    HW125676   3.952   1.651   5.168
 8259SOL    HW225677   3.891   1.802   5.150
 8260SOL     OW25678   2.083   6.507   1.077
 8260SOL    HW125679   2.169   6.542   1.114
 8260SOL    HW225680   2.099   6.418   1.034
 8261SOL     OW25681   5.373   6.714   2.969
 8261SOL    HW125682   5.390   6.735   2.873
 8261SOL    HW225683   5.356   6.799   3.019
 8262SOL     OW25684   0.678   4.711   0.575
 8262SOL    HW125685   0.616   4.676   0.504
 8262SOL    HW225686   0.769   4.670   0.563
 8263SOL     OW25687   0.103   2.744   6.710
 8263SOL    HW125688   0.121   2.778   6.802
 8263SOL    HW225689   0.093   2.821   6.647
 8264SOL     OW25690   1.466   6.395   1.309
 8264SOL    HW125691   1.388   6.423   1.365
 8264SOL    HW225692   1.472   6.454   1.228
 8265SOL     OW25693   4.307   0.362   1.463
 8265SOL    HW125694   4.222   0.353   1.515
 8265SOL    HW225695   4.339   0.457   1.467
 8266SOL     OW25696   2.734   0.267   4.531
 8266SOL    HW125697   2.667   0.244   4.461
 8266SOL    HW225698   2.704   0.229   4.619
 8267SOL     OW25699   1.470   5.222   1.888
 8267SOL    HW125700   1.442   5.217   1.792
 8267SOL    HW225701   1.485   5.130   1.923
 8268SOL     OW25702   2.509   4.241   6.547
 8268SOL    HW125703   2.518   4.191   6.461
 8268SOL    HW225704   2.415   4.234   6.580
 8269SOL     OW25705   4.764   2.715   2.667
 8269SOL    HW125706   4.755   2.790   2.602
 8269SOL    HW225707   4.837   2.735   2.732
 8270SOL     OW25708   2.483   6.172   5.659
 8270SOL    HW125709   2.550   6.099   5.675
 8270SOL    HW225710   2.526   6.247   5.609
 8271SOL     OW25711   6.475   0.088   4.012
 8271SOL    HW125712   6.454   0.185   3.999
 8271SOL    HW225713   6.407   0.033   3.963
 8272SOL     OW25714   0.700   0.707   2.550
 8272SOL    HW125715   0.608   0.672   2.566
 8272SOL    HW225716   0.696   0.807   2.540
 8273SOL     OW25717   3.433   0.157   0.171
 8273SOL    HW125718   3.449   0.166   0.270
 8273SOL    HW225719   3.491   0.223   0.122
 8274SOL     OW25720   3.768   4.557   6.913
 8274SOL    HW125721   3.735   4.638   6.864
 8274SOL    HW225722   3.782   4.482   6.847
 8275SOL     OW25723   5.640   6.926   4.582
 8275SOL    HW125724   5.661   6.992   4.655
 8275SOL    HW225725   5.558   6.955   4.534
 8276SOL     OW25726   6.527   2.571   5.881
 8276SOL    HW125727   6.624   2.574   5.905
 8276SOL    HW225728   6.481   2.501   5.934
 8277SOL     OW25729   2.568   5.679   5.156
 8277SOL    HW125730   2.552   5.778   5.162
 8277SOL    HW225731   2.642   5.662   5.090
 8278SOL     OW25732   3.089   1.511   6.405
 8278SOL    HW125733   2.993   1.520   6.379
 8278SOL    HW225734   3.117   1.415   6.394
 8279SOL     OW25735   5.446   5.128   6.947
 8279SOL    HW125736   5.451   5.035   6.983
 8279SOL    HW225737   5.530   5.177   6.970
 8280SOL     OW25738   4.801   2.747   0.219
 8280SOL    HW125739   4.815   2.744   0.120
 8280SOL    HW225740   4.874   2.800   0.262
 8281SOL     OW25741   1.659   4.274   0.749
 8281SOL    HW125742   1.623   4.366   0.736
 8281SOL    HW225743   1.744   4.264   0.697
 8282SOL     OW25744   2.790   2.270   1.184
 8282SOL    HW125745   2.695   2.298   1.170
 8282SOL    HW225746   2.847   2.314   1.115
 8283SOL     OW25747   0.275   5.180   3.476
 8283SOL    HW125748   0.252   5.093   3.520
 8283SOL    HW225749   0.202   5.246   3.491
 8284SOL     OW25750   1.900   3.058   2.571
 8284SOL    HW125751   1.998   3.067   2.555
 8284SOL    HW225752   1.857   3.148   2.564
 8285SOL     OW25753   3.142   3.782   6.443
 8285SOL    HW125754   3.153   3.682   6.446
 8285SOL    HW225755   3.114   3.809   6.351
 8286SOL     OW25756   5.510   1.199   4.889
 8286SOL    HW125757   5.443   1.265   4.855
 8286SOL    HW225758   5.558   1.158   4.812
 8287SOL     OW25759   1.377   6.930   4.399
 8287SOL    HW125760   1.379   6.869   4.320
 8287SOL    HW225761   1.282   6.952   4.421
 8288SOL     OW25762   1.777   2.544   2.641
 8288SOL    HW125763   1.793   2.627   2.588
 8288SOL    HW225764   1.839   2.542   2.719
 8289SOL     OW25765   6.387   0.676   6.074
 8289SOL    HW125766   6.439   0.745   6.123
 8289SOL    HW225767   6.325   0.629   6.137
 8290SOL     OW25768   4.022   3.230   1.673
 8290SOL    HW125769   3.942   3.282   1.704
 8290SOL    HW225770   4.031   3.239   1.574
 8291SOL     OW25771   5.653   6.540   6.561
 8291SOL    HW125772   5.740   6.495   6.581
 8291SOL    HW225773   5.652   6.632   6.600
 8292SOL     OW25774   2.400   5.308   5.979
 8292SOL    HW125775   2.349   5.228   6.009
 8292SOL    HW225776   2.473   5.279   5.916
 8293SOL     OW25777   1.927   4.914   1.641
 8293SOL    HW125778   1.990   4.852   1.594
 8293SOL    HW225779   1.837   4.871   1.649
 8294SOL     OW25780   6.000   3.682   5.271
 8294SOL    HW125781   6.070   3.753   5.280
 8294SOL    HW225782   5.992   3.655   5.175
 8295SOL     OW25783   4.840   3.996   2.362
 8295SOL    HW125784   4.842   3.956   2.270
 8295SOL    HW225785   4.829   3.923   2.430
 8296SOL     OW25786   4.291   5.667   0.076
 8296SOL    HW125787   4.339   5.608   0.011
 8296SOL    HW225788   4.345   5.749   0.093
 8297SOL     OW25789   6.178   4.180   2.484
 8297SOL    HW125790   6.170   4.176   2.583
 8297SOL    HW225791   6.181   4.088   2.446
 8298SOL     OW25792   0.821   0.809   6.339
 8298SOL    HW125793   0.903   0.777   6.291
 8298SOL    HW225794   0.836   0.902   6.372
 8299SOL     OW25795   0.095   3.575   1.147
 8299SOL    HW125796   0.090   3.508   1.073
 8299SOL    HW225797   0.004   3.608   1.168
 8300SOL     OW25798   6.346   6.711   4.822
 8300SOL    HW125799   6.375   6.769   4.745
 8300SOL    HW225800   6.423   6.697   4.884
 8301SOL     OW25801   4.470   0.263   6.382
 8301SOL    HW125802   4.446   0.165   6.381
 8301SOL    HW225803   4.481   0.295   6.288
 8302SOL     OW25804   3.277   6.910   4.934
 8302SOL    HW125805   3.199   6.956   4.978
 8302SOL    HW225806   3.362   6.951   4.966
 8303SOL     OW25807   6.983   0.236   2.713
 8303SOL    HW125808   6.970   0.152   2.660
 8303SOL    HW225809   6.990   0.314   2.651
 8304SOL     OW25810   5.881   4.049   2.607
 8304SOL    HW125811   5.800   4.042   2.548
 8304SOL    HW225812   5.963   4.032   2.552
 8305SOL     OW25813   4.617   5.279   3.839
 8305SOL    HW125814   4.653   5.207   3.781
 8305SOL    HW225815   4.533   5.317   3.799
 8306SOL     OW25816   6.557   1.286   2.614
 8306SOL    HW125817   6.551   1.320   2.520
 8306SOL    HW225818   6.570   1.187   2.612
 8307SOL     OW25819   1.968   5.182   1.201
 8307SOL    HW125820   1.935   5.089   1.216
 8307SOL    HW225821   2.005   5.219   1.286
 8308SOL     OW25822   1.486   4.658   0.115
 8308SOL    HW125823   1.410   4.603   0.079
 8308SOL    HW225824   1.452   4.717   0.188
 8309SOL     OW25825   6.353   5.222   4.476
 8309SOL    HW125826   6.395   5.150   4.531
 8309SOL    HW225827   6.290   5.276   4.534
 8310SOL     OW25828   0.914   6.074   0.790
 8310SOL    HW125829   1.004   6.033   0.773
 8310SOL    HW225830   0.898   6.081   0.888
 8311SOL     OW25831   5.174   6.965   4.275
 8311SOL    HW125832   5.085   7.004   4.253
 8311SOL    HW225833   5.244   7.004   4.215
 8312SOL     OW25834   5.685   0.591   0.527
 8312SOL    HW125835   5.682   0.632   0.618
 8312SOL    HW225836   5.605   0.533   0.514
 8313SOL     OW25837   4.190   6.943   5.265
 8313SOL    HW125838   4.224   6.907   5.352
 8313SOL    HW225839   4.227   0.005   5.249
 8314SOL     OW25840   5.543   6.388   6.793
 8314SOL    HW125841   5.546   6.289   6.777
 8314SOL    HW225842   5.546   6.436   6.705
 8315SOL     OW25843   3.749   3.555   3.441
 8315SOL    HW125844   3.814   3.578   3.369
 8315SOL    HW225845   3.729   3.457   3.439
 8316SOL     OW25846   1.124   3.403   6.570
 8316SOL    HW125847   1.169   3.313   6.562
 8316SOL    HW225848   1.132   3.452   6.484
 8317SOL     OW25849   2.165   1.967   4.414
 8317SOL    HW125850   2.193   1.935   4.324
 8317SOL    HW225851   2.093   1.908   4.450
 8318SOL     OW25852   4.568   1.187   6.158
 8318SOL    HW125853   4.470   1.204   6.165
 8318SOL    HW225854   4.608   1.247   6.089
 8319SOL     OW25855   1.474   6.885   6.047
 8319SOL    HW125856   1.376   6.889   6.024
 8319SOL    HW225857   1.484   6.881   6.147
 8320SOL     OW25858   3.556   3.850   3.759
 8320SOL    HW125859   3.492   3.908   3.710
 8320SOL    HW225860   3.508   3.800   3.832
 8321SOL     OW25861   0.187   0.212   6.140
 8321SOL    HW125862   0.148   0.263   6.217
 8321SOL    HW225863   0.116   0.154   6.099
 8322SOL     OW25864   0.109   0.907   0.660
 8322SOL    HW125865   0.160   0.959   0.592
 8322SOL    HW225866   0.157   0.823   0.682
 8323SOL     OW25867   4.399   4.484   1.190
 8323SOL    HW125868   4.414   4.390   1.221
 8323SOL    HW225869   4.401   4.546   1.268
 8324SOL     OW25870   5.865   0.404   0.084
 8324SOL    HW125871   5.872   0.504   0.084
 8324SOL    HW225872   5.782   0.376   0.037
 8325SOL     OW25873   1.312   4.870   5.313
 8325SOL    HW125874   1.296   4.933   5.388
 8325SOL    HW225875   1.410   4.864   5.294
 8326SOL     OW25876   3.856   3.947   0.116
 8326SOL    HW125877   3.939   3.894   0.101
 8326SOL    HW225878   3.880   4.040   0.145
 8327SOL     OW25879   0.580   0.565   5.549
 8327SOL    HW125880   0.504   0.623   5.578
 8327SOL    HW225881   0.550   0.470   5.542
 8328SOL     OW25882   1.267   6.775   5.539
 8328SOL    HW125883   1.218   6.692   5.567
 8328SOL    HW225884   1.314   6.814   5.619
 8329SOL     OW25885   0.552   2.812   5.076
 8329SOL    HW125886   0.605   2.728   5.071
 8329SOL    HW225887   0.570   2.858   5.163
 8330SOL     OW25888   3.876   0.935   6.460
 8330SOL    HW125889   3.910   1.014   6.512
 8330SOL    HW225890   3.948   0.867   6.450
 8331SOL     OW25891   2.914   1.931   0.356
 8331SOL    HW125892   3.012   1.912   0.353
 8331SOL    HW225893   2.889   1.987   0.277
 8332SOL     OW25894   5.440   5.823   2.025
 8332SOL    HW125895   5.413   5.730   1.999
 8332SOL    HW225896   5.539   5.828   2.033
 8333SOL     OW25897   1.814   5.161   0.597
 8333SOL    HW125898   1.887   5.127   0.537
 8333SOL    HW225899   1.854   5.205   0.677
 8334SOL     OW25900   2.992   1.948   6.480
 8334SOL    HW125901   3.062   1.879   6.493
 8334SOL    HW225902   2.928   1.946   6.557
 8335SOL     OW25903   4.423   2.996   6.887
 8335SOL    HW125904   4.393   2.909   6.926
 8335SOL    HW225905   4.515   2.987   6.851
 8336SOL     OW25906   1.176   3.901   2.847
 8336SOL    HW125907   1.132   3.822   2.805
 8336SOL    HW225908   1.123   3.929   2.927
 8337SOL     OW25909   0.986   0.228   4.875
 8337SOL    HW125910   1.049   0.221   4.797
 8337SOL    HW225911   1.032   0.276   4.950
 8338SOL     OW25912   3.946   4.886   2.371
 8338SOL    HW125913   3.954   4.912   2.275
 8338SOL    HW225914   4.015   4.934   2.425
 8339SOL     OW25915   6.329   0.753   0.870
 8339SOL    HW125916   6.417   0.708   0.852
 8339SOL    HW225917   6.298   0.798   0.787
 8340SOL     OW25918   5.020   3.785   0.188
 8340SOL    HW125919   4.969   3.814   0.107
 8340SOL    HW225920   4.997   3.846   0.265
 8341SOL     OW25921   3.384   0.602   6.460
 8341SOL    HW125922   3.342   0.660   6.530
 8341SOL    HW225923   3.323   0.525   6.440
 8342SOL     OW25924   3.547   6.177   0.527
 8342SOL    HW125925   3.610   6.230   0.584
 8342SOL    HW225926   3.488   6.122   0.586
 8343SOL     OW25927   6.702   5.551   4.233
 8343SOL    HW125928   6.656   5.502   4.308
 8343SOL    HW225929   6.801   5.539   4.241
 8344SOL     OW25930   0.495   4.942   4.520
 8344SOL    HW125931   0.477   4.919   4.425
 8344SOL    HW225932   0.409   4.969   4.564
 8345SOL     OW25933   5.181   1.652   3.476
 8345SOL    HW125934   5.145   1.733   3.523
 8345SOL    HW225935   5.106   1.588   3.459
 8346SOL     OW25936   4.073   3.443   6.377
 8346SOL    HW125937   4.042   3.450   6.472
 8346SOL    HW225938   3.994   3.450   6.316
 8347SOL     OW25939   2.931   6.195   6.239
 8347SOL    HW125940   3.012   6.209   6.296
 8347SOL    HW225941   2.881   6.116   6.274
 8348SOL     OW25942   2.826   6.485   1.435
 8348SOL    HW125943   2.765   6.564   1.424
 8348SOL    HW225944   2.800   6.434   1.517
 8349SOL     OW25945   1.003   6.456   1.283
 8349SOL    HW125946   1.025   6.510   1.365
 8349SOL    HW225947   0.906   6.433   1.284
 8350SOL     OW25948   2.981   6.919   6.686
 8350SOL    HW125949   2.976   6.859   6.766
 8350SOL    HW225950   2.966   6.865   6.603
 8351SOL     OW25951   5.641   5.824   3.944
 8351SOL    HW125952   5.738   5.818   3.920
 8351SOL    HW225953   5.585   5.808   3.863
 8352SOL     OW25954   2.579   6.387   2.431
 8352SOL    HW125955   2.533   6.390   2.342
 8352SOL    HW225956   2.623   6.299   2.443
 8353SOL     OW25957   2.156   4.076   1.309
 8353SOL    HW125958   2.098   4.006   1.266
 8353SOL    HW225959   2.225   4.106   1.244
 8354SOL     OW25960   3.647   6.743   4.131
 8354SOL    HW125961   3.679   6.704   4.045
 8354SOL    HW225962   3.547   6.747   4.131
 8355SOL     OW25963   1.948   0.622   6.246
 8355SOL    HW125964   1.920   0.634   6.151
 8355SOL    HW225965   1.889   0.675   6.306
 8356SOL     OW25966   1.149   5.104   1.680
 8356SOL    HW125967   1.179   5.027   1.625
 8356SOL    HW225968   1.145   5.187   1.624
 8357SOL     OW25969   3.713   5.499   5.885
 8357SOL    HW125970   3.704   5.581   5.829
 8357SOL    HW225971   3.713   5.418   5.825
 8358SOL     OW25972   0.815   3.181   5.470
 8358SOL    HW125973   0.793   3.274   5.439
 8358SOL    HW225974   0.818   3.120   5.391
 8359SOL     OW25975   2.439   1.276   4.681
 8359SOL    HW125976   2.341   1.256   4.681
 8359SOL    HW225977   2.460   1.342   4.609
 8360SOL     OW25978   4.796   6.617   0.845
 8360SOL    HW125979   4.875   6.645   0.900
 8360SOL    HW225980   4.746   6.698   0.814
 8361SOL     OW25981   2.912   0.157   6.728
 8361SOL    HW125982   2.944   0.069   6.693
 8361SOL    HW225983   2.897   0.150   6.826
 8362SOL     OW25984   6.307   2.131   0.761
 8362SOL    HW125985   6.337   2.177   0.678
 8362SOL    HW225986   6.219   2.168   0.790
 8363SOL     OW25987   4.896   1.841   0.605
 8363SOL    HW125988   4.928   1.746   0.604
 8363SOL    HW225989   4.895   1.875   0.699
 8364SOL     OW25990   0.605   3.258   3.827
 8364SOL    HW125991   0.508   3.272   3.845
 8364SOL    HW225992   0.619   3.237   3.730
 8365SOL     OW25993   1.651   2.221   2.817
 8365SOL    HW125994   1.597   2.199   2.898
 8365SOL    HW225995   1.712   2.144   2.796
 8366SOL     OW25996   3.912   5.127   0.879
 8366SOL    HW125997   3.956   5.207   0.922
 8366SOL    HW225998   3.942   5.121   0.783
 8367SOL     OW25999   3.108   4.916   5.260
 8367SOL    HW126000   3.205   4.898   5.245
 8367SOL    HW226001   3.097   4.986   5.331
 8368SOL     OW26002   1.341   6.113   6.739
 8368SOL    HW126003   1.325   6.202   6.697
 8368SOL    HW226004   1.421   6.117   6.798
 8369SOL     OW26005   0.827   1.084   0.967
 8369SOL    HW126006   0.890   1.110   1.040
 8369SOL    HW226007   0.873   1.092   0.879
 8370SOL     OW26008   2.710   1.403   6.304
 8370SOL    HW126009   2.661   1.322   6.335
 8370SOL    HW226010   2.652   1.483   6.315
 8371SOL     OW26011   1.577   3.287   6.197
 8371SOL    HW126012   1.640   3.252   6.127
 8371SOL    HW226013   1.607   3.254   6.287
 8372SOL     OW26014   2.170   5.916   2.014
 8372SOL    HW126015   2.079   5.954   1.998
 8372SOL    HW226016   2.189   5.848   1.943
 8373SOL     OW26017   1.315   1.407   4.553
 8373SOL    HW126018   1.303   1.481   4.619
 8373SOL    HW226019   1.408   1.408   4.518
 8374SOL     OW26020   0.935   0.640   4.482
 8374SOL    HW126021   0.984   0.565   4.439
 8374SOL    HW226022   0.867   0.603   4.546
 8375SOL     OW26023   3.147   0.366   5.817
 8375SOL    HW126024   3.092   0.426   5.876
 8375SOL    HW226025   3.156   0.276   5.861
 8376SOL     OW26026   1.730   1.233   4.193
 8376SOL    HW126027   1.780   1.199   4.273
 8376SOL    HW226028   1.726   1.333   4.196
 8377SOL     OW26029   5.798   5.443   0.596
 8377SOL    HW126030   5.776   5.483   0.507
 8377SOL    HW226031   5.738   5.483   0.665
 8378SOL     OW26032   5.303   5.224   3.387
 8378SOL    HW126033   5.218   5.264   3.422
 8378SOL    HW226034   5.309   5.128   3.416
 8379SOL     OW26035   5.030   2.502   1.593
 8379SOL    HW126036   4.946   2.557   1.601
 8379SOL    HW226037   5.006   2.409   1.567
 8380SOL     OW26038   0.498   6.697   6.370
 8380SOL    HW126039   0.557   6.770   6.406
 8380SOL    HW226040   0.473   6.718   6.276
 8381SOL     OW26041   0.014   2.242   3.333
 8381SOL    HW126042   6.955   2.217   3.294
 8381SOL    HW226043   7.029   2.290   3.420
 8382SOL     OW26044   2.583   0.403   1.008
 8382SOL    HW126045   2.495   0.362   0.982
 8382SOL    HW226046   2.597   0.487   0.956
 8383SOL     OW26047   2.708   0.513   5.164
 8383SOL    HW126048   2.688   0.473   5.253
 8383SOL    HW226049   2.713   0.613   5.172
 8384SOL     OW26050   6.800   1.330   0.773
 8384SOL    HW126051   6.707   1.301   0.753
 8384SOL    HW226052   6.865   1.273   0.722
 8385SOL     OW26053   4.831   2.100   0.547
 8385SOL    HW126054   4.921   2.141   0.553
 8385SOL    HW226055   4.839   2.000   0.545
 8386SOL     OW26056   1.856   5.499   1.295
 8386SOL    HW126057   1.798   5.449   1.231
 8386SOL    HW226058   1.867   5.445   1.379
 8387SOL     OW26059   1.895   1.571   1.502
 8387SOL    HW126060   1.868   1.572   1.598
 8387SOL    HW226061   1.827   1.521   1.448
 8388SOL     OW26062   1.632   0.433   1.053
 8388SOL    HW126063   1.659   0.518   1.097
 8388SOL    HW226064   1.594   0.371   1.122
 8389SOL     OW26065   0.726   3.352   4.038
 8389SOL    HW126066   0.701   3.445   4.065
 8389SOL    HW226067   0.659   3.316   3.974
 8390SOL     OW26068   3.834   0.231   6.533
 8390SOL    HW126069   3.934   0.222   6.531
 8390SOL    HW226070   3.801   0.219   6.626
 8391SOL     OW26071   5.116   5.294   0.998
 8391SOL    HW126072   5.202   5.285   0.949
 8391SOL    HW226073   5.134   5.331   1.089
 8392SOL     OW26074   6.822   5.571   5.554
 8392SOL    HW126075   6.887   5.506   5.592
 8392SOL    HW226076   6.744   5.581   5.616
 8393SOL     OW26077   6.883   0.570   3.690
 8393SOL    HW126078   6.954   0.504   3.716
 8393SOL    HW226079   6.806   0.563   3.753
 8394SOL     OW26080   0.342   2.079   1.950
 8394SOL    HW126081   0.312   2.069   1.855
 8394SOL    HW226082   0.415   2.014   1.969
 8395SOL     OW26083   1.543   7.027   4.096
 8395SOL    HW126084   1.544   6.927   4.090
 8395SOL    HW226085   1.449   0.029   4.109
 8396SOL     OW26086   4.581   4.394   2.285
 8396SOL    HW126087   4.623   4.479   2.256
 8396SOL    HW226088   4.515   4.363   2.217
 8397SOL     OW26089   2.668   0.367   3.061
 8397SOL    HW126090   2.749   0.424   3.055
 8397SOL    HW226091   2.637   0.361   3.156
 8398SOL     OW26092   3.570   1.837   6.990
 8398SOL    HW126093   3.563   1.791   6.901
 8398SOL    HW226094   3.480   1.839   0.003
 8399SOL     OW26095   6.946   6.728   6.808
 8399SOL    HW126096   6.913   6.701   6.898
 8399SOL    HW226097   6.871   6.765   6.754
 8400SOL     OW26098   1.228   0.589   3.318
 8400SOL    HW126099   1.207   0.584   3.220
 8400SOL    HW226100   1.324   0.564   3.332
 8401SOL     OW26101   3.863   2.757   6.238
 8401SOL    HW126102   3.875   2.834   6.301
 8401SOL    HW226103   3.789   2.778   6.174
 8402SOL     OW26104   3.075   1.745   6.116
 8402SOL    HW126105   3.049   1.652   6.143
 8402SOL    HW226106   3.110   1.744   6.023
 8403SOL     OW26107   0.428   2.051   3.429
 8403SOL    HW126108   0.511   2.001   3.403
 8403SOL    HW226109   0.405   2.030   3.524
 8404SOL     OW26110   5.764   5.981   7.000
 8404SOL    HW126111   5.818   5.925   6.938
 8404SOL    HW226112   5.667   5.959   6.989
 8405SOL     OW26113   2.076   1.388   6.904
 8405SOL    HW126114   2.072   1.454   6.830
 8405SOL    HW226115   2.041   1.430   6.988
 8406SOL     OW26116   3.645   0.720   1.189
 8406SOL    HW126117   3.707   0.742   1.265
 8406SOL    HW226118   3.668   0.630   1.152
 8407SOL     OW26119   5.704   5.829   4.354
 8407SOL    HW126120   5.794   5.856   4.320
 8407SOL    HW226121   5.647   5.910   4.368
 8408SOL     OW26122   4.804   1.660   3.298
 8408SOL    HW126123   4.760   1.661   3.387
 8408SOL    HW226124   4.814   1.753   3.264
 8409SOL     OW26125   6.385   2.573   3.848
 8409SOL    HW126126   6.323   2.565   3.926
 8409SOL    HW226127   6.379   2.665   3.810
 8410SOL     OW26128   4.294   0.633   1.988
 8410SOL    HW126129   4.197   0.638   2.014
 8410SOL    HW226130   4.333   0.725   1.987
 8411SOL     OW26131   1.816   5.619   4.107
 8411SOL    HW126132   1.803   5.554   4.032
 8411SOL    HW226133   1.896   5.591   4.161
 8412SOL     OW26134   4.144   1.764   1.558
 8412SOL    HW126135   4.124   1.861   1.546
 8412SOL    HW226136   4.194   1.729   1.479
 8413SOL     OW26137   5.161   4.688   0.163
 8413SOL    HW126138   5.140   4.638   0.247
 8413SOL    HW226139   5.256   4.671   0.137
 8414SOL     OW26140   4.338   6.909   2.746
 8414SOL    HW126141   4.400   6.837   2.776
 8414SOL    HW226142   4.331   6.907   2.646
 8415SOL     OW26143   7.010   5.276   3.945
 8415SOL    HW126144   7.015   5.178   3.968
 8415SOL    HW226145   0.073   5.313   3.937
 8416SOL     OW26146   5.047   4.591   3.541
 8416SOL    HW126147   5.063   4.493   3.552
 8416SOL    HW226148   4.971   4.605   3.478
 8417SOL     OW26149   1.415   5.436   5.639
 8417SOL    HW126150   1.467   5.509   5.595
 8417SOL    HW226151   1.439   5.348   5.598
 8418SOL     OW26152   6.154   5.323   1.812
 8418SOL    HW126153   6.240   5.373   1.813
 8418SOL    HW226154   6.170   5.227   1.837
 8419SOL     OW26155   4.425   0.956   2.222
 8419SOL    HW126156   4.462   0.912   2.305
 8419SOL    HW226157   4.369   1.034   2.249
 8420SOL     OW26158   3.457   6.934   1.130
 8420SOL    HW126159   3.546   6.977   1.113
 8420SOL    HW226160   3.419   6.900   1.044
 8421SOL     OW26161   2.842   6.517   0.889
 8421SOL    HW126162   2.923   6.470   0.922
 8421SOL    HW226163   2.776   6.450   0.855
 8422SOL     OW26164   4.756   6.326   1.638
 8422SOL    HW126165   4.813   6.400   1.602
 8422SOL    HW226166   4.661   6.342   1.612
 8423SOL     OW26167   3.993   3.609   5.893
 8423SOL    HW126168   4.091   3.604   5.910
 8423SOL    HW226169   3.959   3.699   5.917
 8424SOL     OW26170   2.486   2.626   3.033
 8424SOL    HW126171   2.500   2.723   3.052
 8424SOL    HW226172   2.537   2.572   3.100
 8425SOL     OW26173   6.429   5.312   1.000
 8425SOL    HW126174   6.464   5.384   0.940
 8425SOL    HW226175   6.355   5.263   0.955
 8426SOL     OW26176   3.838   2.970   4.335
 8426SOL    HW126177   3.810   3.063   4.359
 8426SOL    HW226178   3.938   2.965   4.334
 8427SOL     OW26179   1.829   4.067   6.147
 8427SOL    HW126180   1.852   4.122   6.228
 8427SOL    HW226181   1.905   4.071   6.082
 8428SOL     OW26182   6.488   4.666   1.737
 8428SOL    HW126183   6.560   4.647   1.804
 8428SOL    HW226184   6.485   4.765   1.719
 8429SOL     OW26185   2.113   4.535   3.969
 8429SOL    HW126186   2.197   4.588   3.958
 8429SOL    HW226187   2.083   4.539   4.064
 8430SOL     OW26188   4.485   5.511   3.304
 8430SOL    HW126189   4.398   5.556   3.283
 8430SOL    HW226190   4.560   5.561   3.261
 8431SOL     OW26191   2.239   5.058   1.020
 8431SOL    HW126192   2.182   5.052   0.938
 8431SOL    HW226193   2.188   5.104   1.092
 8432SOL     OW26194   4.633   5.875   5.461
 8432SOL    HW126195   4.676   5.962   5.438
 8432SOL    HW226196   4.547   5.866   5.411
 8433SOL     OW26197   6.649   2.769   6.315
 8433SOL    HW126198   6.598   2.845   6.354
 8433SOL    HW226199   6.681   2.793   6.224
 8434SOL     OW26200   2.792   0.204   4.836
 8434SOL    HW126201   2.710   0.155   4.867
 8434SOL    HW226202   2.811   0.280   4.897
 8435SOL     OW26203   4.779   1.111   0.822
 8435SOL    HW126204   4.735   1.160   0.747
 8435SOL    HW226205   4.711   1.080   0.887
 8436SOL     OW26206   2.804   6.463   4.308
 8436SOL    HW126207   2.858   6.388   4.269
 8436SOL    HW226208   2.788   6.533   4.238
 8437SOL     OW26209   2.296   0.348   2.848
 8437SOL    HW126210   2.349   0.433   2.847
 8437SOL    HW226211   2.251   0.335   2.759
 8438SOL     OW26212   3.136   4.962   2.114
 8438SOL    HW126213   3.115   4.892   2.046
 8438SOL    HW226214   3.052   5.011   2.138
 8439SOL     OW26215   6.817   5.882   0.997
 8439SOL    HW126216   6.747   5.900   1.066
 8439SOL    HW226217   6.804   5.790   0.960
 8440SOL     OW26218   0.444   1.381   3.316
 8440SOL    HW126219   0.531   1.353   3.356
 8440SOL    HW226220   0.423   1.476   3.343
 8441SOL     OW26221   6.409   6.431   0.057
 8441SOL    HW126222   6.501   6.392   0.056
 8441SOL    HW226223   6.398   6.489   0.138
 8442SOL     OW26224   3.424   3.189   6.047
 8442SOL    HW126225   3.441   3.090   6.045
 8442SOL    HW226226   3.377   3.217   5.963
 8443SOL     OW26227   1.217   6.825   3.263
 8443SOL    HW126228   1.117   6.815   3.267
 8443SOL    HW226229   1.249   6.863   3.350
 8444SOL     OW26230   3.342   5.842   3.759
 8444SOL    HW126231   3.329   5.853   3.857
 8444SOL    HW226232   3.283   5.906   3.710
 8445SOL     OW26233   3.475   5.391   1.947
 8445SOL    HW126234   3.521   5.469   1.991
 8445SOL    HW226235   3.514   5.375   1.857
 8446SOL     OW26236   5.472   5.551   1.211
 8446SOL    HW126237   5.433   5.643   1.203
 8446SOL    HW226238   5.459   5.502   1.124
 8447SOL     OW26239   5.816   1.958   1.970
 8447SOL    HW126240   5.732   2.007   1.946
 8447SOL    HW226241   5.895   2.004   1.929
 8448SOL     OW26242   6.164   3.891   5.338
 8448SOL    HW126243   6.263   3.889   5.320
 8448SOL    HW226244   6.148   3.912   5.434
 8449SOL     OW26245   6.983   2.880   4.579
 8449SOL    HW126246   6.938   2.920   4.659
 8449SOL    HW226247   6.950   2.786   4.566
 8450SOL     OW26248   1.325   6.075   1.829
 8450SOL    HW126249   1.356   6.030   1.746
 8450SOL    HW226250   1.383   6.153   1.849
 8451SOL     OW26251   4.505   2.654   0.567
 8451SOL    HW126252   4.527   2.682   0.474
 8451SOL    HW226253   4.580   2.598   0.604
 8452SOL     OW26254   6.796   0.038   1.400
 8452SOL    HW126255   6.779   0.135   1.418
 8452SOL    HW226256   6.880   0.010   1.446
 8453SOL     OW26257   6.549   4.351   6.379
 8453SOL    HW126258   6.627   4.298   6.345
 8453SOL    HW226259   6.497   4.296   6.444
 8454SOL     OW26260   0.928   5.554   0.963
 8454SOL    HW126261   0.849   5.544   1.023
 8454SOL    HW226262   0.959   5.464   0.933
 8455SOL     OW26263   4.869   2.411   1.116
 8455SOL    HW126264   4.834   2.434   1.025
 8455SOL    HW226265   4.825   2.327   1.148
 8456SOL     OW26266   5.251   4.691   3.159
 8456SOL    HW126267   5.154   4.712   3.157
 8456SOL    HW226268   5.301   4.767   3.201
 8457SOL     OW26269   6.397   6.682   5.836
 8457SOL    HW126270   6.346   6.765   5.816
 8457SOL    HW226271   6.421   6.680   5.933
 8458SOL     OW26272   2.582   1.113   6.776
 8458SOL    HW126273   2.672   1.107   6.819
 8458SOL    HW226274   2.512   1.117   6.847
 8459SOL     OW26275   2.973   0.108   1.098
 8459SOL    HW126276   2.899   0.158   1.143
 8459SOL    HW226277   3.057   0.118   1.151
 8460SOL     OW26278   4.252   2.503   5.816
 8460SOL    HW126279   4.291   2.579   5.867
 8460SOL    HW226280   4.288   2.417   5.853
 8461SOL     OW26281   0.906   4.005   1.804
 8461SOL    HW126282   0.959   4.089   1.813
 8461SOL    HW226283   0.822   4.025   1.752
 8462SOL     OW26284   3.428   2.638   0.326
 8462SOL    HW126285   3.410   2.540   0.339
 8462SOL    HW226286   3.526   2.656   0.337
 8463SOL     OW26287   6.966   1.198   0.628
 8463SOL    HW126288   6.990   1.122   0.688
 8463SOL    HW226289   7.028   1.199   0.549
 8464SOL     OW26290   0.232   4.599   5.255
 8464SOL    HW126291   0.135   4.579   5.268
 8464SOL    HW226292   0.243   4.669   5.184
 8465SOL     OW26293   3.246   2.286   0.988
 8465SOL    HW126294   3.304   2.323   0.916
 8465SOL    HW226295   3.270   2.328   1.076
 8466SOL     OW26296   5.736   6.627   5.128
 8466SOL    HW126297   5.831   6.597   5.114
 8466SOL    HW226298   5.681   6.603   5.048
 8467SOL     OW26299   3.950   0.762   1.023
 8467SOL    HW126300   3.921   0.847   1.066
 8467SOL    HW226301   4.002   0.708   1.089
 8468SOL     OW26302   4.525   2.779   0.304
 8468SOL    HW126303   4.618   2.770   0.267
 8468SOL    HW226304   4.521   2.859   0.364
 8469SOL     OW26305   2.571   1.642   5.794
 8469SOL    HW126306   2.626   1.720   5.766
 8469SOL    HW226307   2.476   1.657   5.767
 8470SOL     OW26308   0.960   5.047   6.829
 8470SOL    HW126309   0.986   4.958   6.792
 8470SOL    HW226310   1.040   5.108   6.830
 8471SOL     OW26311   3.918   0.437   5.799
 8471SOL    HW126312   3.929   0.477   5.709
 8471SOL    HW226313   4.006   0.403   5.832
 8472SOL     OW26314   5.926   0.651   5.233
 8472SOL    HW126315   5.954   0.555   5.242
 8472SOL    HW226316   5.964   0.689   5.149
 8473SOL     OW26317   6.193   5.550   0.786
 8473SOL    HW126318   6.113   5.550   0.846
 8473SOL    HW226319   6.264   5.492   0.825
 8474SOL     OW26320   3.593   3.592   1.837
 8474SOL    HW126321   3.548   3.655   1.901
 8474SOL    HW226322   3.565   3.498   1.859
 8475SOL     OW26323   0.052   2.567   3.176
 8475SOL    HW126324   0.032   2.469   3.176
 8475SOL    HW226325   6.996   2.618   3.178
 8476SOL     OW26326   6.906   1.763   0.972
 8476SOL    HW126327   6.925   1.666   0.953
 8476SOL    HW226328   6.923   1.817   0.889
 8477SOL     OW26329   4.331   6.603   2.853
 8477SOL    HW126330   4.232   6.598   2.847
 8477SOL    HW226331   4.364   6.537   2.920
 8478SOL     OW26332   1.117   0.829   5.512
 8478SOL    HW126333   1.021   0.846   5.489
 8478SOL    HW226334   1.167   0.916   5.515
 8479SOL     OW26335   1.567   3.745   0.979
 8479SOL    HW126336   1.644   3.801   1.009
 8479SOL    HW226337   1.485   3.773   1.030
 8480SOL     OW26338   5.136   3.434   6.946
 8480SOL    HW126339   5.156   3.455   0.012
 8480SOL    HW226340   5.211   3.467   6.888
 8481SOL     OW26341   4.639   2.257   4.944
 8481SOL    HW126342   4.727   2.263   4.896
 8481SOL    HW226343   4.582   2.334   4.917
 8482SOL     OW26344   5.165   0.353   2.367
 8482SOL    HW126345   5.187   0.321   2.275
 8482SOL    HW226346   5.090   0.299   2.404
 8483SOL     OW26347   3.138   5.736   2.984
 8483SOL    HW126348   3.077   5.797   3.033
 8483SOL    HW226349   3.105   5.723   2.890
 8484SOL     OW26350   6.532   6.385   4.188
 8484SOL    HW126351   6.499   6.292   4.172
 8484SOL    HW226352   6.632   6.384   4.197
 8485SOL     OW26353   3.753   2.810   0.091
 8485SOL    HW126354   3.843   2.772   0.071
 8485SOL    HW226355   3.683   2.762   0.038
 8486SOL     OW26356   2.268   1.400   2.489
 8486SOL    HW126357   2.361   1.430   2.469
 8486SOL    HW226358   2.253   1.310   2.448
 8487SOL     OW26359   5.980   2.532   6.147
 8487SOL    HW126360   5.934   2.493   6.227
 8487SOL    HW226361   5.918   2.595   6.101
 8488SOL     OW26362   5.634   6.443   2.055
 8488SOL    HW126363   5.662   6.372   1.990
 8488SOL    HW226364   5.623   6.529   2.006
 8489SOL     OW26365   6.178   1.301   1.859
 8489SOL    HW126366   6.270   1.319   1.894
 8489SOL    HW226367   6.178   1.309   1.759
 8490SOL     OW26368   3.020   6.837   5.553
 8490SOL    HW126369   3.001   6.777   5.631
 8490SOL    HW226370   3.098   6.801   5.502
 8491SOL     OW26371   1.736   6.324   2.364
 8491SOL    HW126372   1.655   6.283   2.322
 8491SOL    HW226373   1.730   6.318   2.464
 8492SOL     OW26374   5.750   4.330   4.703
 8492SOL    HW126375   5.669   4.382   4.732
 8492SOL    HW226376   5.822   4.341   4.771
 8493SOL     OW26377   1.971   2.337   6.107
 8493SOL    HW126378   1.888   2.296   6.145
 8493SOL    HW226379   2.049   2.311   6.163
 8494SOL     OW26380   4.374   5.652   1.809
 8494SOL    HW126381   4.389   5.715   1.733
 8494SOL    HW226382   4.284   5.668   1.849
 8495SOL     OW26383   0.052   4.931   1.444
 8495SOL    HW126384   0.138   4.880   1.436
 8495SOL    HW226385   0.000   4.922   1.359
 8496SOL     OW26386   0.123   1.349   2.787
 8496SOL    HW126387   0.212   1.331   2.746
 8496SOL    HW226388   0.111   1.448   2.798
 8497SOL     OW26389   0.146   1.583   3.442
 8497SOL    HW126390   0.109   1.575   3.349
 8497SOL    HW226391   0.074   1.615   3.504
 8498SOL     OW26392   6.815   6.958   3.072
 8498SOL    HW126393   6.751   7.023   3.031
 8498SOL    HW226394   6.772   6.867   3.076
 8499SOL     OW26395   1.392   3.554   0.151
 8499SOL    HW126396   1.374   3.581   0.056
 8499SOL    HW226397   1.312   3.575   0.207
 8500SOL     OW26398   1.882   6.078   6.006
 8500SOL    HW126399   1.969   6.037   5.980
 8500SOL    HW226400   1.807   6.017   5.980
 8501SOL     OW26401   0.350   2.738   6.030
 8501SOL    HW126402   0.315   2.666   5.970
 8501SOL    HW226403   0.410   2.799   5.977
 8502SOL     OW26404   0.544   2.929   1.631
 8502SOL    HW126405   0.483   2.996   1.673
 8502SOL    HW226406   0.491   2.849   1.603
 8503SOL     OW26407   0.746   5.592   4.892
 8503SOL    HW126408   0.691   5.535   4.952
 8503SOL    HW226409   0.709   5.686   4.892
 8504SOL     OW26410   1.968   5.460   2.120
 8504SOL    HW126411   1.923   5.371   2.113
 8504SOL    HW226412   2.011   5.483   2.032
 8505SOL     OW26413   6.630   3.402   2.989
 8505SOL    HW126414   6.533   3.424   2.976
 8505SOL    HW226415   6.684   3.450   2.920
 8506SOL     OW26416   1.317   1.621   6.705
 8506SOL    HW126417   1.275   1.698   6.753
 8506SOL    HW226418   1.398   1.590   6.756
 8507SOL     OW26419   3.507   6.914   5.377
 8507SOL    HW126420   3.464   6.838   5.328
 8507SOL    HW226421   3.447   6.946   5.450
 8508SOL     OW26422   4.511   1.863   5.529
 8508SOL    HW126423   4.431   1.922   5.522
 8508SOL    HW226424   4.574   1.884   5.454
 8509SOL     OW26425   5.448   0.522   3.088
 8509SOL    HW126426   5.416   0.600   3.140
 8509SOL    HW226427   5.493   0.554   3.004
 8510SOL     OW26428   5.987   4.092   2.881
 8510SOL    HW126429   5.970   4.024   2.809
 8510SOL    HW226430   6.085   4.096   2.901
 8511SOL     OW26431   6.212   3.437   2.601
 8511SOL    HW126432   6.250   3.525   2.575
 8511SOL    HW226433   6.184   3.440   2.697
 8512SOL     OW26434   3.199   0.851   2.813
 8512SOL    HW126435   3.127   0.878   2.876
 8512SOL    HW226436   3.235   0.931   2.766
 8513SOL     OW26437   0.056   5.404   0.833
 8513SOL    HW126438   7.022   5.420   0.757
 8513SOL    HW226439   0.066   5.488   0.886
 8514SOL     OW26440   2.469   0.524   4.130
 8514SOL    HW126441   2.556   0.507   4.084
 8514SOL    HW226442   2.436   0.615   4.107
 8515SOL     OW26443   5.091   2.564   1.201
 8515SOL    HW126444   4.999   2.537   1.175
 8515SOL    HW226445   5.147   2.482   1.216
 8516SOL     OW26446   0.254   1.789   2.386
 8516SOL    HW126447   0.219   1.840   2.306
 8516SOL    HW226448   0.314   1.849   2.439
 8517SOL     OW26449   0.674   3.008   5.276
 8517SOL    HW126450   0.664   2.982   5.372
 8517SOL    HW226451   0.597   3.065   5.249
 8518SOL     OW26452   4.662   4.269   6.572
 8518SOL    HW126453   4.729   4.329   6.529
 8518SOL    HW226454   4.572   4.314   6.573
 8519SOL     OW26455   1.532   5.515   1.993
 8519SOL    HW126456   1.558   5.610   1.981
 8519SOL    HW226457   1.558   5.462   1.912
 8520SOL     OW26458   3.849   0.975   0.624
 8520SOL    HW126459   3.901   1.025   0.555
 8520SOL    HW226460   3.755   0.964   0.593
 8521SOL     OW26461   1.719   5.367   6.147
 8521SOL    HW126462   1.702   5.465   6.135
 8521SOL    HW226463   1.812   5.346   6.118
 8522SOL     OW26464   1.076   5.611   2.118
 8522SOL    HW126465   1.017   5.531   2.124
 8522SOL    HW226466   1.151   5.593   2.054
 8523SOL     OW26467   3.164   6.388   6.929
 8523SOL    HW126468   3.146   6.382   6.831
 8523SOL    HW226469   3.250   6.437   6.945
 8524SOL     OW26470   1.221   3.127   4.526
 8524SOL    HW126471   1.298   3.065   4.510
 8524SOL    HW226472   1.224   3.161   4.620
 8525SOL     OW26473   5.987   4.256   3.620
 8525SOL    HW126474   5.900   4.301   3.603
 8525SOL    HW226475   6.050   4.320   3.663
 8526SOL     OW26476   2.468   4.069   0.757
 8526SOL    HW126477   2.543   4.059   0.823
 8526SOL    HW226478   2.381   4.054   0.803
 8527SOL     OW26479   3.478   0.315   5.094
 8527SOL    HW126480   3.575   0.290   5.099
 8527SOL    HW226481   3.433   0.260   5.024
 8528SOL     OW26482   5.134   3.218   6.217
 8528SOL    HW126483   5.064   3.152   6.190
 8528SOL    HW226484   5.092   3.308   6.229
 8529SOL     OW26485   1.253   0.008   6.810
 8529SOL    HW126486   1.186   6.981   6.761
 8529SOL    HW226487   1.290   6.985   6.886
 8530SOL     OW26488   1.080   4.959   6.152
 8530SOL    HW126489   1.144   5.022   6.109
 8530SOL    HW226490   1.087   4.967   6.251
 8531SOL     OW26491   5.888   4.326   2.786
 8531SOL    HW126492   5.904   4.231   2.813
 8531SOL    HW226493   5.888   4.333   2.687
 8532SOL     OW26494   4.217   5.043   5.095
 8532SOL    HW126495   4.158   5.094   5.158
 8532SOL    HW226496   4.162   4.984   5.037
 8533SOL     OW26497   1.862   0.668   5.431
 8533SOL    HW126498   1.846   0.590   5.492
 8533SOL    HW226499   1.821   0.750   5.469
 8534SOL     OW26500   0.069   4.071   3.447
 8534SOL    HW126501   0.101   4.143   3.509
 8534SOL    HW226502   7.028   4.016   3.493
 8535SOL     OW26503   0.607   2.176   4.746
 8535SOL    HW126504   0.633   2.108   4.677
 8535SOL    HW226505   0.686   2.232   4.769
 8536SOL     OW26506   6.226   1.862   4.937
 8536SOL    HW126507   6.275   1.929   4.993
 8536SOL    HW226508   6.158   1.815   4.994
 8537SOL     OW26509   6.260   1.737   0.645
 8537SOL    HW126510   6.337   1.680   0.615
 8537SOL    HW226511   6.293   1.805   0.711
 8538SOL     OW26512   0.279   0.710   4.988
 8538SOL    HW126513   0.351   0.762   4.943
 8538SOL    HW226514   0.306   0.691   5.082
 8539SOL     OW26515   6.188   2.134   2.294
 8539SOL    HW126516   6.165   2.184   2.211
 8539SOL    HW226517   6.187   2.036   2.276
 8540SOL     OW26518   3.546   1.612   0.689
 8540SOL    HW126519   3.558   1.588   0.785
 8540SOL    HW226520   3.451   1.594   0.662
 8541SOL     OW26521   2.511   1.845   4.787
 8541SOL    HW126522   2.465   1.933   4.801
 8541SOL    HW226523   2.447   1.770   4.804
 8542SOL     OW26524   2.857   4.580   6.882
 8542SOL    HW126525   2.897   4.491   6.857
 8542SOL    HW226526   2.758   4.570   6.893
 8543SOL     OW26527   2.705   1.713   5.468
 8543SOL    HW126528   2.716   1.763   5.554
 8543SOL    HW226529   2.781   1.649   5.456
 8544SOL     OW26530   5.435   3.141   4.778
 8544SOL    HW126531   5.464   3.122   4.872
 8544SOL    HW226532   5.438   3.239   4.761
 8545SOL     OW26533   3.319   6.384   4.631
 8545SOL    HW126534   3.331   6.285   4.632
 8545SOL    HW226535   3.281   6.413   4.719
 8546SOL     OW26536   6.079   0.387   1.152
 8546SOL    HW126537   6.077   0.366   1.249
 8546SOL    HW226538   6.045   0.308   1.100
 8547SOL     OW26539   0.202   0.574   5.417
 8547SOL    HW126540   0.173   0.497   5.474
 8547SOL    HW226541   0.126   0.600   5.357
 8548SOL     OW26542   0.422   3.089   5.172
 8548SOL    HW126543   0.396   3.184   5.156
 8548SOL    HW226544   0.372   3.030   5.108
 8549SOL     OW26545   0.635   2.605   4.057
 8549SOL    HW126546   0.581   2.689   4.057
 8549SOL    HW226547   0.579   2.530   4.021
 8550SOL     OW26548   0.971   3.493   6.161
 8550SOL    HW126549   1.002   3.473   6.067
 8550SOL    HW226550   1.010   3.425   6.223
 8551SOL     OW26551   3.076   2.848   6.791
 8551SOL    HW126552   3.150   2.830   6.726
 8551SOL    HW226553   3.033   2.935   6.770
 8552SOL     OW26554   2.911   0.430   2.370
 8552SOL    HW126555   2.831   0.481   2.403
 8552SOL    HW226556   2.970   0.407   2.448
 8553SOL     OW26557   4.393   4.380   0.220
 8553SOL    HW126558   4.454   4.448   0.262
 8553SOL    HW226559   4.298   4.404   0.242
 8554SOL     OW26560   0.839   6.014   1.803
 8554SOL    HW126561   0.742   6.020   1.827
 8554SOL    HW226562   0.850   5.958   1.721
 8555SOL     OW26563   4.087   1.805   3.330
 8555SOL    HW126564   4.115   1.726   3.383
 8555SOL    HW226565   4.029   1.776   3.255
 8556SOL     OW26566   1.811   6.177   5.729
 8556SOL    HW126567   1.837   6.252   5.790
 8556SOL    HW226568   1.778   6.100   5.783
 8557SOL     OW26569   6.445   1.116   1.180
 8557SOL    HW126570   6.538   1.107   1.144
 8557SOL    HW226571   6.449   1.121   1.280
 8558SOL     OW26572   1.992   5.617   3.248
 8558SOL    HW126573   1.923   5.556   3.208
 8558SOL    HW226574   2.035   5.670   3.174
 8559SOL     OW26575   1.668   6.290   2.641
 8559SOL    HW126576   1.729   6.236   2.699
 8559SOL    HW226577   1.661   6.383   2.677
 8560SOL     OW26578   0.808   5.749   1.435
 8560SOL    HW126579   0.807   5.830   1.376
 8560SOL    HW226580   0.840   5.670   1.382
 8561SOL     OW26581   3.925   6.726   3.704
 8561SOL    HW126582   3.950   6.776   3.621
 8561SOL    HW226583   3.996   6.658   3.724
 8562SOL     OW26584   3.867   0.010   0.081
 8562SOL    HW126585   3.934   0.004   0.007
 8562SOL    HW226586   3.848   0.106   0.101
 8563SOL     OW26587   0.922   4.705   2.091
 8563SOL    HW126588   0.837   4.662   2.118
 8563SOL    HW226589   0.978   4.640   2.040
 8564SOL     OW26590   3.493   6.238   5.803
 8564SOL    HW126591   3.418   6.205   5.745
 8564SOL    HW226592   3.506   6.336   5.789
 8565SOL     OW26593   3.839   5.509   1.768
 8565SOL    HW126594   3.855   5.505   1.866
 8565SOL    HW226595   3.917   5.468   1.720
 8566SOL     OW26596   2.238   0.584   1.999
 8566SOL    HW126597   2.304   0.510   1.989
 8566SOL    HW226598   2.287   0.670   2.014
 8567SOL     OW26599   1.361   2.009   1.889
 8567SOL    HW126600   1.344   2.106   1.906
 8567SOL    HW226601   1.437   1.978   1.946
 8568SOL     OW26602   5.861   1.177   0.750
 8568SOL    HW126603   5.804   1.256   0.772
 8568SOL    HW226604   5.882   1.178   0.652
 8569SOL     OW26605   5.073   1.504   6.084
 8569SOL    HW126606   4.999   1.571   6.098
 8569SOL    HW226607   5.070   1.435   6.157
 8570SOL     OW26608   1.283   1.862   4.318
 8570SOL    HW126609   1.193   1.826   4.345
 8570SOL    HW226610   1.311   1.934   4.382
 8571SOL     OW26611   0.788   0.215   4.660
 8571SOL    HW126612   0.867   0.264   4.623
 8571SOL    HW226613   0.764   0.254   4.749
 8572SOL     OW26614   1.891   4.098   5.090
 8572SOL    HW126615   1.822   4.058   5.151
 8572SOL    HW226616   1.859   4.187   5.059
 8573SOL     OW26617   2.932   5.694   6.233
 8573SOL    HW126618   2.952   5.757   6.308
 8573SOL    HW226619   2.840   5.712   6.197
 8574SOL     OW26620   6.110   6.608   6.160
 8574SOL    HW126621   6.039   6.591   6.092
 8574SOL    HW226622   6.090   6.692   6.210
 8575SOL     OW26623   3.247   1.475   3.314
 8575SOL    HW126624   3.320   1.542   3.300
 8575SOL    HW226625   3.198   1.497   3.399
 8576SOL     OW26626   1.913   4.817   3.783
 8576SOL    HW126627   1.819   4.848   3.789
 8576SOL    HW226628   1.917   4.728   3.737
 8577SOL     OW26629   1.524   0.145   6.193
 8577SOL    HW126630   1.525   0.234   6.149
 8577SOL    HW226631   1.434   0.130   6.235
 8578SOL     OW26632   6.738   5.249   5.784
 8578SOL    HW126633   6.736   5.300   5.870
 8578SOL    HW226634   6.832   5.220   5.765
 8579SOL     OW26635   1.240   5.876   1.974
 8579SOL    HW126636   1.278   5.956   1.927
 8579SOL    HW226637   1.166   5.837   1.920
 8580SOL     OW26638   1.920   5.716   1.025
 8580SOL    HW126639   1.997   5.680   1.077
 8580SOL    HW226640   1.862   5.772   1.085
 8581SOL     OW26641   4.049   4.682   1.680
 8581SOL    HW126642   4.135   4.650   1.641
 8581SOL    HW226643   3.983   4.700   1.607
 8582SOL     OW26644   4.455   4.623   5.452
 8582SOL    HW126645   4.492   4.601   5.362
 8582SOL    HW226646   4.447   4.722   5.462
 8583SOL     OW26647   3.208   6.834   2.792
 8583SOL    HW126648   3.225   6.756   2.852
 8583SOL    HW226649   3.112   6.862   2.800
 8584SOL     OW26650   0.267   0.093   5.221
 8584SOL    HW126651   0.328   0.054   5.290
 8584SOL    HW226652   0.308   0.085   5.131
 8585SOL     OW26653   6.164   1.151   0.766
 8585SOL    HW126654   6.216   1.159   0.851
 8585SOL    HW226655   6.066   1.159   0.785
 8586SOL     OW26656   4.114   6.825   1.641
 8586SOL    HW126657   4.093   6.884   1.563
 8586SOL    HW226658   4.166   6.877   1.709
 8587SOL     OW26659   0.995   1.193   5.052
 8587SOL    HW126660   0.997   1.291   5.073
 8587SOL    HW226661   1.069   1.148   5.102
 8588SOL     OW26662   4.980   0.957   0.112
 8588SOL    HW126663   4.892   0.935   0.070
 8588SOL    HW226664   5.049   0.967   0.041
 8589SOL     OW26665   6.559   2.600   5.443
 8589SOL    HW126666   6.591   2.521   5.496
 8589SOL    HW226667   6.477   2.574   5.391
 8590SOL     OW26668   0.578   1.056   2.692
 8590SOL    HW126669   0.498   0.997   2.703
 8590SOL    HW226670   0.655   1.018   2.743
 8591SOL     OW26671   0.288   4.127   0.466
 8591SOL    HW126672   0.246   4.056   0.410
 8591SOL    HW226673   0.354   4.086   0.529
 8592SOL     OW26674   0.253   2.502   6.862
 8592SOL    HW126675   0.195   2.583   6.870
 8592SOL    HW226676   0.312   2.495   6.943
 8593SOL     OW26677   3.066   1.208   6.914
 8593SOL    HW126678   3.160   1.176   6.915
 8593SOL    HW226679   3.047   1.253   6.827
 8594SOL     OW26680   6.208   2.584   5.987
 8594SOL    HW126681   6.132   2.620   6.041
 8594SOL    HW226682   6.276   2.542   6.047
 8595SOL     OW26683   6.215   1.025   3.326
 8595SOL    HW126684   6.261   0.991   3.408
 8595SOL    HW226685   6.168   1.111   3.348
 8596SOL     OW26686   1.615   4.618   3.012
 8596SOL    HW126687   1.655   4.692   3.066
 8596SOL    HW226688   1.655   4.531   3.041
 8597SOL     OW26689   5.587   2.060   1.199
 8597SOL    HW126690   5.600   2.034   1.104
 8597SOL    HW226691   5.663   2.026   1.254
 8598SOL     OW26692   5.473   0.012   5.726
 8598SOL    HW126693   5.473   6.961   5.785
 8598SOL    HW226694   5.509   0.090   5.778
 8599SOL     OW26695   1.224   2.506   4.489
 8599SOL    HW126696   1.297   2.453   4.532
 8599SOL    HW226697   1.262   2.590   4.450
 8600SOL     OW26698   5.242   3.543   0.148
 8600SOL    HW126699   5.320   3.584   0.195
 8600SOL    HW226700   5.172   3.518   0.215
 8601SOL     OW26701   0.332   1.921   3.646
 8601SOL    HW126702   0.419   1.947   3.688
 8601SOL    HW226703   0.257   1.946   3.708
 8602SOL     OW26704   2.476   6.362   2.172
 8602SOL    HW126705   2.490   6.459   2.156
 8602SOL    HW226706   2.379   6.339   2.159
 8603SOL     OW26707   5.708   0.036   0.023
 8603SOL    HW126708   5.795   0.018   0.069
 8603SOL    HW226709   5.642   6.994   0.046
 8604SOL     OW26710   0.935   2.640   5.996
 8604SOL    HW126711   0.838   2.649   5.974
 8604SOL    HW226712   0.985   2.717   5.958
 8605SOL     OW26713   1.235   5.294   3.649
 8605SOL    HW126714   1.139   5.309   3.627
 8605SOL    HW226715   1.244   5.269   3.745
 8606SOL     OW26716   2.133   2.097   7.008
 8606SOL    HW126717   2.196   2.074   6.934
 8606SOL    HW226718   2.175   2.165   0.038
 8607SOL     OW26719   2.705   4.328   6.765
 8607SOL    HW126720   2.714   4.237   6.807
 8607SOL    HW226721   2.650   4.321   6.682
 8608SOL     OW26722   2.052   4.517   2.261
 8608SOL    HW126723   2.025   4.498   2.356
 8608SOL    HW226724   2.078   4.613   2.253
 8609SOL     OW26725   5.306   0.349   3.693
 8609SOL    HW126726   5.233   0.285   3.718
 8609SOL    HW226727   5.368   0.305   3.628
 8610SOL     OW26728   6.597   0.819   3.209
 8610SOL    HW126729   6.579   0.917   3.205
 8610SOL    HW226730   6.663   0.795   3.139
 8611SOL     OW26731   3.072   1.035   4.187
 8611SOL    HW126732   3.126   0.962   4.229
 8611SOL    HW226733   3.132   1.098   4.139
 8612SOL     OW26734   2.567   3.492   1.441
 8612SOL    HW126735   2.569   3.484   1.541
 8612SOL    HW226736   2.660   3.501   1.406
 8613SOL     OW26737   3.282   2.027   1.466
 8613SOL    HW126738   3.186   2.036   1.492
 8613SOL    HW226739   3.293   1.947   1.407
 8614SOL     OW26740   1.612   2.896   3.345
 8614SOL    HW126741   1.604   2.840   3.262
 8614SOL    HW226742   1.621   2.836   3.424
 8615SOL     OW26743   4.676   1.962   5.344
 8615SOL    HW126744   4.654   1.972   5.247
 8615SOL    HW226745   4.723   2.043   5.377
 8616SOL     OW26746   2.693   4.694   1.749
 8616SOL    HW126747   2.654   4.776   1.792
 8616SOL    HW226748   2.754   4.648   1.813
 8617SOL     OW26749   6.100   1.376   3.835
 8617SOL    HW126750   6.023   1.437   3.851
 8617SOL    HW226751   6.099   1.302   3.903
 8618SOL     OW26752   6.295   4.381   0.961
 8618SOL    HW126753   6.224   4.342   1.021
 8618SOL    HW226754   6.357   4.437   1.016
 8619SOL     OW26755   3.862   5.160   3.226
 8619SOL    HW126756   3.838   5.249   3.266
 8619SOL    HW226757   3.960   5.144   3.235
 8620SOL     OW26758   2.033   6.568   4.636
 8620SOL    HW126759   2.070   6.568   4.729
 8620SOL    HW226760   2.097   6.521   4.575
 8621SOL     OW26761   4.988   2.848   2.095
 8621SOL    HW126762   4.929   2.912   2.144
 8621SOL    HW226763   4.996   2.876   2.000
 8622SOL     OW26764   5.259   4.370   1.906
 8622SOL    HW126765   5.161   4.361   1.921
 8622SOL    HW226766   5.302   4.411   1.987
 8623SOL     OW26767   0.596   4.300   4.892
 8623SOL    HW126768   0.582   4.315   4.794
 8623SOL    HW226769   0.521   4.342   4.943
 8624SOL     OW26770   2.955   3.912   5.935
 8624SOL    HW126771   2.933   3.906   5.838
 8624SOL    HW226772   2.888   3.970   5.981
 8625SOL     OW26773   4.644   0.341   5.350
 8625SOL    HW126774   4.607   0.313   5.439
 8625SOL    HW226775   4.735   0.301   5.339
 8626SOL     OW26776   3.781   3.375   0.060
 8626SOL    HW126777   3.819   3.295   0.012
 8626SOL    HW226778   3.691   3.397   0.020
 8627SOL     OW26779   2.722   1.908   1.927
 8627SOL    HW126780   2.775   1.921   2.011
 8627SOL    HW226781   2.641   1.852   1.946
 8628SOL     OW26782   6.457   6.815   6.700
 8628SOL    HW126783   6.489   6.896   6.750
 8628SOL    HW226784   6.432   6.744   6.765
 8629SOL     OW26785   1.717   6.527   5.304
 8629SOL    HW126786   1.798   6.584   5.294
 8629SOL    HW226787   1.745   6.433   5.323
 8630SOL     OW26788   4.950   3.498   3.960
 8630SOL    HW126789   4.939   3.580   3.903
 8630SOL    HW226790   4.925   3.417   3.907
 8631SOL     OW26791   1.183   5.809   6.179
 8631SOL    HW126792   1.105   5.768   6.227
 8631SOL    HW226793   1.160   5.903   6.153
 8632SOL     OW26794   3.971   4.450   5.407
 8632SOL    HW126795   3.936   4.429   5.499
 8632SOL    HW226796   3.940   4.379   5.343
 8633SOL     OW26797   5.567   2.862   5.768
 8633SOL    HW126798   5.529   2.913   5.691
 8633SOL    HW226799   5.593   2.927   5.840
 8634SOL     OW26800   5.087   4.098   6.920
 8634SOL    HW126801   5.005   4.065   6.966
 8634SOL    HW226802   5.167   4.082   6.978
 8635SOL     OW26803   5.547   2.657   6.812
 8635SOL    HW126804   5.641   2.670   6.844
 8635SOL    HW226805   5.535   2.701   6.723
 8636SOL     OW26806   5.218   6.256   1.110
 8636SOL    HW126807   5.163   6.176   1.087
 8636SOL    HW226808   5.228   6.261   1.210
 8637SOL     OW26809   1.924   1.571   6.662
 8637SOL    HW126810   1.856   1.624   6.611
 8637SOL    HW226811   1.922   1.599   6.758
 8638SOL     OW26812   4.149   2.343   5.345
 8638SOL    HW126813   4.150   2.430   5.296
 8638SOL    HW226814   4.152   2.361   5.444
 8639SOL     OW26815   4.465   3.471   6.517
 8639SOL    HW126816   4.389   3.405   6.517
 8639SOL    HW226817   4.523   3.453   6.596
 8640SOL     OW26818   4.009   3.621   1.025
 8640SOL    HW126819   4.058   3.581   0.947
 8640SOL    HW226820   4.068   3.686   1.072
 8641SOL     OW26821   3.819   5.058   4.357
 8641SOL    HW126822   3.758   5.038   4.281
 8641SOL    HW226823   3.807   5.153   4.385
 8642SOL     OW26824   0.888   0.069   3.364
 8642SOL    HW126825   0.790   0.052   3.372
 8642SOL    HW226826   0.933   0.045   3.450
 8643SOL     OW26827   1.982   0.360   0.099
 8643SOL    HW126828   1.890   0.326   0.123
 8643SOL    HW226829   1.980   0.460   0.094
 8644SOL     OW26830   5.681   2.932   6.144
 8644SOL    HW126831   5.640   3.022   6.127
 8644SOL    HW226832   5.619   2.878   6.202
 8645SOL     OW26833   4.419   4.814   1.659
 8645SOL    HW126834   4.508   4.815   1.613
 8645SOL    HW226835   4.371   4.899   1.637
 8646SOL     OW26836   0.794   1.786   6.787
 8646SOL    HW126837   0.839   1.727   6.719
 8646SOL    HW226838   0.861   1.816   6.855
 8647SOL     OW26839   2.406   5.288   0.548
 8647SOL    HW126840   2.484   5.263   0.605
 8647SOL    HW226841   2.377   5.208   0.495
 8648SOL     OW26842   6.399   0.095   0.490
 8648SOL    HW126843   6.381   7.027   0.488
 8648SOL    HW226844   6.452   0.118   0.572
 8649SOL     OW26845   5.913   5.934   0.655
 8649SOL    HW126846   5.862   6.020   0.662
 8649SOL    HW226847   6.007   5.953   0.628
 8650SOL     OW26848   1.782   6.627   4.937
 8650SOL    HW126849   1.711   6.671   4.992
 8650SOL    HW226850   1.740   6.569   4.868
 8651SOL     OW26851   4.024   1.661   1.062
 8651SOL    HW126852   3.948   1.726   1.073
 8651SOL    HW226853   3.987   1.568   1.060
 8652SOL     OW26854   0.872   4.880   3.363
 8652SOL    HW126855   0.830   4.891   3.452
 8652SOL    HW226856   0.841   4.953   3.302
 8653SOL     OW26857   6.712   1.253   6.136
 8653SOL    HW126858   6.630   1.292   6.177
 8653SOL    HW226859   6.788   1.317   6.146
 8654SOL     OW26860   0.425   4.954   1.465
 8654SOL    HW126861   0.471   4.874   1.427
 8654SOL    HW226862   0.410   4.941   1.562
 8655SOL     OW26863   5.703   0.131   4.281
 8655SOL    HW126864   5.792   0.090   4.301
 8655SOL    HW226865   5.636   0.059   4.263
 8656SOL     OW26866   6.076   1.387   2.085
 8656SOL    HW126867   6.098   1.483   2.066
 8656SOL    HW226868   6.109   1.331   2.009
 8657SOL     OW26869   5.455   5.988   0.336
 8657SOL    HW126870   5.454   5.949   0.429
 8657SOL    HW226871   5.526   5.942   0.282
 8658SOL     OW26872   6.442   5.668   6.934
 8658SOL    HW126873   6.377   5.689   7.006
 8658SOL    HW226874   6.465   5.571   6.936
 8659SOL     OW26875   4.919   2.102   2.896
 8659SOL    HW126876   4.999   2.149   2.935
 8659SOL    HW226877   4.898   2.140   2.807
 8660SOL     OW26878   7.000   2.983   2.318
 8660SOL    HW126879   0.051   2.937   2.353
 8660SOL    HW226880   6.944   3.016   2.394
 8661SOL     OW26881   6.247   4.093   1.903
 8661SOL    HW126882   6.308   4.047   1.967
 8661SOL    HW226883   6.302   4.145   1.837
 8662SOL     OW26884   3.939   5.858   2.221
 8662SOL    HW126885   3.890   5.927   2.167
 8662SOL    HW226886   4.038   5.875   2.214
 8663SOL     OW26887   2.836   5.646   2.375
 8663SOL    HW126888   2.884   5.731   2.398
 8663SOL    HW226889   2.795   5.654   2.284
 8664SOL     OW26890   2.444   5.083   1.903
 8664SOL    HW126891   2.361   5.060   1.953
 8664SOL    HW226892   2.496   5.000   1.885
 8665SOL     OW26893   6.321   5.531   4.501
 8665SOL    HW126894   6.381   5.494   4.572
 8665SOL    HW226895   6.225   5.516   4.526
 8666SOL     OW26896   5.539   0.319   4.134
 8666SOL    HW126897   5.596   0.253   4.182
 8666SOL    HW226898   5.467   0.351   4.195
 8667SOL     OW26899   4.920   1.718   4.236
 8667SOL    HW126900   4.856   1.646   4.265
 8667SOL    HW226901   5.013   1.683   4.241
 8668SOL     OW26902   5.386   3.399   4.680
 8668SOL    HW126903   5.296   3.409   4.639
 8668SOL    HW226904   5.456   3.401   4.609
 8669SOL     OW26905   0.634   6.225   6.359
 8669SOL    HW126906   0.644   6.232   6.458
 8669SOL    HW226907   0.718   6.257   6.314
 8670SOL     OW26908   4.527   5.212   6.262
 8670SOL    HW126909   4.510   5.310   6.277
 8670SOL    HW226910   4.522   5.164   6.350
 8671SOL     OW26911   0.445   1.708   2.165
 8671SOL    HW126912   0.400   1.627   2.127
 8671SOL    HW226913   0.427   1.714   2.263
 8672SOL     OW26914   0.635   0.010   3.412
 8672SOL    HW126915   0.645   6.996   3.502
 8672SOL    HW226916   0.572   6.986   3.356
 8673SOL     OW26917   6.532   1.693   0.093
 8673SOL    HW126918   6.472   1.616   0.113
 8673SOL    HW226919   6.526   1.715   7.025
 8674SOL     OW26920   6.349   4.956   2.875
 8674SOL    HW126921   6.369   4.906   2.959
 8674SOL    HW226922   6.386   5.049   2.883
 8675SOL     OW26923   4.540   1.036   5.100
 8675SOL    HW126924   4.586   1.119   5.069
 8675SOL    HW226925   4.523   1.042   5.198
 8676SOL     OW26926   4.903   0.133   1.978
 8676SOL    HW126927   4.818   0.136   2.030
 8676SOL    HW226928   4.931   0.037   1.965
 8677SOL     OW26929   1.500   5.684   5.458
 8677SOL    HW126930   1.551   5.656   5.376
 8677SOL    HW226931   1.402   5.683   5.437
 8678SOL     OW26932   1.108   0.401   0.920
 8678SOL    HW126933   1.085   0.475   0.983
 8678SOL    HW226934   1.064   0.418   0.831
 8679SOL     OW26935   1.618   1.081   3.516
 8679SOL    HW126936   1.624   1.179   3.499
 8679SOL    HW226937   1.573   1.066   3.605
 8680SOL     OW26938   6.430   2.833   6.873
 8680SOL    HW126939   6.438   2.932   6.883
 8680SOL    HW226940   6.380   2.796   6.952
 8681SOL     OW26941   4.845   5.596   1.556
 8681SOL    HW126942   4.853   5.691   1.587
 8681SOL    HW226943   4.750   5.566   1.563
 8682SOL     OW26944   6.798   0.565   1.437
 8682SOL    HW126945   6.824   0.553   1.533
 8682SOL    HW226946   6.810   0.660   1.411
 8683SOL     OW26947   1.591   2.508   5.465
 8683SOL    HW126948   1.517   2.441   5.463
 8683SOL    HW226949   1.598   2.552   5.376
 8684SOL     OW26950   6.651   2.820   4.676
 8684SOL    HW126951   6.577   2.846   4.738
 8684SOL    HW226952   6.639   2.724   4.649
 8685SOL     OW26953   5.455   3.276   6.522
 8685SOL    HW126954   5.538   3.219   6.526
 8685SOL    HW226955   5.382   3.232   6.574
 8686SOL     OW26956   6.354   0.259   1.557
 8686SOL    HW126957   6.401   0.339   1.520
 8686SOL    HW226958   6.345   0.268   1.656
 8687SOL     OW26959   5.776   5.301   2.992
 8687SOL    HW126960   5.686   5.315   3.034
 8687SOL    HW226961   5.810   5.210   3.015
 8688SOL     OW26962   1.288   3.865   6.675
 8688SOL    HW126963   1.258   3.904   6.588
 8688SOL    HW226964   1.388   3.870   6.681
 8689SOL     OW26965   4.293   3.148   0.037
 8689SOL    HW126966   4.298   3.238   7.023
 8689SOL    HW226967   4.335   3.080   7.007
 8690SOL     OW26968   0.790   3.291   2.823
 8690SOL    HW126969   0.703   3.262   2.783
 8690SOL    HW226970   0.857   3.217   2.815
 8691SOL     OW26971   3.325   2.148   5.588
 8691SOL    HW126972   3.348   2.051   5.580
 8691SOL    HW226973   3.226   2.159   5.587
 8692SOL     OW26974   3.625   0.920   5.067
 8692SOL    HW126975   3.687   0.938   4.991
 8692SOL    HW226976   3.555   0.991   5.070
 8693SOL     OW26977   6.643   0.603   6.446
 8693SOL    HW126978   6.683   0.528   6.498
 8693SOL    HW226979   6.544   0.598   6.450
 8694SOL     OW26980   5.865   1.779   4.748
 8694SOL    HW126981   5.842   1.685   4.723
 8694SOL    HW226982   5.865   1.788   4.847
 8695SOL     OW26983   3.872   3.234   6.452
 8695SOL    HW126984   3.833   3.280   6.532
 8695SOL    HW226985   3.875   3.298   6.375
 8696SOL     OW26986   3.097   5.928   5.539
 8696SOL    HW126987   3.104   5.862   5.615
 8696SOL    HW226988   3.023   5.899   5.478
 8697SOL     OW26989   0.351   4.103   6.135
 8697SOL    HW126990   0.325   4.155   6.054
 8697SOL    HW226991   0.275   4.043   6.161
 8698SOL     OW26992   4.845   6.447   5.241
 8698SOL    HW126993   4.798   6.495   5.166
 8698SOL    HW226994   4.927   6.498   5.267
 8699SOL     OW26995   1.744   3.148   5.549
 8699SOL    HW126996   1.831   3.145   5.599
 8699SOL    HW226997   1.762   3.159   5.452
 8700SOL     OW26998   0.978   0.723   4.958
 8700SOL    HW126999   0.909   0.660   4.995
 8700SOL    HW227000   1.056   0.727   5.020
 8701SOL     OW27001   1.468   1.228   0.175
 8701SOL    HW127002   1.467   1.199   0.080
 8701SOL    HW227003   1.462   1.328   0.180
 8702SOL     OW27004   5.287   5.043   1.883
 8702SOL    HW127005   5.304   5.125   1.937
 8702SOL    HW227006   5.226   5.066   1.807
 8703SOL     OW27007   2.930   4.812   6.970
 8703SOL    HW127008   2.903   4.735   6.913
 8703SOL    HW227009   2.867   4.889   6.953
 8704SOL     OW27010   6.188   4.298   3.391
 8704SOL    HW127011   6.117   4.266   3.454
 8704SOL    HW227012   6.229   4.382   3.427
 8705SOL     OW27013   4.175   1.833   6.316
 8705SOL    HW127014   4.085   1.853   6.276
 8705SOL    HW227015   4.185   1.734   6.327
 8706SOL     OW27016   5.295   1.997   0.217
 8706SOL    HW127017   5.271   1.918   0.273
 8706SOL    HW227018   5.336   2.068   0.274
 8707SOL     OW27019   1.107   2.554   3.923
 8707SOL    HW127020   1.020   2.563   3.874
 8707SOL    HW227021   1.099   2.481   3.991
 8708SOL     OW27022   4.039   1.534   3.907
 8708SOL    HW127023   3.989   1.539   3.821
 8708SOL    HW227024   4.126   1.485   3.892
 8709SOL     OW27025   0.022   6.659   6.504
 8709SOL    HW127026   7.023   6.725   6.434
 8709SOL    HW227027   6.994   6.669   6.585
 8710SOL     OW27028   2.453   2.654   3.424
 8710SOL    HW127029   2.543   2.636   3.384
 8710SOL    HW227030   2.464   2.695   3.514
 8711SOL     OW27031   1.586   6.864   3.029
 8711SOL    HW127032   1.629   6.922   2.960
 8711SOL    HW227033   1.490   6.848   3.004
 8712SOL     OW27034   3.434   1.625   4.438
 8712SOL    HW127035   3.457   1.529   4.418
 8712SOL    HW227036   3.503   1.685   4.397
 8713SOL     OW27037   6.670   4.193   1.702
 8713SOL    HW127038   6.693   4.222   1.795
 8713SOL    HW227039   6.716   4.106   1.682
 8714SOL     OW27040   1.147   0.144   6.113
 8714SOL    HW127041   1.193   0.200   6.044
 8714SOL    HW227042   1.048   0.158   6.107
 8715SOL     OW27043   4.198   1.595   0.561
 8715SOL    HW127044   4.182   1.686   0.523
 8715SOL    HW227045   4.163   1.591   0.654
 8716SOL     OW27046   0.739   6.635   0.924
 8716SOL    HW127047   0.821   6.579   0.934
 8716SOL    HW227048   0.677   6.592   0.859
 8717SOL     OW27049   2.554   3.498   5.569
 8717SOL    HW127050   2.619   3.552   5.516
 8717SOL    HW227051   2.516   3.425   5.512
 8718SOL     OW27052   1.704   2.563   5.812
 8718SOL    HW127053   1.753   2.625   5.750
 8718SOL    HW227054   1.606   2.577   5.802
 8719SOL     OW27055   3.841   0.792   0.349
 8719SOL    HW127056   3.875   0.880   0.382
 8719SOL    HW227057   3.837   0.727   0.425
 8720SOL     OW27058   0.405   6.582   5.923
 8720SOL    HW127059   0.483   6.571   5.862
 8720SOL    HW227060   0.433   6.561   6.017
 8721SOL     OW27061   6.265   0.689   0.168
 8721SOL    HW127062   6.284   0.596   0.137
 8721SOL    HW227063   6.313   0.706   0.255
 8722SOL     OW27064   3.784   1.331   0.350
 8722SOL    HW127065   3.802   1.426   0.323
 8722SOL    HW227066   3.751   1.329   0.444
 8723SOL     OW27067   5.946   0.242   2.594
 8723SOL    HW127068   5.925   0.155   2.548
 8723SOL    HW227069   5.868   0.268   2.651
 8724SOL     OW27070   5.863   0.276   3.933
 8724SOL    HW127071   5.851   0.208   4.005
 8724SOL    HW227072   5.798   0.351   3.946
 8725SOL     OW27073   0.603   6.159   5.342
 8725SOL    HW127074   0.584   6.231   5.409
 8725SOL    HW227075   0.700   6.134   5.345
 8726SOL     OW27076   6.701   0.840   0.970
 8726SOL    HW127077   6.693   0.920   1.029
 8726SOL    HW227078   6.625   0.840   0.904
 8727SOL     OW27079   5.879   6.548   0.318
 8727SOL    HW127080   5.946   6.580   0.250
 8727SOL    HW227081   5.928   6.512   0.398
 8728SOL     OW27082   5.216   1.390   1.972
 8728SOL    HW127083   5.128   1.353   2.002
 8728SOL    HW227084   5.238   1.471   2.026
 8729SOL     OW27085   3.265   5.200   5.505
 8729SOL    HW127086   3.264   5.123   5.569
 8729SOL    HW227087   3.208   5.274   5.541
 8730SOL     OW27088   4.990   4.243   3.346
 8730SOL    HW127089   5.072   4.218   3.397
 8730SOL    HW227090   5.014   4.262   3.250
 8731SOL     OW27091   0.971   3.418   3.277
 8731SOL    HW127092   0.938   3.512   3.269
 8731SOL    HW227093   0.935   3.363   3.202
 8732SOL     OW27094   5.619   4.296   2.336
 8732SOL    HW127095   5.624   4.376   2.395
 8732SOL    HW227096   5.670   4.314   2.251
 8733SOL     OW27097   1.125   5.805   7.020
 8733SOL    HW127098   1.104   5.726   0.048
 8733SOL    HW227099   1.189   5.865   0.039
 8734SOL     OW27100   6.826   3.375   2.784
 8734SOL    HW127101   6.740   3.330   2.762
 8734SOL    HW227102   6.872   3.324   2.857
 8735SOL     OW27103   1.231   3.161   5.094
 8735SOL    HW127104   1.212   3.207   5.181
 8735SOL    HW227105   1.293   3.085   5.109
 8736SOL     OW27106   6.953   5.353   2.368
 8736SOL    HW127107   6.871   5.304   2.398
 8736SOL    HW227108   6.985   5.413   2.441
 8737SOL     OW27109   2.818   6.567   6.987
 8737SOL    HW127110   2.732   6.617   6.985
 8737SOL    HW227111   2.809   6.481   6.937
 8738SOL     OW27112   2.296   6.072   3.606
 8738SOL    HW127113   2.282   5.974   3.618
 8738SOL    HW227114   2.386   6.088   3.565
 8739SOL     OW27115   5.527   4.917   5.802
 8739SOL    HW127116   5.571   4.919   5.712
 8739SOL    HW227117   5.578   4.857   5.863
 8740SOL     OW27118   3.886   2.029   2.742
 8740SOL    HW127119   3.888   2.078   2.655
 8740SOL    HW227120   3.953   2.069   2.804
 8741SOL     OW27121   2.520   0.526   2.898
 8741SOL    HW127122   2.574   0.456   2.944
 8741SOL    HW227123   2.566   0.615   2.906
 8742SOL     OW27124   4.408   0.178   1.734
 8742SOL    HW127125   4.378   0.253   1.676
 8742SOL    HW227126   4.482   0.208   1.793
 8743SOL     OW27127   2.170   0.770   1.106
 8743SOL    HW127128   2.175   0.780   1.006
 8743SOL    HW227129   2.180   0.674   1.130
 8744SOL     OW27130   4.373   2.963   0.617
 8744SOL    HW127131   4.439   2.969   0.693
 8744SOL    HW227132   4.314   3.044   0.619
 8745SOL     OW27133   6.549   2.249   6.227
 8745SOL    HW127134   6.626   2.312   6.236
 8745SOL    HW227135   6.547   2.188   6.306
 8746SOL     OW27136   4.687   5.729   4.690
 8746SOL    HW127137   4.664   5.816   4.735
 8746SOL    HW227138   4.607   5.669   4.692
 8747SOL     OW27139   0.292   1.068   2.502
 8747SOL    HW127140   0.354   1.119   2.561
 8747SOL    HW227141   0.340   0.988   2.465
 8748SOL     OW27142   0.885   2.177   4.365
 8748SOL    HW127143   0.862   2.266   4.327
 8748SOL    HW227144   0.891   2.110   4.290
 8749SOL     OW27145   1.735   0.909   5.494
 8749SOL    HW127146   1.713   0.934   5.400
 8749SOL    HW227147   1.692   0.974   5.557
 8750SOL     OW27148   3.843   3.411   5.802
 8750SOL    HW127149   3.791   3.359   5.871
 8750SOL    HW227150   3.893   3.485   5.847
 8751SOL     OW27151   0.000   1.242   1.528
 8751SOL    HW127152   6.979   1.324   1.503
 8751SOL    HW227153   7.027   1.177   1.452
 8752SOL     OW27154   3.944   3.200   6.904
 8752SOL    HW127155   4.024   3.250   6.871
 8752SOL    HW227156   3.962   3.102   6.897
 8753SOL     OW27157   2.554   2.758   6.288
 8753SOL    HW127158   2.606   2.840   6.314
 8753SOL    HW227159   2.614   2.679   6.294
 8754SOL     OW27160   2.708   4.244   5.665
 8754SOL    HW127161   2.722   4.198   5.578
 8754SOL    HW227162   2.782   4.220   5.728
 8755SOL     OW27163   2.562   0.641   1.551
 8755SOL    HW127164   2.626   0.686   1.489
 8755SOL    HW227165   2.575   0.676   1.644
 8756SOL     OW27166   0.929   2.986   3.377
 8756SOL    HW127167   0.897   3.012   3.468
 8756SOL    HW227168   1.010   2.929   3.385
 8757SOL     OW27169   5.102   5.673   6.651
 8757SOL    HW127170   5.141   5.761   6.678
 8757SOL    HW227171   5.105   5.663   6.552
 8758SOL     OW27172   4.751   6.090   3.278
 8758SOL    HW127173   4.847   6.116   3.266
 8758SOL    HW227174   4.692   6.166   3.253
 8759SOL     OW27175   6.550   2.710   6.667
 8759SOL    HW127176   6.486   2.654   6.613
 8759SOL    HW227177   6.499   2.759   6.738
 8760SOL     OW27178   2.736   1.062   4.431
 8760SOL    HW127179   2.807   1.008   4.477
 8760SOL    HW227180   2.720   1.146   4.483
 8761SOL     OW27181   6.234   1.692   1.380
 8761SOL    HW127182   6.313   1.740   1.416
 8761SOL    HW227183   6.181   1.653   1.455
 8762SOL     OW27184   1.261   5.962   4.345
 8762SOL    HW127185   1.320   5.896   4.299
 8762SOL    HW227186   1.312   6.046   4.362
 8763SOL     OW27187   5.978   0.394   5.258
 8763SOL    HW127188   5.953   0.359   5.349
 8763SOL    HW227189   5.950   0.329   5.188
 8764SOL     OW27190   4.198   6.168   5.932
 8764SOL    HW127191   4.183   6.090   5.993
 8764SOL    HW227192   4.258   6.141   5.857
 8765SOL     OW27193   5.393   1.365   4.338
 8765SOL    HW127194   5.331   1.436   4.370
 8765SOL    HW227195   5.421   1.308   4.415
 8766SOL     OW27196   3.962   4.207   5.229
 8766SOL    HW127197   4.019   4.261   5.167
 8766SOL    HW227198   3.916   4.135   5.178
 8767SOL     OW27199   4.595   6.305   3.213
 8767SOL    HW127200   4.674   6.363   3.232
 8767SOL    HW227201   4.539   6.347   3.142
 8768SOL     OW27202   1.207   2.420   1.404
 8768SOL    HW127203   1.131   2.409   1.469
 8768SOL    HW227204   1.231   2.332   1.365
 8769SOL     OW27205   0.250   1.443   1.870
 8769SOL    HW127206   0.167   1.498   1.875
 8769SOL    HW227207   0.328   1.503   1.848
 8770SOL     OW27208   5.413   4.491   2.528
 8770SOL    HW127209   5.489   4.487   2.593
 8770SOL    HW227210   5.327   4.507   2.576
 8771SOL     OW27211   0.696   2.809   6.558
 8771SOL    HW127212   0.600   2.796   6.530
 8771SOL    HW227213   0.744   2.721   6.552
 8772SOL     OW27214   4.905   0.705   5.769
 8772SOL    HW127215   4.899   0.761   5.686
 8772SOL    HW227216   4.975   0.635   5.757
 8773SOL     OW27217   5.408   2.676   2.766
 8773SOL    HW127218   5.318   2.693   2.725
 8773SOL    HW227219   5.396   2.640   2.858
 8774SOL     OW27220   0.773   0.663   0.232
 8774SOL    HW127221   0.761   0.581   0.287
 8774SOL    HW227222   0.764   0.744   0.290
 8775SOL     OW27223   5.226   1.126   5.533
 8775SOL    HW127224   5.139   1.128   5.582
 8775SOL    HW227225   5.277   1.211   5.551
 8776SOL     OW27226   4.964   3.245   1.520
 8776SOL    HW127227   4.896   3.246   1.447
 8776SOL    HW227228   4.937   3.310   1.591
 8777SOL     OW27229   6.881   3.584   3.834
 8777SOL    HW127230   6.853   3.542   3.921
 8777SOL    HW227231   6.973   3.620   3.843
 8778SOL     OW27232   5.155   3.687   5.230
 8778SOL    HW127233   5.133   3.758   5.297
 8778SOL    HW227234   5.079   3.622   5.224
 8779SOL     OW27235   2.178   5.308   2.408
 8779SOL    HW127236   2.101   5.260   2.366
 8779SOL    HW227237   2.190   5.397   2.364
 8780SOL     OW27238   0.432   6.846   3.267
 8780SOL    HW127239   0.497   6.808   3.201
 8780SOL    HW227240   0.342   6.854   3.225
 8781SOL     OW27241   4.804   0.097   3.631
 8781SOL    HW127242   4.866   0.027   3.595
 8781SOL    HW227243   4.856   0.181   3.647
 8782SOL     OW27244   5.844   1.357   1.919
 8782SOL    HW127245   5.925   1.382   1.972
 8782SOL    HW227246   5.871   1.314   1.833
 8783SOL     OW27247   6.555   4.080   4.399
 8783SOL    HW127248   6.508   4.119   4.320
 8783SOL    HW227249   6.489   4.033   4.457
 8784SOL     OW27250   6.498   6.209   6.752
 8784SOL    HW127251   6.577   6.259   6.717
 8784SOL    HW227252   6.509   6.196   6.851
 8785SOL     OW27253   6.390   5.517   6.077
 8785SOL    HW127254   6.345   5.560   6.156
 8785SOL    HW227255   6.444   5.586   6.029
 8786SOL     OW27256   3.422   1.025   1.901
 8786SOL    HW127257   3.436   0.946   1.961
 8786SOL    HW227258   3.412   1.108   1.956
 8787SOL     OW27259   3.093   0.674   2.644
 8787SOL    HW127260   3.074   0.743   2.574
 8787SOL    HW227261   3.151   0.714   2.715
 8788SOL     OW27262   6.520   1.329   5.370
 8788SOL    HW127263   6.465   1.367   5.296
 8788SOL    HW227264   6.608   1.377   5.374
 8789SOL     OW27265   6.776   4.625   5.406
 8789SOL    HW127266   6.806   4.707   5.455
 8789SOL    HW227267   6.735   4.561   5.471
 8790SOL     OW27268   6.717   1.338   6.749
 8790SOL    HW127269   6.675   1.422   6.785
 8790SOL    HW227270   6.706   1.335   6.650
 8791SOL     OW27271   4.707   6.557   5.032
 8791SOL    HW127272   4.764   6.554   4.950
 8791SOL    HW227273   4.625   6.612   5.014
 8792SOL     OW27274   3.035   5.002   2.668
 8792SOL    HW127275   3.045   5.068   2.593
 8792SOL    HW227276   3.090   4.921   2.649
 8793SOL     OW27277   0.808   4.974   3.711
 8793SOL    HW127278   0.832   4.902   3.776
 8793SOL    HW227279   0.709   4.972   3.693
 8794SOL     OW27280   5.781   1.156   3.544
 8794SOL    HW127281   5.822   1.134   3.632
 8794SOL    HW227282   5.682   1.167   3.555
 8795SOL     OW27283   1.661   5.016   4.995
 8795SOL    HW127284   1.721   5.086   5.033
 8795SOL    HW227285   1.567   5.049   4.993
 8796SOL     OW27286   5.795   2.850   3.295
 8796SOL    HW127287   5.699   2.824   3.288
 8796SOL    HW227288   5.808   2.906   3.377
 8797SOL     OW27289   6.839   6.973   5.081
 8797SOL    HW127290   6.811   0.012   5.148
 8797SOL    HW227291   6.773   6.972   5.005
 8798SOL     OW27292   4.207   5.807   6.304
 8798SOL    HW127293   4.297   5.770   6.279
 8798SOL    HW227294   4.141   5.733   6.312
 8799SOL     OW27295   3.115   5.025   2.401
 8799SOL    HW127296   3.018   5.023   2.376
 8799SOL    HW227297   3.168   4.974   2.334
 8800SOL     OW27298   5.718   5.203   5.749
 8800SOL    HW127299   5.648   5.166   5.810
 8800SOL    HW227300   5.681   5.209   5.656
 8801SOL     OW27301   6.380   1.749   4.486
 8801SOL    HW127302   6.368   1.779   4.391
 8801SOL    HW227303   6.322   1.806   4.546
 8802SOL     OW27304   1.508   5.503   5.882
 8802SOL    HW127305   1.446   5.540   5.951
 8802SOL    HW227306   1.455   5.458   5.810
 8803SOL     OW27307   6.856   0.029   0.035
 8803SOL    HW127308   6.783   0.047   0.101
 8803SOL    HW227309   6.864   6.960   0.021
 8804SOL     OW27310   2.085   6.021   1.149
 8804SOL    HW127311   2.180   5.992   1.134
 8804SOL    HW227312   2.065   6.100   1.091
 8805SOL     OW27313   3.702   5.149   3.689
 8805SOL    HW127314   3.731   5.104   3.605
 8805SOL    HW227315   3.683   5.081   3.760
 8806SOL     OW27316   1.898   4.518   1.040
 8806SOL    HW127317   1.831   4.459   1.084
 8806SOL    HW227318   1.854   4.603   1.011
 8807SOL     OW27319   4.168   1.283   6.967
 8807SOL    HW127320   4.070   1.295   6.980
 8807SOL    HW227321   4.217   1.332   0.010
 8808SOL     OW27322   0.267   1.860   6.304
 8808SOL    HW127323   0.362   1.880   6.329
 8808SOL    HW227324   0.206   1.914   6.362
 8809SOL     OW27325   2.438   4.340   3.302
 8809SOL    HW127326   2.415   4.301   3.391
 8809SOL    HW227327   2.362   4.324   3.238
 8810SOL     OW27328   5.480   1.341   5.530
 8810SOL    HW127329   5.391   1.373   5.497
 8810SOL    HW227330   5.468   1.293   5.616
 8811SOL     OW27331   3.471   0.663   2.676
 8811SOL    HW127332   3.549   0.629   2.624
 8811SOL    HW227333   3.424   0.734   2.624
 8812SOL     OW27334   2.852   0.485   0.502
 8812SOL    HW127335   2.917   0.510   0.574
 8812SOL    HW227336   2.759   0.506   0.531
 8813SOL     OW27337   2.178   5.107   3.053
 8813SOL    HW127338   2.217   5.127   2.963
 8813SOL    HW227339   2.158   5.009   3.059
 8814SOL     OW27340   6.001   6.478   0.575
 8814SOL    HW127341   5.999   6.578   0.580
 8814SOL    HW227342   6.092   6.448   0.548
 8815SOL     OW27343   5.940   6.745   1.128
 8815SOL    HW127344   5.861   6.800   1.159
 8815SOL    HW227345   5.909   6.673   1.067
 8816SOL     OW27346   0.899   0.097   6.787
 8816SOL    HW127347   0.936   0.005   6.774
 8816SOL    HW227348   0.858   0.128   6.701
 8817SOL     OW27349   0.202   3.878   4.290
 8817SOL    HW127350   0.288   3.867   4.240
 8817SOL    HW227351   0.216   3.857   4.386
 8818SOL     OW27352   1.330   6.587   3.624
 8818SOL    HW127353   1.232   6.604   3.637
 8818SOL    HW227354   1.342   6.495   3.586
 8819SOL     OW27355   6.111   4.496   5.616
 8819SOL    HW127356   6.120   4.574   5.677
 8819SOL    HW227357   6.192   4.489   5.558
 8820SOL     OW27358   3.127   1.460   4.542
 8820SOL    HW127359   3.111   1.397   4.619
 8820SOL    HW227360   3.051   1.454   4.478
 8821SOL     OW27361   0.655   6.294   0.467
 8821SOL    HW127362   0.611   6.354   0.401
 8821SOL    HW227363   0.586   6.235   0.509
 8822SOL     OW27364   0.542   0.232   3.519
 8822SOL    HW127365   0.588   0.150   3.487
 8822SOL    HW227366   0.561   0.307   3.455
 8823SOL     OW27367   2.515   0.956   2.970
 8823SOL    HW127368   2.420   0.960   2.938
 8823SOL    HW227369   2.549   1.049   2.984
 8824SOL     OW27370   1.323   0.960   1.195
 8824SOL    HW127371   1.402   1.022   1.201
 8824SOL    HW227372   1.351   0.868   1.223
 8825SOL     OW27373   0.718   0.957   1.988
 8825SOL    HW127374   0.780   1.032   1.966
 8825SOL    HW227375   0.626   0.994   2.005
 8826SOL     OW27376   1.122   3.091   0.815
 8826SOL    HW127377   1.057   3.043   0.756
 8826SOL    HW227378   1.111   3.057   0.909
 8827SOL     OW27379   3.906   6.900   3.486
 8827SOL    HW127380   3.975   6.972   3.500
 8827SOL    HW227381   3.914   6.863   3.394
 8828SOL     OW27382   3.917   5.246   0.004
 8828SOL    HW127383   3.903   5.253   0.103
 8828SOL    HW227384   4.012   5.269   7.011
 8829SOL     OW27385   5.850   1.525   1.460
 8829SOL    HW127386   5.766   1.471   1.465
 8829SOL    HW227387   5.861   1.579   1.543
 8830SOL     OW27388   2.258   1.523   2.847
 8830SOL    HW127389   2.303   1.476   2.923
 8830SOL    HW227390   2.203   1.457   2.795
 8831SOL     OW27391   5.749   2.930   2.857
 8831SOL    HW127392   5.771   2.982   2.940
 8831SOL    HW227393   5.829   2.876   2.830
 8832SOL     OW27394   0.354   6.511   4.531
 8832SOL    HW127395   0.408   6.544   4.454
 8832SOL    HW227396   0.357   6.579   4.605
 8833SOL     OW27397   4.084   3.896   6.861
 8833SOL    HW127398   4.067   3.992   6.882
 8833SOL    HW227399   4.109   3.847   6.945
 8834SOL     OW27400   5.887   4.098   4.471
 8834SOL    HW127401   5.883   4.007   4.512
 8834SOL    HW227402   5.936   4.160   4.532
 8835SOL     OW27403   5.537   1.047   6.464
 8835SOL    HW127404   5.444   1.050   6.428
 8835SOL    HW227405   5.575   1.140   6.465
 8836SOL     OW27406   5.063   2.227   0.675
 8836SOL    HW127407   5.070   2.195   0.769
 8836SOL    HW227408   5.067   2.327   0.673
 8837SOL     OW27409   6.954   0.246   1.732
 8837SOL    HW127410   6.997   0.315   1.674
 8837SOL    HW227411   6.855   0.250   1.719
 8838SOL     OW27412   1.603   4.986   2.571
 8838SOL    HW127413   1.531   4.975   2.503
 8838SOL    HW227414   1.569   4.959   2.661
 8839SOL     OW27415   3.863   6.204   2.421
 8839SOL    HW127416   3.892   6.130   2.361
 8839SOL    HW227417   3.938   6.231   2.481
 8840SOL     OW27418   6.462   7.017   2.084
 8840SOL    HW127419   6.455   6.961   2.002
 8840SOL    HW227420   6.372   7.025   2.127
 8841SOL     OW27421   5.971   1.443   2.779
 8841SOL    HW127422   6.006   1.476   2.867
 8841SOL    HW227423   6.044   1.396   2.730
 8842SOL     OW27424   3.508   3.718   3.454
 8842SOL    HW127425   3.598   3.674   3.452
 8842SOL    HW227426   3.519   3.817   3.454
 8843SOL     OW27427   1.572   3.704   4.151
 8843SOL    HW127428   1.621   3.721   4.237
 8843SOL    HW227429   1.474   3.703   4.169
 8844SOL     OW27430   6.819   1.661   4.994
 8844SOL    HW127431   6.914   1.654   4.964
 8844SOL    HW227432   6.806   1.748   5.041
 8845SOL     OW27433   2.107   4.124   0.627
 8845SOL    HW127434   2.081   4.033   0.595
 8845SOL    HW227435   2.080   4.135   0.723
 8846SOL     OW27436   4.742   4.665   4.256
 8846SOL    HW127437   4.804   4.743   4.263
 8846SOL    HW227438   4.680   4.665   4.335
 8847SOL     OW27439   1.880   1.361   3.630
 8847SOL    HW127440   1.905   1.338   3.724
 8847SOL    HW227441   1.930   1.302   3.567
 8848SOL     OW27442   3.260   1.996   2.305
 8848SOL    HW127443   3.249   1.931   2.381
 8848SOL    HW227444   3.171   2.011   2.261
 8849SOL     OW27445   3.102   5.022   3.358
 8849SOL    HW127446   3.097   4.962   3.279
 8849SOL    HW227447   3.198   5.044   3.378
 8850SOL     OW27448   3.297   1.645   0.913
 8850SOL    HW127449   3.229   1.696   0.861
 8850SOL    HW227450   3.325   1.564   0.862
 8851SOL     OW27451   1.294   4.622   2.315
 8851SOL    HW127452   1.328   4.605   2.407
 8851SOL    HW227453   1.209   4.674   2.319
 8852SOL     OW27454   4.560   3.041   5.912
 8852SOL    HW127455   4.609   3.127   5.925
 8852SOL    HW227456   4.508   3.045   5.826
 8853SOL     OW27457   2.763   0.752   4.607
 8853SOL    HW127458   2.675   0.714   4.577
 8853SOL    HW227459   2.800   0.695   4.681
 8854SOL     OW27460   2.598   0.533   6.651
 8854SOL    HW127461   2.659   0.585   6.711
 8854SOL    HW227462   2.641   0.446   6.627
 8855SOL     OW27463   0.263   6.590   0.358
 8855SOL    HW127464   0.282   6.560   0.451
 8855SOL    HW227465   0.176   6.551   0.328
 8856SOL     OW27466   5.567   0.229   5.886
 8856SOL    HW127467   5.518   0.284   5.818
 8856SOL    HW227468   5.570   0.279   5.973
 8857SOL     OW27469   6.243   2.126   3.783
 8857SOL    HW127470   6.155   2.169   3.803
 8857SOL    HW227471   6.276   2.158   3.695
 8858SOL     OW27472   2.042   2.898   5.671
 8858SOL    HW127473   2.099   2.831   5.623
 8858SOL    HW227474   2.071   2.991   5.646
 8859SOL     OW27475   0.287   0.005   4.947
 8859SOL    HW127476   0.191   7.023   4.926
 8859SOL    HW227477   0.339   0.018   4.862
 8860SOL     OW27478   2.072   4.416   2.870
 8860SOL    HW127479   2.055   4.514   2.885
 8860SOL    HW227480   2.116   4.404   2.781
 8861SOL     OW27481   3.597   2.245   5.951
 8861SOL    HW127482   3.534   2.277   5.880
 8861SOL    HW227483   3.586   2.146   5.963
 8862SOL     OW27484   6.530   1.415   3.499
 8862SOL    HW127485   6.568   1.332   3.457
 8862SOL    HW227486   6.515   1.399   3.597
 8863SOL     OW27487   1.744   5.973   4.341
 8863SOL    HW127488   1.794   5.890   4.367
 8863SOL    HW227489   1.807   6.050   4.334
 8864SOL     OW27490   2.540   3.549   6.425
 8864SOL    HW127491   2.622   3.604   6.415
 8864SOL    HW227492   2.529   3.520   6.520
 8865SOL     OW27493   3.109   1.863   5.599
 8865SOL    HW127494   3.206   1.882   5.614
 8865SOL    HW227495   3.097   1.825   5.507
 8866SOL     OW27496   5.471   6.870   3.907
 8866SOL    HW127497   5.448   6.967   3.907
 8866SOL    HW227498   5.438   6.828   3.822
 8867SOL     OW27499   5.287   3.105   3.068
 8867SOL    HW127500   5.326   3.194   3.092
 8867SOL    HW227501   5.346   3.058   3.003
 8868SOL     OW27502   6.057   3.203   0.658
 8868SOL    HW127503   6.030   3.228   0.751
 8868SOL    HW227504   6.146   3.243   0.638
 8869SOL     OW27505   4.561   5.763   3.638
 8869SOL    HW127506   4.632   5.756   3.707
 8869SOL    HW227507   4.500   5.684   3.644
 8870SOL     OW27508   4.350   6.898   0.383
 8870SOL    HW127509   4.427   6.895   0.320
 8870SOL    HW227510   4.278   6.836   0.353
 8871SOL     OW27511   3.067   0.607   4.034
 8871SOL    HW127512   3.103   0.612   4.127
 8871SOL    HW227513   2.982   0.554   4.034
 8872SOL     OW27514   1.751   4.447   4.795
 8872SOL    HW127515   1.662   4.404   4.779
 8872SOL    HW227516   1.808   4.438   4.713
 8873SOL     OW27517   0.038   5.731   1.814
 8873SOL    HW127518   6.988   5.673   1.791
 8873SOL    HW227519   0.061   5.718   1.910
 8874SOL     OW27520   2.375   6.053   1.095
 8874SOL    HW127521   2.404   6.148   1.083
 8874SOL    HW227522   2.454   5.992   1.083
 8875SOL     OW27523   0.353   3.359   5.107
 8875SOL    HW127524   0.261   3.398   5.097
 8875SOL    HW227525   0.412   3.394   5.034
 8876SOL     OW27526   1.300   0.121   4.165
 8876SOL    HW127527   1.318   0.211   4.125
 8876SOL    HW227528   1.201   0.110   4.179
 8877SOL     OW27529   2.547   1.454   4.250
 8877SOL    HW127530   2.624   1.410   4.205
 8877SOL    HW227531   2.540   1.549   4.219
 8878SOL     OW27532   0.231   5.605   0.626
 8878SOL    HW127533   0.323   5.645   0.638
 8878SOL    HW227534   0.213   5.541   0.700
 8879SOL     OW27535   5.481   5.086   1.385
 8879SOL    HW127536   5.475   5.083   1.484
 8879SOL    HW227537   5.457   5.177   1.352
 8880SOL     OW27538   7.023   5.885   4.342
 8880SOL    HW127539   6.992   5.944   4.267
 8880SOL    HW227540   6.962   5.806   4.349
 8881SOL     OW27541   6.007   0.121   4.601
 8881SOL    HW127542   5.978   0.051   4.537
 8881SOL    HW227543   6.104   0.108   4.624
 8882SOL     OW27544   5.514   1.679   0.752
 8882SOL    HW127545   5.428   1.659   0.799
 8882SOL    HW227546   5.496   1.689   0.654
 8883SOL     OW27547   0.810   0.586   5.440
 8883SOL    HW127548   0.813   0.652   5.364
 8883SOL    HW227549   0.716   0.579   5.474
 8884SOL     OW27550   5.616   5.515   6.489
 8884SOL    HW127551   5.581   5.608   6.500
 8884SOL    HW227552   5.552   5.451   6.531
 8885SOL     OW27553   0.045   3.361   0.949
 8885SOL    HW127554   0.083   3.286   1.003
 8885SOL    HW227555   6.993   3.330   0.901
 8886SOL     OW27556   3.120   0.084   5.356
 8886SOL    HW127557   3.104   0.161   5.418
 8886SOL    HW227558   3.214   0.088   5.321
 8887SOL     OW27559   3.317   1.136   1.251
 8887SOL    HW127560   3.300   1.183   1.165
 8887SOL    HW227561   3.372   1.054   1.235
 8888SOL     OW27562   1.617   1.679   1.371
 8888SOL    HW127563   1.574   1.604   1.422
 8888SOL    HW227564   1.683   1.726   1.430
 8889SOL     OW27565   5.251   6.357   5.454
 8889SOL    HW127566   5.282   6.422   5.385
 8889SOL    HW227567   5.329   6.307   5.491
 8890SOL     OW27568   6.188   5.630   4.155
 8890SOL    HW127569   6.281   5.652   4.185
 8890SOL    HW227570   6.190   5.545   4.101
 8891SOL     OW27571   5.753   3.485   5.671
 8891SOL    HW127572   5.741   3.386   5.675
 8891SOL    HW227573   5.812   3.515   5.746
 8892SOL     OW27574   3.728   5.601   3.460
 8892SOL    HW127575   3.663   5.606   3.537
 8892SOL    HW227576   3.683   5.634   3.377
 8893SOL     OW27577   1.257   0.578   1.990
 8893SOL    HW127578   1.309   0.567   2.075
 8893SOL    HW227579   1.217   0.490   1.965
 8894SOL     OW27580   4.151   2.899   5.763
 8894SOL    HW127581   4.094   2.837   5.817
 8894SOL    HW227582   4.216   2.847   5.709
 8895SOL     OW27583   6.311   1.386   1.282
 8895SOL    HW127584   6.353   1.397   1.192
 8895SOL    HW227585   6.302   1.475   1.326
 8896SOL     OW27586   1.869   3.517   4.733
 8896SOL    HW127587   1.944   3.580   4.716
 8896SOL    HW227588   1.884   3.470   4.820
 8897SOL     OW27589   2.664   2.463   2.860
 8897SOL    HW127590   2.607   2.425   2.787
 8897SOL    HW227591   2.607   2.519   2.920
 8898SOL     OW27592   6.150   3.591   4.567
 8898SOL    HW127593   6.238   3.618   4.527
 8898SOL    HW227594   6.150   3.612   4.665
 8899SOL     OW27595   1.500   5.257   0.281
 8899SOL    HW127596   1.479   5.167   0.320
 8899SOL    HW227597   1.593   5.283   0.305
 8900SOL     OW27598   5.622   3.162   3.122
 8900SOL    HW127599   5.603   3.068   3.096
 8900SOL    HW227600   5.702   3.195   3.072
 8901SOL     OW27601   2.537   0.963   4.091
 8901SOL    HW127602   2.454   0.983   4.142
 8901SOL    HW227603   2.613   1.018   4.126
 8902SOL     OW27604   3.456   6.540   0.012
 8902SOL    HW127605   3.539   6.546   6.985
 8902SOL    HW227606   3.478   6.493   0.098
 8903SOL     OW27607   0.999   1.274   4.741
 8903SOL    HW127608   1.001   1.247   4.645
 8903SOL    HW227609   0.943   1.210   4.794
 8904SOL     OW27610   6.398   5.609   3.949
 8904SOL    HW127611   6.492   5.595   3.979
 8904SOL    HW227612   6.364   5.697   3.984
 8905SOL     OW27613   2.217   4.088   4.756
 8905SOL    HW127614   2.205   4.006   4.699
 8905SOL    HW227615   2.243   4.061   4.849
 8906SOL     OW27616   0.423   6.693   6.622
 8906SOL    HW127617   0.347   6.755   6.640
 8906SOL    HW227618   0.442   6.689   6.524
 8907SOL     OW27619   3.125   1.912   4.972
 8907SOL    HW127620   3.056   1.852   5.013
 8907SOL    HW227621   3.160   1.975   5.042
 8908SOL     OW27622   1.477   2.963   6.404
 8908SOL    HW127623   1.518   2.920   6.324
 8908SOL    HW227624   1.474   2.898   6.480
 8909SOL     OW27625   1.547   0.870   5.037
 8909SOL    HW127626   1.526   0.822   5.122
 8909SOL    HW227627   1.608   0.947   5.056
 8910SOL     OW27628   1.469   2.711   5.665
 8910SOL    HW127629   1.533   2.674   5.598
 8910SOL    HW227630   1.398   2.643   5.684
 8911SOL     OW27631   4.167   2.197   4.882
 8911SOL    HW127632   4.177   2.272   4.946
 8911SOL    HW227633   4.071   2.182   4.862
 8912SOL     OW27634   4.562   1.879   0.642
 8912SOL    HW127635   4.662   1.879   0.647
 8912SOL    HW227636   4.530   1.785   0.633
 8913SOL     OW27637   4.372   4.919   0.510
 8913SOL    HW127638   4.432   4.954   0.439
 8913SOL    HW227639   4.310   4.991   0.541
 8914SOL     OW27640   4.214   0.592   4.379
 8914SOL    HW127641   4.270   0.672   4.401
 8914SOL    HW227642   4.179   0.552   4.463
 8915SOL     OW27643   0.851   2.504   3.863
 8915SOL    HW127644   0.776   2.503   3.797
 8915SOL    HW227645   0.820   2.541   3.950
 8916SOL     OW27646   0.527   3.455   1.925
 8916SOL    HW127647   0.573   3.409   1.850
 8916SOL    HW227648   0.430   3.468   1.902
 8917SOL     OW27649   6.039   4.214   6.033
 8917SOL    HW127650   6.085   4.264   5.960
 8917SOL    HW227651   6.105   4.156   6.081
 8918SOL     OW27652   6.857   4.488   1.272
 8918SOL    HW127653   6.915   4.465   1.194
 8918SOL    HW227654   6.789   4.416   1.286
 8919SOL     OW27655   4.414   4.045   0.565
 8919SOL    HW127656   4.324   4.081   0.592
 8919SOL    HW227657   4.403   3.978   0.492
 8920SOL     OW27658   1.031   6.868   6.159
 8920SOL    HW127659   1.050   6.965   6.175
 8920SOL    HW227660   1.074   6.838   6.074
 8921SOL     OW27661   1.931   2.050   2.740
 8921SOL    HW127662   2.028   2.068   2.759
 8921SOL    HW227663   1.914   1.952   2.744
 8922SOL     OW27664   3.319   5.143   1.756
 8922SOL    HW127665   3.366   5.186   1.833
 8922SOL    HW227666   3.227   5.116   1.784
 8923SOL     OW27667   1.368   4.060   5.722
 8923SOL    HW127668   1.286   4.041   5.777
 8923SOL    HW227669   1.413   4.142   5.756
 8924SOL     OW27670   3.556   5.781   5.496
 8924SOL    HW127671   3.466   5.736   5.494
 8924SOL    HW227672   3.625   5.713   5.522
 8925SOL     OW27673   1.257   0.568   2.462
 8925SOL    HW127674   1.323   0.639   2.486
 8925SOL    HW227675   1.242   0.508   2.541
 8926SOL     OW27676   6.148   3.426   6.670
 8926SOL    HW127677   6.069   3.419   6.609
 8926SOL    HW227678   6.225   3.376   6.630
 8927SOL     OW27679   1.402   2.006   4.750
 8927SOL    HW127680   1.372   1.932   4.690
 8927SOL    HW227681   1.464   1.969   4.819
 8928SOL     OW27682   6.521   0.784   5.255
 8928SOL    HW127683   6.533   0.748   5.163
 8928SOL    HW227684   6.451   0.856   5.255
 8929SOL     OW27685   0.297   3.285   3.913
 8929SOL    HW127686   0.227   3.287   3.841
 8929SOL    HW227687   0.329   3.377   3.931
 8930SOL     OW27688   2.290   4.316   4.232
 8930SOL    HW127689   2.311   4.236   4.176
 8930SOL    HW227690   2.220   4.292   4.299
 8931SOL     OW27691   3.173   2.576   0.659
 8931SOL    HW127692   3.188   2.478   0.674
 8931SOL    HW227693   3.120   2.614   0.735
 8932SOL     OW27694   5.282   0.505   0.175
 8932SOL    HW127695   5.273   0.406   0.162
 8932SOL    HW227696   5.374   0.526   0.209
 8933SOL     OW27697   0.888   2.034   5.621
 8933SOL    HW127698   0.834   2.094   5.561
 8933SOL    HW227699   0.907   2.081   5.707
 8934SOL     OW27700   3.024   5.436   3.617
 8934SOL    HW127701   3.120   5.419   3.597
 8934SOL    HW227702   3.008   5.427   3.715
 8935SOL     OW27703   5.488   4.159   1.905
 8935SOL    HW127704   5.423   4.086   1.925
 8935SOL    HW227705   5.446   4.247   1.927
 8936SOL     OW27706   1.049   3.065   1.088
 8936SOL    HW127707   0.965   3.118   1.096
 8936SOL    HW227708   1.080   3.037   1.179
 8937SOL     OW27709   0.441   0.649   4.183
 8937SOL    HW127710   0.422   0.684   4.091
 8937SOL    HW227711   0.368   0.586   4.210
 8938SOL     OW27712   0.137   1.138   0.398
 8938SOL    HW127713   0.163   1.073   0.327
 8938SOL    HW227714   0.208   1.142   0.468
 8939SOL     OW27715   6.304   3.503   4.284
 8939SOL    HW127716   6.220   3.456   4.258
 8939SOL    HW227717   6.316   3.584   4.226
 8940SOL     OW27718   5.425   1.711   1.221
 8940SOL    HW127719   5.480   1.731   1.140
 8940SOL    HW227720   5.427   1.790   1.282
 8941SOL     OW27721   5.514   2.497   2.149
 8941SOL    HW127722   5.486   2.510   2.053
 8941SOL    HW227723   5.613   2.479   2.152
 8942SOL     OW27724   1.237   5.532   4.473
 8942SOL    HW127725   1.335   5.543   4.486
 8942SOL    HW227726   1.188   5.597   4.531
 8943SOL     OW27727   4.210   5.025   0.867
 8943SOL    HW127728   4.217   5.096   0.937
 8943SOL    HW227729   4.215   5.068   0.776
 8944SOL     OW27730   4.992   5.142   4.101
 8944SOL    HW127731   4.970   5.129   4.198
 8944SOL    HW227732   4.927   5.208   4.062
 8945SOL     OW27733   6.758   2.237   4.644
 8945SOL    HW127734   6.799   2.276   4.562
 8945SOL    HW227735   6.709   2.308   4.695
 8946SOL     OW27736   3.725   0.756   4.269
 8946SOL    HW127737   3.727   0.737   4.171
 8946SOL    HW227738   3.634   0.738   4.305
 8947SOL     OW27739   2.068   3.702   5.901
 8947SOL    HW127740   2.138   3.762   5.939
 8947SOL    HW227741   1.991   3.696   5.965
 8948SOL     OW27742   6.096   5.969   3.162
 8948SOL    HW127743   6.138   6.044   3.110
 8948SOL    HW227744   6.098   5.991   3.260
 8949SOL     OW27745   4.159   5.662   0.575
 8949SOL    HW127746   4.185   5.758   0.566
 8949SOL    HW227747   4.065   5.651   0.541
 8950SOL     OW27748   4.526   3.271   1.415
 8950SOL    HW127749   4.590   3.333   1.461
 8950SOL    HW227750   4.432   3.295   1.440
 8951SOL     OW27751   1.875   1.201   4.453
 8951SOL    HW127752   1.803   1.248   4.504
 8951SOL    HW227753   1.902   1.119   4.502
 8952SOL     OW27754   0.748   5.238   3.071
 8952SOL    HW127755   0.743   5.141   3.047
 8952SOL    HW227756   0.838   5.258   3.108
 8953SOL     OW27757   1.728   4.341   1.156
 8953SOL    HW127758   1.813   4.290   1.171
 8953SOL    HW227759   1.667   4.288   1.098
 8954SOL     OW27760   0.070   6.978   3.919
 8954SOL    HW127761   0.169   6.963   3.919
 8954SOL    HW227762   0.037   6.983   3.825
 8955SOL     OW27763   7.013   3.528   2.706
 8955SOL    HW127764   6.939   3.490   2.762
 8955SOL    HW227765   6.978   3.606   2.655
 8956SOL     OW27766   0.993   0.848   5.876
 8956SOL    HW127767   1.084   0.819   5.846
 8956SOL    HW227768   0.924   0.789   5.834
 8957SOL     OW27769   2.254   4.814   1.273
 8957SOL    HW127770   2.265   4.898   1.326
 8957SOL    HW227771   2.200   4.833   1.191
 8958SOL     OW27772   1.072   2.370   5.439
 8958SOL    HW127773   1.025   2.361   5.527
 8958SOL    HW227774   1.106   2.463   5.429
 8959SOL     OW27775   1.801   3.309   2.494
 8959SOL    HW127776   1.721   3.262   2.456
 8959SOL    HW227777   1.803   3.403   2.462
 8960SOL     OW27778   5.990   5.796   3.493
 8960SOL    HW127779   6.014   5.711   3.447
 8960SOL    HW227780   5.922   5.778   3.564
 8961SOL     OW27781   4.086   1.795   4.012
 8961SOL    HW127782   4.094   1.697   4.026
 8961SOL    HW227783   3.997   1.827   4.045
 8962SOL     OW27784   0.125   6.105   1.400
 8962SOL    HW127785   0.037   6.093   1.353
 8962SOL    HW227786   0.128   6.045   1.480
 8963SOL     OW27787   3.310   6.608   5.049
 8963SOL    HW127788   3.247   6.567   4.984
 8963SOL    HW227789   3.334   6.700   5.019
 8964SOL     OW27790   5.353   3.642   2.789
 8964SOL    HW127791   5.329   3.686   2.703
 8964SOL    HW227792   5.272   3.597   2.827
 8965SOL     OW27793   3.656   5.148   0.647
 8965SOL    HW127794   3.562   5.181   0.661
 8965SOL    HW227795   3.695   5.122   0.735
 8966SOL     OW27796   6.871   4.945   6.807
 8966SOL    HW127797   6.937   4.884   6.764
 8966SOL    HW227798   6.784   4.897   6.819
 8967SOL     OW27799   4.380   1.557   3.350
 8967SOL    HW127800   4.419   1.482   3.403
 8967SOL    HW227801   4.285   1.572   3.379
 8968SOL     OW27802   3.088   5.780   2.350
 8968SOL    HW127803   3.119   5.853   2.289
 8968SOL    HW227804   3.113   5.803   2.444
 8969SOL     OW27805   0.256   0.554   3.696
 8969SOL    HW127806   0.175   0.576   3.641
 8969SOL    HW227807   0.233   0.480   3.760
 8970SOL     OW27808   1.612   2.351   0.518
 8970SOL    HW127809   1.661   2.431   0.483
 8970SOL    HW227810   1.656   2.319   0.602
 8971SOL     OW27811   5.342   6.871   2.002
 8971SOL    HW127812   5.364   6.963   2.032
 8971SOL    HW227813   5.358   6.862   1.903
 8972SOL     OW27814   4.974   3.949   0.403
 8972SOL    HW127815   4.967   4.029   0.343
 8972SOL    HW227816   4.994   3.980   0.496
 8973SOL     OW27817   0.242   2.949   2.144
 8973SOL    HW127818   0.162   2.910   2.098
 8973SOL    HW227819   0.251   2.909   2.235
 8974SOL     OW27820   1.838   3.946   3.936
 8974SOL    HW127821   1.902   3.885   3.984
 8974SOL    HW227822   1.890   4.005   3.874
 8975SOL     OW27823   0.995   6.876   6.739
 8975SOL    HW127824   1.041   6.828   6.664
 8975SOL    HW227825   0.918   6.821   6.771
 8976SOL     OW27826   0.145   6.515   0.689
 8976SOL    HW127827   0.098   6.587   0.639
 8976SOL    HW227828   0.080   6.471   0.752
 8977SOL     OW27829   6.646   4.086   6.625
 8977SOL    HW127830   6.569   4.150   6.624
 8977SOL    HW227831   6.721   4.124   6.571
 8978SOL     OW27832   4.975   6.533   4.804
 8978SOL    HW127833   4.993   6.599   4.731
 8978SOL    HW227834   5.052   6.532   4.867
 8979SOL     OW27835   1.328   5.576   6.069
 8979SOL    HW127836   1.255   5.535   6.014
 8979SOL    HW227837   1.307   5.672   6.085
 8980SOL     OW27838   5.431   2.161   5.743
 8980SOL    HW127839   5.365   2.176   5.669
 8980SOL    HW227840   5.409   2.076   5.791
 8981SOL     OW27841   4.927   1.872   5.866
 8981SOL    HW127842   4.835   1.845   5.838
 8981SOL    HW227843   4.922   1.949   5.930
 8982SOL     OW27844   6.867   2.118   1.285
 8982SOL    HW127845   6.884   2.116   1.384
 8982SOL    HW227846   6.896   2.207   1.248
 8983SOL     OW27847   0.910   5.472   1.400
 8983SOL    HW127848   0.999   5.505   1.432
 8983SOL    HW227849   0.910   5.372   1.398
 8984SOL     OW27850   6.233   0.061   4.739
 8984SOL    HW127851   6.182   0.037   4.822
 8984SOL    HW227852   6.249   0.160   4.738
 8985SOL     OW27853   3.301   2.308   1.275
 8985SOL    HW127854   3.207   2.317   1.308
 8985SOL    HW227855   3.362   2.367   1.328
 8986SOL     OW27856   5.574   4.427   2.745
 8986SOL    HW127857   5.658   4.373   2.751
 8986SOL    HW227858   5.524   4.420   2.831
 8987SOL     OW27859   3.029   0.793   1.138
 8987SOL    HW127860   3.014   0.890   1.156
 8987SOL    HW227861   3.014   0.741   1.223
 8988SOL     OW27862   1.859   5.599   0.298
 8988SOL    HW127863   1.853   5.593   0.198
 8988SOL    HW227864   1.915   5.678   0.323
 8989SOL     OW27865   4.933   3.245   2.718
 8989SOL    HW127866   4.926   3.220   2.815
 8989SOL    HW227867   4.995   3.182   2.672
 8990SOL     OW27868   1.911   6.024   2.008
 8990SOL    HW127869   1.860   6.094   1.959
 8990SOL    HW227870   1.868   6.008   2.097
 8991SOL     OW27871   2.708   1.906   1.500
 8991SOL    HW127872   2.613   1.935   1.506
 8991SOL    HW227873   2.756   1.960   1.431
 8992SOL     OW27874   0.422   2.370   0.364
 8992SOL    HW127875   0.377   2.282   0.353
 8992SOL    HW227876   0.483   2.386   0.287
 8993SOL     OW27877   4.993   2.504   2.747
 8993SOL    HW127878   4.991   2.598   2.712
 8993SOL    HW227879   5.085   2.466   2.737
 8994SOL     OW27880   1.649   5.367   3.720
 8994SOL    HW127881   1.682   5.437   3.783
 8994SOL    HW227882   1.727   5.319   3.681
 8995SOL     OW27883   1.322   2.461   5.142
 8995SOL    HW127884   1.267   2.529   5.190
 8995SOL    HW227885   1.269   2.423   5.066
 8996SOL     OW27886   0.683   4.033   1.986
 8996SOL    HW127887   0.764   3.978   1.965
 8996SOL    HW227888   0.601   3.980   1.963
 8997SOL     OW27889   4.847   0.783   6.621
 8997SOL    HW127890   4.913   0.755   6.690
 8997SOL    HW227891   4.840   0.712   6.550
 8998SOL     OW27892   0.222   1.998   4.767
 8998SOL    HW127893   0.222   1.902   4.739
 8998SOL    HW227894   0.204   2.056   4.688
 8999SOL     OW27895   4.740   0.908   6.925
 8999SOL    HW127896   4.735   0.855   6.840
 8999SOL    HW227897   4.748   0.846   7.003
 9000SOL     OW27898   2.918   4.044   6.220
 9000SOL    HW127899   2.839   4.014   6.167
 9000SOL    HW227900   2.892   4.057   6.315
 9001SOL     OW27901   1.325   5.252   3.022
 9001SOL    HW127902   1.324   5.165   3.071
 9001SOL    HW227903   1.306   5.236   2.925
 9002SOL     OW27904   0.452   5.270   5.827
 9002SOL    HW127905   0.476   5.278   5.730
 9002SOL    HW227906   0.436   5.361   5.865
 9003SOL     OW27907   5.920   2.588   1.495
 9003SOL    HW127908   5.919   2.658   1.566
 9003SOL    HW227909   5.979   2.617   1.420
 9004SOL     OW27910   4.551   6.125   2.004
 9004SOL    HW127911   4.540   6.215   1.960
 9004SOL    HW227912   4.596   6.062   1.941
 9005SOL     OW27913   5.681   2.023   3.537
 9005SOL    HW127914   5.640   2.112   3.555
 9005SOL    HW227915   5.694   2.011   3.438
 9006SOL     OW27916   1.167   5.908   0.748
 9006SOL    HW127917   1.220   5.869   0.823
 9006SOL    HW227918   1.102   5.840   0.714
 9007SOL     OW27919   3.673   5.537   3.786
 9007SOL    HW127920   3.674   5.447   3.829
 9007SOL    HW227921   3.748   5.592   3.822
 9008SOL     OW27922   6.253   5.541   2.799
 9008SOL    HW127923   6.321   5.477   2.763
 9008SOL    HW227924   6.161   5.506   2.780
 9009SOL     OW27925   3.345   6.816   0.574
 9009SOL    HW127926   3.276   6.795   0.505
 9009SOL    HW227927   3.302   6.861   0.652
 9010SOL     OW27928   0.565   6.607   4.921
 9010SOL    HW127929   0.476   6.645   4.947
 9010SOL    HW227930   0.612   6.572   5.002
 9011SOL     OW27931   3.524   2.463   1.297
 9011SOL    HW127932   3.606   2.411   1.276
 9011SOL    HW227933   3.467   2.471   1.215
 9012SOL     OW27934   2.630   5.179   0.672
 9012SOL    HW127935   2.644   5.108   0.603
 9012SOL    HW227936   2.606   5.136   0.759
 9013SOL     OW27937   6.127   6.022   5.062
 9013SOL    HW127938   6.109   6.119   5.051
 9013SOL    HW227939   6.185   5.990   4.986
 9014SOL     OW27940   1.226   1.779   0.585
 9014SOL    HW127941   1.224   1.727   0.671
 9014SOL    HW227942   1.132   1.793   0.553
 9015SOL     OW27943   6.127   0.767   6.870
 9015SOL    HW127944   6.143   0.861   6.840
 9015SOL    HW227945   6.207   0.734   6.919
 9016SOL     OW27946   5.883   6.215   5.874
 9016SOL    HW127947   5.971   6.183   5.840
 9016SOL    HW227948   5.872   6.187   5.970
 9017SOL     OW27949   5.462   2.042   3.232
 9017SOL    HW127950   5.534   1.976   3.212
 9017SOL    HW227951   5.495   2.134   3.212
 9018SOL     OW27952   3.929   1.470   5.613
 9018SOL    HW127953   3.924   1.569   5.599
 9018SOL    HW227954   3.852   1.441   5.670
 9019SOL     OW27955   1.751   6.650   0.459
 9019SOL    HW127956   1.713   6.698   0.538
 9019SOL    HW227957   1.780   6.717   0.390
 9020SOL     OW27958   1.791   3.815   2.100
 9020SOL    HW127959   1.825   3.727   2.067
 9020SOL    HW227960   1.842   3.889   2.057
 9021SOL     OW27961   6.332   0.314   3.918
 9021SOL    HW127962   6.373   0.405   3.905
 9021SOL    HW227963   6.322   0.269   3.830
 9022SOL     OW27964   2.838   0.678   0.944
 9022SOL    HW127965   2.896   0.649   0.868
 9022SOL    HW227966   2.896   0.714   1.017
 9023SOL     OW27967   3.895   3.386   3.158
 9023SOL    HW127968   3.897   3.400   3.059
 9023SOL    HW227969   3.969   3.437   3.200
 9024SOL     OW27970   1.896   5.709   6.112
 9024SOL    HW127971   1.946   5.623   6.120
 9024SOL    HW227972   1.807   5.701   6.156
 9025SOL     OW27973   6.499   5.891   0.762
 9025SOL    HW127974   6.480   5.965   0.826
 9025SOL    HW227975   6.421   5.827   0.761
 9026SOL     OW27976   3.714   3.304   3.669
 9026SOL    HW127977   3.627   3.327   3.712
 9026SOL    HW227978   3.701   3.293   3.570
 9027SOL     OW27979   3.216   1.882   3.848
 9027SOL    HW127980   3.159   1.935   3.910
 9027SOL    HW227981   3.180   1.789   3.841
 9028SOL     OW27982   2.469   4.505   6.460
 9028SOL    HW127983   2.503   4.415   6.487
 9028SOL    HW227984   2.537   4.549   6.401
 9029SOL     OW27985   3.854   5.309   4.661
 9029SOL    HW127986   3.895   5.356   4.582
 9029SOL    HW227987   3.791   5.238   4.628
 9030SOL     OW27988   2.197   1.133   2.450
 9030SOL    HW127989   2.099   1.122   2.438
 9030SOL    HW227990   2.240   1.045   2.469
 9031SOL     OW27991   3.484   5.433   5.580
 9031SOL    HW127992   3.566   5.455   5.528
 9031SOL    HW227993   3.450   5.343   5.554
 9032SOL     OW27994   3.915   2.537   0.803
 9032SOL    HW127995   3.837   2.521   0.743
 9032SOL    HW227996   3.950   2.629   0.789
 9033SOL     OW27997   1.319   3.397   3.781
 9033SOL    HW127998   1.232   3.356   3.754
 9033SOL    HW227999   1.342   3.367   3.874
 9034SOL     OW28000   2.782   6.230   5.085
 9034SOL    HW128001   2.746   6.274   5.003
 9034SOL    HW228002   2.740   6.271   5.166
 9035SOL     OW28003   0.175   6.453   4.912
 9035SOL    HW128004   0.191   6.492   5.003
 9035SOL    HW228005   0.260   6.416   4.876
 9036SOL     OW28006   1.785   2.137   4.631
 9036SOL    HW128007   1.756   2.222   4.676
 9036SOL    HW228008   1.882   2.122   4.646
 9037SOL     OW28009   1.666   3.209   6.444
 9037SOL    HW128010   1.625   3.120   6.464
 9037SOL    HW228011   1.686   3.256   6.530
 9038SOL     OW28012   5.058   0.258   5.881
 9038SOL    HW128013   5.066   0.292   5.787
 9038SOL    HW228014   5.037   0.160   5.880
 9039SOL     OW28015   1.903   4.673   5.096
 9039SOL    HW128016   1.939   4.615   5.023
 9039SOL    HW228017   1.804   4.663   5.102
 9040SOL     OW28018   3.026   1.523   3.712
 9040SOL    HW128019   3.054   1.427   3.718
 9040SOL    HW228020   3.054   1.560   3.623
 9041SOL     OW28021   0.973   1.928   1.787
 9041SOL    HW128022   1.064   1.901   1.754
 9041SOL    HW228023   0.981   1.963   1.880
 9042SOL     OW28024   2.875   6.359   3.501
 9042SOL    HW128025   2.898   6.292   3.572
 9042SOL    HW228026   2.936   6.347   3.422
 9043SOL     OW28027   2.340   1.258   5.544
 9043SOL    HW128028   2.347   1.354   5.516
 9043SOL    HW228029   2.386   1.200   5.476
 9044SOL     OW28030   6.200   1.159   1.038
 9044SOL    HW128031   6.116   1.150   1.092
 9044SOL    HW228032   6.279   1.139   1.096
 9045SOL     OW28033   3.177   1.437   1.955
 9045SOL    HW128034   3.197   1.416   1.859
 9045SOL    HW228035   3.144   1.532   1.962
 9046SOL     OW28036   3.346   3.993   4.640
 9046SOL    HW128037   3.397   3.917   4.599
 9046SOL    HW228038   3.316   3.968   4.732
 9047SOL     OW28039   1.717   4.014   5.265
 9047SOL    HW128040   1.665   4.033   5.349
 9047SOL    HW228041   1.706   3.918   5.240
 9048SOL     OW28042   0.115   3.177   6.094
 9048SOL    HW128043   0.152   3.107   6.033
 9048SOL    HW228044   0.121   3.145   6.189
 9049SOL     OW28045   4.928   6.397   6.851
 9049SOL    HW128046   4.957   6.352   6.767
 9049SOL    HW228047   4.994   6.468   6.876
 9050SOL     OW28048   1.357   5.358   6.480
 9050SOL    HW128049   1.274   5.410   6.460
 9050SOL    HW228050   1.404   5.335   6.394
 9051SOL     OW28051   4.361   6.504   0.919
 9051SOL    HW128052   4.315   6.417   0.903
 9051SOL    HW228053   4.424   6.523   0.843
 9052SOL     OW28054   2.132   4.204   4.437
 9052SOL    HW128055   2.167   4.261   4.511
 9052SOL    HW228056   2.047   4.161   4.466
 9053SOL     OW28057   2.320   1.745   3.714
 9053SOL    HW128058   2.380   1.760   3.636
 9053SOL    HW228059   2.227   1.726   3.682
 9054SOL     OW28060   1.735   0.682   2.056
 9054SOL    HW128061   1.745   0.765   2.001
 9054SOL    HW228062   1.704   0.607   1.998
 9055SOL     OW28063   0.282   3.914   3.761
 9055SOL    HW128064   0.370   3.898   3.716
 9055SOL    HW228065   0.280   4.006   3.799
 9056SOL     OW28066   5.209   0.289   2.093
 9056SOL    HW128067   5.235   0.200   2.054
 9056SOL    HW228068   5.140   0.332   2.034
 9057SOL     OW28069   6.671   4.753   5.903
 9057SOL    HW128070   6.635   4.811   5.830
 9057SOL    HW228071   6.651   4.795   5.991
 9058SOL     OW28072   2.498   1.609   3.906
 9058SOL    HW128073   2.458   1.660   3.830
 9058SOL    HW228074   2.445   1.526   3.922
 9059SOL     OW28075   0.091   0.784   3.326
 9059SOL    HW128076   0.074   0.695   3.368
 9059SOL    HW228077   0.033   0.853   3.369
 9060SOL     OW28078   6.690   3.959   2.432
 9060SOL    HW128079   6.721   4.054   2.444
 9060SOL    HW228080   6.718   3.905   2.511
 9061SOL     OW28081   4.394   5.510   2.466
 9061SOL    HW128082   4.490   5.488   2.449
 9061SOL    HW228083   4.381   5.609   2.468
 9062SOL     OW28084   1.097   4.793   2.518
 9062SOL    HW128085   1.171   4.853   2.488
 9062SOL    HW228086   1.012   4.845   2.524
 9063SOL     OW28087   3.181   0.553   2.244
 9063SOL    HW128088   3.084   0.528   2.242
 9063SOL    HW228089   3.232   0.484   2.295
 9064SOL     OW28090   6.283   4.491   4.240
 9064SOL    HW128091   6.210   4.424   4.227
 9064SOL    HW228092   6.321   4.517   4.152
 9065SOL     OW28093   2.952   5.912   6.400
 9065SOL    HW128094   2.877   5.871   6.453
 9065SOL    HW228095   3.022   5.947   6.462
 9066SOL     OW28096   5.995   0.384   6.285
 9066SOL    HW128097   5.896   0.391   6.291
 9066SOL    HW228098   6.032   0.354   6.373
 9067SOL     OW28099   5.923   6.113   4.764
 9067SOL    HW128100   5.872   6.128   4.849
 9067SOL    HW228101   5.873   6.047   4.707
 9068SOL     OW28102   2.973   0.678   5.272
 9068SOL    HW128103   2.931   0.761   5.311
 9068SOL    HW228104   3.073   0.684   5.281
 9069SOL     OW28105   3.750   2.059   2.158
 9069SOL    HW128106   3.715   2.117   2.085
 9069SOL    HW228107   3.673   2.024   2.212
 9070SOL     OW28108   1.035   3.251   6.333
 9070SOL    HW128109   0.951   3.199   6.316
 9070SOL    HW228110   1.114   3.197   6.304
 9071SOL     OW28111   5.219   6.975   0.162
 9071SOL    HW128112   5.161   6.984   0.243
 9071SOL    HW228113   5.175   6.913   0.097
 9072SOL     OW28114   5.172   6.948   1.600
 9072SOL    HW128115   5.268   6.959   1.576
 9072SOL    HW228116   5.115   6.978   1.524
 9073SOL     OW28117   3.527   6.857   1.398
 9073SOL    HW128118   3.534   6.890   1.304
 9073SOL    HW228119   3.447   6.798   1.407
 9074SOL     OW28120   1.778   0.663   1.412
 9074SOL    HW128121   1.735   0.641   1.499
 9074SOL    HW228122   1.877   0.652   1.420
 9075SOL     OW28123   0.552   0.367   1.948
 9075SOL    HW128124   0.525   0.367   2.045
 9075SOL    HW228125   0.470   0.375   1.891
 9076SOL     OW28126   4.946   1.892   4.759
 9076SOL    HW128127   4.994   1.900   4.846
 9076SOL    HW228128   4.985   1.817   4.705
 9077SOL     OW28129   5.113   1.176   6.645
 9077SOL    HW128130   5.140   1.082   6.627
 9077SOL    HW228131   5.149   1.204   6.734
 9078SOL     OW28132   4.875   3.909   6.950
 9078SOL    HW128133   4.796   3.848   6.951
 9078SOL    HW228134   4.928   3.895   6.866
 9079SOL     OW28135   1.860   6.913   4.872
 9079SOL    HW128136   1.805   6.890   4.792
 9079SOL    HW228137   1.800   6.937   4.948
 9080SOL     OW28138   6.269   2.717   0.032
 9080SOL    HW128139   6.274   2.698   0.130
 9080SOL    HW228140   6.280   2.632   7.010
 9081SOL     OW28141   3.294   0.810   2.269
 9081SOL    HW128142   3.327   0.835   2.360
 9081SOL    HW228143   3.243   0.724   2.274
 9082SOL     OW28144   2.125   6.153   5.549
 9082SOL    HW128145   2.171   6.150   5.638
 9082SOL    HW228146   2.113   6.249   5.522
 9083SOL     OW28147   3.738   4.394   6.035
 9083SOL    HW128148   3.658   4.370   5.981
 9083SOL    HW228149   3.710   4.418   6.128
 9084SOL     OW28150   1.671   2.289   6.589
 9084SOL    HW128151   1.712   2.377   6.564
 9084SOL    HW228152   1.593   2.270   6.530
 9085SOL     OW28153   2.106   5.572   1.209
 9085SOL    HW128154   2.176   5.551   1.277
 9085SOL    HW228155   2.018   5.535   1.239
 9086SOL     OW28156   6.138   4.215   1.587
 9086SOL    HW128157   6.231   4.187   1.611
 9086SOL    HW228158   6.091   4.250   1.668
 9087SOL     OW28159   4.918   3.230   1.936
 9087SOL    HW128160   4.856   3.155   1.962
 9087SOL    HW228161   4.962   3.266   2.018
 9088SOL     OW28162   6.720   6.555   0.609
 9088SOL    HW128163   6.800   6.496   0.602
 9088SOL    HW228164   6.740   6.632   0.670
 9089SOL     OW28165   3.727   6.097   5.827
 9089SOL    HW128166   3.736   6.060   5.734
 9089SOL    HW228167   3.647   6.156   5.832
 9090SOL     OW28168   5.219   7.019   3.585
 9090SOL    HW128169   5.233   6.920   3.592
 9090SOL    HW228170   5.308   0.035   3.579
 9091SOL     OW28171   2.699   3.387   0.765
 9091SOL    HW128172   2.712   3.426   0.673
 9091SOL    HW228173   2.775   3.325   0.785
 9092SOL     OW28174   0.613   1.661   6.928
 9092SOL    HW128175   0.541   1.605   6.888
 9092SOL    HW228176   0.676   1.691   6.856
 9093SOL     OW28177   1.332   6.187   6.317
 9093SOL    HW128178   1.385   6.116   6.364
 9093SOL    HW228179   1.351   6.183   6.219
 9094SOL     OW28180   0.463   5.714   2.714
 9094SOL    HW128181   0.486   5.773   2.637
 9094SOL    HW228182   0.529   5.729   2.788
 9095SOL     OW28183   3.861   3.844   5.997
 9095SOL    HW128184   3.937   3.845   6.062
 9095SOL    HW228185   3.826   3.937   5.986
 9096SOL     OW28186   5.658   4.049   2.453
 9096SOL    HW128187   5.666   4.145   2.427
 9096SOL    HW228188   5.662   3.992   2.371
 9097SOL     OW28189   0.634   2.983   6.753
 9097SOL    HW128190   0.656   3.075   6.722
 9097SOL    HW228191   0.660   2.917   6.683
 9098SOL     OW28192   3.590   3.050   6.733
 9098SOL    HW128193   3.541   3.019   6.652
 9098SOL    HW228194   3.662   2.985   6.756
 9099SOL     OW28195   3.940   4.116   0.811
 9099SOL    HW128196   3.878   4.178   0.859
 9099SOL    HW228197   3.886   4.046   0.763
 9100SOL     OW28198   1.207   3.443   3.158
 9100SOL    HW128199   1.142   3.456   3.234
 9100SOL    HW228200   1.157   3.447   3.071
 9101SOL     OW28201   2.267   2.865   3.032
 9101SOL    HW128202   2.190   2.823   2.984
 9101SOL    HW228203   2.247   2.868   3.130
 9102SOL     OW28204   3.443   6.783   2.146
 9102SOL    HW128205   3.376   6.712   2.168
 9102SOL    HW228206   3.407   6.841   2.073
 9103SOL     OW28207   6.631   4.066   0.142
 9103SOL    HW128208   6.662   4.127   0.068
 9103SOL    HW228209   6.638   3.971   0.111
 9104SOL     OW28210   4.842   6.702   3.325
 9104SOL    HW128211   4.786   6.740   3.251
 9104SOL    HW228212   4.838   6.602   3.322
 9105SOL     OW28213   1.595   1.078   0.785
 9105SOL    HW128214   1.662   1.150   0.804
 9105SOL    HW228215   1.503   1.118   0.785
 9106SOL     OW28216   6.582   4.487   0.653
 9106SOL    HW128217   6.574   4.587   0.649
 9106SOL    HW228218   6.634   4.461   0.734
 9107SOL     OW28219   3.017   0.510   6.001
 9107SOL    HW128220   2.960   0.589   6.022
 9107SOL    HW228221   3.077   0.491   6.079
 9108SOL     OW28222   5.172   3.840   6.063
 9108SOL    HW128223   5.192   3.926   6.109
 9108SOL    HW228224   5.104   3.789   6.116
 9109SOL     OW28225   0.715   2.903   2.815
 9109SOL    HW128226   0.777   2.915   2.737
 9109SOL    HW228227   0.759   2.941   2.897
 9110SOL     OW28228   1.849   4.351   4.332
 9110SOL    HW128229   1.754   4.380   4.347
 9110SOL    HW228230   1.851   4.255   4.304
 9111SOL     OW28231   4.180   2.877   0.130
 9111SOL    HW128232   4.172   2.974   0.105
 9111SOL    HW228233   4.221   2.870   0.221
 9112SOL     OW28234   0.995   5.085   5.206
 9112SOL    HW128235   1.015   4.991   5.178
 9112SOL    HW228236   0.942   5.083   5.291
 9113SOL     OW28237   4.596   0.070   1.559
 9113SOL    HW128238   4.541   0.130   1.617
 9113SOL    HW228239   4.637   7.027   1.615
 9114SOL     OW28240   1.429   4.785   1.689
 9114SOL    HW128241   1.525   4.790   1.664
 9114SOL    HW228242   1.396   4.691   1.677
 9115SOL     OW28243   1.114   4.837   5.115
 9115SOL    HW128244   1.139   4.785   5.033
 9115SOL    HW228245   1.197   4.858   5.167
 9116SOL     OW28246   6.453   1.058   0.045
 9116SOL    HW128247   6.462   1.117   6.995
 9116SOL    HW228248   6.540   1.055   0.095
 9117SOL     OW28249   5.901   2.803   0.386
 9117SOL    HW128250   5.850   2.867   0.443
 9117SOL    HW228251   5.871   2.810   0.291
 9118SOL     OW28252   6.579   4.977   0.283
 9118SOL    HW128253   6.639   5.026   0.220
 9118SOL    HW228254   6.635   4.938   0.357
 9119SOL     OW28255   4.655   0.356   1.733
 9119SOL    HW128256   4.629   0.438   1.681
 9119SOL    HW228257   4.623   0.365   1.827
 9120SOL     OW28258   5.936   2.015   5.961
 9120SOL    HW128259   5.963   2.107   5.990
 9120SOL    HW228260   5.846   2.020   5.916
 9121SOL     OW28261   2.481   2.392   5.475
 9121SOL    HW128262   2.524   2.442   5.399
 9121SOL    HW228263   2.387   2.369   5.451
 9122SOL     OW28264   2.027   4.259   2.182
 9122SOL    HW128265   1.983   4.212   2.258
 9122SOL    HW228266   2.046   4.354   2.208
 9123SOL     OW28267   3.191   0.228   4.445
 9123SOL    HW128268   3.224   0.145   4.399
 9123SOL    HW228269   3.106   0.258   4.403
 9124SOL     OW28270   5.655   6.705   0.099
 9124SOL    HW128271   5.587   6.778   0.094
 9124SOL    HW228272   5.706   6.714   0.185
 9125SOL     OW28273   5.302   4.383   1.609
 9125SOL    HW128274   5.224   4.386   1.545
 9125SOL    HW228275   5.268   4.365   1.701
 9126SOL     OW28276   5.948   2.792   1.690
 9126SOL    HW128277   5.909   2.807   1.781
 9126SOL    HW228278   5.956   2.880   1.643
 9127SOL     OW28279   6.385   1.477   6.006
 9127SOL    HW128280   6.294   1.514   6.020
 9127SOL    HW228281   6.381   1.399   5.944
 9128SOL     OW28282   5.372   1.728   5.557
 9128SOL    HW128283   5.403   1.661   5.625
 9128SOL    HW228284   5.423   1.813   5.569
 9129SOL     OW28285   0.212   2.615   0.813
 9129SOL    HW128286   0.282   2.558   0.768
 9129SOL    HW228287   0.239   2.632   0.907
 9130SOL     OW28288   0.212   3.001   0.772
 9130SOL    HW128289   0.211   3.060   0.692
 9130SOL    HW228290   0.300   2.954   0.778
 9131SOL     OW28291   6.096   3.122   5.396
 9131SOL    HW128292   6.157   3.200   5.405
 9131SOL    HW228293   6.068   3.090   5.487
 9132SOL     OW28294   1.277   5.240   4.420
 9132SOL    HW128295   1.196   5.295   4.398
 9132SOL    HW228296   1.359   5.288   4.390
 9133SOL     OW28297   3.930   5.765   2.487
 9133SOL    HW128298   3.942   5.773   2.388
 9133SOL    HW228299   3.836   5.789   2.511
 9134SOL     OW28300   5.097   5.291   0.617
 9134SOL    HW128301   5.040   5.319   0.695
 9134SOL    HW228302   5.080   5.195   0.596
 9135SOL     OW28303   6.439   6.558   1.520
 9135SOL    HW128304   6.384   6.639   1.539
 9135SOL    HW228305   6.525   6.586   1.478
 9136SOL     OW28306   5.754   5.387   6.305
 9136SOL    HW128307   5.697   5.422   6.379
 9136SOL    HW228308   5.844   5.431   6.308
 9137SOL     OW28309   4.726   1.471   1.410
 9137SOL    HW128310   4.802   1.526   1.444
 9137SOL    HW228311   4.664   1.530   1.358
 9138SOL     OW28312   0.420   5.606   5.974
 9138SOL    HW128313   0.465   5.555   6.048
 9138SOL    HW228314   0.419   5.703   5.997
 9139SOL     OW28315   2.488   1.482   4.513
 9139SOL    HW128316   2.494   1.478   4.413
 9139SOL    HW228317   2.557   1.544   4.548
 9140SOL     OW28318   6.467   3.633   2.939
 9140SOL    HW128319   6.461   3.688   3.022
 9140SOL    HW228320   6.393   3.567   2.937
 9141SOL     OW28321   6.061   0.316   6.950
 9141SOL    HW128322   6.082   0.219   6.937
 9141SOL    HW228323   5.995   0.327   7.024
 9142SOL     OW28324   0.375   2.696   1.510
 9142SOL    HW128325   0.298   2.632   1.503
 9142SOL    HW228326   0.450   2.663   1.452
 9143SOL     OW28327   6.402   3.361   0.296
 9143SOL    HW128328   6.493   3.370   0.336
 9143SOL    HW228329   6.384   3.440   0.237
 9144SOL     OW28330   2.157   5.319   5.309
 9144SOL    HW128331   2.220   5.346   5.383
 9144SOL    HW228332   2.152   5.393   5.242
 9145SOL     OW28333   0.164   5.605   0.318
 9145SOL    HW128334   0.200   5.654   0.397
 9145SOL    HW228335   0.095   5.662   0.272
 9146SOL     OW28336   5.468   2.951   2.904
 9146SOL    HW128337   5.459   2.856   2.874
 9146SOL    HW228338   5.564   2.980   2.895
 9147SOL     OW28339   5.967   0.514   4.671
 9147SOL    HW128340   5.990   0.528   4.574
 9147SOL    HW228341   5.994   0.595   4.723
 9148SOL     OW28342   5.068   6.020   1.050
 9148SOL    HW128343   5.098   5.928   1.078
 9148SOL    HW228344   4.976   6.037   1.087
 9149SOL     OW28345   6.116   3.444   3.354
 9149SOL    HW128346   6.064   3.388   3.290
 9149SOL    HW228347   6.210   3.454   3.321
 9150SOL     OW28348   2.969   5.377   1.728
 9150SOL    HW128349   2.897   5.317   1.765
 9150SOL    HW228350   3.058   5.343   1.756
 9151SOL     OW28351   2.114   4.579   3.156
 9151SOL    HW128352   2.174   4.503   3.131
 9151SOL    HW228353   2.100   4.580   3.255
 9152SOL     OW28354   1.952   4.416   4.576
 9152SOL    HW128355   1.934   4.375   4.486
 9152SOL    HW228356   2.050   4.407   4.597
 9153SOL     OW28357   1.360   3.548   6.650
 9153SOL    HW128358   1.267   3.521   6.625
 9153SOL    HW228359   1.383   3.634   6.603
 9154SOL     OW28360   4.093   4.592   6.964
 9154SOL    HW128361   4.182   4.607   7.009
 9154SOL    HW228362   4.023   4.580   0.005
 9155SOL     OW28363   1.413   4.038   2.224
 9155SOL    HW128364   1.333   4.081   2.268
 9155SOL    HW228365   1.426   4.078   2.133
 9156SOL     OW28366   1.381   2.206   0.490
 9156SOL    HW128367   1.385   2.108   0.511
 9156SOL    HW228368   1.464   2.251   0.524
 9157SOL     OW28369   6.955   4.202   6.148
 9157SOL    HW128370   7.022   4.276   6.151
 9157SOL    HW228371   6.897   4.212   6.068
 9158SOL     OW28372   5.626   3.110   4.392
 9158SOL    HW128373   5.667   3.201   4.384
 9158SOL    HW228374   5.645   3.074   4.484
 9159SOL     OW28375   2.036   0.637   2.460
 9159SOL    HW128376   2.107   0.705   2.480
 9159SOL    HW228377   2.018   0.636   2.362
 9160SOL     OW28378   5.583   6.951   5.464
 9160SOL    HW128379   5.621   7.028   5.413
 9160SOL    HW228380   5.560   6.980   5.557
 9161SOL     OW28381   4.785   4.047   4.498
 9161SOL    HW128382   4.705   4.101   4.471
 9161SOL    HW228383   4.758   3.952   4.516
 9162SOL     OW28384   4.729   1.285   4.104
 9162SOL    HW128385   4.759   1.198   4.144
 9162SOL    HW228386   4.642   1.312   4.144
 9163SOL     OW28387   1.525   2.552   4.797
 9163SOL    HW128388   1.620   2.565   4.824
 9163SOL    HW228389   1.471   2.633   4.821
 9164SOL     OW28390   2.141   6.955   0.032
 9164SOL    HW128391   2.132   7.006   0.118
 9164SOL    HW228392   2.063   6.894   0.021
 9165SOL     OW28393   5.834   1.507   6.035
 9165SOL    HW128394   5.816   1.506   6.134
 9165SOL    HW228395   5.863   1.599   6.008
 9166SOL     OW28396   3.830   6.110   1.846
 9166SOL    HW128397   3.865   6.033   1.793
 9166SOL    HW228398   3.825   6.191   1.788
 9167SOL     OW28399   1.899   2.893   6.177
 9167SOL    HW128400   1.928   2.908   6.083
 9167SOL    HW228401   1.969   2.841   6.226
 9168SOL     OW28402   6.994   6.839   6.317
 9168SOL    HW128403   0.015   6.872   6.238
 9168SOL    HW228404   6.938   6.913   6.355
 9169SOL     OW28405   5.712   0.047   5.268
 9169SOL    HW128406   5.779   7.002   5.275
 9169SOL    HW228407   5.759   0.134   5.261
 9170SOL     OW28408   1.628   6.133   6.849
 9170SOL    HW128409   1.629   6.062   6.920
 9170SOL    HW228410   1.658   6.093   6.763
 9171SOL     OW28411   4.212   4.758   0.903
 9171SOL    HW128412   4.218   4.852   0.869
 9171SOL    HW228413   4.267   4.749   0.986
 9172SOL     OW28414   4.392   1.360   2.313
 9172SOL    HW128415   4.481   1.362   2.268
 9172SOL    HW228416   4.322   1.332   2.247
 9173SOL     OW28417   6.363   3.589   6.098
 9173SOL    HW128418   6.336   3.520   6.165
 9173SOL    HW228419   6.447   3.561   6.053
 9174SOL     OW28420   6.080   4.336   1.107
 9174SOL    HW128421   6.096   4.334   1.205
 9174SOL    HW228422   6.020   4.260   1.081
 9175SOL     OW28423   0.413   6.961   5.604
 9175SOL    HW128424   0.447   7.016   5.680
 9175SOL    HW228425   0.313   6.964   5.603
 9176SOL     OW28426   2.364   1.092   3.889
 9176SOL    HW128427   2.277   1.055   3.920
 9176SOL    HW228428   2.438   1.056   3.946
 9177SOL     OW28429   0.985   4.740   4.731
 9177SOL    HW128430   0.982   4.647   4.768
 9177SOL    HW228431   1.079   4.764   4.707
 9178SOL     OW28432   1.593   5.761   0.442
 9178SOL    HW128433   1.504   5.794   0.474
 9178SOL    HW228434   1.631   5.698   0.510
 9179SOL     OW28435   2.298   4.231   3.532
 9179SOL    HW128436   2.305   4.136   3.566
 9179SOL    HW228437   2.331   4.293   3.603
 9180SOL     OW28438   6.640   2.630   3.557
 9180SOL    HW128439   6.634   2.531   3.568
 9180SOL    HW228440   6.702   2.651   3.481
 9181SOL     OW28441   5.651   2.577   5.030
 9181SOL    HW128442   5.651   2.493   4.976
 9181SOL    HW228443   5.721   2.640   4.995
 9182SOL     OW28444   2.609   6.892   2.417
 9182SOL    HW128445   2.701   6.928   2.404
 9182SOL    HW228446   2.614   6.798   2.448
 9183SOL     OW28447   4.624   4.942   0.620
 9183SOL    HW128448   4.531   4.918   0.594
 9183SOL    HW228449   4.629   4.958   0.718
 9184SOL     OW28450   4.988   2.323   0.372
 9184SOL    HW128451   4.910   2.385   0.379
 9184SOL    HW228452   5.000   2.276   0.460
 9185SOL     OW28453   5.007   6.770   5.057
 9185SOL    HW128454   4.917   6.810   5.040
 9185SOL    HW228455   5.076   6.822   5.008
 9186SOL     OW28456   5.682   5.957   4.693
 9186SOL    HW128457   5.650   5.884   4.753
 9186SOL    HW228458   5.609   6.025   4.682
 9187SOL     OW28459   2.677   2.196   0.250
 9187SOL    HW128460   2.748   2.237   0.306
 9187SOL    HW228461   2.672   2.098   0.269
 9188SOL     OW28462   1.732   6.979   1.176
 9188SOL    HW128463   1.684   6.901   1.135
 9188SOL    HW228464   1.720   6.977   1.276
 9189SOL     OW28465   2.778   5.967   2.080
 9189SOL    HW128466   2.811   5.968   2.175
 9189SOL    HW228467   2.696   6.023   2.073
 9190SOL     OW28468   1.912   4.659   5.579
 9190SOL    HW128469   1.840   4.605   5.534
 9190SOL    HW228470   1.965   4.707   5.510
 9191SOL     OW28471   6.372   1.422   6.474
 9191SOL    HW128472   6.359   1.521   6.465
 9191SOL    HW228473   6.283   1.377   6.469
 9192SOL     OW28474   0.756   2.321   6.100
 9192SOL    HW128475   0.847   2.356   6.079
 9192SOL    HW228476   0.751   2.224   6.076
 9193SOL     OW28477   3.547   4.231   5.891
 9193SOL    HW128478   3.506   4.176   5.963
 9193SOL    HW228479   3.527   4.189   5.802
 9194SOL     OW28480   3.455   1.181   3.422
 9194SOL    HW128481   3.380   1.169   3.356
 9194SOL    HW228482   3.416   1.208   3.511
 9195SOL     OW28483   0.516   2.383   2.873
 9195SOL    HW128484   0.416   2.383   2.877
 9195SOL    HW228485   0.549   2.477   2.884
 9196SOL     OW28486   5.836   0.554   3.307
 9196SOL    HW128487   5.851   0.597   3.396
 9196SOL    HW228488   5.849   0.622   3.234
 9197SOL     OW28489   1.763   5.118   1.479
 9197SOL    HW128490   1.722   5.052   1.417
 9197SOL    HW228491   1.844   5.078   1.521
 9198SOL     OW28492   6.734   4.539   6.522
 9198SOL    HW128493   6.679   4.474   6.469
 9198SOL    HW228494   6.701   4.632   6.505
 9199SOL     OW28495   0.721   3.545   5.120
 9199SOL    HW128496   0.736   3.481   5.195
 9199SOL    HW228497   0.666   3.500   5.049
 9200SOL     OW28498   3.343   6.141   6.951
 9200SOL    HW128499   3.273   6.213   6.950
 9200SOL    HW228500   3.349   6.101   0.014
 9201SOL     OW28501   0.560   3.281   0.453
 9201SOL    HW128502   0.476   3.290   0.399
 9201SOL    HW228503   0.638   3.271   0.391
 9202SOL     OW28504   0.872   6.392   2.486
 9202SOL    HW128505   0.891   6.314   2.426
 9202SOL    HW228506   0.944   6.400   2.554
 9203SOL     OW28507   0.144   3.273   5.701
 9203SOL    HW128508   0.215   3.229   5.757
 9203SOL    HW228509   0.091   3.203   5.653
 9204SOL     OW28510   4.673   2.985   5.534
 9204SOL    HW128511   4.715   3.076   5.530
 9204SOL    HW228512   4.743   2.917   5.555
 9205SOL     OW28513   5.038   6.107   3.252
 9205SOL    HW128514   5.043   6.206   3.242
 9205SOL    HW228515   5.126   6.072   3.281
 9206SOL     OW28516   3.445   4.951   3.626
 9206SOL    HW128517   3.401   5.012   3.560
 9206SOL    HW228518   3.540   4.933   3.598
 9207SOL     OW28519   5.457   4.616   6.064
 9207SOL    HW128520   5.410   4.588   5.980
 9207SOL    HW228521   5.522   4.689   6.043
 9208SOL     OW28522   5.889   4.622   3.664
 9208SOL    HW128523   5.878   4.652   3.569
 9208SOL    HW228524   5.843   4.534   3.676
 9209SOL     OW28525   4.293   0.793   0.442
 9209SOL    HW128526   4.235   0.869   0.411
 9209SOL    HW228527   4.348   0.760   0.365
 9210SOL     OW28528   0.813   1.472   1.924
 9210SOL    HW128529   0.804   1.402   1.996
 9210SOL    HW228530   0.883   1.444   1.859
 9211SOL     OW28531   6.723   2.879   6.058
 9211SOL    HW128532   6.702   2.960   6.004
 9211SOL    HW228533   6.789   2.822   6.009
 9212SOL     OW28534   4.376   5.417   4.221
 9212SOL    HW128535   4.338   5.440   4.310
 9212SOL    HW228536   4.441   5.341   4.230
 9213SOL     OW28537   5.421   3.859   5.180
 9213SOL    HW128538   5.476   3.776   5.168
 9213SOL    HW228539   5.336   3.850   5.128
 9214SOL     OW28540   7.016   4.025   5.784
 9214SOL    HW128541   7.017   4.003   5.687
 9214SOL    HW228542   0.064   3.982   5.829
 9215SOL     OW28543   1.625   2.979   2.014
 9215SOL    HW128544   1.601   3.075   2.001
 9215SOL    HW228545   1.659   2.940   1.928
 9216SOL     OW28546   3.655   7.017   2.352
 9216SOL    HW128547   3.674   6.962   2.271
 9216SOL    HW228548   3.633   0.081   2.325
 9217SOL     OW28549   0.024   3.031   6.894
 9217SOL    HW128550   6.969   2.989   6.926
 9217SOL    HW228551   0.002   3.108   6.834
 9218SOL     OW28552   2.139   0.973   6.960
 9218SOL    HW128553   2.062   1.012   7.010
 9218SOL    HW228554   2.215   1.038   6.959
 9219SOL     OW28555   5.920   3.415   0.229
 9219SOL    HW128556   5.936   3.424   0.130
 9219SOL    HW228557   5.941   3.322   0.257
 9220SOL     OW28558   1.110   6.211   1.720
 9220SOL    HW128559   1.158   6.146   1.778
 9220SOL    HW228560   1.036   6.254   1.772
 9221SOL     OW28561   2.417   0.642   3.224
 9221SOL    HW128562   2.490   0.711   3.221
 9221SOL    HW228563   2.453   0.559   3.266
 9222SOL     OW28564   2.732   5.905   5.927
 9222SOL    HW128565   2.713   5.837   5.998
 9222SOL    HW228566   2.812   5.959   5.953
 9223SOL     OW28567   1.040   2.299   4.072
 9223SOL    HW128568   1.034   2.233   3.998
 9223SOL    HW228569   0.949   2.316   4.110
 9224SOL     OW28570   1.324   5.449   4.044
 9224SOL    HW128571   1.231   5.432   4.011
 9224SOL    HW228572   1.346   5.546   4.034
 9225SOL     OW28573   3.131   6.337   6.610
 9225SOL    HW128574   3.091   6.427   6.627
 9225SOL    HW228575   3.159   6.331   6.514
 9226SOL     OW28576   5.984   6.424   1.408
 9226SOL    HW128577   6.040   6.504   1.431
 9226SOL    HW228578   5.980   6.413   1.308
 9227SOL     OW28579   1.763   5.581   0.572
 9227SOL    HW128580   1.785   5.565   0.669
 9227SOL    HW228581   1.845   5.613   0.524
 9228SOL     OW28582   2.091   1.970   5.894
 9228SOL    HW128583   1.992   1.962   5.908
 9228SOL    HW228584   2.113   1.956   5.798
 9229SOL     OW28585   0.829   6.243   5.131
 9229SOL    HW128586   0.769   6.166   5.154
 9229SOL    HW228587   0.863   6.284   5.216
 9230SOL     OW28588   5.401   2.527   3.024
 9230SOL    HW128589   5.437   2.436   3.004
 9230SOL    HW228590   5.324   2.518   3.088
 9231SOL     OW28591   0.509   3.153   4.653
 9231SOL    HW128592   0.454   3.145   4.737
 9231SOL    HW228593   0.575   3.078   4.650
 9232SOL     OW28594   4.118   5.422   0.798
 9232SOL    HW128595   4.182   5.449   0.726
 9232SOL    HW228596   4.064   5.501   0.827
 9233SOL     OW28597   5.683   5.476   1.988
 9233SOL    HW128598   5.747   5.484   2.064
 9233SOL    HW228599   5.733   5.478   1.902
 9234SOL     OW28600   3.565   5.924   6.658
 9234SOL    HW128601   3.480   5.901   6.612
 9234SOL    HW228602   3.595   5.847   6.715
 9235SOL     OW28603   1.416   3.230   3.202
 9235SOL    HW128604   1.462   3.277   3.278
 9235SOL    HW228605   1.392   3.137   3.230
 9236SOL     OW28606   1.855   4.363   5.939
 9236SOL    HW128607   1.909   4.411   5.870
 9236SOL    HW228608   1.884   4.392   6.030
 9237SOL     OW28609   0.969   6.293   4.301
 9237SOL    HW128610   0.871   6.315   4.305
 9237SOL    HW228611   0.983   6.213   4.242
 9238SOL     OW28612   2.516   1.790   6.994
 9238SOL    HW128613   2.466   1.874   6.970
 9238SOL    HW228614   2.467   1.711   6.959
 9239SOL     OW28615   6.795   3.883   6.848
 9239SOL    HW128616   6.762   3.848   6.760
 9239SOL    HW228617   6.751   3.971   6.867
 9240SOL     OW28618   4.706   1.830   2.056
 9240SOL    HW128619   4.776   1.838   2.126
 9240SOL    HW228620   4.620   1.870   2.090
 9241SOL     OW28621   1.198   5.473   5.796
 9241SOL    HW128622   1.262   5.450   5.723
 9241SOL    HW228623   1.167   5.388   5.840
 9242SOL     OW28624   0.847   4.699   6.977
 9242SOL    HW128625   0.879   4.734   0.036
 9242SOL    HW228626   0.859   4.769   6.907
 9243SOL     OW28627   0.214   6.378   1.338
 9243SOL    HW128628   0.194   6.283   1.363
 9243SOL    HW228629   0.238   6.383   1.241
 9244SOL     OW28630   4.092   5.858   0.040
 9244SOL    HW128631   4.105   5.868   6.971
 9244SOL    HW228632   4.149   5.783   0.074
 9245SOL     OW28633   1.798   4.800   3.137
 9245SOL    HW128634   1.823   4.823   3.231
 9245SOL    HW228635   1.869   4.833   3.075
 9246SOL     OW28636   6.743   5.222   2.435
 9246SOL    HW128637   6.727   5.198   2.531
 9246SOL    HW228638   6.660   5.265   2.398
 9247SOL     OW28639   1.139   0.026   3.095
 9247SOL    HW128640   1.182   0.116   3.101
 9247SOL    HW228641   1.180   6.994   3.162
 9248SOL     OW28642   2.398   2.106   4.455
 9248SOL    HW128643   2.469   2.068   4.396
 9248SOL    HW228644   2.313   2.055   4.441
 9249SOL     OW28645   3.664   3.757   0.449
 9249SOL    HW128646   3.570   3.755   0.482
 9249SOL    HW228647   3.677   3.837   0.390
 9250SOL     OW28648   5.466   2.895   3.933
 9250SOL    HW128649   5.369   2.878   3.915
 9250SOL    HW228650   5.492   2.848   4.017
 9251SOL     OW28651   4.079   1.755   2.845
 9251SOL    HW128652   4.114   1.802   2.926
 9251SOL    HW228653   4.041   1.822   2.781
 9252SOL     OW28654   5.095   7.028   3.908
 9252SOL    HW128655   5.195   7.029   3.921
 9252SOL    HW228656   5.060   6.936   3.927
 9253SOL     OW28657   5.676   6.440   5.501
 9253SOL    HW128658   5.649   6.389   5.582
 9253SOL    HW228659   5.653   6.536   5.513
 9254SOL     OW28660   6.621   5.031   3.045
 9254SOL    HW128661   6.626   5.076   3.134
 9254SOL    HW228662   6.576   5.092   2.980
 9255SOL     OW28663   4.338   3.949   0.055
 9255SOL    HW128664   4.288   4.006   0.121
 9255SOL    HW228665   4.378   4.007   7.014
 9256SOL     OW28666   3.282   0.272   2.845
 9256SOL    HW128667   3.345   0.248   2.771
 9256SOL    HW228668   3.257   0.368   2.836
 9257SOL     OW28669   0.312   3.797   3.383
 9257SOL    HW128670   0.244   3.773   3.452
 9257SOL    HW228671   0.329   3.895   3.386
 9258SOL     OW28672   3.277   2.922   2.496
 9258SOL    HW128673   3.268   2.912   2.595
 9258SOL    HW228674   3.374   2.921   2.471
 9259SOL     OW28675   1.350   2.408   0.907
 9259SOL    HW128676   1.412   2.337   0.940
 9259SOL    HW228677   1.389   2.451   0.826
 9260SOL     OW28678   5.638   1.570   4.719
 9260SOL    HW128679   5.639   1.581   4.819
 9260SOL    HW228680   5.545   1.549   4.689
 9261SOL     OW28681   3.070   0.839   0.546
 9261SOL    HW128682   3.158   0.848   0.592
 9261SOL    HW228683   3.048   0.924   0.498
 9262SOL     OW28684   0.219   4.371   5.680
 9262SOL    HW128685   0.188   4.320   5.600
 9262SOL    HW228686   0.140   4.406   5.730
 9263SOL     OW28687   5.038   6.712   0.937
 9263SOL    HW128688   5.087   6.792   0.901
 9263SOL    HW228689   5.104   6.640   0.959
 9264SOL     OW28690   4.522   5.073   0.328
 9264SOL    HW128691   4.578   5.130   0.388
 9264SOL    HW228692   4.574   5.048   0.247
 9265SOL     OW28693   4.183   1.791   0.386
 9265SOL    HW128694   4.206   1.786   0.289
 9265SOL    HW228695   4.181   1.886   0.415
 9266SOL     OW28696   2.363   0.019   1.387
 9266SOL    HW128697   2.346   6.954   1.359
 9266SOL    HW228698   2.378   0.076   1.306
 9267SOL     OW28699   6.748   3.011   4.521
 9267SOL    HW128700   6.717   2.946   4.590
 9267SOL    HW228701   6.799   2.963   4.450
 9268SOL     OW28702   0.914   4.990   2.006
 9268SOL    HW128703   0.882   4.900   2.035
 9268SOL    HW228704   0.875   5.013   1.917
 9269SOL     OW28705   2.994   1.478   6.108
 9269SOL    HW128706   2.997   1.471   6.008
 9269SOL    HW228707   2.916   1.426   6.143
 9270SOL     OW28708   4.303   6.452   5.947
 9270SOL    HW128709   4.257   6.363   5.938
 9270SOL    HW228710   4.259   6.505   6.020
 9271SOL     OW28711   6.434   6.850   0.001
 9271SOL    HW128712   6.378   6.795   6.969
 9271SOL    HW228713   6.394   6.942   0.009
 9272SOL     OW28714   1.131   5.792   4.596
 9272SOL    HW128715   1.131   5.843   4.510
 9272SOL    HW228716   1.216   5.810   4.645
 9273SOL     OW28717   6.195   6.474   3.281
 9273SOL    HW128718   6.146   6.416   3.346
 9273SOL    HW228719   6.130   6.512   3.216
 9274SOL     OW28720   6.882   2.047   6.619
 9274SOL    HW128721   6.792   2.029   6.659
 9274SOL    HW228722   6.942   2.088   6.687
 9275SOL     OW28723   0.266   0.968   0.209
 9275SOL    HW128724   0.213   1.021   0.142
 9275SOL    HW228725   0.263   0.871   0.184
 9276SOL     OW28726   1.932   3.819   1.780
 9276SOL    HW128727   2.016   3.811   1.833
 9276SOL    HW228728   1.933   3.752   1.706
 9277SOL     OW28729   4.610   3.677   6.863
 9277SOL    HW128730   4.511   3.663   6.868
 9277SOL    HW228731   4.631   3.735   6.784
 9278SOL     OW28732   1.539   0.358   5.988
 9278SOL    HW128733   1.552   0.456   5.969
 9278SOL    HW228734   1.617   0.307   5.954
 9279SOL     OW28735   4.620   0.596   1.612
 9279SOL    HW128736   4.670   0.677   1.641
 9279SOL    HW228737   4.542   0.623   1.555
 9280SOL     OW28738   1.877   1.881   3.193
 9280SOL    HW128739   1.907   1.947   3.263
 9280SOL    HW228740   1.958   1.837   3.153
 9281SOL     OW28741   2.593   4.373   0.396
 9281SOL    HW128742   2.544   4.295   0.436
 9281SOL    HW228743   2.599   4.362   0.297
 9282SOL     OW28744   4.676   1.274   3.838
 9282SOL    HW128745   4.692   1.194   3.780
 9282SOL    HW228746   4.677   1.246   3.934
 9283SOL     OW28747   5.420   0.714   4.008
 9283SOL    HW128748   5.509   0.744   3.973
 9283SOL    HW228749   5.393   0.629   3.962
 9284SOL     OW28750   3.315   3.284   5.836
 9284SOL    HW128751   3.218   3.262   5.835
 9284SOL    HW228752   3.353   3.275   5.744
 9285SOL     OW28753   4.894   2.798   0.866
 9285SOL    HW128754   4.908   2.873   0.802
 9285SOL    HW228755   4.813   2.746   0.839
 9286SOL     OW28756   5.246   5.800   0.638
 9286SOL    HW128757   5.186   5.797   0.558
 9286SOL    HW228758   5.216   5.872   0.700
 9287SOL     OW28759   3.460   5.214   6.966
 9287SOL    HW128760   3.484   5.186   6.874
 9287SOL    HW228761   3.533   5.188   7.029
 9288SOL     OW28762   4.928   1.355   3.757
 9288SOL    HW128763   4.846   1.319   3.801
 9288SOL    HW228764   4.913   1.451   3.732
 9289SOL     OW28765   3.682   1.100   2.329
 9289SOL    HW128766   3.588   1.080   2.301
 9289SOL    HW228767   3.722   1.167   2.266
 9290SOL     OW28768   5.257   1.464   2.968
 9290SOL    HW128769   5.221   1.549   2.930
 9290SOL    HW228770   5.229   1.387   2.910
 9291SOL     OW28771   1.557   6.301   4.038
 9291SOL    HW128772   1.528   6.357   3.960
 9291SOL    HW228773   1.520   6.208   4.027
 9292SOL     OW28774   1.505   3.040   6.867
 9292SOL    HW128775   1.447   2.965   6.896
 9292SOL    HW228776   1.451   3.124   6.864
 9293SOL     OW28777   4.956   3.645   6.874
 9293SOL    HW128778   4.895   3.623   6.798
 9293SOL    HW228779   5.006   3.563   6.901
 9294SOL     OW28780   4.631   0.588   5.233
 9294SOL    HW128781   4.574   0.588   5.151
 9294SOL    HW228782   4.638   0.495   5.269
 9295SOL     OW28783   5.538   2.311   4.583
 9295SOL    HW128784   5.584   2.261   4.509
 9295SOL    HW228785   5.465   2.367   4.544
 9296SOL     OW28786   0.957   6.298   6.918
 9296SOL    HW128787   0.958   6.365   6.992
 9296SOL    HW228788   1.012   6.332   6.841
 9297SOL     OW28789   6.559   0.508   0.947
 9297SOL    HW128790   6.578   0.439   1.016
 9297SOL    HW228791   6.639   0.567   0.935
 9298SOL     OW28792   0.504   0.071   5.397
 9298SOL    HW128793   0.494   7.028   5.465
 9298SOL    HW228794   0.589   0.058   5.346
 9299SOL     OW28795   0.619   2.352   5.292
 9299SOL    HW128796   0.673   2.383   5.214
 9299SOL    HW228797   0.528   2.325   5.261
 9300SOL     OW28798   0.413   4.880   5.868
 9300SOL    HW128799   0.357   4.943   5.920
 9300SOL    HW228800   0.487   4.845   5.926
 9301SOL     OW28801   5.080   4.814   3.702
 9301SOL    HW128802   5.102   4.726   3.659
 9301SOL    HW228803   5.036   4.874   3.635
 9302SOL     OW28804   2.222   3.015   3.840
 9302SOL    HW128805   2.190   3.027   3.934
 9302SOL    HW228806   2.151   3.045   3.777
 9303SOL     OW28807   2.696   4.301   0.997
 9303SOL    HW128808   2.706   4.208   0.962
 9303SOL    HW228809   2.671   4.298   1.094
 9304SOL     OW28810   4.071   5.197   1.774
 9304SOL    HW128811   4.150   5.140   1.750
 9304SOL    HW228812   4.076   5.222   1.871
 9305SOL     OW28813   3.227   1.374   0.826
 9305SOL    HW128814   3.140   1.349   0.868
 9305SOL    HW228815   3.220   1.360   0.727
 9306SOL     OW28816   0.402   5.131   4.785
 9306SOL    HW128817   0.313   5.149   4.743
 9306SOL    HW228818   0.472   5.187   4.740
 9307SOL     OW28819   2.011   3.515   1.828
 9307SOL    HW128820   2.064   3.552   1.751
 9307SOL    HW228821   2.073   3.497   1.904
 9308SOL     OW28822   1.874   3.401   0.286
 9308SOL    HW128823   1.904   3.324   0.229
 9308SOL    HW228824   1.776   3.413   0.278
 9309SOL     OW28825   3.465   4.750   6.114
 9309SOL    HW128826   3.413   4.680   6.163
 9309SOL    HW228827   3.549   4.771   6.165
 9310SOL     OW28828   4.650   5.320   6.567
 9310SOL    HW128829   4.631   5.352   6.659
 9310SOL    HW228830   4.734   5.266   6.567
 9311SOL     OW28831   4.318   5.205   2.008
 9311SOL    HW128832   4.338   5.109   1.989
 9311SOL    HW228833   4.333   5.260   1.926
 9312SOL     OW28834   1.113   3.659   1.159
 9312SOL    HW128835   1.029   3.661   1.213
 9312SOL    HW228836   1.135   3.564   1.135
 9313SOL     OW28837   0.059   0.803   1.334
 9313SOL    HW128838   0.119   0.836   1.407
 9313SOL    HW228839   6.993   0.805   1.366
 9314SOL     OW28840   4.863   5.127   6.506
 9314SOL    HW128841   4.954   5.130   6.547
 9314SOL    HW228842   4.848   5.039   6.462
 9315SOL     OW28843   6.021   0.864   5.072
 9315SOL    HW128844   5.926   0.859   5.041
 9315SOL    HW228845   6.028   0.932   5.145
 9316SOL     OW28846   4.701   6.042   5.725
 9316SOL    HW128847   4.709   6.138   5.751
 9316SOL    HW228848   4.728   6.031   5.630
 9317SOL     OW28849   5.579   5.378   3.547
 9317SOL    HW128850   5.625   5.376   3.458
 9317SOL    HW228851   5.573   5.285   3.584
 9318SOL     OW28852   5.747   0.578   5.884
 9318SOL    HW128853   5.829   0.595   5.938
 9318SOL    HW228854   5.666   0.607   5.935
 9319SOL     OW28855   2.058   3.014   0.004
 9319SOL    HW128856   2.026   2.949   6.964
 9319SOL    HW228857   2.132   3.069   6.995
 9320SOL     OW28858   3.765   0.286   5.066
 9320SOL    HW128859   3.819   0.202   5.058
 9320SOL    HW228860   3.772   0.337   4.980
 9321SOL     OW28861   0.010   0.324   3.682
 9321SOL    HW128862   6.979   0.317   3.761
 9321SOL    HW228863   6.997   0.279   3.603
 9322SOL     OW28864   0.559   3.285   6.937
 9322SOL    HW128865   0.532   3.239   6.853
 9322SOL    HW228866   0.478   3.309   6.990
 9323SOL     OW28867   1.407   0.766   5.889
 9323SOL    HW128868   1.360   0.685   5.854
 9323SOL    HW228869   1.444   0.745   5.980
 9324SOL     OW28870   1.062   4.481   1.030
 9324SOL    HW128871   1.039   4.388   1.004
 9324SOL    HW228872   0.979   4.535   1.038
 9325SOL     OW28873   5.789   0.842   0.333
 9325SOL    HW128874   5.699   0.798   0.331
 9325SOL    HW228875   5.838   0.813   0.415
 9326SOL     OW28876   2.187   5.383   0.720
 9326SOL    HW128877   2.250   5.351   0.649
 9326SOL    HW228878   2.197   5.482   0.730
 9327SOL     OW28879   5.347   0.775   2.685
 9327SOL    HW128880   5.276   0.806   2.621
 9327SOL    HW228881   5.325   0.808   2.777
 9328SOL     OW28882   2.338   1.033   5.297
 9328SOL    HW128883   2.242   1.039   5.325
 9328SOL    HW228884   2.379   0.952   5.337
 9329SOL     OW28885   6.101   3.694   1.018
 9329SOL    HW128886   6.010   3.678   0.979
 9329SOL    HW228887   6.096   3.771   1.082
 9330SOL     OW28888   6.563   0.254   5.878
 9330SOL    HW128889   6.600   0.265   5.785
 9330SOL    HW228890   6.555   0.343   5.922
 9331SOL     OW28891   2.482   1.075   0.505
 9331SOL    HW128892   2.432   0.990   0.524
 9331SOL    HW228893   2.418   1.145   0.474
 9332SOL     OW28894   4.213   4.268   1.418
 9332SOL    HW128895   4.307   4.281   1.386
 9332SOL    HW228896   4.160   4.218   1.349
 9333SOL     OW28897   4.207   4.157   0.196
 9333SOL    HW128898   4.271   4.231   0.219
 9333SOL    HW228899   4.117   4.178   0.234
 9334SOL     OW28900   5.576   5.756   3.125
 9334SOL    HW128901   5.660   5.809   3.139
 9334SOL    HW228902   5.499   5.806   3.164
 9335SOL     OW28903   1.057   1.266   6.581
 9335SOL    HW128904   0.988   1.301   6.645
 9335SOL    HW228905   1.113   1.343   6.549
 9336SOL     OW28906   3.356   5.580   5.810
 9336SOL    HW128907   3.418   5.592   5.732
 9336SOL    HW228908   3.381   5.497   5.860
 9337SOL     OW28909   4.098   1.763   4.868
 9337SOL    HW128910   4.106   1.844   4.810
 9337SOL    HW228911   4.022   1.776   4.932
 9338SOL     OW28912   5.491   0.301   2.077
 9338SOL    HW128913   5.398   0.337   2.075
 9338SOL    HW228914   5.490   0.205   2.106
 9339SOL     OW28915   6.154   6.656   1.369
 9339SOL    HW128916   6.215   6.601   1.311
 9339SOL    HW228917   6.116   6.731   1.316
 9340SOL     OW28918   4.738   4.272   3.998
 9340SOL    HW128919   4.702   4.344   4.057
 9340SOL    HW228920   4.747   4.187   4.049
 9341SOL     OW28921   0.548   5.837   1.151
 9341SOL    HW128922   0.455   5.808   1.176
 9341SOL    HW228923   0.598   5.758   1.116
 9342SOL     OW28924   2.464   6.414   4.050
 9342SOL    HW128925   2.468   6.409   3.950
 9342SOL    HW228926   2.550   6.381   4.089
 9343SOL     OW28927   5.374   4.253   2.210
 9343SOL    HW128928   5.301   4.208   2.261
 9343SOL    HW228929   5.462   4.229   2.250
 9344SOL     OW28930   4.580   6.759   3.167
 9344SOL    HW128931   4.595   6.768   3.069
 9344SOL    HW228932   4.500   6.813   3.193
 9345SOL     OW28933   6.684   5.828   1.963
 9345SOL    HW128934   6.700   5.739   2.007
 9345SOL    HW228935   6.609   5.874   2.010
 9346SOL     OW28936   5.459   1.318   0.873
 9346SOL    HW128937   5.462   1.220   0.892
 9346SOL    HW228938   5.514   1.367   0.940
 9347SOL     OW28939   2.975   3.882   0.326
 9347SOL    HW128940   2.895   3.889   0.266
 9347SOL    HW228941   3.036   3.811   0.293
 9348SOL     OW28942   2.841   6.562   2.349
 9348SOL    HW128943   2.786   6.582   2.430
 9348SOL    HW228944   2.833   6.464   2.327
 9349SOL     OW28945   6.589   5.565   3.022
 9349SOL    HW128946   6.648   5.562   2.941
 9349SOL    HW228947   6.594   5.655   3.063
 9350SOL     OW28948   6.929   2.900   5.234
 9350SOL    HW128949   6.965   2.963   5.302
 9350SOL    HW228950   6.998   2.885   5.163
 9351SOL     OW28951   3.027   0.006   0.003
 9351SOL    HW128952   3.014   6.937   7.021
 9351SOL    HW228953   2.939   0.052   0.009
 9352SOL     OW28954   3.195   1.751   6.480
 9352SOL    HW128955   3.171   1.663   6.439
 9352SOL    HW228956   3.294   1.764   6.475
 9353SOL     OW28957   0.470   4.276   1.096
 9353SOL    HW128958   0.549   4.304   1.149
 9353SOL    HW228959   0.481   4.181   1.066
 9354SOL     OW28960   0.717   1.559   6.496
 9354SOL    HW128961   0.624   1.528   6.515
 9354SOL    HW228962   0.715   1.651   6.457
 9355SOL     OW28963   0.240   2.193   4.585
 9355SOL    HW128964   0.313   2.164   4.523
 9355SOL    HW228965   0.189   2.269   4.543
 9356SOL     OW28966   4.730   6.767   2.160
 9356SOL    HW128967   4.642   6.765   2.206
 9356SOL    HW228968   4.789   6.695   2.197
 9357SOL     OW28969   1.826   3.648   6.034
 9357SOL    HW128970   1.787   3.713   6.099
 9357SOL    HW228971   1.754   3.611   5.975
 9358SOL     OW28972   6.864   3.102   1.670
 9358SOL    HW128973   6.917   3.083   1.753
 9358SOL    HW228974   6.777   3.054   1.674
 9359SOL     OW28975   1.777   4.260   5.611
 9359SOL    HW128976   1.854   4.287   5.553
 9359SOL    HW228977   1.713   4.205   5.557
 9360SOL     OW28978   0.686   4.414   6.945
 9360SOL    HW128979   0.666   4.473   6.867
 9360SOL    HW228980   0.744   4.338   6.916
 9361SOL     OW28981   1.489   5.458   2.899
 9361SOL    HW128982   1.405   5.466   2.845
 9361SOL    HW228983   1.476   5.388   2.970
 9362SOL     OW28984   1.922   2.269   2.562
 9362SOL    HW128985   1.918   2.190   2.623
 9362SOL    HW228986   1.867   2.344   2.601
 9363SOL     OW28987   3.114   5.745   1.888
 9363SOL    HW128988   3.189   5.769   1.949
 9363SOL    HW228989   3.057   5.825   1.872
 9364SOL     OW28990   2.818   2.738   6.592
 9364SOL    HW128991   2.850   2.683   6.669
 9364SOL    HW228992   2.882   2.813   6.576
 9365SOL     OW28993   2.861   2.123   4.124
 9365SOL    HW128994   2.945   2.176   4.116
 9365SOL    HW228995   2.783   2.179   4.097
 9366SOL     OW28996   3.791   5.287   6.330
 9366SOL    HW128997   3.859   5.323   6.394
 9366SOL    HW228998   3.774   5.354   6.259
 9367SOL     OW28999   6.913   6.643   2.374
 9367SOL    HW129000   6.972   6.695   2.436
 9367SOL    HW229001   6.871   6.706   2.309
 9368SOL     OW29002   3.830   0.689   2.969
 9368SOL    HW129003   3.755   0.628   2.943
 9368SOL    HW229004   3.835   0.694   3.069
 9369SOL     OW29005   6.993   6.680   3.574
 9369SOL    HW129006   6.939   6.654   3.654
 9369SOL    HW229007   6.998   6.603   3.511
 9370SOL     OW29008   5.629   0.360   4.436
 9370SOL    HW129009   5.644   0.277   4.383
 9370SOL    HW229010   5.573   0.339   4.517
 9371SOL     OW29011   2.255   5.026   0.465
 9371SOL    HW129012   2.297   4.948   0.511
 9371SOL    HW229013   2.275   5.022   0.367
 9372SOL     OW29014   5.020   6.500   1.306
 9372SOL    HW129015   5.015   6.492   1.207
 9372SOL    HW229016   5.115   6.491   1.335
 9373SOL     OW29017   4.792   2.618   1.575
 9373SOL    HW129018   4.783   2.712   1.608
 9373SOL    HW229019   4.784   2.617   1.476
 9374SOL     OW29020   0.475   2.519   0.111
 9374SOL    HW129021   0.555   2.575   0.088
 9374SOL    HW229022   0.419   2.568   0.178
 9375SOL     OW29023   0.634   1.857   1.112
 9375SOL    HW129024   0.725   1.892   1.133
 9375SOL    HW229025   0.566   1.929   1.130
 9376SOL     OW29026   2.484   4.124   1.451
 9376SOL    HW129027   2.401   4.140   1.503
 9376SOL    HW229028   2.525   4.037   1.479
 9377SOL     OW29029   1.836   5.229   3.578
 9377SOL    HW129030   1.869   5.314   3.537
 9377SOL    HW229031   1.890   5.208   3.660
 9378SOL     OW29032   2.798   1.440   3.347
 9378SOL    HW129033   2.876   1.390   3.387
 9378SOL    HW229034   2.832   1.522   3.300
 9379SOL     OW29035   5.094   0.363   5.592
 9379SOL    HW129036   5.183   0.333   5.556
 9379SOL    HW229037   5.062   0.441   5.537
 9380SOL     OW29038   4.094   5.519   5.391
 9380SOL    HW129039   4.023   5.499   5.324
 9380SOL    HW229040   4.184   5.498   5.351
 9381SOL     OW29041   5.131   3.268   5.656
 9381SOL    HW129042   5.152   3.358   5.695
 9381SOL    HW229043   5.079   3.215   5.723
 9382SOL     OW29044   4.379   0.012   4.050
 9382SOL    HW129045   4.461   0.069   4.052
 9382SOL    HW229046   4.302   0.065   4.016
 9383SOL     OW29047   5.637   4.883   4.304
 9383SOL    HW129048   5.700   4.824   4.254
 9383SOL    HW229049   5.658   4.880   4.402
 9384SOL     OW29050   4.499   6.824   1.829
 9384SOL    HW129051   4.409   6.867   1.819
 9384SOL    HW229052   4.570   6.894   1.825
 9385SOL     OW29053   4.468   1.746   3.908
 9385SOL    HW129054   4.556   1.764   3.951
 9385SOL    HW229055   4.480   1.683   3.831
 9386SOL     OW29056   3.223   6.105   5.349
 9386SOL    HW129057   3.167   6.043   5.404
 9386SOL    HW229058   3.216   6.079   5.252
 9387SOL     OW29059   2.464   2.225   0.429
 9387SOL    HW129060   2.521   2.184   0.500
 9387SOL    HW229061   2.515   2.226   0.343
 9388SOL     OW29062   2.582   6.007   3.591
 9388SOL    HW129063   2.560   5.914   3.620
 9388SOL    HW229064   2.621   6.058   3.667
 9389SOL     OW29065   2.976   0.434   3.325
 9389SOL    HW129066   2.914   0.473   3.258
 9389SOL    HW229067   3.054   0.393   3.279
 9390SOL     OW29068   5.694   5.117   6.335
 9390SOL    HW129069   5.746   5.061   6.270
 9390SOL    HW229070   5.718   5.213   6.323
 9391SOL     OW29071   0.914   0.289   6.209
 9391SOL    HW129072   1.001   0.294   6.258
 9391SOL    HW229073   0.914   0.358   6.136
 9392SOL     OW29074   5.345   5.255   5.375
 9392SOL    HW129075   5.380   5.313   5.301
 9392SOL    HW229076   5.406   5.261   5.453
 9393SOL     OW29077   2.604   6.990   5.844
 9393SOL    HW129078   2.565   6.966   5.933
 9393SOL    HW229079   2.535   0.009   5.790
 9394SOL     OW29080   6.424   0.778   1.466
 9394SOL    HW129081   6.342   0.797   1.519
 9394SOL    HW229082   6.400   0.721   1.387
 9395SOL     OW29083   2.609   1.238   0.717
 9395SOL    HW129084   2.587   1.148   0.679
 9395SOL    HW229085   2.706   1.257   0.703
 9396SOL     OW29086   2.024   4.503   4.897
 9396SOL    HW129087   2.071   4.534   4.814
 9396SOL    HW229088   2.058   4.413   4.922
 9397SOL     OW29089   2.970   6.061   6.006
 9397SOL    HW129090   2.934   6.119   6.080
 9397SOL    HW229091   3.048   6.106   5.964
 9398SOL     OW29092   5.790   0.989   6.387
 9398SOL    HW129093   5.856   0.915   6.397
 9398SOL    HW229094   5.702   0.961   6.427
 9399SOL     OW29095   0.895   3.214   5.158
 9399SOL    HW129096   0.967   3.145   5.167
 9399SOL    HW229097   0.936   3.305   5.160
 9400SOL     OW29098   4.858   0.848   1.255
 9400SOL    HW129099   4.765   0.861   1.220
 9400SOL    HW229100   4.874   0.910   1.331
 9401SOL     OW29101   6.641   2.092   2.901
 9401SOL    HW129102   6.671   2.015   2.844
 9401SOL    HW229103   6.664   2.074   2.996
 9402SOL     OW29104   1.431   4.212   3.093
 9402SOL    HW129105   1.523   4.239   3.066
 9402SOL    HW229106   1.403   4.267   3.172
 9403SOL     OW29107   6.208   1.646   1.694
 9403SOL    HW129108   6.251   1.723   1.742
 9403SOL    HW229109   6.280   1.585   1.659
 9404SOL     OW29110   0.626   2.093   1.354
 9404SOL    HW129111   0.627   1.994   1.367
 9404SOL    HW229112   0.597   2.115   1.261
 9405SOL     OW29113   2.240   3.988   4.057
 9405SOL    HW129114   2.241   4.063   3.990
 9405SOL    HW229115   2.243   3.900   4.009
 9406SOL     OW29116   0.872   2.772   6.872
 9406SOL    HW129117   0.816   2.854   6.884
 9406SOL    HW229118   0.825   2.694   6.914
 9407SOL     OW29119   2.767   5.084   4.158
 9407SOL    HW129120   2.800   5.142   4.233
 9407SOL    HW229121   2.822   5.102   4.076
 9408SOL     OW29122   6.963   2.849   6.300
 9408SOL    HW129123   6.983   2.793   6.219
 9408SOL    HW229124   6.871   2.887   6.292
 9409SOL     OW29125   6.742   6.118   1.406
 9409SOL    HW129126   6.810   6.077   1.468
 9409SOL    HW229127   6.751   6.217   1.409
 9410SOL     OW29128   3.390   0.430   2.067
 9410SOL    HW129129   3.330   0.476   2.134
 9410SOL    HW229130   3.344   0.428   1.978
 9411SOL     OW29131   3.889   3.102   3.079
 9411SOL    HW129132   3.899   3.200   3.096
 9411SOL    HW229133   3.794   3.075   3.095
 9412SOL     OW29134   1.628   0.710   2.332
 9412SOL    HW129135   1.662   0.719   2.239
 9412SOL    HW229136   1.699   0.736   2.397
 9413SOL     OW29137   4.820   4.887   3.349
 9413SOL    HW129138   4.725   4.858   3.363
 9413SOL    HW229139   4.822   4.976   3.304
 9414SOL     OW29140   3.084   1.250   3.675
 9414SOL    HW129141   3.181   1.239   3.652
 9414SOL    HW229142   3.067   1.210   3.764
 9415SOL     OW29143   2.238   6.954   1.982
 9415SOL    HW129144   2.190   7.024   1.929
 9415SOL    HW229145   2.182   6.871   1.986
 9416SOL     OW29146   0.251   1.032   6.073
 9416SOL    HW129147   0.265   0.936   6.047
 9416SOL    HW229148   0.257   1.040   6.173
 9417SOL     OW29149   3.517   6.924   0.860
 9417SOL    HW129150   3.427   6.941   0.819
 9417SOL    HW229151   3.586   6.976   0.810
 9418SOL     OW29152   2.279   1.318   1.777
 9418SOL    HW129153   2.291   1.386   1.706
 9418SOL    HW229154   2.316   1.230   1.746
 9419SOL     OW29155   1.458   3.735   6.113
 9419SOL    HW129156   1.538   3.754   6.170
 9419SOL    HW229157   1.401   3.817   6.107
 9420SOL     OW29158   5.969   4.304   0.341
 9420SOL    HW129159   5.988   4.208   0.322
 9420SOL    HW229160   6.054   4.351   0.368
 9421SOL     OW29161   2.790   5.722   4.986
 9421SOL    HW129162   2.757   5.817   4.988
 9421SOL    HW229163   2.881   5.718   5.026
 9422SOL     OW29164   2.740   5.793   3.236
 9422SOL    HW129165   2.733   5.880   3.187
 9422SOL    HW229166   2.696   5.802   3.326
 9423SOL     OW29167   4.010   6.492   3.468
 9423SOL    HW129168   4.075   6.541   3.527
 9423SOL    HW229169   3.918   6.528   3.483
 9424SOL     OW29170   5.246   2.106   4.587
 9424SOL    HW129171   5.287   2.089   4.677
 9424SOL    HW229172   5.284   2.041   4.521
 9425SOL     OW29173   5.504   4.464   1.417
 9425SOL    HW129174   5.448   4.499   1.341
 9425SOL    HW229175   5.445   4.446   1.496
 9426SOL     OW29176   3.175   1.266   6.418
 9426SOL    HW129177   3.223   1.235   6.500
 9426SOL    HW229178   3.144   1.187   6.365
 9427SOL     OW29179   2.504   5.573   3.014
 9427SOL    HW129180   2.587   5.528   3.047
 9427SOL    HW229181   2.505   5.669   3.043
 9428SOL     OW29182   0.183   0.096   0.683
 9428SOL    HW129183   0.185   0.027   0.755
 9428SOL    HW229184   0.249   0.070   0.611
 9429SOL     OW29185   2.158   3.070   4.091
 9429SOL    HW129186   2.125   3.157   4.127
 9429SOL    HW229187   2.225   3.031   4.155
 9430SOL     OW29188   0.396   2.375   4.764
 9430SOL    HW129189   0.357   2.319   4.690
 9430SOL    HW229190   0.496   2.368   4.761
 9431SOL     OW29191   6.462   4.800   1.276
 9431SOL    HW129192   6.506   4.848   1.351
 9431SOL    HW229193   6.363   4.798   1.290
 9432SOL     OW29194   6.411   0.922   4.361
 9432SOL    HW129195   6.409   0.929   4.261
 9432SOL    HW229196   6.435   0.829   4.387
 9433SOL     OW29197   3.107   6.537   2.672
 9433SOL    HW129198   3.147   6.569   2.758
 9433SOL    HW229199   3.054   6.611   2.631
 9434SOL     OW29200   5.423   5.880   2.704
 9434SOL    HW129201   5.440   5.785   2.679
 9434SOL    HW229202   5.381   5.883   2.795
 9435SOL     OW29203   7.014   1.857   2.875
 9435SOL    HW129204   6.995   1.892   2.967
 9435SOL    HW229205   6.937   1.878   2.815
 9436SOL     OW29206   1.613   1.862   2.652
 9436SOL    HW129207   1.587   1.929   2.583
 9436SOL    HW229208   1.534   1.843   2.710
 9437SOL     OW29209   6.881   5.746   3.408
 9437SOL    HW129210   6.847   5.800   3.331
 9437SOL    HW229211   6.934   5.669   3.375
 9438SOL     OW29212   1.309   6.890   1.998
 9438SOL    HW129213   1.217   6.925   2.015
 9438SOL    HW229214   1.374   6.966   1.992
 9439SOL     OW29215   1.017   2.464   0.954
 9439SOL    HW129216   1.097   2.469   1.014
 9439SOL    HW229217   1.034   2.399   0.880
 9440SOL     OW29218   4.110   4.858   3.216
 9440SOL    HW129219   4.131   4.812   3.302
 9440SOL    HW229220   4.127   4.956   3.225
 9441SOL     OW29221   6.507   5.308   5.644
 9441SOL    HW129222   6.597   5.292   5.685
 9441SOL    HW229223   6.479   5.403   5.659
 9442SOL     OW29224   5.064   3.423   1.734
 9442SOL    HW129225   5.146   3.471   1.764
 9442SOL    HW229226   5.042   3.350   1.799
 9443SOL     OW29227   2.452   5.572   0.570
 9443SOL    HW129228   2.449   5.478   0.536
 9443SOL    HW229229   2.546   5.604   0.573
 9444SOL     OW29230   1.498   4.097   0.612
 9444SOL    HW129231   1.565   4.160   0.652
 9444SOL    HW229232   1.406   4.135   0.623
 9445SOL     OW29233   6.697   3.508   3.347
 9445SOL    HW129234   6.722   3.502   3.443
 9445SOL    HW229235   6.600   3.533   3.339
 9446SOL     OW29236   6.946   5.877   4.702
 9446SOL    HW129237   6.872   5.902   4.764
 9446SOL    HW229238   6.940   5.779   4.681
 9447SOL     OW29239   5.422   4.972   3.535
 9447SOL    HW129240   5.397   4.876   3.541
 9447SOL    HW229241   5.376   5.024   3.607
 9448SOL     OW29242   6.734   0.365   6.048
 9448SOL    HW129243   6.678   0.392   6.126
 9448SOL    HW229244   6.690   0.290   5.999
 9449SOL     OW29245   6.366   0.094   0.031
 9449SOL    HW129246   6.442   0.151   7.028
 9449SOL    HW229247   6.327   0.134   0.114
 9450SOL     OW29248   2.128   5.734   3.452
 9450SOL    HW129249   2.067   5.682   3.392
 9450SOL    HW229250   2.085   5.745   3.542
 9451SOL     OW29251   3.740   5.516   5.508
 9451SOL    HW129252   3.826   5.503   5.557
 9451SOL    HW229253   3.745   5.471   5.419
 9452SOL     OW29254   0.880   4.122   0.165
 9452SOL    HW129255   0.888   4.091   0.070
 9452SOL    HW229256   0.849   4.217   0.166
 9453SOL     OW29257   3.020   5.421   2.464
 9453SOL    HW129258   2.963   5.498   2.436
 9453SOL    HW229259   2.984   5.383   2.550
 9454SOL     OW29260   3.475   3.795   6.181
 9454SOL    HW129261   3.518   3.709   6.207
 9454SOL    HW229262   3.388   3.804   6.230
 9455SOL     OW29263   2.235   2.072   3.203
 9455SOL    HW129264   2.267   1.985   3.166
 9455SOL    HW229265   2.314   2.131   3.220
 9456SOL     OW29266   6.588   3.517   0.721
 9456SOL    HW129267   6.611   3.505   0.817
 9456SOL    HW229268   6.662   3.567   0.675
 9457SOL     OW29269   0.887   4.951   4.904
 9457SOL    HW129270   0.950   5.027   4.890
 9457SOL    HW229271   0.883   4.894   4.822
 9458SOL     OW29272   0.595   3.644   0.019
 9458SOL    HW129273   0.617   3.546   0.026
 9458SOL    HW229274   0.656   3.696   0.079
 9459SOL     OW29275   5.587   4.660   3.951
 9459SOL    HW129276   5.490   4.667   3.974
 9459SOL    HW229277   5.604   4.706   3.863
 9460SOL     OW29278   2.061   3.738   4.727
 9460SOL    HW129279   2.132   3.727   4.797
 9460SOL    HW229280   2.006   3.819   4.748
 9461SOL     OW29281   0.692   1.722   1.671
 9461SOL    HW129282   0.673   1.773   1.755
 9461SOL    HW229283   0.770   1.662   1.685
 9462SOL     OW29284   1.639   2.661   3.549
 9462SOL    HW129285   1.612   2.615   3.634
 9462SOL    HW229286   1.724   2.711   3.564
 9463SOL     OW29287   5.311   6.789   1.246
 9463SOL    HW129288   5.296   6.699   1.286
 9463SOL    HW229289   5.355   6.779   1.157
 9464SOL     OW29290   6.286   0.190   0.269
 9464SOL    HW129291   6.338   0.148   0.344
 9464SOL    HW229292   6.201   0.229   0.305
 9465SOL     OW29293   0.227   3.403   1.873
 9465SOL    HW129294   0.149   3.397   1.935
 9465SOL    HW229295   0.264   3.311   1.857
 9466SOL     OW29296   3.485   4.106   5.669
 9466SOL    HW129297   3.401   4.111   5.615
 9466SOL    HW229298   3.506   4.010   5.687
 9467SOL     OW29299   0.898   2.842   0.936
 9467SOL    HW129300   0.935   2.915   0.993
 9467SOL    HW229301   0.830   2.880   0.874
 9468SOL     OW29302   6.041   3.710   6.932
 9468SOL    HW129303   6.131   3.753   6.943
 9468SOL    HW229304   5.986   3.764   6.869
 9469SOL     OW29305   0.309   5.807   1.287
 9469SOL    HW129306   0.297   5.830   1.384
 9469SOL    HW229307   0.221   5.783   1.247
 9470SOL     OW29308   4.743   3.509   7.024
 9470SOL    HW129309   4.687   3.581   6.983
 9470SOL    HW229310   4.838   3.520   6.994
 9471SOL     OW29311   6.507   2.129   4.673
 9471SOL    HW129312   6.451   2.210   4.691
 9471SOL    HW229313   6.604   2.155   4.674
 9472SOL     OW29314   0.217   3.732   5.653
 9472SOL    HW129315   0.266   3.692   5.731
 9472SOL    HW229316   0.207   3.830   5.666
 9473SOL     OW29317   3.185   4.836   0.057
 9473SOL    HW129318   3.095   4.831   0.015
 9473SOL    HW229319   3.178   4.812   0.154
 9474SOL     OW29320   6.383   3.717   1.841
 9474SOL    HW129321   6.324   3.639   1.863
 9474SOL    HW229322   6.478   3.688   1.840
 9475SOL     OW29323   4.200   3.140   0.872
 9475SOL    HW129324   4.122   3.196   0.843
 9475SOL    HW229325   4.252   3.189   0.942
 9476SOL     OW29326   4.007   3.874   4.643
 9476SOL    HW129327   4.065   3.893   4.723
 9476SOL    HW229328   4.055   3.812   4.582
 9477SOL     OW29329   0.280   2.633   1.123
 9477SOL    HW129330   0.233   2.710   1.165
 9477SOL    HW229331   0.357   2.605   1.180
 9478SOL     OW29332   5.489   3.428   0.762
 9478SOL    HW129333   5.580   3.409   0.723
 9478SOL    HW229334   5.496   3.507   0.823
 9479SOL     OW29335   4.357   6.806   0.848
 9479SOL    HW129336   4.380   6.794   0.945
 9479SOL    HW229337   4.394   6.729   0.795
 9480SOL     OW29338   6.479   5.375   0.131
 9480SOL    HW129339   6.470   5.467   0.170
 9480SOL    HW229340   6.455   5.307   0.200
 9481SOL     OW29341   4.829   2.416   2.547
 9481SOL    HW129342   4.861   2.458   2.631
 9481SOL    HW229343   4.800   2.322   2.565
 9482SOL     OW29344   6.919   0.535   3.086
 9482SOL    HW129345   6.941   0.459   3.025
 9482SOL    HW229346   7.004   0.573   3.124
 9483SOL     OW29347   1.798   0.958   0.609
 9483SOL    HW129348   1.727   0.972   0.679
 9483SOL    HW229349   1.880   1.009   0.634
 9484SOL     OW29350   3.812   0.182   4.737
 9484SOL    HW129351   3.814   0.282   4.746
 9484SOL    HW229352   3.806   0.157   4.641
 9485SOL     OW29353   0.536   1.584   1.346
 9485SOL    HW129354   0.456   1.633   1.312
 9485SOL    HW229355   0.541   1.494   1.303
 9486SOL     OW29356   4.519   6.163   1.066
 9486SOL    HW129357   4.488   6.108   1.143
 9486SOL    HW229358   4.498   6.259   1.084
 9487SOL     OW29359   3.415   4.039   3.440
 9487SOL    HW129360   3.348   3.997   3.501
 9487SOL    HW229361   3.368   4.077   3.361
 9488SOL     OW29362   2.717   0.173   0.907
 9488SOL    HW129363   2.736   0.115   0.986
 9488SOL    HW229364   2.689   0.264   0.939
 9489SOL     OW29365   5.174   3.956   1.267
 9489SOL    HW129366   5.203   3.981   1.359
 9489SOL    HW229367   5.182   4.036   1.207
 9490SOL     OW29368   6.517   5.789   3.600
 9490SOL    HW129369   6.501   5.884   3.628
 9490SOL    HW229370   6.430   5.740   3.598
 9491SOL     OW29371   5.521   5.246   3.877
 9491SOL    HW129372   5.430   5.287   3.880
 9491SOL    HW229373   5.545   5.213   3.968
 9492SOL     OW29374   3.255   3.343   4.988
 9492SOL    HW129375   3.326   3.297   4.935
 9492SOL    HW229376   3.165   3.319   4.951
 9493SOL     OW29377   3.170   5.806   4.816
 9493SOL    HW129378   3.245   5.864   4.847
 9493SOL    HW229379   3.083   5.855   4.825
 9494SOL     OW29380   5.673   3.027   2.123
 9494SOL    HW129381   5.756   3.025   2.178
 9494SOL    HW229382   5.606   2.964   2.162
 9495SOL     OW29383   6.654   1.790   3.064
 9495SOL    HW129384   6.654   1.756   2.971
 9495SOL    HW229385   6.566   1.833   3.084
 9496SOL     OW29386   5.864   3.416   1.575
 9496SOL    HW129387   5.818   3.472   1.643
 9496SOL    HW229388   5.835   3.321   1.585
 9497SOL     OW29389   4.927   5.826   4.791
 9497SOL    HW129390   4.863   5.765   4.744
 9497SOL    HW229391   4.929   5.803   4.888
 9498SOL     OW29392   6.422   4.876   5.132
 9498SOL    HW129393   6.452   4.856   5.226
 9498SOL    HW229394   6.497   4.859   5.069
 9499SOL     OW29395   1.486   6.385   5.356
 9499SOL    HW129396   1.532   6.303   5.391
 9499SOL    HW229397   1.555   6.450   5.322
 9500SOL     OW29398   4.146   6.739   0.281
 9500SOL    HW129399   4.088   6.757   0.201
 9500SOL    HW229400   4.095   6.685   0.347
 9501SOL     OW29401   2.187   1.110   4.733
 9501SOL    HW129402   2.101   1.101   4.682
 9501SOL    HW229403   2.168   1.142   4.825
 9502SOL     OW29404   6.042   3.360   5.214
 9502SOL    HW129405   6.034   3.423   5.292
 9502SOL    HW229406   6.065   3.268   5.247
 9503SOL     OW29407   6.678   2.377   0.295
 9503SOL    HW129408   6.704   2.282   0.313
 9503SOL    HW229409   6.760   2.429   0.270
 9504SOL     OW29410   6.759   3.650   1.585
 9504SOL    HW129411   6.705   3.734   1.580
 9504SOL    HW229412   6.725   3.584   1.518
 9505SOL     OW29413   4.650   4.306   5.536
 9505SOL    HW129414   4.557   4.309   5.571
 9505SOL    HW229415   4.702   4.383   5.573
 9506SOL     OW29416   1.600   2.618   0.857
 9506SOL    HW129417   1.689   2.581   0.833
 9506SOL    HW229418   1.538   2.609   0.779
 9507SOL     OW29419   0.136   0.791   1.965
 9507SOL    HW129420   0.185   0.704   1.969
 9507SOL    HW229421   0.179   0.850   1.897
 9508SOL     OW29422   6.252   1.810   2.498
 9508SOL    HW129423   6.245   1.711   2.513
 9508SOL    HW229424   6.236   1.830   2.401
 9509SOL     OW29425   0.054   1.275   3.789
 9509SOL    HW129426   0.094   1.365   3.775
 9509SOL    HW229427   6.988   1.284   3.818
 9510SOL     OW29428   1.577   4.412   3.862
 9510SOL    HW129429   1.497   4.424   3.803
 9510SOL    HW229430   1.632   4.496   3.861
 9511SOL     OW29431   2.150   0.472   0.943
 9511SOL    HW129432   2.052   0.471   0.964
 9511SOL    HW229433   2.177   0.565   0.917
 9512SOL     OW29434   6.984   1.954   0.794
 9512SOL    HW129435   6.998   2.030   0.857
 9512SOL    HW229436   6.965   1.990   0.702
 9513SOL     OW29437   2.732   4.078   6.893
 9513SOL    HW129438   2.718   4.003   6.830
 9513SOL    HW229439   2.816   4.063   6.946
 9514SOL     OW29440   2.257   4.847   6.826
 9514SOL    HW129441   2.352   4.871   6.808
 9514SOL    HW229442   2.209   4.835   6.740
 9515SOL     OW29443   1.558   6.185   2.207
 9515SOL    HW129444   1.554   6.211   2.111
 9515SOL    HW229445   1.465   6.180   2.244
 9516SOL     OW29446   5.847   4.429   0.144
 9516SOL    HW129447   5.896   4.378   0.215
 9516SOL    HW229448   5.864   4.527   0.154
 9517SOL     OW29449   1.683   4.240   1.479
 9517SOL    HW129450   1.740   4.240   1.561
 9517SOL    HW229451   1.615   4.168   1.485
 9518SOL     OW29452   2.042   1.482   0.723
 9518SOL    HW129453   1.943   1.485   0.711
 9518SOL    HW229454   2.068   1.541   0.800
 9519SOL     OW29455   3.274   2.895   5.075
 9519SOL    HW129456   3.201   2.901   5.006
 9519SOL    HW229457   3.356   2.942   5.041
 9520SOL     OW29458   2.601   1.190   3.071
 9520SOL    HW129459   2.557   1.272   3.035
 9520SOL    HW229460   2.699   1.206   3.080
 9521SOL     OW29461   5.181   5.628   2.477
 9521SOL    HW129462   5.186   5.531   2.453
 9521SOL    HW229463   5.175   5.683   2.394
 9522SOL     OW29464   3.268   5.611   1.459
 9522SOL    HW129465   3.290   5.641   1.552
 9522SOL    HW229466   3.186   5.553   1.461
 9523SOL     OW29467   3.115   5.392   4.939
 9523SOL    HW129468   3.117   5.332   5.019
 9523SOL    HW229469   3.054   5.353   4.869
 9524SOL     OW29470   3.659   2.504   0.981
 9524SOL    HW129471   3.688   2.598   0.963
 9524SOL    HW229472   3.727   2.460   1.039
 9525SOL     OW29473   2.436   2.762   6.051
 9525SOL    HW129474   2.339   2.736   6.054
 9525SOL    HW229475   2.468   2.780   6.144
 9526SOL     OW29476   5.029   5.950   1.643
 9526SOL    HW129477   5.006   6.031   1.697
 9526SOL    HW229478   5.121   5.959   1.606
 9527SOL     OW29479   0.733   0.392   2.226
 9527SOL    HW129480   0.725   0.392   2.126
 9527SOL    HW229481   0.768   0.480   2.257
 9528SOL     OW29482   6.729   0.330   0.525
 9528SOL    HW129483   6.671   0.252   0.548
 9528SOL    HW229484   6.811   0.298   0.476
 9529SOL     OW29485   6.464   3.084   5.455
 9529SOL    HW129486   6.379   3.136   5.466
 9529SOL    HW229487   6.541   3.147   5.449
 9530SOL     OW29488   2.169   3.201   3.291
 9530SOL    HW129489   2.254   3.156   3.265
 9530SOL    HW229490   2.091   3.144   3.263
 9531SOL     OW29491   3.917   5.528   2.900
 9531SOL    HW129492   3.841   5.489   2.951
 9531SOL    HW229493   3.995   5.465   2.902
 9532SOL     OW29494   0.437   6.416   1.901
 9532SOL    HW129495   0.371   6.473   1.851
 9532SOL    HW229496   0.404   6.402   1.994
 9533SOL     OW29497   0.150   0.702   4.745
 9533SOL    HW129498   0.217   0.707   4.671
 9533SOL    HW229499   0.197   0.712   4.833
 9534SOL     OW29500   5.610   3.060   5.218
 9534SOL    HW129501   5.698   3.077   5.176
 9534SOL    HW229502   5.583   2.965   5.202
 9535SOL     OW29503   2.623   1.389   5.664
 9535SOL    HW129504   2.616   1.487   5.686
 9535SOL    HW229505   2.549   1.363   5.603
 9536SOL     OW29506   3.065   4.636   5.392
 9536SOL    HW129507   3.009   4.601   5.316
 9536SOL    HW229508   3.053   4.735   5.400
 9537SOL     OW29509   2.558   0.213   2.305
 9537SOL    HW129510   2.624   0.230   2.232
 9537SOL    HW229511   2.471   0.186   2.265
 9538SOL     OW29512   6.311   1.876   4.246
 9538SOL    HW129513   6.372   1.820   4.191
 9538SOL    HW229514   6.237   1.911   4.189
 9539SOL     OW29515   2.047   4.090   5.728
 9539SOL    HW129516   2.041   4.185   5.699
 9539SOL    HW229517   2.020   4.030   5.653
 9540SOL     OW29518   4.850   4.291   4.785
 9540SOL    HW129519   4.913   4.327   4.854
 9540SOL    HW229520   4.769   4.350   4.779
 9541SOL     OW29521   2.476   1.943   5.973
 9541SOL    HW129522   2.436   2.022   5.926
 9541SOL    HW229523   2.414   1.865   5.967
 9542SOL     OW29524   4.927   3.853   4.974
 9542SOL    HW129525   4.890   3.768   5.013
 9542SOL    HW229526   4.861   3.927   4.988
 9543SOL     OW29527   3.815   0.530   4.444
 9543SOL    HW129528   3.836   0.609   4.386
 9543SOL    HW229529   3.785   0.454   4.387
 9544SOL     OW29530   6.526   1.045   2.293
 9544SOL    HW129531   6.543   1.008   2.384
 9544SOL    HW229532   6.517   1.145   2.298
 9545SOL     OW29533   6.442   5.439   3.746
 9545SOL    HW129534   6.406   5.510   3.807
 9545SOL    HW229535   6.536   5.462   3.722
 9546SOL     OW29536   1.750   2.922   6.572
 9546SOL    HW129537   1.764   2.944   6.669
 9546SOL    HW229538   1.824   2.960   6.518
 9547SOL     OW29539   2.098   6.070   4.121
 9547SOL    HW129540   2.156   6.137   4.167
 9547SOL    HW229541   2.008   6.109   4.104
 9548SOL     OW29542   6.627   5.903   4.638
 9548SOL    HW129543   6.655   5.889   4.733
 9548SOL    HW229544   6.547   5.846   4.619
 9549SOL     OW29545   2.950   4.193   1.331
 9549SOL    HW129546   3.030   4.159   1.280
 9549SOL    HW229547   2.979   4.261   1.397
 9550SOL     OW29548   0.147   1.409   6.534
 9550SOL    HW129549   0.207   1.375   6.462
 9550SOL    HW229550   0.066   1.450   6.492
 9551SOL     OW29551   0.130   0.132   4.376
 9551SOL    HW129552   0.217   0.180   4.388
 9551SOL    HW229553   0.058   0.180   4.427
 9552SOL     OW29554   0.674   6.351   2.220
 9552SOL    HW129555   0.654   6.314   2.129
 9552SOL    HW229556   0.730   6.433   2.212
 9553SOL     OW29557   6.239   4.104   6.678
 9553SOL    HW129558   6.166   4.036   6.681
 9553SOL    HW229559   6.308   4.083   6.747
 9554SOL     OW29560   2.621   0.550   1.254
 9554SOL    HW129561   2.678   0.631   1.271
 9554SOL    HW229562   2.591   0.550   1.158
 9555SOL     OW29563   0.277   1.956   0.680
 9555SOL    HW129564   0.274   1.917   0.588
 9555SOL    HW229565   0.184   1.973   0.712
 9556SOL     OW29566   2.271   1.926   1.135
 9556SOL    HW129567   2.183   1.894   1.170
 9556SOL    HW229568   2.322   1.849   1.099
 9557SOL     OW29569   6.302   0.654   2.277
 9557SOL    HW129570   6.309   0.754   2.268
 9557SOL    HW229571   6.304   0.630   2.374
 9558SOL     OW29572   6.081   5.381   3.998
 9558SOL    HW129573   5.987   5.350   3.986
 9558SOL    HW229574   6.141   5.331   3.936
 9559SOL     OW29575   7.009   3.652   1.798
 9559SOL    HW129576   6.963   3.741   1.799
 9559SOL    HW229577   0.075   3.665   1.774
 9560SOL     OW29578   1.354   1.626   2.550
 9560SOL    HW129579   1.322   1.675   2.469
 9560SOL    HW229580   1.332   1.680   2.632
 9561SOL     OW29581   2.314   6.566   1.216
 9561SOL    HW129582   2.367   6.649   1.199
 9561SOL    HW229583   2.353   6.518   1.296
 9562SOL     OW29584   3.042   6.253   5.066
 9562SOL    HW129585   3.048   6.287   5.159
 9562SOL    HW229586   2.947   6.229   5.045
 9563SOL     OW29587   6.182   5.806   6.808
 9563SOL    HW129588   6.181   5.892   6.756
 9563SOL    HW229589   6.201   5.730   6.746
 9564SOL     OW29590   2.936   0.417   6.609
 9564SOL    HW129591   2.950   0.334   6.663
 9564SOL    HW229592   2.928   0.393   6.512
 9565SOL     OW29593   4.319   5.964   4.937
 9565SOL    HW129594   4.273   5.932   4.854
 9565SOL    HW229595   4.362   5.887   4.983
 9566SOL     OW29596   3.140   4.824   0.337
 9566SOL    HW129597   3.091   4.737   0.326
 9566SOL    HW229598   3.176   4.829   0.430
 9567SOL     OW29599   6.305   5.272   6.060
 9567SOL    HW129600   6.389   5.218   6.053
 9567SOL    HW229601   6.328   5.369   6.064
 9568SOL     OW29602   4.435   3.112   6.299
 9568SOL    HW129603   4.487   3.150   6.223
 9568SOL    HW229604   4.362   3.175   6.325
 9569SOL     OW29605   6.540   1.245   0.720
 9569SOL    HW129606   6.503   1.276   0.632
 9569SOL    HW229607   6.481   1.278   0.794
 9570SOL     OW29608   0.705   1.969   1.784
 9570SOL    HW129609   0.805   1.961   1.789
 9570SOL    HW229610   0.678   1.987   1.690
 9571SOL     OW29611   2.760   3.428   0.494
 9571SOL    HW129612   2.712   3.447   0.408
 9571SOL    HW229613   2.848   3.384   0.474
 9572SOL     OW29614   1.560   5.415   0.683
 9572SOL    HW129615   1.508   5.341   0.641
 9572SOL    HW229616   1.650   5.422   0.639
 9573SOL     OW29617   0.804   1.318   6.686
 9573SOL    HW129618   0.754   1.246   6.732
 9573SOL    HW229619   0.787   1.313   6.587
 9574SOL     OW29620   3.874   3.252   5.081
 9574SOL    HW129621   3.888   3.309   5.162
 9574SOL    HW229622   3.873   3.156   5.107
 9575SOL     OW29623   5.708   0.705   0.791
 9575SOL    HW129624   5.773   0.644   0.837
 9575SOL    HW229625   5.626   0.714   0.846
 9576SOL     OW29626   3.321   1.833   3.517
 9576SOL    HW129627   3.329   1.748   3.569
 9576SOL    HW229628   3.407   1.882   3.521
 9577SOL     OW29629   1.474   0.823   2.501
 9577SOL    HW129630   1.524   0.762   2.440
 9577SOL    HW229631   1.527   0.839   2.584
 9578SOL     OW29632   5.997   3.460   3.033
 9578SOL    HW129633   5.922   3.441   2.969
 9578SOL    HW229634   5.987   3.403   3.114
 9579SOL     OW29635   1.281   6.314   2.741
 9579SOL    HW129636   1.338   6.238   2.711
 9579SOL    HW229637   1.334   6.373   2.802
 9580SOL     OW29638   5.605   3.640   7.012
 9580SOL    HW129639   5.589   3.601   0.073
 9580SOL    HW229640   5.619   3.566   6.946
 9581SOL     OW29641   2.704   4.761   6.596
 9581SOL    HW129642   2.684   4.681   6.540
 9581SOL    HW229643   2.793   4.798   6.570
 9582SOL     OW29644   4.382   4.752   4.199
 9582SOL    HW129645   4.356   4.750   4.296
 9582SOL    HW229646   4.393   4.658   4.166
 9583SOL     OW29647   2.179   3.336   1.463
 9583SOL    HW129648   2.163   3.429   1.498
 9583SOL    HW229649   2.274   3.328   1.433
 9584SOL     OW29650   5.883   5.815   6.808
 9584SOL    HW129651   5.977   5.816   6.774
 9584SOL    HW229652   5.874   5.746   6.879
 9585SOL     OW29653   6.452   0.421   2.284
 9585SOL    HW129654   6.417   0.515   2.288
 9585SOL    HW229655   6.452   0.382   2.377
 9586SOL     OW29656   5.892   3.779   2.994
 9586SOL    HW129657   5.946   3.695   2.987
 9586SOL    HW229658   5.819   3.779   2.925
 9587SOL     OW29659   6.073   0.047   1.771
 9587SOL    HW129660   5.980   0.081   1.759
 9587SOL    HW229661   6.105   0.070   1.863
 9588SOL     OW29662   0.270   1.295   1.500
 9588SOL    HW129663   0.337   1.248   1.559
 9588SOL    HW229664   0.181   1.250   1.509
 9589SOL     OW29665   2.565   5.728   0.259
 9589SOL    HW129666   2.519   5.790   0.195
 9589SOL    HW229667   2.645   5.775   0.298
 9590SOL     OW29668   0.513   3.799   2.285
 9590SOL    HW129669   0.437   3.780   2.346
 9590SOL    HW229670   0.558   3.884   2.312
 9591SOL     OW29671   2.994   5.732   0.526
 9591SOL    HW129672   3.013   5.815   0.474
 9591SOL    HW229673   3.036   5.654   0.480
 9592SOL     OW29674   4.257   5.341   2.658
 9592SOL    HW129675   4.320   5.263   2.657
 9592SOL    HW229676   4.294   5.413   2.599
 9593SOL     OW29677   4.993   2.117   4.622
 9593SOL    HW129678   4.978   2.030   4.668
 9593SOL    HW229679   5.090   2.127   4.600
 9594SOL     OW29680   6.938   6.273   3.287
 9594SOL    HW129681   7.010   6.248   3.351
 9594SOL    HW229682   6.860   6.211   3.298
 9595SOL     OW29683   2.117   5.453   5.037
 9595SOL    HW129684   2.181   5.521   5.001
 9595SOL    HW229685   2.095   5.387   4.966
 9596SOL     OW29686   0.233   4.586   5.940
 9596SOL    HW129687   0.179   4.633   5.870
 9596SOL    HW229688   0.317   4.551   5.900
 9597SOL     OW29689   0.158   4.087   1.689
 9597SOL    HW129690   0.147   4.073   1.787
 9597SOL    HW229691   0.121   4.176   1.663
 9598SOL     OW29692   0.455   3.969   5.381
 9598SOL    HW129693   0.520   4.002   5.448
 9598SOL    HW229694   0.439   4.040   5.312
 9599SOL     OW29695   3.858   0.483   5.221
 9599SOL    HW129696   3.824   0.418   5.153
 9599SOL    HW229697   3.886   0.433   5.303
 9600SOL     OW29698   1.631   0.031   5.880
 9600SOL    HW129699   1.575   0.050   5.799
 9600SOL    HW229700   1.582   6.997   5.940
 9601SOL     OW29701   6.389   4.083   6.446
 9601SOL    HW129702   6.329   4.037   6.381
 9601SOL    HW229703   6.337   4.109   6.527
 9602SOL     OW29704   6.789   5.186   6.123
 9602SOL    HW129705   6.796   5.139   6.211
 9602SOL    HW229706   6.781   5.285   6.139
 9603SOL     OW29707   2.316   6.757   4.658
 9603SOL    HW129708   2.243   6.791   4.717
 9603SOL    HW229709   2.392   6.823   4.657
 9604SOL     OW29710   5.322   0.763   0.424
 9604SOL    HW129711   5.354   0.737   0.333
 9604SOL    HW229712   5.368   0.847   0.452
 9605SOL     OW29713   1.146   4.901   5.677
 9605SOL    HW129714   1.232   4.852   5.664
 9605SOL    HW229715   1.069   4.839   5.662
 9606SOL     OW29716   0.831   6.941   3.958
 9606SOL    HW129717   0.742   6.909   3.990
 9606SOL    HW229718   0.842   0.007   3.985
 9607SOL     OW29719   0.899   1.140   1.901
 9607SOL    HW129720   0.996   1.117   1.915
 9607SOL    HW229721   0.871   1.207   1.969
 9608SOL     OW29722   6.939   6.866   2.766
 9608SOL    HW129723   6.947   6.901   2.859
 9608SOL    HW229724   6.859   6.806   2.759
 9609SOL     OW29725   1.316   4.145   4.457
 9609SOL    HW129726   1.304   4.236   4.497
 9609SOL    HW229727   1.355   4.084   4.526
 9610SOL     OW29728   1.348   2.855   5.851
 9610SOL    HW129729   1.402   2.867   5.934
 9610SOL    HW229730   1.408   2.825   5.777
 9611SOL     OW29731   7.029   6.811   1.511
 9611SOL    HW129732   7.003   6.752   1.588
 9611SOL    HW229733   0.017   6.903   1.545
 9612SOL     OW29734   6.745   2.753   0.518
 9612SOL    HW129735   6.784   2.691   0.586
 9612SOL    HW229736   6.676   2.704   0.464
 9613SOL     OW29737   5.603   6.482   4.161
 9613SOL    HW129738   5.637   6.506   4.252
 9613SOL    HW229739   5.540   6.552   4.130
 9614SOL     OW29740   4.106   3.491   1.811
 9614SOL    HW129741   4.114   3.393   1.833
 9614SOL    HW229742   4.184   3.519   1.756
 9615SOL     OW29743   2.415   5.221   3.318
 9615SOL    HW129744   2.412   5.121   3.315
 9615SOL    HW229745   2.332   5.255   3.362
 9616SOL     OW29746   4.048   3.147   1.406
 9616SOL    HW129747   4.059   3.052   1.376
 9616SOL    HW229748   3.995   3.198   1.338
 9617SOL     OW29749   1.069   3.231   3.486
 9617SOL    HW129750   1.129   3.170   3.434
 9617SOL    HW229751   1.014   3.286   3.423
 9618SOL     OW29752   3.565   0.555   6.654
 9618SOL    HW129753   3.497   0.534   6.584
 9618SOL    HW229754   3.612   0.641   6.631
 9619SOL     OW29755   1.321   6.120   0.610
 9619SOL    HW129756   1.280   6.041   0.655
 9619SOL    HW229757   1.249   6.179   0.573
 9620SOL     OW29758   3.956   0.988   0.029
 9620SOL    HW129759   3.997   1.000   6.968
 9620SOL    HW229760   3.889   0.914   0.026
 9621SOL     OW29761   1.563   0.463   1.996
 9621SOL    HW129762   1.474   0.506   1.984
 9621SOL    HW229763   1.565   0.413   2.082
 9622SOL     OW29764   6.988   0.834   6.633
 9622SOL    HW129765   0.011   0.796   6.709
 9622SOL    HW229766   0.008   0.911   6.593
 9623SOL     OW29767   4.943   5.340   6.715
 9623SOL    HW129768   4.846   5.362   6.728
 9623SOL    HW229769   4.976   5.384   6.632
 9624SOL     OW29770   5.051   5.209   5.347
 9624SOL    HW129771   5.001   5.209   5.433
 9624SOL    HW229772   5.149   5.217   5.365
 9625SOL     OW29773   5.038   4.320   6.788
 9625SOL    HW129774   5.055   4.228   6.824
 9625SOL    HW229775   4.949   4.353   6.819
 9626SOL     OW29776   1.934   4.806   4.155
 9626SOL    HW129777   1.874   4.771   4.083
 9626SOL    HW229778   1.985   4.730   4.195
 9627SOL     OW29779   1.460   4.532   5.128
 9627SOL    HW129780   1.512   4.451   5.154
 9627SOL    HW229781   1.517   4.593   5.072
 9628SOL     OW29782   6.243   4.418   0.371
 9628SOL    HW129783   6.287   4.400   0.284
 9628SOL    HW229784   6.289   4.368   0.444
 9629SOL     OW29785   6.588   6.483   3.481
 9629SOL    HW129786   6.515   6.552   3.482
 9629SOL    HW229787   6.588   6.434   3.568
 9630SOL     OW29788   5.988   6.127   5.386
 9630SOL    HW129789   6.085   6.109   5.373
 9630SOL    HW229790   5.958   6.199   5.323
 9631SOL     OW29791   4.213   1.080   1.795
 9631SOL    HW129792   4.159   1.149   1.845
 9631SOL    HW229793   4.259   1.021   1.861
 9632SOL     OW29794   1.701   5.626   1.746
 9632SOL    HW129795   1.730   5.545   1.694
 9632SOL    HW229796   1.603   5.642   1.730
 9633SOL     OW29797   3.776   3.344   1.678
 9633SOL    HW129798   3.773   3.438   1.713
 9633SOL    HW229799   3.691   3.325   1.628
 9634SOL     OW29800   6.197   4.273   2.742
 9634SOL    HW129801   6.252   4.271   2.826
 9634SOL    HW229802   6.144   4.357   2.739
 9635SOL     OW29803   0.201   4.740   5.009
 9635SOL    HW129804   0.130   4.691   4.959
 9635SOL    HW229805   0.169   4.832   5.031
 9636SOL     OW29806   3.964   0.971   6.170
 9636SOL    HW129807   3.934   1.010   6.257
 9636SOL    HW229808   3.894   0.908   6.135
 9637SOL     OW29809   2.641   3.771   1.364
 9637SOL    HW129810   2.560   3.721   1.335
 9637SOL    HW229811   2.720   3.709   1.367
 9638SOL     OW29812   0.112   3.995   6.198
 9638SOL    HW129813   0.039   4.061   6.176
 9638SOL    HW229814   0.087   3.945   6.281
 9639SOL     OW29815   4.465   2.579   1.690
 9639SOL    HW129816   4.563   2.568   1.673
 9639SOL    HW229817   4.436   2.519   1.764
 9640SOL     OW29818   3.723   0.875   2.147
 9640SOL    HW129819   3.793   0.807   2.170
 9640SOL    HW229820   3.723   0.947   2.217
 9641SOL     OW29821   5.122   5.604   2.762
 9641SOL    HW129822   5.117   5.686   2.819
 9641SOL    HW229823   5.163   5.627   2.674
 9642SOL     OW29824   1.003   0.358   4.496
 9642SOL    HW129825   1.020   0.336   4.400
 9642SOL    HW229826   1.082   0.331   4.551
 9643SOL     OW29827   4.741   4.218   3.461
 9643SOL    HW129828   4.745   4.279   3.541
 9643SOL    HW229829   4.827   4.225   3.410
 9644SOL     OW29830   1.674   5.931   5.065
 9644SOL    HW129831   1.616   5.852   5.086
 9644SOL    HW229832   1.737   5.908   4.991
 9645SOL     OW29833   1.038   4.110   5.420
 9645SOL    HW129834   1.021   4.199   5.379
 9645SOL    HW229835   1.039   4.040   5.348
 9646SOL     OW29836   2.218   6.413   3.481
 9646SOL    HW129837   2.235   6.315   3.488
 9646SOL    HW229838   2.131   6.435   3.526
 9647SOL     OW29839   6.904   6.519   2.818
 9647SOL    HW129840   6.857   6.596   2.775
 9647SOL    HW229841   6.898   6.439   2.759
 9648SOL     OW29842   5.418   3.223   1.198
 9648SOL    HW129843   5.337   3.167   1.215
 9648SOL    HW229844   5.463   3.243   1.285
 9649SOL     OW29845   2.315   3.722   6.424
 9649SOL    HW129846   2.294   3.730   6.522
 9649SOL    HW229847   2.398   3.668   6.411
 9650SOL     OW29848   5.861   5.041   3.308
 9650SOL    HW129849   5.941   5.101   3.301
 9650SOL    HW229850   5.824   5.025   3.217
 9651SOL     OW29851   3.636   1.504   0.910
 9651SOL    HW129852   3.691   1.421   0.908
 9651SOL    HW229853   3.696   1.584   0.918
 9652SOL     OW29854   0.570   4.535   1.712
 9652SOL    HW129855   0.493   4.595   1.691
 9652SOL    HW229856   0.538   4.441   1.723
 9653SOL     OW29857   4.224   4.616   5.759
 9653SOL    HW129858   4.313   4.660   5.755
 9653SOL    HW229859   4.185   4.627   5.851
 9654SOL     OW29860   3.436   3.197   2.299
 9654SOL    HW129861   3.467   3.119   2.354
 9654SOL    HW229862   3.350   3.174   2.255
 9655SOL     OW29863   0.566   1.830   0.734
 9655SOL    HW129864   0.593   1.756   0.794
 9655SOL    HW229865   0.481   1.871   0.767
 9656SOL     OW29866   4.417   2.104   0.612
 9656SOL    HW129867   4.460   2.189   0.579
 9656SOL    HW229868   4.485   2.031   0.612
 9657SOL     OW29869   5.149   4.353   3.658
 9657SOL    HW129870   5.217   4.386   3.723
 9657SOL    HW229871   5.190   4.283   3.598
 9658SOL     OW29872   5.508   2.110   2.421
 9658SOL    HW129873   5.552   2.035   2.372
 9658SOL    HW229874   5.512   2.093   2.519
 9659SOL     OW29875   1.844   2.104   0.213
 9659SOL    HW129876   1.851   2.068   0.306
 9659SOL    HW229877   1.903   2.184   0.203
 9660SOL     OW29878   0.697   0.296   1.477
 9660SOL    HW129879   0.622   0.246   1.521
 9660SOL    HW229880   0.673   0.392   1.469
 9661SOL     OW29881   4.441   5.810   1.616
 9661SOL    HW129882   4.506   5.755   1.563
 9661SOL    HW229883   4.464   5.907   1.604
 9662SOL     OW29884   5.345   3.932   0.297
 9662SOL    HW129885   5.269   3.927   0.362
 9662SOL    HW229886   5.375   3.839   0.274
 9663SOL     OW29887   0.476   4.450   2.865
 9663SOL    HW129888   0.563   4.416   2.829
 9663SOL    HW229889   0.421   4.372   2.897
 9664SOL     OW29890   5.526   4.121   4.695
 9664SOL    HW129891   5.605   4.183   4.692
 9664SOL    HW229892   5.444   4.172   4.718
 9665SOL     OW29893   6.132   6.150   5.807
 9665SOL    HW129894   6.156   6.102   5.722
 9665SOL    HW229895   6.201   6.219   5.827
 9666SOL     OW29896   6.388   4.239   1.730
 9666SOL    HW129897   6.479   4.239   1.690
 9666SOL    HW229898   6.361   4.333   1.753
 9667SOL     OW29899   4.386   3.957   0.826
 9667SOL    HW129900   4.398   3.859   0.839
 9667SOL    HW229901   4.361   3.976   0.731
 9668SOL     OW29902   1.530   1.413   6.049
 9668SOL    HW129903   1.601   1.343   6.059
 9668SOL    HW229904   1.440   1.370   6.057
 9669SOL     OW29905   2.444   6.815   1.137
 9669SOL    HW129906   2.460   6.807   1.039
 9669SOL    HW229907   2.350   6.844   1.154
 9670SOL     OW29908   0.094   5.862   5.228
 9670SOL    HW129909   7.029   5.842   5.201
 9670SOL    HW229910   0.151   5.871   5.146
 9671SOL     OW29911   0.127   5.174   0.155
 9671SOL    HW129912   0.093   5.110   0.086
 9671SOL    HW229913   0.054   5.240   0.177
 9672SOL     OW29914   1.900   4.866   2.893
 9672SOL    HW129915   1.983   4.902   2.848
 9672SOL    HW229916   1.869   4.785   2.844
 9673SOL     OW29917   3.685   3.858   1.320
 9673SOL    HW129918   3.732   3.946   1.326
 9673SOL    HW229919   3.737   3.789   1.371
 9674SOL     OW29920   3.609   6.200   3.035
 9674SOL    HW129921   3.549   6.223   3.112
 9674SOL    HW229922   3.697   6.169   3.070
 9675SOL     OW29923   5.050   3.209   6.796
 9675SOL    HW129924   5.094   3.288   6.837
 9675SOL    HW229925   5.032   3.227   6.699
 9676SOL     OW29926   1.300   3.523   5.409
 9676SOL    HW129927   1.254   3.611   5.421
 9676SOL    HW229928   1.366   3.511   5.483
 9677SOL     OW29929   6.743   5.480   6.184
 9677SOL    HW129930   6.760   5.430   6.269
 9677SOL    HW229931   6.722   5.576   6.205
 9678SOL     OW29932   3.192   3.791   4.230
 9678SOL    HW129933   3.217   3.750   4.143
 9678SOL    HW229934   3.092   3.791   4.239
 9679SOL     OW29935   3.098   1.128   4.475
 9679SOL    HW129936   3.112   1.131   4.376
 9679SOL    HW229937   3.023   1.065   4.496
 9680SOL     OW29938   4.551   6.996   5.620
 9680SOL    HW129939   4.503   7.009   5.706
 9680SOL    HW229940   4.618   6.922   5.630
 9681SOL     OW29941   3.256   2.011   0.944
 9681SOL    HW129942   3.249   2.110   0.956
 9681SOL    HW229943   3.295   1.970   1.027
 9682SOL     OW29944   4.994   4.095   3.790
 9682SOL    HW129945   4.918   4.070   3.730
 9682SOL    HW229946   5.009   4.194   3.787
 9683SOL     OW29947   3.225   5.764   0.708
 9683SOL    HW129948   3.173   5.769   0.623
 9683SOL    HW229949   3.181   5.822   0.777
 9684SOL     OW29950   0.517   3.903   4.787
 9684SOL    HW129951   0.589   3.967   4.761
 9684SOL    HW229952   0.427   3.947   4.777
 9685SOL     OW29953   4.690   3.317   0.443
 9685SOL    HW129954   4.623   3.247   0.465
 9685SOL    HW229955   4.693   3.330   0.344
 9686SOL     OW29956   0.886   2.890   0.152
 9686SOL    HW129957   0.868   2.986   0.174
 9686SOL    HW229958   0.947   2.884   0.074
 9687SOL     OW29959   6.399   0.625   1.956
 9687SOL    HW129960   6.325   0.684   1.924
 9687SOL    HW229961   6.397   0.621   2.056
 9688SOL     OW29962   0.804   3.330   0.842
 9688SOL    HW129963   0.882   3.308   0.783
 9688SOL    HW229964   0.719   3.299   0.799
 9689SOL     OW29965   0.905   3.979   6.621
 9689SOL    HW129966   0.909   3.897   6.565
 9689SOL    HW229967   0.910   3.953   6.718
 9690SOL     OW29968   4.399   6.101   5.746
 9690SOL    HW129969   4.456   6.019   5.736
 9690SOL    HW229970   4.404   6.155   5.663
 9691SOL     OW29971   3.028   3.987   1.930
 9691SOL    HW129972   3.015   3.897   1.971
 9691SOL    HW229973   2.972   3.994   1.847
 9692SOL     OW29974   4.788   6.071   1.162
 9692SOL    HW129975   4.769   5.985   1.115
 9692SOL    HW229976   4.714   6.136   1.144
 9693SOL     OW29977   5.689   4.340   3.236
 9693SOL    HW129978   5.732   4.261   3.193
 9693SOL    HW229979   5.749   4.420   3.225
 9694SOL     OW29980   3.458   0.988   2.197
 9694SOL    HW129981   3.424   1.081   2.209
 9694SOL    HW229982   3.382   0.924   2.204
 9695SOL     OW29983   6.879   2.607   3.394
 9695SOL    HW129984   6.932   2.685   3.427
 9695SOL    HW229985   6.823   2.635   3.316
 9696SOL     OW29986   6.138   2.135   1.975
 9696SOL    HW129987   6.190   2.173   1.898
 9696SOL    HW229988   6.093   2.209   2.024
 9697SOL     OW29989   0.568   6.617   0.705
 9697SOL    HW129990   0.521   6.545   0.654
 9697SOL    HW229991   0.653   6.641   0.657
 9698SOL     OW29992   5.488   3.099   6.033
 9698SOL    HW129993   5.496   3.183   5.978
 9698SOL    HW229994   5.438   3.119   6.118
 9699SOL     OW29995   0.450   5.849   0.352
 9699SOL    HW129996   0.375   5.915   0.361
 9699SOL    HW229997   0.456   5.795   0.436
 9700SOL     OW29998   6.578   5.469   4.748
 9700SOL    HW129999   6.498   5.419   4.782
 9700SOL    HW230000   6.559   5.568   4.751
 9701SOL     OW30001   4.137   3.902   5.800
 9701SOL    HW130002   4.051   3.852   5.786
 9701SOL    HW230003   4.194   3.893   5.718
 9702SOL     OW30004   4.101   2.488   6.978
 9702SOL    HW130005   4.020   2.431   6.962
 9702SOL    HW230006   4.182   2.444   6.940
 9703SOL     OW30007   4.946   3.847   4.031
 9703SOL    HW130008   5.032   3.890   4.061
 9703SOL    HW230009   4.963   3.794   3.948
 9704SOL     OW30010   3.650   5.784   2.538
 9704SOL    HW130011   3.591   5.835   2.475
 9704SOL    HW230012   3.640   5.821   2.631
 9705SOL     OW30013   5.432   4.464   5.794
 9705SOL    HW130014   5.393   4.486   5.705
 9705SOL    HW230015   5.375   4.394   5.838
 9706SOL     OW30016   2.840   2.209   1.584
 9706SOL    HW130017   2.804   2.197   1.677
 9706SOL    HW230018   2.915   2.276   1.586
 9707SOL     OW30019   5.581   5.079   2.306
 9707SOL    HW130020   5.541   4.988   2.319
 9707SOL    HW230021   5.644   5.099   2.381
 9708SOL     OW30022   0.905   1.487   3.179
 9708SOL    HW130023   0.877   1.518   3.088
 9708SOL    HW230024   0.841   1.417   3.211
 9709SOL     OW30025   5.581   4.765   2.195
 9709SOL    HW130026   5.487   4.765   2.161
 9709SOL    HW230027   5.600   4.676   2.237
 9710SOL     OW30028   6.266   0.850   1.131
 9710SOL    HW130029   6.258   0.820   1.036
 9710SOL    HW230030   6.338   0.919   1.138
 9711SOL     OW30031   3.978   5.580   6.567
 9711SOL    HW130032   3.972   5.482   6.587
 9711SOL    HW230033   3.983   5.594   6.468
 9712SOL     OW30034   5.644   3.218   0.354
 9712SOL    HW130035   5.577   3.148   0.378
 9712SOL    HW230036   5.638   3.238   0.256
 9713SOL     OW30037   2.700   5.404   3.485
 9713SOL    HW130038   2.613   5.363   3.455
 9713SOL    HW230039   2.720   5.375   3.578
 9714SOL     OW30040   3.999   6.655   6.007
 9714SOL    HW130041   4.055   6.605   6.072
 9714SOL    HW230042   3.908   6.612   6.000
 9715SOL     OW30043   5.944   4.423   6.587
 9715SOL    HW130044   5.911   4.340   6.633
 9715SOL    HW230045   5.894   4.436   6.502
 9716SOL     OW30046   3.511   4.869   0.065
 9716SOL    HW130047   3.586   4.828   0.013
 9716SOL    HW230048   3.424   4.845   0.023
 9717SOL     OW30049   4.711   6.224   6.578
 9717SOL    HW130050   4.706   6.218   6.678
 9717SOL    HW230051   4.731   6.318   6.551
 9718SOL     OW30052   4.693   2.794   1.180
 9718SOL    HW130053   4.701   2.714   1.238
 9718SOL    HW230054   4.632   2.861   1.223
 9719SOL     OW30055   5.038   6.950   6.028
 9719SOL    HW130056   5.084   6.863   6.043
 9719SOL    HW230057   5.007   6.955   5.933
 9720SOL     OW30058   0.859   3.476   2.440
 9720SOL    HW130059   0.914   3.550   2.402
 9720SOL    HW230060   0.817   3.507   2.525
 9721SOL     OW30061   0.124   1.134   0.015
 9721SOL    HW130062   0.046   1.160   0.071
 9721SOL    HW230063   0.153   1.213   6.990
 9722SOL     OW30064   3.500   0.727   5.351
 9722SOL    HW130065   3.551   0.703   5.268
 9722SOL    HW230066   3.492   0.826   5.359
 9723SOL     OW30067   4.575   5.751   4.322
 9723SOL    HW130068   4.617   5.669   4.285
 9723SOL    HW230069   4.636   5.829   4.307
 9724SOL     OW30070   1.706   4.410   0.249
 9724SOL    HW130071   1.673   4.480   0.313
 9724SOL    HW230072   1.726   4.453   0.161
 9725SOL     OW30073   3.993   6.399   6.524
 9725SOL    HW130074   3.917   6.462   6.540
 9725SOL    HW230075   3.990   6.367   6.430
 9726SOL     OW30076   4.577   2.047   4.584
 9726SOL    HW130077   4.502   2.077   4.643
 9726SOL    HW230078   4.625   2.127   4.547
 9727SOL     OW30079   1.351   2.055   6.550
 9727SOL    HW130080   1.312   2.146   6.566
 9727SOL    HW230081   1.383   2.016   6.636
 9728SOL     OW30082   0.437   1.763   4.999
 9728SOL    HW130083   0.391   1.799   5.080
 9728SOL    HW230084   0.487   1.836   4.954
 9729SOL     OW30085   1.632   4.678   3.680
 9729SOL    HW130086   1.653   4.654   3.586
 9729SOL    HW230087   1.580   4.763   3.682
 9730SOL     OW30088   1.131   4.608   3.394
 9730SOL    HW130089   1.162   4.703   3.398
 9730SOL    HW230090   1.092   4.590   3.304
 9731SOL     OW30091   4.986   5.365   1.639
 9731SOL    HW130092   4.933   5.438   1.597
 9731SOL    HW230093   4.971   5.365   1.738
 9732SOL     OW30094   1.149   3.610   2.029
 9732SOL    HW130095   1.177   3.697   1.988
 9732SOL    HW230096   1.097   3.557   1.962
 9733SOL     OW30097   5.840   5.375   0.099
 9733SOL    HW130098   5.831   5.384   0.198
 9733SOL    HW230099   5.915   5.433   0.067
 9734SOL     OW30100   6.617   6.843   0.206
 9734SOL    HW130101   6.536   6.847   0.148
 9734SOL    HW230102   6.635   6.933   0.245
 9735SOL     OW30103   1.376   3.006   3.433
 9735SOL    HW130104   1.398   3.017   3.529
 9735SOL    HW230105   1.460   2.990   3.381
 9736SOL     OW30106   5.559   1.828   6.241
 9736SOL    HW130107   5.469   1.791   6.265
 9736SOL    HW230108   5.565   1.924   6.270
 9737SOL     OW30109   5.231   2.403   2.693
 9737SOL    HW130110   5.293   2.383   2.769
 9737SOL    HW230111   5.244   2.335   2.621
 9738SOL     OW30112   1.847   6.522   0.938
 9738SOL    HW130113   1.860   6.521   0.839
 9738SOL    HW230114   1.935   6.539   0.983
 9739SOL     OW30115   5.033   5.681   0.418
 9739SOL    HW130116   5.042   5.708   0.323
 9739SOL    HW230117   4.945   5.712   0.454
 9740SOL     OW30118   0.200   1.604   3.058
 9740SOL    HW130119   0.166   1.698   3.065
 9740SOL    HW230120   0.130   1.542   3.093
 9741SOL     OW30121   2.560   0.965   3.428
 9741SOL    HW130122   2.481   0.936   3.482
 9741SOL    HW230123   2.598   1.049   3.468
 9742SOL     OW30124   4.177   1.316   0.548
 9742SOL    HW130125   4.257   1.266   0.580
 9742SOL    HW230126   4.201   1.412   0.534
 9743SOL     OW30127   6.891   4.027   2.840
 9743SOL    HW130128   6.979   3.995   2.806
 9743SOL    HW230129   6.883   4.007   2.937
 9744SOL     OW30130   2.068   0.173   2.612
 9744SOL    HW130131   2.000   0.199   2.681
 9744SOL    HW230132   2.082   0.074   2.614
 9745SOL     OW30133   4.875   2.937   6.349
 9745SOL    HW130134   4.846   3.025   6.387
 9745SOL    HW230135   4.801   2.898   6.295
 9746SOL     OW30136   5.606   6.635   5.811
 9746SOL    HW130137   5.536   6.702   5.838
 9746SOL    HW230138   5.631   6.580   5.890
 9747SOL     OW30139   3.043   2.087   2.005
 9747SOL    HW130140   3.122   2.126   1.957
 9747SOL    HW230141   2.967   2.151   2.004
 9748SOL     OW30142   6.880   6.515   3.371
 9748SOL    HW130143   6.797   6.503   3.426
 9748SOL    HW230144   6.918   6.426   3.348
 9749SOL     OW30145   0.799   0.838   3.752
 9749SOL    HW130146   0.865   0.912   3.742
 9749SOL    HW230147   0.737   0.838   3.674
 9750SOL     OW30148   6.021   5.187   3.512
 9750SOL    HW130149   6.023   5.250   3.435
 9750SOL    HW230150   5.934   5.196   3.560
 9751SOL     OW30151   1.967   6.999   0.624
 9751SOL    HW130152   2.033   6.941   0.577
 9751SOL    HW230153   2.002   7.022   0.715
 9752SOL     OW30154   4.617   1.653   5.378
 9752SOL    HW130155   4.559   1.666   5.458
 9752SOL    HW230156   4.559   1.645   5.297
 9753SOL     OW30157   0.729   5.483   5.948
 9753SOL    HW130158   0.778   5.484   5.861
 9753SOL    HW230159   0.726   5.390   5.984
 9754SOL     OW30160   2.988   0.625   0.698
 9754SOL    HW130161   3.064   0.582   0.746
 9754SOL    HW230162   3.023   0.695   0.635
 9755SOL     OW30163   3.026   3.865   4.567
 9755SOL    HW130164   3.051   3.773   4.597
 9755SOL    HW230165   3.081   3.932   4.616
 9756SOL     OW30166   6.263   2.541   6.658
 9756SOL    HW130167   6.196   2.473   6.686
 9756SOL    HW230168   6.298   2.519   6.567
 9757SOL     OW30169   5.888   4.679   4.909
 9757SOL    HW130170   5.885   4.584   4.942
 9757SOL    HW230171   5.889   4.741   4.987
 9758SOL     OW30172   2.190   1.232   0.619
 9758SOL    HW130173   2.107   1.280   0.648
 9758SOL    HW230174   2.213   1.258   0.525
 9759SOL     OW30175   0.968   0.953   0.166
 9759SOL    HW130176   0.886   0.935   0.221
 9759SOL    HW230177   1.023   1.024   0.210
 9760SOL     OW30178   4.840   3.204   5.556
 9760SOL    HW130179   4.862   3.301   5.552
 9760SOL    HW230180   4.921   3.153   5.585
 9761SOL     OW30181   0.710   2.599   1.852
 9761SOL    HW130182   0.678   2.693   1.868
 9761SOL    HW230183   0.776   2.575   1.923
 9762SOL     OW30184   3.354   1.598   5.030
 9762SOL    HW130185   3.420   1.649   5.086
 9762SOL    HW230186   3.324   1.655   4.954
 9763SOL     OW30187   5.494   0.971   3.760
 9763SOL    HW130188   5.396   0.951   3.753
 9763SOL    HW230189   5.513   1.059   3.716
 9764SOL     OW30190   6.332   2.618   2.482
 9764SOL    HW130191   6.232   2.615   2.479
 9764SOL    HW230192   6.368   2.530   2.452
 9765SOL     OW30193   6.818   6.404   3.042
 9765SOL    HW130194   6.855   6.465   2.972
 9765SOL    HW230195   6.884   6.393   3.116
 9766SOL     OW30196   2.350   6.461   1.773
 9766SOL    HW130197   2.308   6.552   1.774
 9766SOL    HW230198   2.292   6.397   1.823
 9767SOL     OW30199   2.360   2.392   5.817
 9767SOL    HW130200   2.429   2.372   5.747
 9767SOL    HW230201   2.382   2.478   5.862
 9768SOL     OW30202   4.564   1.331   2.084
 9768SOL    HW130203   4.599   1.417   2.047
 9768SOL    HW230204   4.467   1.321   2.061
 9769SOL     OW30205   3.349   1.298   4.608
 9769SOL    HW130206   3.275   1.341   4.556
 9769SOL    HW230207   3.407   1.247   4.545
 9770SOL     OW30208   4.012   1.041   5.261
 9770SOL    HW130209   3.941   1.057   5.329
 9770SOL    HW230210   4.083   0.982   5.300
 9771SOL     OW30211   2.496   5.409   1.179
 9771SOL    HW130212   2.477   5.317   1.215
 9771SOL    HW230213   2.588   5.409   1.139
 9772SOL     OW30214   1.757   6.188   1.868
 9772SOL    HW130215   1.790   6.272   1.824
 9772SOL    HW230216   1.657   6.188   1.869
 9773SOL     OW30217   5.005   5.534   3.825
 9773SOL    HW130218   5.038   5.477   3.750
 9773SOL    HW230219   5.070   5.610   3.840
 9774SOL     OW30220   0.185   5.319   2.891
 9774SOL    HW130221   0.261   5.336   2.828
 9774SOL    HW230222   0.157   5.404   2.934
 9775SOL     OW30223   3.267   0.297   3.171
 9775SOL    HW130224   3.252   0.357   3.092
 9775SOL    HW230225   3.279   0.203   3.141
 9776SOL     OW30226   0.979   5.220   5.985
 9776SOL    HW130227   1.009   5.196   5.892
 9776SOL    HW230228   0.887   5.184   6.001
 9777SOL     OW30229   6.125   5.062   1.021
 9777SOL    HW130230   6.151   4.977   0.974
 9777SOL    HW230231   6.130   5.138   0.957
 9778SOL     OW30232   0.098   1.334   4.952
 9778SOL    HW130233   0.197   1.330   4.966
 9778SOL    HW230234   0.076   1.290   4.865
 9779SOL     OW30235   0.817   1.621   4.253
 9779SOL    HW130236   0.792   1.530   4.285
 9779SOL    HW230237   0.805   1.626   4.154
 9780SOL     OW30238   2.289   1.807   0.216
 9780SOL    HW130239   2.337   1.893   0.198
 9780SOL    HW230240   2.288   1.789   0.314
 9781SOL     OW30241   2.254   3.024   4.516
 9781SOL    HW130242   2.272   2.990   4.608
 9781SOL    HW230243   2.215   3.116   4.521
 9782SOL     OW30244   0.494   2.097   0.127
 9782SOL    HW130245   0.537   2.051   0.050
 9782SOL    HW230246   0.458   2.029   0.191
 9783SOL     OW30247   4.357   2.403   3.178
 9783SOL    HW130248   4.409   2.487   3.161
 9783SOL    HW230249   4.375   2.338   3.104
 9784SOL     OW30250   3.755   0.791   6.029
 9784SOL    HW130251   3.688   0.759   6.095
 9784SOL    HW230252   3.804   0.713   5.990
 9785SOL     OW30253   0.073   2.071   5.512
 9785SOL    HW130254   0.136   2.148   5.509
 9785SOL    HW230255   0.122   1.988   5.539
 9786SOL     OW30256   2.294   3.261   0.264
 9786SOL    HW130257   2.324   3.304   0.349
 9786SOL    HW230258   2.290   3.330   0.192
 9787SOL     OW30259   3.492   3.205   2.743
 9787SOL    HW130260   3.413   3.205   2.681
 9787SOL    HW230261   3.575   3.225   2.692
 9788SOL     OW30262   0.890   6.834   2.251
 9788SOL    HW130263   0.810   6.791   2.293
 9788SOL    HW230264   0.878   6.933   2.249
 9789SOL     OW30265   1.305   6.004   0.044
 9789SOL    HW130266   1.395   6.034   0.075
 9789SOL    HW230267   1.240   6.080   0.055
 9790SOL     OW30268   6.437   4.420   6.138
 9790SOL    HW130269   6.470   4.411   6.232
 9790SOL    HW230270   6.461   4.339   6.086
 9791SOL     OW30271   0.708   6.831   6.536
 9791SOL    HW130272   0.745   6.738   6.539
 9791SOL    HW230273   0.696   6.865   6.629
 9792SOL     OW30274   3.031   4.575   0.327
 9792SOL    HW130275   2.960   4.574   0.256
 9792SOL    HW230276   2.987   4.583   0.417
 9793SOL     OW30277   4.377   0.285   2.498
 9793SOL    HW130278   4.461   0.329   2.465
 9793SOL    HW230279   4.381   0.275   2.598
 9794SOL     OW30280   6.184   4.342   5.847
 9794SOL    HW130281   6.228   4.408   5.909
 9794SOL    HW230282   6.172   4.384   5.757
 9795SOL     OW30283   1.492   2.423   4.549
 9795SOL    HW130284   1.436   2.361   4.604
 9795SOL    HW230285   1.539   2.488   4.608
 9796SOL     OW30286   4.138   3.497   2.675
 9796SOL    HW130287   4.124   3.482   2.773
 9796SOL    HW230288   4.087   3.428   2.624
 9797SOL     OW30289   1.929   5.910   0.109
 9797SOL    HW130290   1.998   5.900   0.038
 9797SOL    HW230291   1.859   5.839   0.097
 9798SOL     OW30292   2.774   0.744   2.651
 9798SOL    HW130293   2.750   0.665   2.595
 9798SOL    HW230294   2.833   0.806   2.599
 9799SOL     OW30295   2.945   4.339   6.078
 9799SOL    HW130296   2.926   4.253   6.124
 9799SOL    HW230297   3.032   4.376   6.110
 9800SOL     OW30298   4.890   4.952   4.863
 9800SOL    HW130299   4.830   4.891   4.915
 9800SOL    HW230300   4.911   5.033   4.918
 9801SOL     OW30301   4.789   4.411   6.793
 9801SOL    HW130302   4.782   4.341   6.722
 9801SOL    HW230303   4.706   4.409   6.849
 9802SOL     OW30304   5.969   4.944   0.750
 9802SOL    HW130305   5.937   4.902   0.665
 9802SOL    HW230306   6.044   4.890   0.787
 9803SOL     OW30307   1.953   3.085   6.411
 9803SOL    HW130308   1.945   3.184   6.396
 9803SOL    HW230309   1.886   3.037   6.355
 9804SOL     OW30310   0.741   6.649   3.387
 9804SOL    HW130311   0.655   6.695   3.408
 9804SOL    HW230312   0.724   6.576   3.321
 9805SOL     OW30313   0.480   6.679   2.850
 9805SOL    HW130314   0.532   6.718   2.927
 9805SOL    HW230315   0.408   6.620   2.886
 9806SOL     OW30316   1.506   1.667   6.917
 9806SOL    HW130317   1.602   1.676   6.945
 9806SOL    HW230318   1.449   1.661   6.999
 9807SOL     OW30319   3.088   3.754   1.062
 9807SOL    HW130320   3.128   3.840   1.028
 9807SOL    HW230321   3.062   3.697   0.984
 9808SOL     OW30322   4.127   5.764   5.078
 9808SOL    HW130323   4.061   5.794   5.010
 9808SOL    HW230324   4.097   5.794   5.169
 9809SOL     OW30325   1.198   3.151   6.972
 9809SOL    HW130326   1.238   3.162   6.881
 9809SOL    HW230327   1.181   3.241   7.012
 9810SOL     OW30328   3.243   2.140   4.765
 9810SOL    HW130329   3.161   2.093   4.732
 9810SOL    HW230330   3.218   2.204   4.838
 9811SOL     OW30331   5.665   5.109   3.494
 9811SOL    HW130332   5.726   5.089   3.417
 9811SOL    HW230333   5.587   5.046   3.492
 9812SOL     OW30334   3.115   1.403   5.443
 9812SOL    HW130335   3.186   1.426   5.510
 9812SOL    HW230336   3.151   1.335   5.379
 9813SOL     OW30337   5.206   1.977   1.140
 9813SOL    HW130338   5.168   1.885   1.137
 9813SOL    HW230339   5.287   1.982   1.082
 9814SOL     OW30340   0.223   0.160   6.496
 9814SOL    HW130341   0.305   0.206   6.462
 9814SOL    HW230342   0.243   0.116   6.583
 9815SOL     OW30343   4.936   3.258   4.373
 9815SOL    HW130344   4.937   3.198   4.453
 9815SOL    HW230345   4.900   3.207   4.294
 9816SOL     OW30346   0.700   1.199   5.906
 9816SOL    HW130347   0.680   1.145   5.824
 9816SOL    HW230348   0.615   1.235   5.944
 9817SOL     OW30349   1.715   6.805   3.258
 9817SOL    HW130350   1.645   6.790   3.328
 9817SOL    HW230351   1.672   6.807   3.168
 9818SOL     OW30352   6.542   1.081   3.858
 9818SOL    HW130353   6.579   1.133   3.935
 9818SOL    HW230354   6.450   1.114   3.837
 9819SOL     OW30355   5.458   3.270   3.544
 9819SOL    HW130356   5.413   3.195   3.496
 9819SOL    HW230357   5.399   3.351   3.541
 9820SOL     OW30358   3.516   3.475   6.706
 9820SOL    HW130359   3.429   3.468   6.657
 9820SOL    HW230360   3.505   3.536   6.784
 9821SOL     OW30361   5.662   1.186   6.231
 9821SOL    HW130362   5.720   1.117   6.273
 9821SOL    HW230363   5.634   1.253   6.300
 9822SOL     OW30364   1.651   0.275   3.302
 9822SOL    HW130365   1.698   0.311   3.221
 9822SOL    HW230366   1.634   0.177   3.289
 9823SOL     OW30367   2.852   0.249   0.341
 9823SOL    HW130368   2.894   0.270   0.253
 9823SOL    HW230369   2.876   0.321   0.406
 9824SOL     OW30370   2.202   4.636   4.739
 9824SOL    HW130371   2.189   4.720   4.791
 9824SOL    HW230372   2.267   4.652   4.665
 9825SOL     OW30373   4.095   5.268   6.061
 9825SOL    HW130374   4.167   5.199   6.050
 9825SOL    HW230375   4.011   5.224   6.091
 9826SOL     OW30376   5.158   4.932   5.718
 9826SOL    HW130377   5.226   5.003   5.738
 9826SOL    HW230378   5.071   4.957   5.760
 9827SOL     OW30379   2.107   3.747   3.950
 9827SOL    HW130380   2.102   3.673   3.883
 9827SOL    HW230381   2.055   3.722   4.031
 9828SOL     OW30382   2.336   3.003   6.245
 9828SOL    HW130383   2.386   3.088   6.257
 9828SOL    HW230384   2.397   2.926   6.263
 9829SOL     OW30385   3.736   6.018   6.864
 9829SOL    HW130386   3.739   5.932   6.915
 9829SOL    HW230387   3.663   6.013   6.796
 9830SOL     OW30388   6.193   2.627   2.005
 9830SOL    HW130389   6.293   2.625   1.999
 9830SOL    HW230390   6.164   2.715   2.041
 9831SOL     OW30391   2.374   5.637   1.119
 9831SOL    HW130392   2.423   5.556   1.152
 9831SOL    HW230393   2.277   5.614   1.107
 9832SOL     OW30394   4.867   5.490   2.675
 9832SOL    HW130395   4.832   5.416   2.733
 9832SOL    HW230396   4.957   5.518   2.707
 9833SOL     OW30397   3.817   3.621   5.227
 9833SOL    HW130398   3.817   3.708   5.276
 9833SOL    HW230399   3.894   3.565   5.258
 9834SOL     OW30400   3.308   4.461   5.303
 9834SOL    HW130401   3.237   4.521   5.340
 9834SOL    HW230402   3.392   4.514   5.291
 9835SOL     OW30403   3.558   2.858   5.455
 9835SOL    HW130404   3.497   2.822   5.384
 9835SOL    HW230405   3.510   2.860   5.543
 9836SOL     OW30406   6.284   4.586   3.994
 9836SOL    HW130407   6.189   4.590   3.964
 9836SOL    HW230408   6.344   4.597   3.914
 9837SOL     OW30409   3.291   0.555   2.901
 9837SOL    HW130410   3.216   0.610   2.936
 9837SOL    HW230411   3.364   0.615   2.867
 9838SOL     OW30412   1.006   6.479   5.848
 9838SOL    HW130413   0.937   6.429   5.795
 9838SOL    HW230414   1.040   6.556   5.793
 9839SOL     OW30415   5.937   1.578   3.640
 9839SOL    HW130416   6.015   1.590   3.702
 9839SOL    HW230417   5.895   1.666   3.621
 9840SOL     OW30418   6.798   1.882   1.181
 9840SOL    HW130419   6.843   1.965   1.215
 9840SOL    HW230420   6.850   1.844   1.105
 9841SOL     OW30421   1.922   4.068   4.543
 9841SOL    HW130422   1.840   4.125   4.542
 9841SOL    HW230423   1.943   4.040   4.636
 9842SOL     OW30424   4.138   3.229   2.502
 9842SOL    HW130425   4.126   3.192   2.594
 9842SOL    HW230426   4.231   3.263   2.492
 9843SOL     OW30427   5.224   0.873   1.056
 9843SOL    HW130428   5.277   0.875   1.141
 9843SOL    HW230429   5.238   0.786   1.009
 9844SOL     OW30430   6.060   1.030   1.867
 9844SOL    HW130431   5.962   1.051   1.865
 9844SOL    HW230432   6.111   1.116   1.864
 9845SOL     OW30433   3.140   2.214   3.926
 9845SOL    HW130434   3.116   2.129   3.972
 9845SOL    HW230435   3.217   2.199   3.865
 9846SOL     OW30436   3.855   3.666   1.819
 9846SOL    HW130437   3.871   3.743   1.757
 9846SOL    HW230438   3.756   3.652   1.830
 9847SOL     OW30439   3.576   2.883   4.282
 9847SOL    HW130440   3.665   2.918   4.310
 9847SOL    HW230441   3.582   2.785   4.266
 9848SOL     OW30442   2.942   3.349   5.842
 9848SOL    HW130443   2.862   3.306   5.884
 9848SOL    HW230444   2.923   3.445   5.826
 9849SOL     OW30445   0.636   0.144   6.964
 9849SOL    HW130446   0.684   0.076   6.909
 9849SOL    HW230447   0.566   0.188   6.907
 9850SOL     OW30448   5.600   0.201   3.780
 9850SOL    HW130449   5.693   0.198   3.817
 9850SOL    HW230450   5.587   0.287   3.730
 9851SOL     OW30451   4.933   1.012   5.062
 9851SOL    HW130452   4.864   0.944   5.039
 9851SOL    HW230453   5.021   0.968   5.074
 9852SOL     OW30454   4.325   2.190   2.780
 9852SOL    HW130455   4.296   2.102   2.742
 9852SOL    HW230456   4.312   2.262   2.712
 9853SOL     OW30457   5.218   4.277   4.438
 9853SOL    HW130458   5.237   4.282   4.536
 9853SOL    HW230459   5.285   4.333   4.389
 9854SOL     OW30460   0.652   6.096   4.912
 9854SOL    HW130461   0.570   6.131   4.957
 9854SOL    HW230462   0.711   6.172   4.886
 9855SOL     OW30463   2.370   2.974   0.982
 9855SOL    HW130464   2.427   2.929   1.050
 9855SOL    HW230465   2.365   2.917   0.900
 9856SOL     OW30466   4.868   4.331   5.295
 9856SOL    HW130467   4.931   4.407   5.309
 9856SOL    HW230468   4.807   4.323   5.374
 9857SOL     OW30469   4.371   2.457   3.457
 9857SOL    HW130470   4.369   2.452   3.358
 9857SOL    HW230471   4.460   2.427   3.491
 9858SOL     OW30472   0.309   0.723   0.657
 9858SOL    HW130473   0.283   0.677   0.741
 9858SOL    HW230474   0.373   0.666   0.606
 9859SOL     OW30475   6.447   6.913   1.839
 9859SOL    HW130476   6.388   6.917   1.759
 9859SOL    HW230477   6.534   6.870   1.815
 9860SOL     OW30478   1.011   1.324   3.899
 9860SOL    HW130479   0.936   1.285   3.953
 9860SOL    HW230480   0.973   1.372   3.820
 9861SOL     OW30481   3.212   0.055   3.329
 9861SOL    HW130482   3.167   6.998   3.307
 9861SOL    HW230483   3.155   0.106   3.394
 9862SOL     OW30484   3.910   4.219   0.139
 9862SOL    HW130485   3.883   4.303   0.186
 9862SOL    HW230486   3.919   4.237   0.041
 9863SOL     OW30487   3.375   0.157   2.577
 9863SOL    HW130488   3.298   0.106   2.540
 9863SOL    HW230489   3.445   0.094   2.610
 9864SOL     OW30490   3.732   6.618   3.916
 9864SOL    HW130491   3.703   6.666   3.833
 9864SOL    HW230492   3.807   6.556   3.895
 9865SOL     OW30493   1.536   1.034   4.157
 9865SOL    HW130494   1.606   1.104   4.176
 9865SOL    HW230495   1.526   0.976   4.238
 9866SOL     OW30496   4.752   4.952   6.329
 9866SOL    HW130497   4.679   5.016   6.355
 9866SOL    HW230498   4.727   4.906   6.244
 9867SOL     OW30499   6.250   0.920   0.666
 9867SOL    HW130500   6.273   1.005   0.714
 9867SOL    HW230501   6.154   0.922   0.640
 9868SOL     OW30502   0.631   3.881   5.939
 9868SOL    HW130503   0.629   3.934   6.024
 9868SOL    HW230504   0.708   3.817   5.942
 9869SOL     OW30505   1.783   3.267   2.160
 9869SOL    HW130506   1.825   3.191   2.209
 9869SOL    HW230507   1.698   3.293   2.206
 9870SOL     OW30508   4.008   5.556   2.616
 9870SOL    HW130509   3.955   5.566   2.700
 9870SOL    HW230510   3.997   5.639   2.561
 9871SOL     OW30511   0.089   5.734   5.867
 9871SOL    HW130512   0.169   5.712   5.811
 9871SOL    HW230513   0.099   5.825   5.905
 9872SOL     OW30514   2.449   4.789   4.291
 9872SOL    HW130515   2.465   4.704   4.240
 9872SOL    HW230516   2.380   4.843   4.244
 9873SOL     OW30517   2.615   2.576   0.236
 9873SOL    HW130518   2.662   2.601   0.321
 9873SOL    HW230519   2.631   2.648   0.168
 9874SOL     OW30520   6.867   3.367   4.924
 9874SOL    HW130521   6.898   3.320   4.841
 9874SOL    HW230522   6.867   3.303   5.001
 9875SOL     OW30523   6.093   5.927   1.922
 9875SOL    HW130524   6.087   5.848   1.983
 9875SOL    HW230525   6.189   5.944   1.900
 9876SOL     OW30526   6.596   0.572   2.928
 9876SOL    HW130527   6.497   0.575   2.934
 9876SOL    HW230528   6.623   0.509   2.855
 9877SOL     OW30529   0.028   6.323   4.138
 9877SOL    HW130530   6.995   6.396   4.165
 9877SOL    HW230531   0.040   6.259   4.214
 9878SOL     OW30532   2.607   4.722   5.194
 9878SOL    HW130533   2.680   4.681   5.139
 9878SOL    HW230534   2.632   4.718   5.290
 9879SOL     OW30535   5.627   5.441   4.974
 9879SOL    HW130536   5.726   5.426   4.985
 9879SOL    HW230537   5.596   5.397   4.890
 9880SOL     OW30538   3.411   0.908   5.909
 9880SOL    HW130539   3.429   0.948   5.819
 9880SOL    HW230540   3.399   0.809   5.900
 9881SOL     OW30541   0.657   0.887   5.043
 9881SOL    HW130542   0.617   0.815   4.987
 9881SOL    HW230543   0.647   0.975   4.997
 9882SOL     OW30544   1.003   3.904   3.449
 9882SOL    HW130545   0.960   3.862   3.369
 9882SOL    HW230546   1.097   3.871   3.458
 9883SOL     OW30547   1.305   6.377   0.165
 9883SOL    HW130548   1.384   6.314   0.167
 9883SOL    HW230549   1.326   6.459   0.218
 9884SOL     OW30550   5.080   2.066   1.879
 9884SOL    HW130551   5.007   2.132   1.895
 9884SOL    HW230552   5.113   2.073   1.785
 9885SOL     OW30553   6.673   2.433   4.820
 9885SOL    HW130554   6.764   2.455   4.856
 9885SOL    HW230555   6.616   2.397   4.894
 9886SOL     OW30556   1.411   4.676   2.853
 9886SOL    HW130557   1.429   4.773   2.835
 9886SOL    HW230558   1.483   4.640   2.912
 9887SOL     OW30559   3.925   0.471   6.424
 9887SOL    HW130560   3.867   0.429   6.494
 9887SOL    HW230561   3.912   0.424   6.337
 9888SOL     OW30562   5.582   4.680   3.072
 9888SOL    HW130563   5.659   4.617   3.062
 9888SOL    HW230564   5.532   4.685   2.985
 9889SOL     OW30565   6.676   5.511   2.006
 9889SOL    HW130566   6.642   5.417   1.999
 9889SOL    HW230567   6.766   5.511   2.049
 9890SOL     OW30568   1.823   1.986   0.469
 9890SOL    HW130569   1.855   1.990   0.564
 9890SOL    HW230570   1.777   1.899   0.453
 9891SOL     OW30571   4.957   3.603   2.003
 9891SOL    HW130572   4.911   3.642   1.923
 9891SOL    HW230573   4.926   3.650   2.086
 9892SOL     OW30574   0.092   4.714   1.037
 9892SOL    HW130575   0.100   4.711   0.937
 9892SOL    HW230576   0.121   4.627   1.076
 9893SOL     OW30577   0.634   0.796   1.345
 9893SOL    HW130578   0.571   0.750   1.282
 9893SOL    HW230579   0.702   0.847   1.292
 9894SOL     OW30580   3.304   2.828   0.156
 9894SOL    HW130581   3.246   2.884   0.215
 9894SOL    HW230582   3.357   2.765   0.213
 9895SOL     OW30583   5.804   5.023   4.618
 9895SOL    HW130584   5.858   5.079   4.554
 9895SOL    HW230585   5.790   4.932   4.579
 9896SOL     OW30586   6.327   1.487   6.743
 9896SOL    HW130587   6.243   1.539   6.758
 9896SOL    HW230588   6.337   1.467   6.646
 9897SOL     OW30589   5.455   6.394   2.505
 9897SOL    HW130590   5.380   6.393   2.438
 9897SOL    HW230591   5.458   6.306   2.553
 9898SOL     OW30592   1.729   5.736   4.849
 9898SOL    HW130593   1.630   5.744   4.842
 9898SOL    HW230594   1.756   5.641   4.834
 9899SOL     OW30595   1.373   5.767   0.598
 9899SOL    HW130596   1.358   5.811   0.686
 9899SOL    HW230597   1.303   5.798   0.533
 9900SOL     OW30598   1.635   2.631   3.219
 9900SOL    HW130599   1.729   2.603   3.200
 9900SOL    HW230600   1.601   2.582   3.300
 9901SOL     OW30601   3.116   0.435   6.860
 9901SOL    HW130602   3.062   0.428   6.944
 9901SOL    HW230603   3.057   0.462   6.784
 9902SOL     OW30604   3.469   4.852   1.497
 9902SOL    HW130605   3.523   4.816   1.573
 9902SOL    HW230606   3.442   4.946   1.518
 9903SOL     OW30607   5.732   2.363   1.470
 9903SOL    HW130608   5.693   2.345   1.380
 9903SOL    HW230609   5.784   2.448   1.468
 9904SOL     OW30610   0.853   3.936   6.931
 9904SOL    HW130611   0.782   3.868   6.912
 9904SOL    HW230612   0.939   3.890   6.953
 9905SOL     OW30613   2.222   0.428   6.664
 9905SOL    HW130614   2.293   0.466   6.723
 9905SOL    HW230615   2.192   0.497   6.598
 9906SOL     OW30616   1.804   3.368   1.113
 9906SOL    HW130617   1.826   3.273   1.090
 9906SOL    HW230618   1.889   3.421   1.121
 9907SOL     OW30619   1.118   0.257   1.309
 9907SOL    HW130620   1.080   0.191   1.374
 9907SOL    HW230621   1.126   0.346   1.353
 9908SOL     OW30622   6.390   1.569   5.615
 9908SOL    HW130623   6.477   1.542   5.656
 9908SOL    HW230624   6.320   1.501   5.638
 9909SOL     OW30625   4.885   1.388   3.027
 9909SOL    HW130626   4.824   1.385   3.106
 9909SOL    HW230627   4.874   1.475   2.979
 9910SOL     OW30628   1.195   4.859   1.496
 9910SOL    HW130629   1.194   4.845   1.397
 9910SOL    HW230630   1.285   4.835   1.532
 9911SOL     OW30631   3.160   6.101   2.445
 9911SOL    HW130632   3.155   6.028   2.513
 9911SOL    HW230633   3.177   6.061   2.354
 9912SOL     OW30634   3.690   0.524   1.405
 9912SOL    HW130635   3.699   0.613   1.449
 9912SOL    HW230636   3.593   0.505   1.387
 9913SOL     OW30637   6.676   3.963   0.399
 9913SOL    HW130638   6.687   4.033   0.328
 9913SOL    HW230639   6.588   3.916   0.385
 9914SOL     OW30640   5.978   1.178   4.936
 9914SOL    HW130641   5.953   1.120   4.859
 9914SOL    HW230642   5.903   1.242   4.956
 9915SOL     OW30643   6.441   0.957   3.508
 9915SOL    HW130644   6.453   1.041   3.562
 9915SOL    HW230645   6.530   0.916   3.489
 9916SOL     OW30646   2.006   2.785   2.981
 9916SOL    HW130647   1.933   2.846   2.948
 9916SOL    HW230648   1.993   2.694   2.942
 9917SOL     OW30649   4.337   3.845   6.226
 9917SOL    HW130650   4.339   3.941   6.251
 9917SOL    HW230651   4.401   3.794   6.284
 9918SOL     OW30652   2.014   2.077   3.373
 9918SOL    HW130653   2.069   2.092   3.291
 9918SOL    HW230654   2.034   2.147   3.440
 9919SOL     OW30655   0.824   5.419   0.676
 9919SOL    HW130656   0.802   5.381   0.586
 9919SOL    HW230657   0.921   5.405   0.696
 9920SOL     OW30658   4.921   0.896   2.217
 9920SOL    HW130659   4.897   0.913   2.312
 9920SOL    HW230660   4.867   0.955   2.157
 9921SOL     OW30661   3.952   6.180   4.647
 9921SOL    HW130662   3.999   6.098   4.612
 9921SOL    HW230663   3.969   6.188   4.745
 9922SOL     OW30664   2.167   3.704   0.338
 9922SOL    HW130665   2.114   3.631   0.381
 9922SOL    HW230666   2.263   3.695   0.363
 9923SOL     OW30667   5.862   4.697   0.150
 9923SOL    HW130668   5.926   4.748   0.208
 9923SOL    HW230669   5.778   4.750   0.139
 9924SOL     OW30670   5.856   1.736   3.134
 9924SOL    HW130671   5.904   1.663   3.085
 9924SOL    HW230672   5.901   1.824   3.115
 9925SOL     OW30673   0.474   4.914   4.244
 9925SOL    HW130674   0.549   4.930   4.179
 9925SOL    HW230675   0.456   4.816   4.250
 9926SOL     OW30676   4.670   3.018   1.388
 9926SOL    HW130677   4.616   3.102   1.392
 9926SOL    HW230678   4.767   3.042   1.381
 9927SOL     OW30679   1.720   0.185   0.691
 9927SOL    HW130680   1.662   0.138   0.757
 9927SOL    HW230681   1.663   0.241   0.631
 9928SOL     OW30682   5.043   4.973   2.874
 9928SOL    HW130683   5.068   5.005   2.965
 9928SOL    HW230684   4.979   4.897   2.882
 9929SOL     OW30685   3.194   4.090   5.154
 9929SOL    HW130686   3.262   4.092   5.081
 9929SOL    HW230687   3.164   4.184   5.173
 9930SOL     OW30688   6.633   6.860   5.220
 9930SOL    HW130689   6.584   6.835   5.304
 9930SOL    HW230690   6.731   6.853   5.235
 9931SOL     OW30691   0.543   5.457   4.404
 9931SOL    HW130692   0.642   5.456   4.416
 9931SOL    HW230693   0.520   5.421   4.314
 9932SOL     OW30694   2.753   3.744   6.356
 9932SOL    HW130695   2.761   3.724   6.258
 9932SOL    HW230696   2.828   3.805   6.384
 9933SOL     OW30697   1.219   6.862   3.960
 9933SOL    HW130698   1.314   6.842   3.982
 9933SOL    HW230699   1.168   6.880   4.045
 9934SOL     OW30700   6.207   2.147   5.982
 9934SOL    HW130701   6.132   2.211   5.969
 9934SOL    HW230702   6.206   2.079   5.908
 9935SOL     OW30703   3.126   6.798   0.418
 9935SOL    HW130704   3.084   6.725   0.472
 9935SOL    HW230705   3.103   6.887   0.457
 9936SOL     OW30706   6.765   4.795   0.395
 9936SOL    HW130707   6.716   4.778   0.310
 9936SOL    HW230708   6.717   4.750   0.471
 9937SOL     OW30709   0.278   2.125   1.686
 9937SOL    HW130710   0.350   2.191   1.707
 9937SOL    HW230711   0.309   2.065   1.613
 9938SOL     OW30712   6.261   5.232   3.773
 9938SOL    HW130713   6.290   5.202   3.864
 9938SOL    HW230714   6.319   5.308   3.744
 9939SOL     OW30715   4.483   2.538   1.430
 9939SOL    HW130716   4.399   2.492   1.399
 9939SOL    HW230717   4.473   2.561   1.527
 9940SOL     OW30718   0.866   0.984   1.676
 9940SOL    HW130719   0.784   1.007   1.624
 9940SOL    HW230720   0.876   1.048   1.752
 9941SOL     OW30721   3.116   3.037   4.819
 9941SOL    HW130722   3.196   2.992   4.780
 9941SOL    HW230723   3.033   2.987   4.794
 9942SOL     OW30724   2.712   5.446   2.797
 9942SOL    HW130725   2.615   5.424   2.790
 9942SOL    HW230726   2.723   5.545   2.808
 9943SOL     OW30727   0.653   4.044   5.542
 9943SOL    HW130728   0.669   4.139   5.517
 9943SOL    HW230729   0.605   4.040   5.629
 9944SOL     OW30730   0.737   4.401   6.508
 9944SOL    HW130731   0.817   4.438   6.461
 9944SOL    HW230732   0.736   4.301   6.500
 9945SOL     OW30733   4.682   5.664   6.562
 9945SOL    HW130734   4.701   5.761   6.577
 9945SOL    HW230735   4.716   5.636   6.472
 9946SOL     OW30736   5.969   0.849   3.494
 9946SOL    HW130737   5.955   0.751   3.507
 9946SOL    HW230738   5.916   0.880   3.415
 9947SOL     OW30739   2.565   2.517   4.529
 9947SOL    HW130740   2.602   2.517   4.622
 9947SOL    HW230741   2.526   2.428   4.508
 9948SOL     OW30742   6.216   4.521   6.081
 9948SOL    HW130743   6.309   4.487   6.100
 9948SOL    HW230744   6.152   4.480   6.146
 9949SOL     OW30745   6.546   5.190   3.940
 9949SOL    HW130746   6.459   5.142   3.954
 9949SOL    HW230747   6.556   5.214   3.843
 9950SOL     OW30748   5.436   6.231   5.588
 9950SOL    HW130749   5.477   6.253   5.676
 9950SOL    HW230750   5.509   6.208   5.523
 9951SOL     OW30751   1.132   1.763   3.886
 9951SOL    HW130752   1.196   1.733   3.956
 9951SOL    HW230753   1.160   1.729   3.797
 9952SOL     OW30754   1.328   4.684   0.348
 9952SOL    HW130755   1.258   4.708   0.416
 9952SOL    HW230756   1.292   4.614   0.287
 9953SOL     OW30757   5.870   2.444   4.808
 9953SOL    HW130758   5.914   2.385   4.739
 9953SOL    HW230759   5.771   2.430   4.806
 9954SOL     OW30760   0.438   0.868   5.917
 9954SOL    HW130761   0.474   0.927   5.845
 9954SOL    HW230762   0.495   0.875   5.999
 9955SOL     OW30763   5.964   3.785   5.977
 9955SOL    HW130764   5.937   3.695   5.945
 9955SOL    HW230765   6.016   3.777   6.063
 9956SOL     OW30766   0.506   5.915   2.548
 9956SOL    HW130767   0.458   5.996   2.581
 9956SOL    HW230768   0.599   5.914   2.586
 9957SOL     OW30769   5.590   6.730   1.963
 9957SOL    HW130770   5.650   6.777   2.027
 9957SOL    HW230771   5.496   6.764   1.973
 9958SOL     OW30772   2.015   5.202   6.987
 9958SOL    HW130773   1.986   5.107   6.992
 9958SOL    HW230774   2.114   5.207   6.994
 9959SOL     OW30775   4.113   3.620   4.463
 9959SOL    HW130776   4.110   3.549   4.534
 9959SOL    HW230777   4.116   3.576   4.373
 9960SOL     OW30778   0.032   0.165   1.972
 9960SOL    HW130779   0.081   0.077   1.973
 9960SOL    HW230780   0.010   0.189   1.878
 9961SOL     OW30781   1.869   5.725   4.390
 9961SOL    HW130782   1.925   5.736   4.472
 9961SOL    HW230783   1.922   5.679   4.319
 9962SOL     OW30784   4.807   6.667   1.357
 9962SOL    HW130785   4.861   6.600   1.306
 9962SOL    HW230786   4.842   6.675   1.450
 9963SOL     OW30787   2.646   3.212   6.673
 9963SOL    HW130788   2.630   3.175   6.581
 9963SOL    HW230789   2.677   3.138   6.733
 9964SOL     OW30790   4.901   3.697   5.804
 9964SOL    HW130791   4.945   3.769   5.750
 9964SOL    HW230792   4.824   3.736   5.854
 9965SOL     OW30793   3.781   5.689   6.705
 9965SOL    HW130794   3.827   5.744   6.776
 9965SOL    HW230795   3.850   5.644   6.649
 9966SOL     OW30796   2.335   5.516   2.298
 9966SOL    HW130797   2.391   5.547   2.375
 9966SOL    HW230798   2.262   5.582   2.281
 9967SOL     OW30799   6.301   6.964   2.515
 9967SOL    HW130800   6.236   6.897   2.552
 9967SOL    HW230801   6.286   0.023   2.559
 9968SOL     OW30802   2.979   3.432   6.707
 9968SOL    HW130803   2.946   3.507   6.764
 9968SOL    HW230804   2.931   3.432   6.619
 9969SOL     OW30805   2.201   3.132   3.564
 9969SOL    HW130806   2.254   3.049   3.547
 9969SOL    HW230807   2.206   3.192   3.485
 9970SOL     OW30808   5.157   4.221   2.839
 9970SOL    HW130809   5.256   4.219   2.853
 9970SOL    HW230810   5.111   4.198   2.924
 9971SOL     OW30811   2.731   4.125   0.633
 9971SOL    HW130812   2.635   4.132   0.606
 9971SOL    HW230813   2.737   4.105   0.730
 9972SOL     OW30814   3.872   4.719   1.471
 9972SOL    HW130815   3.816   4.801   1.464
 9972SOL    HW230816   3.865   4.665   1.387
 9973SOL     OW30817   4.039   2.126   4.482
 9973SOL    HW130818   3.949   2.119   4.525
 9973SOL    HW230819   4.028   2.145   4.385
 9974SOL     OW30820   6.726   3.804   3.740
 9974SOL    HW130821   6.769   3.748   3.811
 9974SOL    HW230822   6.632   3.773   3.725
 9975SOL     OW30823   0.000   4.960   7.024
 9975SOL    HW130824   6.972   4.960   6.943
 9975SOL    HW230825   7.005   4.884   0.054
 9976SOL     OW30826   0.323   5.718   5.351
 9976SOL    HW130827   0.406   5.775   5.347
 9976SOL    HW230828   0.245   5.772   5.320
 9977SOL     OW30829   0.087   5.482   5.450
 9977SOL    HW130830   0.059   5.413   5.383
 9977SOL    HW230831   0.149   5.547   5.405
 9978SOL     OW30832   6.115   3.067   3.133
 9978SOL    HW130833   6.160   2.993   3.083
 9978SOL    HW230834   6.159   3.078   3.222
 9979SOL     OW30835   6.821   4.594   5.734
 9979SOL    HW130836   6.747   4.616   5.799
 9979SOL    HW230837   6.884   4.672   5.728
 9980SOL     OW30838   1.868   1.859   6.222
 9980SOL    HW130839   1.856   1.890   6.316
 9980SOL    HW230840   1.861   1.759   6.218
 9981SOL     OW30841   3.012   1.855   1.841
 9981SOL    HW130842   2.961   1.930   1.883
 9981SOL    HW230843   3.011   1.866   1.741
 9982SOL     OW30844   0.381   0.771   3.283
 9982SOL    HW130845   0.421   0.845   3.338
 9982SOL    HW230846   0.281   0.779   3.284
 9983SOL     OW30847   0.529   2.756   3.679
 9983SOL    HW130848   0.557   2.826   3.614
 9983SOL    HW230849   0.580   2.672   3.662
 9984SOL     OW30850   2.157   1.066   0.332
 9984SOL    HW130851   2.084   1.048   0.266
 9984SOL    HW230852   2.189   0.980   0.372
 9985SOL     OW30853   2.403   1.036   1.696
 9985SOL    HW130854   2.494   1.051   1.736
 9985SOL    HW230855   2.364   0.951   1.732
 9986SOL     OW30856   4.495   4.519   6.428
 9986SOL    HW130857   4.450   4.532   6.516
 9986SOL    HW230858   4.581   4.569   6.426
 9987SOL     OW30859   6.278   2.227   3.525
 9987SOL    HW130860   6.214   2.219   3.449
 9987SOL    HW230861   6.356   2.284   3.498
 9988SOL     OW30862   0.634   5.917   4.708
 9988SOL    HW130863   0.692   5.928   4.628
 9988SOL    HW230864   0.654   5.989   4.774
 9989SOL     OW30865   6.183   4.456   3.698
 9989SOL    HW130866   6.131   4.532   3.737
 9989SOL    HW230867   6.247   4.492   3.630
 9990SOL     OW30868   2.906   6.452   2.020
 9990SOL    HW130869   2.854   6.530   2.054
 9990SOL    HW230870   2.898   6.448   1.920
 9991SOL     OW30871   1.826   2.837   4.057
 9991SOL    HW130872   1.744   2.780   4.065
 9991SOL    HW230873   1.904   2.790   4.100
 9992SOL     OW30874   5.131   4.563   0.450
 9992SOL    HW130875   5.159   4.500   0.377
 9992SOL    HW230876   5.032   4.571   0.451
 9993SOL     OW30877   3.885   0.764   1.710
 9993SOL    HW130878   3.861   0.668   1.698
 9993SOL    HW230879   3.805   0.815   1.742
 9994SOL     OW30880   0.005   5.008   3.457
 9994SOL    HW130881   6.966   5.080   3.459
 9994SOL    HW230882   0.046   4.999   3.548
 9995SOL     OW30883   4.041   1.468   3.070
 9995SOL    HW130884   4.039   1.461   2.970
 9995SOL    HW230885   3.985   1.547   3.098
 9996SOL     OW30886   2.291   3.260   1.725
 9996SOL    HW130887   2.296   3.345   1.779
 9996SOL    HW230888   2.235   3.276   1.644
 9997SOL     OW30889   3.738   1.761   0.904
 9997SOL    HW130890   3.775   1.809   0.825
 9997SOL    HW230891   3.731   1.824   0.982
 9998SOL     OW30892   5.686   4.372   0.713
 9998SOL    HW130893   5.736   4.454   0.742
 9998SOL    HW230894   5.660   4.318   0.793
 9999SOL     OW30895   6.764   2.660   5.231
 9999SOL    HW130896   6.685   2.653   5.292
 9999SOL    HW230897   6.816   2.742   5.253
10000SOL     OW30898   6.830   3.386   0.361
10000SOL    HW130899   6.882   3.375   0.446
10000SOL    HW230900   6.733   3.380   0.380
10001SOL     OW30901   4.993   0.643   1.877
10001SOL    HW130902   4.962   0.548   1.871
10001SOL    HW230903   4.915   0.702   1.894
10002SOL     OW30904   1.809   0.783   2.505
10002SOL    HW130905   1.888   0.725   2.486
10002SOL    HW230906   1.786   0.777   2.602
10003SOL     OW30907   3.649   1.730   3.758
10003SOL    HW130908   3.734   1.772   3.727
10003SOL    HW230909   3.640   1.639   3.718
10004SOL     OW30910   5.051   2.489   3.769
10004SOL    HW130911   5.145   2.456   3.777
10004SOL    HW230912   4.988   2.420   3.804
10005SOL     OW30913   4.431   0.589   3.915
10005SOL    HW130914   4.412   0.642   3.997
10005SOL    HW230915   4.393   0.497   3.925
10006SOL     OW30916   5.292   0.320   4.323
10006SOL    HW130917   5.255   0.266   4.399
10006SOL    HW230918   5.219   0.339   4.257
10007SOL     OW30919   0.768   5.243   4.889
10007SOL    HW130920   0.684   5.242   4.835
10007SOL    HW230921   0.798   5.150   4.907
10008SOL     OW30922   4.258   1.178   4.595
10008SOL    HW130923   4.333   1.208   4.655
10008SOL    HW230924   4.261   1.230   4.510
10009SOL     OW30925   2.196   4.103   1.587
10009SOL    HW130926   2.179   4.116   1.489
10009SOL    HW230927   2.145   4.172   1.639
10010SOL     OW30928   1.758   0.261   5.898
10010SOL    HW130929   1.737   0.164   5.904
10010SOL    HW230930   1.842   0.280   5.949
10011SOL     OW30931   5.690   1.502   4.441
10011SOL    HW130932   5.645   1.507   4.530
10011SOL    HW230933   5.783   1.537   4.448
10012SOL     OW30934   4.987   1.128   3.278
10012SOL    HW130935   5.017   1.180   3.358
10012SOL    HW230936   5.018   1.174   3.195
10013SOL     OW30937   0.876   1.439   3.687
10013SOL    HW130938   0.832   1.528   3.694
10013SOL    HW230939   0.905   1.423   3.593
10014SOL     OW30940   6.953   3.963   0.365
10014SOL    HW130941   6.858   3.934   0.381
10014SOL    HW230942   7.015   3.891   0.396
10015SOL     OW30943   1.604   3.450   0.271
10015SOL    HW130944   1.522   3.498   0.240
10015SOL    HW230945   1.578   3.362   0.311
10016SOL     OW30946   1.655   0.904   6.318
10016SOL    HW130947   1.714   0.848   6.376
10016SOL    HW230948   1.606   0.845   6.253
10017SOL     OW30949   2.985   2.047   2.937
10017SOL    HW130950   3.083   2.029   2.933
10017SOL    HW230951   2.966   2.140   2.906
10018SOL     OW30952   4.413   6.494   5.501
10018SOL    HW130953   4.387   6.523   5.593
10018SOL    HW230954   4.416   6.574   5.440
10019SOL     OW30955   6.626   2.400   2.792
10019SOL    HW130956   6.563   2.367   2.722
10019SOL    HW230957   6.687   2.327   2.820
10020SOL     OW30958   1.510   2.182   1.543
10020SOL    HW130959   1.413   2.172   1.523
10020SOL    HW230960   1.563   2.128   1.478
10021SOL     OW30961   0.151   2.793   1.297
10021SOL    HW130962   0.127   2.728   1.370
10021SOL    HW230963   0.067   2.823   1.252
10022SOL     OW30964   2.681   0.278   6.591
10022SOL    HW130965   2.765   0.295   6.642
10022SOL    HW230966   2.703   0.262   6.495
10023SOL     OW30967   1.167   5.303   0.033
10023SOL    HW130968   1.181   5.221   0.089
10023SOL    HW230969   1.183   5.280   6.966
10024SOL     OW30970   1.482   6.528   2.058
10024SOL    HW130971   1.393   6.568   2.037
10024SOL    HW230972   1.493   6.518   2.157
10025SOL     OW30973   1.704   1.380   1.382
10025SOL    HW130974   1.744   1.371   1.290
10025SOL    HW230975   1.718   1.295   1.432
10026SOL     OW30976   5.440   6.500   3.341
10026SOL    HW130977   5.343   6.514   3.360
10026SOL    HW230978   5.480   6.441   3.411
10027SOL     OW30979   6.245   3.818   5.056
10027SOL    HW130980   6.303   3.825   5.137
10027SOL    HW230981   6.154   3.854   5.077
10028SOL     OW30982   1.830   0.894   1.916
10028SOL    HW130983   1.838   0.843   1.830
10028SOL    HW230984   1.888   0.975   1.913
10029SOL     OW30985   4.491   1.806   4.795
10029SOL    HW130986   4.530   1.860   4.870
10029SOL    HW230987   4.435   1.732   4.832
10030SOL     OW30988   2.656   0.182   3.579
10030SOL    HW130989   2.709   0.184   3.495
10030SOL    HW230990   2.560   0.201   3.558
10031SOL     OW30991   6.091   5.178   4.934
10031SOL    HW130992   6.085   5.181   5.034
10031SOL    HW230993   6.140   5.095   4.906
10032SOL     OW30994   2.222   1.633   5.261
10032SOL    HW130995   2.171   1.672   5.184
10032SOL    HW230996   2.309   1.680   5.272
10033SOL     OW30997   5.652   2.547   4.522
10033SOL    HW130998   5.630   2.465   4.574
10033SOL    HW230999   5.743   2.536   4.480
10034SOL     OW31000   3.237   0.348   3.858
10034SOL    HW131001   3.264   0.372   3.951
10034SOL    HW231002   3.306   0.381   3.794
10035SOL     OW31003   5.988   4.143   1.335
10035SOL    HW131004   6.073   4.145   1.387
10035SOL    HW231005   5.922   4.208   1.375
10036SOL     OW31006   6.316   2.353   1.413
10036SOL    HW131007   6.371   2.436   1.421
10036SOL    HW231008   6.337   2.292   1.489
10037SOL     OW31009   0.042   1.724   0.548
10037SOL    HW131010   0.069   1.714   0.643
10037SOL    HW231011   6.972   1.731   0.541
10038SOL     OW31012   5.554   0.567   7.017
10038SOL    HW131013   5.582   0.474   0.015
10038SOL    HW231014   5.597   0.590   6.930
10039SOL     OW31015   3.423   0.433   3.689
10039SOL    HW131016   3.382   0.397   3.605
10039SOL    HW231017   3.430   0.532   3.683
10040SOL     OW31018   5.390   5.063   6.653
10040SOL    HW131019   5.458   5.028   6.589
10040SOL    HW231020   5.422   5.049   6.747
10041SOL     OW31021   4.475   5.889   0.092
10041SOL    HW131022   4.456   5.978   0.050
10041SOL    HW231023   4.515   5.828   0.024
10042SOL     OW31024   0.443   2.434   3.939
10042SOL    HW131025   0.384   2.508   3.907
10042SOL    HW231026   0.403   2.346   3.912
10043SOL     OW31027   6.548   1.134   4.944
10043SOL    HW131028   6.620   1.166   5.004
10043SOL    HW231029   6.478   1.086   4.997
10044SOL     OW31030   1.933   2.348   4.264
10044SOL    HW131031   1.870   2.283   4.305
10044SOL    HW231032   2.007   2.299   4.219
10045SOL     OW31033   4.044   0.123   2.135
10045SOL    HW131034   4.097   0.039   2.147
10045SOL    HW231035   4.089   0.197   2.186
10046SOL     OW31036   2.076   3.370   0.703
10046SOL    HW131037   1.990   3.386   0.751
10046SOL    HW231038   2.134   3.309   0.758
10047SOL     OW31039   0.595   3.357   4.504
10047SOL    HW131040   0.695   3.364   4.494
10047SOL    HW231041   0.573   3.269   4.547
10048SOL     OW31042   0.473   6.620   2.444
10048SOL    HW131043   0.455   6.664   2.357
10048SOL    HW231044   0.387   6.592   2.486
10049SOL     OW31045   2.164   1.330   5.751
10049SOL    HW131046   2.219   1.301   5.673
10049SOL    HW231047   2.125   1.250   5.797
10050SOL     OW31048   6.006   3.961   5.127
10050SOL    HW131049   6.018   3.939   5.224
10050SOL    HW231050   5.944   4.039   5.118
10051SOL     OW31051   0.515   4.363   4.632
10051SOL    HW131052   0.525   4.291   4.563
10051SOL    HW231053   0.598   4.418   4.636
10052SOL     OW31054   2.188   1.176   3.428
10052SOL    HW131055   2.222   1.184   3.334
10052SOL    HW231056   2.262   1.146   3.487
10053SOL     OW31057   4.194   5.977   4.236
10053SOL    HW131058   4.161   6.035   4.162
10053SOL    HW231059   4.206   5.883   4.203
10054SOL     OW31060   6.025   5.038   5.651
10054SOL    HW131061   5.965   4.986   5.712
10054SOL    HW231062   6.104   5.072   5.703
10055SOL     OW31063   6.196   1.932   5.342
10055SOL    HW131064   6.207   2.022   5.300
10055SOL    HW231065   6.222   1.861   5.277
10056SOL     OW31066   5.351   4.664   3.463
10056SOL    HW131067   5.268   4.643   3.412
10056SOL    HW231068   5.354   4.609   3.547
10057SOL     OW31069   5.220   4.401   5.132
10057SOL    HW131070   5.150   4.330   5.125
10057SOL    HW231071   5.306   4.366   5.095
10058SOL     OW31072   6.513   3.687   4.864
10058SOL    HW131073   6.437   3.622   4.866
10058SOL    HW231074   6.582   3.655   4.798
10059SOL     OW31075   0.004   1.658   0.271
10059SOL    HW131076   6.972   1.666   0.193
10059SOL    HW231077   0.001   1.743   0.324
10060SOL     OW31078   2.103   2.286   3.073
10060SOL    HW131079   2.158   2.217   3.119
10060SOL    HW231080   2.012   2.290   3.114
10061SOL     OW31081   4.539   0.941   3.946
10061SOL    HW131082   4.525   0.891   3.861
10061SOL    HW231083   4.461   1.001   3.964
10062SOL     OW31084   6.737   0.163   4.423
10062SOL    HW131085   6.732   0.153   4.324
10062SOL    HW231086   6.681   0.093   4.467
10063SOL     OW31087   3.377   1.317   4.870
10063SOL    HW131088   3.391   1.307   4.772
10063SOL    HW231089   3.322   1.398   4.889
10064SOL     OW31090   4.631   5.953   6.571
10064SOL    HW131091   4.649   6.051   6.576
10064SOL    HW231092   4.537   5.938   6.538
10065SOL     OW31093   1.995   1.157   1.334
10065SOL    HW131094   2.044   1.237   1.369
10065SOL    HW231095   2.053   1.076   1.343
10066SOL     OW31096   0.383   2.479   5.031
10066SOL    HW131097   0.476   2.517   5.038
10066SOL    HW231098   0.369   2.442   4.939
10067SOL     OW31099   0.287   3.156   6.360
10067SOL    HW131100   0.325   3.090   6.425
10067SOL    HW231101   0.360   3.190   6.300
10068SOL     OW31102   1.143   4.132   3.416
10068SOL    HW131103   1.088   4.049   3.407
10068SOL    HW231104   1.083   4.212   3.415
10069SOL     OW31105   3.092   4.922   1.545
10069SOL    HW131106   3.097   5.002   1.485
10069SOL    HW231107   3.041   4.944   1.628
10070SOL     OW31108   0.678   5.187   5.191
10070SOL    HW131109   0.628   5.273   5.183
10070SOL    HW231110   0.712   5.177   5.285
10071SOL     OW31111   0.820   0.184   4.047
10071SOL    HW131112   0.779   0.164   4.137
10071SOL    HW231113   0.757   0.241   3.995
10072SOL     OW31114   0.690   1.277   3.438
10072SOL    HW131115   0.748   1.216   3.384
10072SOL    HW231116   0.646   1.224   3.511
10073SOL     OW31117   6.574   3.923   4.040
10073SOL    HW131118   6.671   3.901   4.048
10073SOL    HW231119   6.533   3.867   3.968
10074SOL     OW31120   1.808   5.941   0.415
10074SOL    HW131121   1.889   5.888   0.390
10074SOL    HW231122   1.726   5.885   0.404
10075SOL     OW31123   2.095   0.450   2.644
10075SOL    HW131124   2.087   0.507   2.563
10075SOL    HW231125   2.055   0.360   2.626
10076SOL     OW31126   4.837   5.585   3.124
10076SOL    HW131127   4.918   5.594   3.067
10076SOL    HW231128   4.761   5.549   3.069
10077SOL     OW31129   5.353   2.794   0.862
10077SOL    HW131130   5.367   2.710   0.810
10077SOL    HW231131   5.266   2.789   0.911
10078SOL     OW31132   0.659   6.387   4.699
10078SOL    HW131133   0.744   6.383   4.750
10078SOL    HW231134   0.582   6.392   4.763
10079SOL     OW31135   5.414   2.042   2.866
10079SOL    HW131136   5.364   1.957   2.854
10079SOL    HW231137   5.502   2.024   2.911
10080SOL     OW31138   4.978   0.883   6.394
10080SOL    HW131139   4.901   0.879   6.458
10080SOL    HW231140   4.950   0.935   6.313
10081SOL     OW31141   0.465   1.455   0.346
10081SOL    HW131142   0.513   1.530   0.391
10081SOL    HW231143   0.371   1.450   0.381
10082SOL     OW31144   1.198   5.561   3.408
10082SOL    HW131145   1.238   5.471   3.390
10082SOL    HW231146   1.262   5.632   3.381
10083SOL     OW31147   3.534   6.746   3.699
10083SOL    HW131148   3.542   6.790   3.789
10083SOL    HW231149   3.517   6.815   3.629
10084SOL     OW31150   7.019   6.729   5.111
10084SOL    HW131151   6.993   6.825   5.126
10084SOL    HW231152   0.009   6.714   5.014
10085SOL     OW31153   4.703   6.875   0.738
10085SOL    HW131154   4.626   6.900   0.679
10085SOL    HW231155   4.727   6.954   0.795
10086SOL     OW31156   5.795   6.177   3.315
10086SOL    HW131157   5.801   6.078   3.303
10086SOL    HW231158   5.723   6.214   3.256
10087SOL     OW31159   0.114   6.448   4.469
10087SOL    HW131160   0.064   6.525   4.429
10087SOL    HW231161   0.205   6.478   4.497
10088SOL     OW31162   6.783   0.580   0.655
10088SOL    HW131163   6.880   0.567   0.675
10088SOL    HW231164   6.748   0.498   0.610
10089SOL     OW31165   3.096   1.665   3.486
10089SOL    HW131166   3.157   1.744   3.494
10089SOL    HW231167   3.020   1.689   3.426
10090SOL     OW31168   0.655   4.692   2.198
10090SOL    HW131169   0.640   4.768   2.262
10090SOL    HW231170   0.574   4.681   2.140
10091SOL     OW31171   5.992   6.182   6.756
10091SOL    HW131172   5.993   6.192   6.855
10091SOL    HW231173   5.918   6.121   6.729
10092SOL     OW31174   1.400   3.445   5.153
10092SOL    HW131175   1.368   3.472   5.244
10092SOL    HW231176   1.395   3.346   5.144
10093SOL     OW31177   4.973   3.556   4.820
10093SOL    HW131178   5.058   3.519   4.859
10093SOL    HW231179   4.914   3.588   4.894
10094SOL     OW31180   2.419   6.754   0.857
10094SOL    HW131181   2.488   6.821   0.829
10094SOL    HW231182   2.438   6.666   0.814
10095SOL     OW31183   5.460   1.853   4.753
10095SOL    HW131184   5.509   1.781   4.802
10095SOL    HW231185   5.493   1.857   4.659
10096SOL     OW31186   5.175   0.875   2.468
10096SOL    HW131187   5.126   0.791   2.444
10096SOL    HW231188   5.272   0.865   2.444
10097SOL     OW31189   2.115   2.526   6.467
10097SOL    HW131190   2.076   2.444   6.426
10097SOL    HW231191   2.214   2.515   6.478
10098SOL     OW31192   3.039   6.143   4.581
10098SOL    HW131193   3.032   6.104   4.489
10098SOL    HW231194   3.135   6.151   4.608
10099SOL     OW31195   6.402   4.373   2.014
10099SOL    HW131196   6.425   4.278   1.995
10099SOL    HW231197   6.367   4.381   2.107
10100SOL     OW31198   5.586   5.370   5.537
10100SOL    HW131199   5.589   5.416   5.449
10100SOL    HW231200   5.615   5.433   5.609
10101SOL     OW31201   7.025   2.987   1.881
10101SOL    HW131202   0.062   2.933   1.829
10101SOL    HW231203   7.014   2.947   1.972
10102SOL     OW31204   5.825   0.698   1.027
10102SOL    HW131205   5.846   0.765   0.956
10102SOL    HW231206   5.874   0.721   1.111
10103SOL     OW31207   1.345   0.595   5.127
10103SOL    HW131208   1.270   0.661   5.137
10103SOL    HW231209   1.360   0.577   5.030
10104SOL     OW31210   2.353   0.822   6.207
10104SOL    HW131211   2.393   0.759   6.274
10104SOL    HW231212   2.349   0.777   6.118
10105SOL     OW31213   2.771   1.125   5.817
10105SOL    HW131214   2.847   1.149   5.757
10105SOL    HW231215   2.769   1.186   5.896
10106SOL     OW31216   4.207   6.151   1.417
10106SOL    HW131217   4.219   6.142   1.516
10106SOL    HW231218   4.111   6.169   1.396
10107SOL     OW31219   4.995   3.342   6.558
10107SOL    HW131220   4.946   3.420   6.598
10107SOL    HW231221   5.083   3.374   6.522
10108SOL     OW31222   1.184   2.533   1.163
10108SOL    HW131223   1.188   2.492   1.255
10108SOL    HW231224   1.277   2.554   1.132
10109SOL     OW31225   0.771   1.179   0.080
10109SOL    HW131226   0.698   1.191   0.147
10109SOL    HW231227   0.852   1.143   0.126
10110SOL     OW31228   4.673   4.932   2.542
10110SOL    HW131229   4.681   4.872   2.462
10110SOL    HW231230   4.721   5.018   2.524
10111SOL     OW31231   1.256   2.897   2.584
10111SOL    HW131232   1.225   2.806   2.611
10111SOL    HW231233   1.326   2.890   2.513
10112SOL     OW31234   6.799   3.810   3.347
10112SOL    HW131235   6.790   3.711   3.361
10112SOL    HW231236   6.850   3.850   3.423
10113SOL     OW31237   4.033   0.843   6.828
10113SOL    HW131238   4.067   0.770   6.768
10113SOL    HW231239   4.005   0.921   6.771
10114SOL     OW31240   3.773   2.144   3.042
10114SOL    HW131241   3.858   2.189   3.014
10114SOL    HW231242   3.763   2.058   2.993
10115SOL     OW31243   3.881   1.709   4.516
10115SOL    HW131244   3.979   1.725   4.525
10115SOL    HW231245   3.865   1.620   4.473
10116SOL     OW31246   6.171   0.292   5.665
10116SOL    HW131247   6.189   0.354   5.588
10116SOL    HW231248   6.192   0.339   5.751
10117SOL     OW31249   6.739   6.043   5.733
10117SOL    HW131250   6.782   5.984   5.802
10117SOL    HW231251   6.641   6.023   5.729
10118SOL     OW31252   2.737   4.656   4.269
10118SOL    HW131253   2.748   4.678   4.366
10118SOL    HW231254   2.673   4.579   4.260
10119SOL     OW31255   0.058   5.711   3.782
10119SOL    HW131256   0.033   5.793   3.731
10119SOL    HW231257   0.034   5.630   3.728
10120SOL     OW31258   1.127   3.146   3.082
10120SOL    HW131259   1.075   3.189   3.156
10120SOL    HW231260   1.209   3.199   3.064
10121SOL     OW31261   5.813   4.583   0.772
10121SOL    HW131262   5.878   4.558   0.844
10121SOL    HW231263   5.862   4.621   0.694
10122SOL     OW31264   5.928   2.036   3.650
10122SOL    HW131265   5.947   2.100   3.724
10122SOL    HW231266   5.836   2.051   3.615
10123SOL     OW31267   6.201   6.317   0.473
10123SOL    HW131268   6.167   6.252   0.406
10123SOL    HW231269   6.253   6.268   0.544
10124SOL     OW31270   1.601   5.003   1.968
10124SOL    HW131271   1.581   4.905   1.971
10124SOL    HW231272   1.700   5.016   1.956
10125SOL     OW31273   2.205   0.876   1.840
10125SOL    HW131274   2.258   0.843   1.918
10125SOL    HW231275   2.163   0.964   1.864
10126SOL     OW31276   6.489   0.021   6.021
10126SOL    HW131277   6.427   0.057   6.090
10126SOL    HW231278   6.507   0.092   5.952
10127SOL     OW31279   1.232   4.344   6.030
10127SOL    HW131280   1.293   4.419   6.004
10127SOL    HW231281   1.280   4.283   6.093
10128SOL     OW31282   2.881   0.864   7.013
10128SOL    HW131283   2.876   0.963   7.021
10128SOL    HW231284   2.803   0.823   0.032
10129SOL     OW31285   0.016   1.571   1.873
10129SOL    HW131286   6.964   1.515   1.858
10129SOL    HW231287   0.004   1.660   1.828
10130SOL     OW31288   1.078   2.383   1.724
10130SOL    HW131289   1.112   2.304   1.673
10130SOL    HW231290   1.019   2.351   1.799
10131SOL     OW31291   1.879   0.723   4.066
10131SOL    HW131292   1.787   0.761   4.075
10131SOL    HW231293   1.946   0.790   4.098
10132SOL     OW31294   0.412   0.401   2.539
10132SOL    HW131295   0.316   0.399   2.512
10132SOL    HW231296   0.465   0.340   2.480
10133SOL     OW31297   4.416   6.041   1.299
10133SOL    HW131298   4.346   6.097   1.343
10133SOL    HW231299   4.501   6.048   1.350
10134SOL     OW31300   0.053   1.072   2.650
10134SOL    HW131301   0.071   1.124   2.734
10134SOL    HW231302   0.134   1.077   2.591
10135SOL     OW31303   5.704   1.162   3.961
10135SOL    HW131304   5.622   1.177   4.016
10135SOL    HW231305   5.678   1.123   3.872
10136SOL     OW31306   4.729   2.630   2.379
10136SOL    HW131307   4.766   2.563   2.443
10136SOL    HW231308   4.729   2.721   2.421
10137SOL     OW31309   0.537   5.041   5.562
10137SOL    HW131310   0.462   5.042   5.496
10137SOL    HW231311   0.533   4.957   5.616
10138SOL     OW31312   5.735   1.878   6.938
10138SOL    HW131313   5.702   1.850   7.028
10138SOL    HW231314   5.775   1.799   6.891
10139SOL     OW31315   3.853   2.943   5.154
10139SOL    HW131316   3.886   2.850   5.169
10139SOL    HW231317   3.851   2.992   5.241
10140SOL     OW31318   6.392   6.701   6.106
10140SOL    HW131319   6.296   6.687   6.128
10140SOL    HW231320   6.436   6.755   6.178
10141SOL     OW31321   3.908   1.179   3.899
10141SOL    HW131322   3.932   1.084   3.879
10141SOL    HW231323   3.918   1.196   3.997
10142SOL     OW31324   6.101   6.208   4.555
10142SOL    HW131325   6.049   6.175   4.634
10142SOL    HW231326   6.052   6.282   4.510
10143SOL     OW31327   5.825   3.099   0.025
10143SOL    HW131328   5.915   3.115   0.065
10143SOL    HW231329   5.799   3.003   0.038
10144SOL     OW31330   4.288   6.939   5.510
10144SOL    HW131331   4.381   6.908   5.492
10144SOL    HW231332   4.285   6.989   5.596
10145SOL     OW31333   4.131   6.221   2.504
10145SOL    HW131334   4.162   6.127   2.517
10145SOL    HW231335   4.203   6.274   2.459
10146SOL     OW31336   6.976   3.931   4.529
10146SOL    HW131337   6.929   3.990   4.595
10146SOL    HW231338   6.922   3.923   4.446
10147SOL     OW31339   4.257   4.674   0.288
10147SOL    HW131340   4.229   4.762   0.326
10147SOL    HW231341   4.186   4.606   0.307
10148SOL     OW31342   6.768   4.878   1.213
10148SOL    HW131343   6.727   4.911   1.298
10148SOL    HW231344   6.712   4.805   1.175
10149SOL     OW31345   4.686   4.637   1.349
10149SOL    HW131346   4.751   4.691   1.402
10149SOL    HW231347   4.637   4.575   1.410
10150SOL     OW31348   5.238   3.633   1.879
10150SOL    HW131349   5.144   3.646   1.909
10150SOL    HW231350   5.286   3.573   1.944
10151SOL     OW31351   0.174   0.368   5.575
10151SOL    HW131352   0.130   0.401   5.658
10151SOL    HW231353   0.121   0.292   5.537
10152SOL     OW31354   5.812   6.008   2.857
10152SOL    HW131355   5.781   5.984   2.949
10152SOL    HW231356   5.813   5.927   2.800
10153SOL     OW31357   4.146   5.727   3.822
10153SOL    HW131358   4.210   5.804   3.823
10153SOL    HW231359   4.192   5.648   3.782
10154SOL     OW31360   4.118   5.006   5.701
10154SOL    HW131361   4.130   4.928   5.640
10154SOL    HW231362   4.203   5.057   5.707
10155SOL     OW31363   4.696   2.167   5.810
10155SOL    HW131364   4.730   2.209   5.726
10155SOL    HW231365   4.723   2.222   5.889
10156SOL     OW31366   4.335   0.495   1.214
10156SOL    HW131367   4.360   0.442   1.295
10156SOL    HW231368   4.236   0.496   1.204
10157SOL     OW31369   7.008   2.106   0.258
10157SOL    HW131370   0.075   2.090   0.277
10157SOL    HW231371   6.999   2.190   0.204
10158SOL     OW31372   5.927   6.781   2.393
10158SOL    HW131373   5.983   6.793   2.312
10158SOL    HW231374   5.907   6.684   2.406
10159SOL     OW31375   3.045   3.061   2.696
10159SOL    HW131376   3.077   3.143   2.650
10159SOL    HW231377   3.013   2.995   2.628
10160SOL     OW31378   2.150   4.317   2.608
10160SOL    HW131379   2.198   4.230   2.609
10160SOL    HW231380   2.217   4.392   2.606
10161SOL     OW31381   3.698   4.799   6.581
10161SOL    HW131382   3.797   4.787   6.575
10161SOL    HW231383   3.677   4.897   6.579
10162SOL     OW31384   1.839   4.651   1.832
10162SOL    HW131385   1.749   4.692   1.846
10162SOL    HW231386   1.839   4.599   1.747
10163SOL     OW31387   0.915   5.865   5.594
10163SOL    HW131388   0.987   5.877   5.662
10163SOL    HW231389   0.951   5.816   5.515
10164SOL     OW31390   6.404   3.286   3.503
10164SOL    HW131391   6.491   3.282   3.552
10164SOL    HW231392   6.331   3.312   3.567
10165SOL     OW31393   5.456   2.614   4.002
10165SOL    HW131394   5.382   2.628   4.068
10165SOL    HW231395   5.542   2.646   4.041
10166SOL     OW31396   1.406   2.599   1.454
10166SOL    HW131397   1.456   2.574   1.371
10166SOL    HW231398   1.311   2.572   1.446
10167SOL     OW31399   0.199   4.864   6.862
10167SOL    HW131400   0.142   4.918   6.924
10167SOL    HW231401   0.261   4.924   6.813
10168SOL     OW31402   5.573   1.311   6.458
10168SOL    HW131403   5.495   1.349   6.408
10168SOL    HW231404   5.550   1.305   6.555
10169SOL     OW31405   0.442   3.792   2.923
10169SOL    HW131406   0.429   3.890   2.909
10169SOL    HW231407   0.359   3.744   2.894
10170SOL     OW31408   6.552   5.636   6.430
10170SOL    HW131409   6.576   5.585   6.513
10170SOL    HW231410   6.499   5.717   6.455
10171SOL     OW31411   1.208   2.916   5.511
10171SOL    HW131412   1.209   2.912   5.611
10171SOL    HW231413   1.296   2.950   5.478
10172SOL     OW31414   0.049   6.922   3.634
10172SOL    HW131415   0.028   6.983   3.558
10172SOL    HW231416   0.009   6.832   3.616
10173SOL     OW31417   3.281   4.731   0.567
10173SOL    HW131418   3.275   4.632   0.583
10173SOL    HW231419   3.326   4.774   0.646
10174SOL     OW31420   5.302   6.251   3.292
10174SOL    HW131421   5.260   6.341   3.307
10174SOL    HW231422   5.328   6.242   3.196
10175SOL     OW31423   6.271   1.792   3.344
10175SOL    HW131424   6.273   1.696   3.371
10175SOL    HW231425   6.178   1.828   3.355
10176SOL     OW31426   6.191   3.600   5.788
10176SOL    HW131427   6.260   3.528   5.802
10176SOL    HW231428   6.217   3.655   5.708
10177SOL     OW31429   2.043   0.609   1.411
10177SOL    HW131430   2.110   0.628   1.338
10177SOL    HW231431   2.077   0.647   1.497
10178SOL     OW31432   1.630   0.825   0.892
10178SOL    HW131433   1.725   0.826   0.923
10178SOL    HW231434   1.605   0.916   0.861
10179SOL     OW31435   0.139   4.485   7.017
10179SOL    HW131436   0.221   4.541   7.004
10179SOL    HW231437   0.161   4.389   6.999
10180SOL     OW31438   4.908   0.079   0.061
10180SOL    HW131439   4.865   0.061   0.149
10180SOL    HW231440   4.932   7.021   0.018
10181SOL     OW31441   6.504   3.044   1.167
10181SOL    HW131442   6.410   3.018   1.145
10181SOL    HW231443   6.565   2.966   1.155
10182SOL     OW31444   5.495   1.426   0.392
10182SOL    HW131445   5.471   1.442   0.487
10182SOL    HW231446   5.590   1.454   0.376
10183SOL     OW31447   6.020   3.252   5.783
10183SOL    HW131448   6.016   3.227   5.880
10183SOL    HW231449   6.111   3.232   5.747
10184SOL     OW31450   5.574   2.759   6.550
10184SOL    HW131451   5.515   2.745   6.471
10184SOL    HW231452   5.622   2.847   6.541
10185SOL     OW31453   4.456   6.081   2.545
10185SOL    HW131454   4.425   6.153   2.482
10185SOL    HW231455   4.442   5.991   2.503
10186SOL     OW31456   4.738   3.745   5.355
10186SOL    HW131457   4.741   3.686   5.275
10186SOL    HW231458   4.660   3.808   5.347
10187SOL     OW31459   2.056   3.893   5.485
10187SOL    HW131460   2.095   3.950   5.412
10187SOL    HW231461   2.127   3.831   5.520
10188SOL     OW31462   2.808   6.173   6.755
10188SOL    HW131463   2.754   6.246   6.714
10188SOL    HW231464   2.892   6.159   6.702
10189SOL     OW31465   1.706   0.854   0.117
10189SOL    HW131466   1.718   0.852   0.217
10189SOL    HW231467   1.610   0.871   0.096
10190SOL     OW31468   3.332   4.016   1.341
10190SOL    HW131469   3.386   3.940   1.304
10190SOL    HW231470   3.311   3.998   1.437
10191SOL     OW31471   6.034   5.478   1.221
10191SOL    HW131472   5.943   5.449   1.251
10191SOL    HW231473   6.088   5.398   1.195
10192SOL     OW31474   1.967   1.579   4.611
10192SOL    HW131475   1.964   1.642   4.689
10192SOL    HW231476   2.055   1.589   4.564
10193SOL     OW31477   3.599   3.799   2.167
10193SOL    HW131478   3.601   3.895   2.196
10193SOL    HW231479   3.532   3.788   2.093
10194SOL     OW31480   3.083   0.311   5.134
10194SOL    HW131481   3.063   0.329   5.231
10194SOL    HW231482   3.177   0.336   5.114
10195SOL     OW31483   6.087   6.959   1.211
10195SOL    HW131484   6.043   6.888   1.157
10195SOL    HW231485   6.024   6.989   1.284
10196SOL     OW31486   5.651   2.309   3.621
10196SOL    HW131487   5.746   2.336   3.602
10196SOL    HW231488   5.627   2.338   3.714
10197SOL     OW31489   5.924   0.589   3.558
10197SOL    HW131490   5.934   0.490   3.553
10197SOL    HW231491   5.877   0.614   3.643
10198SOL     OW31492   3.780   6.242   0.653
10198SOL    HW131493   3.819   6.211   0.566
10198SOL    HW231494   3.790   6.342   0.661
10199SOL     OW31495   1.028   1.546   6.965
10199SOL    HW131496   0.979   1.460   6.953
10199SOL    HW231497   1.017   1.603   6.883
10200SOL     OW31498   5.139   3.307   5.381
10200SOL    HW131499   5.146   3.281   5.477
10200SOL    HW231500   5.082   3.389   5.373
10201SOL     OW31501   0.326   5.653   1.975
10201SOL    HW131502   0.368   5.567   2.005
10201SOL    HW231503   0.362   5.729   2.030
10202SOL     OW31504   0.812   3.583   0.947
10202SOL    HW131505   0.887   3.647   0.927
10202SOL    HW231506   0.814   3.508   0.882
10203SOL     OW31507   1.365   2.606   2.354
10203SOL    HW131508   1.413   2.568   2.276
10203SOL    HW231509   1.329   2.532   2.411
10204SOL     OW31510   3.358   4.570   6.312
10204SOL    HW131511   3.298   4.622   6.373
10204SOL    HW231512   3.411   4.504   6.366
10205SOL     OW31513   4.198   1.235   3.491
10205SOL    HW131514   4.125   1.211   3.555
10205SOL    HW231515   4.163   1.229   3.398
10206SOL     OW31516   5.161   5.910   6.043
10206SOL    HW131517   5.193   5.853   5.967
10206SOL    HW231518   5.064   5.932   6.030
10207SOL     OW31519   1.867   0.189   1.128
10207SOL    HW131520   1.809   0.110   1.150
10207SOL    HW231521   1.906   0.226   1.213
10208SOL     OW31522   6.629   5.641   5.343
10208SOL    HW131523   6.728   5.630   5.334
10208SOL    HW231524   6.609   5.692   5.427
10209SOL     OW31525   0.417   1.236   5.971
10209SOL    HW131526   0.329   1.276   5.945
10209SOL    HW231527   0.401   1.143   6.005
10210SOL     OW31528   5.304   6.504   1.339
10210SOL    HW131529   5.392   6.496   1.292
10210SOL    HW231530   5.309   6.457   1.427
10211SOL     OW31531   3.909   6.519   5.707
10211SOL    HW131532   3.969   6.586   5.663
10211SOL    HW231533   3.962   6.437   5.730
10212SOL     OW31534   0.543   1.086   4.519
10212SOL    HW131535   0.545   1.074   4.419
10212SOL    HW231536   0.555   1.182   4.541
10213SOL     OW31537   6.211   1.546   2.508
10213SOL    HW131538   6.191   1.483   2.584
10213SOL    HW231539   6.268   1.499   2.440
10214SOL     OW31540   0.373   0.859   2.693
10214SOL    HW131541   0.352   0.832   2.788
10214SOL    HW231542   0.378   0.777   2.636
10215SOL     OW31543   3.425   2.718   5.272
10215SOL    HW131544   3.391   2.771   5.195
10215SOL    HW231545   3.369   2.636   5.283
10216SOL     OW31546   0.346   6.947   0.870
10216SOL    HW131547   0.340   6.863   0.923
10216SOL    HW231548   0.380   6.926   0.779
10217SOL     OW31549   2.362   1.383   3.891
10217SOL    HW131550   2.289   1.407   3.827
10217SOL    HW231551   2.367   1.284   3.900
10218SOL     OW31552   0.767   1.123   1.419
10218SOL    HW131553   0.851   1.175   1.437
10218SOL    HW231554   0.740   1.136   1.323
10219SOL     OW31555   0.243   2.589   2.450
10219SOL    HW131556   0.337   2.556   2.440
10219SOL    HW231557   0.211   2.570   2.542
10220SOL     OW31558   4.167   1.771   1.831
10220SOL    HW131559   4.263   1.768   1.859
10220SOL    HW231560   4.159   1.746   1.734
10221SOL     OW31561   1.789   1.933   3.944
10221SOL    HW131562   1.728   1.971   3.874
10221SOL    HW231563   1.868   1.993   3.956
10222SOL     OW31564   1.066   3.711   5.508
10222SOL    HW131565   1.023   3.794   5.473
10222SOL    HW231566   0.995   3.647   5.539
10223SOL     OW31567   2.332   5.458   6.263
10223SOL    HW131568   2.361   5.370   6.302
10223SOL    HW231569   2.373   5.468   6.172
10224SOL     OW31570   1.031   0.901   4.404
10224SOL    HW131571   0.967   0.929   4.332
10224SOL    HW231572   0.996   0.818   4.448
10225SOL     OW31573   1.204   6.465   5.309
10225SOL    HW131574   1.283   6.406   5.329
10225SOL    HW231575   1.232   6.538   5.247
10226SOL     OW31576   2.709   0.469   7.012
10226SOL    HW131577   2.633   0.403   7.009
10226SOL    HW231578   2.778   0.437   0.048
10227SOL     OW31579   4.526   4.869   1.381
10227SOL    HW131580   4.437   4.833   1.355
10227SOL    HW231581   4.595   4.797   1.372
10228SOL     OW31582   1.198   4.721   1.952
10228SOL    HW131583   1.214   4.792   1.883
10228SOL    HW231584   1.215   4.759   2.043
10229SOL     OW31585   1.092   1.035   4.009
10229SOL    HW131586   1.168   1.092   4.041
10229SOL    HW231587   1.124   0.941   3.996
10230SOL     OW31588   6.606   0.532   3.480
10230SOL    HW131589   6.626   0.625   3.509
10230SOL    HW231590   6.672   0.504   3.410
10231SOL     OW31591   6.749   6.683   5.695
10231SOL    HW131592   6.701   6.738   5.763
10231SOL    HW231593   6.813   6.621   5.741
10232SOL     OW31594   3.676   1.045   4.477
10232SOL    HW131595   3.685   1.011   4.571
10232SOL    HW231596   3.761   1.090   4.450
10233SOL     OW31597   5.236   3.044   5.289
10233SOL    HW131598   5.206   3.022   5.382
10233SOL    HW231599   5.267   3.139   5.286
10234SOL     OW31600   5.677   0.235   1.275
10234SOL    HW131601   5.706   0.286   1.194
10234SOL    HW231602   5.618   0.293   1.331
10235SOL     OW31603   4.781   1.710   0.237
10235SOL    HW131604   4.856   1.646   0.226
10235SOL    HW231605   4.757   1.750   0.148
10236SOL     OW31606   1.510   6.309   1.870
10236SOL    HW131607   1.538   6.328   1.776
10236SOL    HW231608   1.507   6.395   1.921
10237SOL     OW31609   6.417   4.030   0.663
10237SOL    HW131610   6.474   4.011   0.583
10237SOL    HW231611   6.376   3.945   0.696
10238SOL     OW31612   3.368   4.160   4.395
10238SOL    HW131613   3.354   4.254   4.424
10238SOL    HW231614   3.349   4.097   4.470
10239SOL     OW31615   1.433   4.205   4.891
10239SOL    HW131616   1.512   4.180   4.947
10239SOL    HW231617   1.429   4.145   4.811
10240SOL     OW31618   1.481   4.949   2.815
10240SOL    HW131619   1.438   5.040   2.809
10240SOL    HW231620   1.526   4.939   2.903
10241SOL     OW31621   0.247   0.920   1.765
10241SOL    HW131622   0.229   0.899   1.669
10241SOL    HW231623   0.334   0.878   1.792
10242SOL     OW31624   0.086   1.999   6.465
10242SOL    HW131625   0.146   2.068   6.505
10242SOL    HW231626   7.027   2.001   6.511
10243SOL     OW31627   0.292   5.288   1.110
10243SOL    HW131628   0.320   5.201   1.150
10243SOL    HW231629   0.229   5.272   1.035
10244SOL     OW31630   1.306   5.039   0.116
10244SOL    HW131631   1.400   5.070   0.131
10244SOL    HW231632   1.266   5.010   0.203
10245SOL     OW31633   2.075   3.907   0.196
10245SOL    HW131634   2.098   3.835   0.261
10245SOL    HW231635   2.102   3.996   0.233
10246SOL     OW31636   2.929   3.541   4.367
10246SOL    HW131637   2.892   3.555   4.459
10246SOL    HW231638   3.028   3.556   4.369
10247SOL     OW31639   0.786   5.470   4.517
10247SOL    HW131640   0.752   5.532   4.587
10247SOL    HW231641   0.858   5.413   4.555
10248SOL     OW31642   3.232   0.090   1.734
10248SOL    HW131643   3.156   0.040   1.692
10248SOL    HW231644   3.282   0.029   1.795
10249SOL     OW31645   2.679   0.935   6.486
10249SOL    HW131646   2.610   0.903   6.552
10249SOL    HW231647   2.666   0.886   6.399
10250SOL     OW31648   0.141   2.130   1.109
10250SOL    HW131649   0.063   2.150   1.049
10250SOL    HW231650   0.147   2.198   1.181
10251SOL     OW31651   1.948   2.468   5.367
10251SOL    HW131652   1.893   2.406   5.422
10251SOL    HW231653   1.896   2.496   5.286
10252SOL     OW31654   6.909   6.333   0.555
10252SOL    HW131655   6.959   6.345   0.469
10252SOL    HW231656   6.974   6.314   0.629
10253SOL     OW31657   5.181   5.955   0.289
10253SOL    HW131658   5.139   6.028   0.342
10253SOL    HW231659   5.280   5.969   0.285
10254SOL     OW31660   3.799   2.088   4.903
10254SOL    HW131661   3.813   2.041   4.816
10254SOL    HW231662   3.701   2.097   4.921
10255SOL     OW31663   2.539   5.405   1.475
10255SOL    HW131664   2.576   5.417   1.567
10255SOL    HW231665   2.585   5.329   1.430
10256SOL     OW31666   5.666   0.024   1.664
10256SOL    HW131667   5.583   0.070   1.697
10256SOL    HW231668   5.661   0.015   1.564
10257SOL     OW31669   1.666   4.679   4.386
10257SOL    HW131670   1.658   4.581   4.365
10257SOL    HW231671   1.693   4.690   4.482
10258SOL     OW31672   4.945   0.216   3.937
10258SOL    HW131673   4.993   0.131   3.916
10258SOL    HW231674   4.854   0.194   3.972
10259SOL     OW31675   0.576   5.885   3.299
10259SOL    HW131676   0.586   5.945   3.220
10259SOL    HW231677   0.601   5.935   3.382
10260SOL     OW31678   6.790   0.370   3.278
10260SOL    HW131679   6.807   0.272   3.268
10260SOL    HW231680   6.851   0.421   3.218
10261SOL     OW31681   7.006   6.662   1.738
10261SOL    HW131682   6.944   6.604   1.791
10261SOL    HW231683   0.011   6.611   1.659
10262SOL     OW31684   2.766   5.731   4.686
10262SOL    HW131685   2.666   5.730   4.682
10262SOL    HW231686   2.795   5.751   4.779
10263SOL     OW31687   4.680   1.347   6.411
10263SOL    HW131688   4.641   1.301   6.332
10263SOL    HW231689   4.755   1.292   6.449
10264SOL     OW31690   5.837   1.614   6.820
10264SOL    HW131691   5.817   1.533   6.876
10264SOL    HW231692   5.834   1.590   6.723
10265SOL     OW31693   3.546   2.060   2.829
10265SOL    HW131694   3.550   2.025   2.736
10265SOL    HW231695   3.614   2.132   2.841
10266SOL     OW31696   3.741   2.664   5.397
10266SOL    HW131697   3.687   2.747   5.411
10266SOL    HW231698   3.800   2.676   5.317
10267SOL     OW31699   6.569   1.974   6.525
10267SOL    HW131700   6.608   2.065   6.542
10267SOL    HW231701   6.473   1.983   6.502
10268SOL     OW31702   4.091   6.604   1.799
10268SOL    HW131703   4.044   6.661   1.732
10268SOL    HW231704   4.061   6.629   1.891
10269SOL     OW31705   2.123   1.747   5.508
10269SOL    HW131706   2.137   1.712   5.416
10269SOL    HW231707   2.079   1.677   5.564
10270SOL     OW31708   2.122   5.346   2.699
10270SOL    HW131709   2.156   5.377   2.610
10270SOL    HW231710   2.180   5.272   2.732
10271SOL     OW31711   3.684   2.938   0.567
10271SOL    HW131712   3.659   2.878   0.492
10271SOL    HW231713   3.783   2.934   0.582
10272SOL     OW31714   1.270   0.897   4.587
10272SOL    HW131715   1.181   0.889   4.543
10272SOL    HW231716   1.258   0.926   4.682
10273SOL     OW31717   4.388   5.513   3.701
10273SOL    HW131718   4.429   5.438   3.650
10273SOL    HW231719   4.385   5.490   3.798
10274SOL     OW31720   1.662   4.449   5.725
10274SOL    HW131721   1.728   4.380   5.695
10274SOL    HW231722   1.665   4.456   5.825
10275SOL     OW31723   1.456   0.110   2.062
10275SOL    HW131724   1.371   0.162   2.073
10275SOL    HW231725   1.502   0.102   2.150
10276SOL     OW31726   6.593   5.703   5.995
10276SOL    HW131727   6.628   5.786   6.037
10276SOL    HW231728   6.669   5.646   5.964
10277SOL     OW31729   2.411   6.423   3.749
10277SOL    HW131730   2.491   6.416   3.689
10277SOL    HW231731   2.349   6.347   3.730
10278SOL     OW31732   5.783   0.791   5.418
10278SOL    HW131733   5.701   0.836   5.384
10278SOL    HW231734   5.840   0.763   5.341
10279SOL     OW31735   3.086   6.907   4.180
10279SOL    HW131736   3.147   6.889   4.257
10279SOL    HW231737   2.994   6.874   4.201
10280SOL     OW31738   2.387   4.092   1.143
10280SOL    HW131739   2.439   4.072   1.226
10280SOL    HW231740   2.378   4.191   1.132
10281SOL     OW31741   5.794   2.546   2.666
10281SOL    HW131742   5.876   2.582   2.621
10281SOL    HW231743   5.777   2.596   2.750
10282SOL     OW31744   6.434   3.703   4.470
10282SOL    HW131745   6.415   3.723   4.374
10282SOL    HW231746   6.392   3.773   4.527
10283SOL     OW31747   1.101   2.733   0.816
10283SOL    HW131748   1.112   2.636   0.835
10283SOL    HW231749   1.017   2.767   0.860
10284SOL     OW31750   4.974   4.760   6.048
10284SOL    HW131751   4.915   4.839   6.029
10284SOL    HW231752   5.066   4.793   6.071
10285SOL     OW31753   4.751   0.011   0.956
10285SOL    HW131754   4.674   0.063   0.993
10285SOL    HW231755   4.775   6.966   1.018
10286SOL     OW31756   3.474   1.959   3.839
10286SOL    HW131757   3.382   1.920   3.838
10286SOL    HW231758   3.540   1.890   3.808
10287SOL     OW31759   1.721   6.612   1.929
10287SOL    HW131760   1.622   6.606   1.945
10287SOL    HW231761   1.754   6.524   1.896
10288SOL     OW31762   5.046   6.273   2.363
10288SOL    HW131763   5.039   6.209   2.439
10288SOL    HW231764   4.986   6.244   2.289
10289SOL     OW31765   3.495   0.774   2.003
10289SOL    HW131766   3.543   0.730   1.928
10289SOL    HW231767   3.561   0.803   2.073
10290SOL     OW31768   3.899   3.866   2.740
10290SOL    HW131769   3.843   3.949   2.745
10290SOL    HW231770   3.839   3.786   2.737
10291SOL     OW31771   4.070   0.402   4.102
10291SOL    HW131772   4.166   0.378   4.119
10291SOL    HW231773   4.011   0.332   4.144
10292SOL     OW31774   1.037   1.734   4.594
10292SOL    HW131775   0.964   1.675   4.628
10292SOL    HW231776   1.028   1.745   4.495
10293SOL     OW31777   1.809   5.981   2.532
10293SOL    HW131778   1.776   5.998   2.625
10293SOL    HW231779   1.900   6.022   2.521
10294SOL     OW31780   4.964   3.395   3.159
10294SOL    HW131781   5.044   3.453   3.177
10294SOL    HW231782   4.883   3.438   3.198
10295SOL     OW31783   6.294   4.898   6.252
10295SOL    HW131784   6.260   4.950   6.173
10295SOL    HW231785   6.235   4.916   6.331
10296SOL     OW31786   5.262   4.433   6.889
10296SOL    HW131787   5.173   4.398   6.858
10296SOL    HW231788   5.253   4.470   6.981
10297SOL     OW31789   2.676   6.681   4.668
10297SOL    HW131790   2.645   6.626   4.591
10297SOL    HW231791   2.706   6.771   4.635
10298SOL     OW31792   4.369   4.585   2.894
10298SOL    HW131793   4.324   4.638   2.823
10298SOL    HW231794   4.333   4.611   2.983
10299SOL     OW31795   4.399   4.574   2.415
10299SOL    HW131796   4.473   4.512   2.391
10299SOL    HW231797   4.313   4.540   2.376
10300SOL     OW31798   1.695   4.746   2.226
10300SOL    HW131799   1.680   4.774   2.131
10300SOL    HW231800   1.689   4.646   2.233
10301SOL     OW31801   5.786   2.014   2.475
10301SOL    HW131802   5.770   1.954   2.554
10301SOL    HW231803   5.730   1.984   2.398
10302SOL     OW31804   1.246   6.256   3.833
10302SOL    HW131805   1.323   6.320   3.832
10302SOL    HW231806   1.262   6.184   3.766
10303SOL     OW31807   3.369   4.871   1.223
10303SOL    HW131808   3.419   4.892   1.308
10303SOL    HW231809   3.396   4.780   1.191
10304SOL     OW31810   5.895   1.189   2.940
10304SOL    HW131811   5.869   1.270   2.887
10304SOL    HW231812   5.876   1.107   2.886
10305SOL     OW31813   0.577   5.493   6.181
10305SOL    HW131814   0.580   5.402   6.222
10305SOL    HW231815   0.662   5.508   6.130
10306SOL     OW31816   4.399   6.070   6.208
10306SOL    HW131817   4.418   6.027   6.296
10306SOL    HW231818   4.322   6.024   6.164
10307SOL     OW31819   2.295   1.669   4.838
10307SOL    HW131820   2.253   1.724   4.911
10307SOL    HW231821   2.339   1.589   4.877
10308SOL     OW31822   3.022   4.868   4.242
10308SOL    HW131823   2.987   4.870   4.336
10308SOL    HW231824   3.006   4.777   4.203
10309SOL     OW31825   6.085   0.450   3.981
10309SOL    HW131826   6.171   0.402   3.967
10309SOL    HW231827   6.009   0.390   3.954
10310SOL     OW31828   3.667   2.883   1.462
10310SOL    HW131829   3.608   2.831   1.523
10310SOL    HW231830   3.711   2.957   1.513
10311SOL     OW31831   0.798   5.261   1.125
10311SOL    HW131832   0.805   5.228   1.219
10311SOL    HW231833   0.762   5.355   1.125
10312SOL     OW31834   3.874   5.743   1.344
10312SOL    HW131835   3.859   5.729   1.246
10312SOL    HW231836   3.959   5.697   1.371
10313SOL     OW31837   3.867   6.893   2.501
10313SOL    HW131838   3.935   6.951   2.456
10313SOL    HW231839   3.776   6.916   2.467
10314SOL     OW31840   5.738   0.940   1.495
10314SOL    HW131841   5.671   0.995   1.545
10314SOL    HW231842   5.731   0.845   1.523
10315SOL     OW31843   6.677   6.699   4.512
10315SOL    HW131844   6.629   6.644   4.580
10315SOL    HW231845   6.654   6.666   4.420
10316SOL     OW31846   6.787   3.288   4.477
10316SOL    HW131847   6.733   3.217   4.523
10316SOL    HW231848   6.783   3.273   4.378
10317SOL     OW31849   3.714   5.073   6.663
10317SOL    HW131850   3.717   5.156   6.718
10317SOL    HW231851   3.710   5.097   6.566
10318SOL     OW31852   6.558   5.793   1.439
10318SOL    HW131853   6.484   5.856   1.419
10318SOL    HW231854   6.570   5.786   1.538
10319SOL     OW31855   1.230   4.375   4.792
10319SOL    HW131856   1.306   4.332   4.841
10319SOL    HW231857   1.158   4.399   4.856
10320SOL     OW31858   0.934   0.709   0.800
10320SOL    HW131859   0.922   0.683   0.896
10320SOL    HW231860   0.952   0.627   0.745
10321SOL     OW31861   3.926   6.941   4.630
10321SOL    HW131862   3.900   6.889   4.548
10321SOL    HW231863   4.009   6.993   4.612
10322SOL     OW31864   6.455   5.621   0.252
10322SOL    HW131865   6.492   5.713   0.259
10322SOL    HW231866   6.382   5.609   0.319
10323SOL     OW31867   6.335   3.295   6.511
10323SOL    HW131868   6.361   3.287   6.414
10323SOL    HW231869   6.413   3.328   6.564
10324SOL     OW31870   3.263   3.076   3.400
10324SOL    HW131871   3.299   2.995   3.355
10324SOL    HW231872   3.338   3.137   3.425
10325SOL     OW31873   6.546   4.731   4.395
10325SOL    HW131874   6.470   4.791   4.372
10325SOL    HW231875   6.518   4.636   4.387
10326SOL     OW31876   4.834   2.752   6.917
10326SOL    HW131877   4.843   2.835   6.861
10326SOL    HW231878   4.796   2.678   6.862
10327SOL     OW31879   2.442   1.629   2.472
10327SOL    HW131880   2.532   1.660   2.440
10327SOL    HW231881   2.439   1.634   2.572
10328SOL     OW31882   5.902   3.571   2.025
10328SOL    HW131883   5.998   3.597   2.012
10328SOL    HW231884   5.887   3.481   1.984
10329SOL     OW31885   2.912   0.105   4.405
10329SOL    HW131886   2.861   0.098   4.320
10329SOL    HW231887   2.855   0.148   4.475
10330SOL     OW31888   3.551   4.963   3.136
10330SOL    HW131889   3.534   4.921   3.047
10330SOL    HW231890   3.636   4.927   3.174
10331SOL     OW31891   5.799   0.796   2.684
10331SOL    HW131892   5.725   0.813   2.748
10331SOL    HW231893   5.880   0.850   2.711
10332SOL     OW31894   6.831   1.970   0.090
10332SOL    HW131895   6.892   2.005   0.161
10332SOL    HW231896   6.847   1.872   0.078
10333SOL     OW31897   6.037   4.350   4.143
10333SOL    HW131898   5.969   4.418   4.171
10333SOL    HW231899   5.992   4.276   4.094
10334SOL     OW31900   2.186   5.575   3.885
10334SOL    HW131901   2.280   5.556   3.856
10334SOL    HW231902   2.181   5.669   3.920
10335SOL     OW31903   1.669   4.457   6.756
10335SOL    HW131904   1.657   4.501   6.845
10335SOL    HW231905   1.637   4.518   6.684
10336SOL     OW31906   4.554   6.760   2.873
10336SOL    HW131907   4.479   6.696   2.888
10336SOL    HW231908   4.624   6.718   2.815
10337SOL     OW31909   6.879   5.194   5.141
10337SOL    HW131910   6.967   5.147   5.136
10337SOL    HW231911   6.807   5.128   5.162
10338SOL     OW31912   3.454   6.587   1.154
10338SOL    HW131913   3.474   6.650   1.229
10338SOL    HW231914   3.524   6.595   1.084
10339SOL     OW31915   3.696   4.977   0.916
10339SOL    HW131916   3.780   5.030   0.907
10339SOL    HW231917   3.653   4.998   1.004
10340SOL     OW31918   1.453   5.611   6.906
10340SOL    HW131919   1.360   5.641   6.923
10340SOL    HW231920   1.470   5.525   6.956
10341SOL     OW31921   2.141   2.748   1.932
10341SOL    HW131922   2.045   2.736   1.958
10341SOL    HW231923   2.149   2.827   1.871
10342SOL     OW31924   2.096   5.776   5.860
10342SOL    HW131925   2.022   5.781   5.927
10342SOL    HW231926   2.068   5.818   5.774
10343SOL     OW31927   2.179   3.633   7.004
10343SOL    HW131928   2.229   3.711   0.009
10343SOL    HW231929   2.086   3.632   0.013
10344SOL     OW31930   4.098   3.571   3.534
10344SOL    HW131931   4.109   3.654   3.589
10344SOL    HW231932   4.059   3.498   3.591
10345SOL     OW31933   1.907   1.240   6.776
10345SOL    HW131934   1.839   1.312   6.760
10345SOL    HW231935   1.985   1.279   6.824
10346SOL     OW31936   5.801   0.009   1.010
10346SOL    HW131937   5.754   7.020   1.096
10346SOL    HW231938   5.889   0.053   1.030
10347SOL     OW31939   5.381   1.910   0.926
10347SOL    HW131940   5.460   1.860   0.890
10347SOL    HW231941   5.310   1.914   0.855
10348SOL     OW31942   6.899   0.743   6.326
10348SOL    HW131943   6.901   0.705   6.233
10348SOL    HW231944   6.826   0.699   6.378
10349SOL     OW31945   6.136   0.548   0.942
10349SOL    HW131946   6.132   0.473   1.008
10349SOL    HW231947   6.211   0.610   0.966
10350SOL     OW31948   3.703   6.105   4.592
10350SOL    HW131949   3.632   6.175   4.600
10350SOL    HW231950   3.791   6.144   4.618
10351SOL     OW31951   6.089   4.653   5.851
10351SOL    HW131952   5.994   4.654   5.880
10351SOL    HW231953   6.147   4.624   5.927
10352SOL     OW31954   5.109   2.199   6.353
10352SOL    HW131955   5.137   2.226   6.261
10352SOL    HW231956   5.082   2.279   6.405
10353SOL     OW31957   6.941   2.994   3.584
10353SOL    HW131958   6.977   2.905   3.560
10353SOL    HW231959   6.902   3.038   3.503
10354SOL     OW31960   0.403   3.917   1.621
10354SOL    HW131961   0.311   3.952   1.602
10354SOL    HW231962   0.410   3.893   1.718
10355SOL     OW31963   1.040   1.019   1.191
10355SOL    HW131964   1.020   1.112   1.223
10355SOL    HW231965   1.137   1.000   1.202
10356SOL     OW31966   0.761   3.429   0.021
10356SOL    HW131967   0.688   3.380   7.002
10356SOL    HW231968   0.849   3.405   7.009
10357SOL     OW31969   2.108   2.305   5.823
10357SOL    HW131970   2.072   2.338   5.911
10357SOL    HW231971   2.201   2.340   5.811
10358SOL     OW31972   2.058   3.620   2.777
10358SOL    HW131973   1.968   3.645   2.813
10358SOL    HW231974   2.074   3.522   2.791
10359SOL     OW31975   4.693   2.270   2.271
10359SOL    HW131976   4.693   2.360   2.226
10359SOL    HW231977   4.786   2.250   2.303
10360SOL     OW31978   5.289   4.903   2.760
10360SOL    HW131979   5.317   4.831   2.823
10360SOL    HW231980   5.206   4.947   2.794
10361SOL     OW31981   2.526   0.941   2.352
10361SOL    HW131982   2.550   0.850   2.317
10361SOL    HW231983   2.473   0.931   2.437
10362SOL     OW31984   0.404   4.571   2.608
10362SOL    HW131985   0.488   4.570   2.552
10362SOL    HW231986   0.417   4.512   2.688
10363SOL     OW31987   4.239   2.557   0.368
10363SOL    HW131988   4.266   2.644   0.409
10363SOL    HW231989   4.318   2.515   0.324
10364SOL     OW31990   5.546   4.807   1.543
10364SOL    HW131991   5.510   4.737   1.605
10364SOL    HW231992   5.582   4.884   1.596
10365SOL     OW31993   5.776   4.864   0.403
10365SOL    HW131994   5.848   4.932   0.416
10365SOL    HW231995   5.739   4.872   0.311
10366SOL     OW31996   4.239   6.694   3.665
10366SOL    HW131997   4.301   6.619   3.690
10366SOL    HW231998   4.288   6.760   3.608
10367SOL     OW31999   6.883   2.144   2.284
10367SOL    HW132000   6.865   2.138   2.186
10367SOL    HW232001   6.982   2.148   2.299
10368SOL     OW32002   2.271   1.055   2.870
10368SOL    HW132003   2.239   1.121   2.802
10368SOL    HW232004   2.193   1.005   2.907
10369SOL     OW32005   2.832   6.517   5.995
10369SOL    HW132006   2.782   6.582   5.938
10369SOL    HW232007   2.768   6.469   6.055
10370SOL     OW32008   6.327   1.464   4.763
10370SOL    HW132009   6.306   1.401   4.838
10370SOL    HW232010   6.392   1.420   4.700
10371SOL     OW32011   3.150   6.708   3.487
10371SOL    HW132012   3.221   6.718   3.418
10371SOL    HW232013   3.159   6.781   3.555
10372SOL     OW32014   2.950   0.640   1.913
10372SOL    HW132015   2.952   0.581   1.832
10372SOL    HW232016   3.042   0.674   1.932
10373SOL     OW32017   0.503   0.050   4.771
10373SOL    HW132018   0.478   0.084   4.680
10373SOL    HW232019   0.524   0.127   4.831
10374SOL     OW32020   2.808   6.317   4.618
10374SOL    HW132021   2.871   6.240   4.621
10374SOL    HW232022   2.793   6.345   4.523
10375SOL     OW32023   3.162   2.168   6.556
10375SOL    HW132024   3.070   2.139   6.584
10375SOL    HW232025   3.170   2.159   6.457
10376SOL     OW32026   1.488   6.424   3.808
10376SOL    HW132027   1.586   6.431   3.790
10376SOL    HW232028   1.440   6.495   3.757
10377SOL     OW32029   0.741   2.198   1.581
10377SOL    HW132030   0.710   2.186   1.487
10377SOL    HW232031   0.755   2.295   1.600
10378SOL     OW32032   0.005   5.466   5.692
10378SOL    HW132033   0.072   5.469   5.618
10378SOL    HW232034   0.046   5.503   5.776
10379SOL     OW32035   2.681   5.810   3.817
10379SOL    HW132036   2.682   5.750   3.737
10379SOL    HW232037   2.717   5.760   3.896
10380SOL     OW32038   1.289   2.242   4.674
10380SOL    HW132039   1.334   2.158   4.703
10380SOL    HW232040   1.193   2.223   4.654
10381SOL     OW32041   3.855   4.241   0.462
10381SOL    HW132042   3.926   4.292   0.510
10381SOL    HW232043   3.897   4.178   0.397
10382SOL     OW32044   3.057   6.214   2.011
10382SOL    HW132045   2.999   6.293   2.030
10382SOL    HW232046   3.072   6.207   1.912
10383SOL     OW32047   1.637   3.704   0.564
10383SOL    HW132048   1.647   3.769   0.489
10383SOL    HW232049   1.602   3.618   0.528
10384SOL     OW32050   6.564   6.406   0.788
10384SOL    HW132051   6.612   6.321   0.814
10384SOL    HW232052   6.613   6.450   0.713
10385SOL     OW32053   3.642   5.945   6.030
10385SOL    HW132054   3.547   5.972   6.011
10385SOL    HW232055   3.703   5.997   5.970
10386SOL     OW32056   0.845   0.955   5.497
10386SOL    HW132057   0.802   0.890   5.559
10386SOL    HW232058   0.853   1.044   5.542
10387SOL     OW32059   5.199   2.834   3.013
10387SOL    HW132060   5.155   2.800   3.096
10387SOL    HW232061   5.246   2.920   3.032
10388SOL     OW32062   2.846   6.777   0.941
10388SOL    HW132063   2.824   6.680   0.932
10388SOL    HW232064   2.774   6.832   0.898
10389SOL     OW32065   5.463   3.668   0.288
10389SOL    HW132066   5.507   3.585   0.254
10389SOL    HW232067   5.491   3.685   0.382
10390SOL     OW32068   1.557   2.675   0.365
10390SOL    HW132069   1.500   2.613   0.312
10390SOL    HW232070   1.649   2.637   0.372
10391SOL     OW32071   1.879   6.038   3.705
10391SOL    HW132072   1.798   6.092   3.726
10391SOL    HW232073   1.916   6.000   3.790
10392SOL     OW32074   6.057   5.319   5.279
10392SOL    HW132075   6.139   5.349   5.229
10392SOL    HW232076   6.053   5.366   5.367
10393SOL     OW32077   1.796   3.754   3.678
10393SOL    HW132078   1.719   3.704   3.718
10393SOL    HW232079   1.765   3.844   3.647
10394SOL     OW32080   2.445   5.440   4.439
10394SOL    HW132081   2.365   5.387   4.467
10394SOL    HW232082   2.456   5.434   4.339
10395SOL     OW32083   0.591   6.596   1.376
10395SOL    HW132084   0.603   6.620   1.473
10395SOL    HW232085   0.539   6.668   1.330
10396SOL     OW32086   3.851   1.867   3.622
10396SOL    HW132087   3.940   1.832   3.652
10396SOL    HW232088   3.859   1.964   3.596
10397SOL     OW32089   3.262   1.560   3.937
10397SOL    HW132090   3.316   1.613   4.002
10397SOL    HW232091   3.198   1.501   3.987
10398SOL     OW32092   6.460   2.418   0.852
10398SOL    HW132093   6.539   2.359   0.868
10398SOL    HW232094   6.384   2.389   0.910
10399SOL     OW32095   5.965   2.001   3.082
10399SOL    HW132096   5.967   2.082   3.140
10399SOL    HW232097   5.946   2.027   2.987
10400SOL     OW32098   4.748   5.891   0.201
10400SOL    HW132099   4.685   5.965   0.223
10400SOL    HW232100   4.756   5.830   0.279
10401SOL     OW32101   6.998   6.381   2.458
10401SOL    HW132102   0.048   6.389   2.518
10401SOL    HW232103   6.962   6.472   2.437
10402SOL     OW32104   6.346   2.050   5.104
10402SOL    HW132105   6.442   2.041   5.130
10402SOL    HW232106   6.303   2.122   5.159
10403SOL     OW32107   5.326   1.551   3.722
10403SOL    HW132108   5.415   1.586   3.694
10403SOL    HW232109   5.273   1.525   3.641
10404SOL     OW32110   6.246   6.041   4.351
10404SOL    HW132111   6.330   6.082   4.316
10404SOL    HW232112   6.206   6.101   4.420
10405SOL     OW32113   1.141   0.348   5.080
10405SOL    HW132114   1.169   0.438   5.114
10405SOL    HW232115   1.215   0.309   5.025
10406SOL     OW32116   2.558   4.528   3.067
10406SOL    HW132117   2.548   4.469   2.988
10406SOL    HW232118   2.550   4.474   3.151
10407SOL     OW32119   2.526   6.811   6.080
10407SOL    HW132120   2.439   6.807   6.031
10407SOL    HW232121   2.509   6.823   6.177
10408SOL     OW32122   4.553   6.993   1.284
10408SOL    HW132123   4.581   0.007   1.370
10408SOL    HW232124   4.454   6.974   1.287
10409SOL     OW32125   0.526   4.804   1.065
10409SOL    HW132126   0.570   4.793   0.976
10409SOL    HW232127   0.509   4.715   1.106
10410SOL     OW32128   5.400   1.844   1.923
10410SOL    HW132129   5.394   1.824   1.825
10410SOL    HW232130   5.310   1.837   1.964
10411SOL     OW32131   3.492   6.607   3.261
10411SOL    HW132132   3.504   6.513   3.292
10411SOL    HW232133   3.524   6.670   3.331
10412SOL     OW32134   0.705   1.111   6.820
10412SOL    HW132135   0.784   1.049   6.822
10412SOL    HW232136   0.694   1.153   6.910
10413SOL     OW32137   7.003   2.869   0.128
10413SOL    HW132138   6.997   2.962   0.165
10413SOL    HW232139   6.922   2.850   0.073
10414SOL     OW32140   3.859   5.111   6.062
10414SOL    HW132141   3.845   5.012   6.053
10414SOL    HW232142   3.791   5.149   6.125
10415SOL     OW32143   1.725   3.712   4.580
10415SOL    HW132144   1.714   3.659   4.496
10415SOL    HW232145   1.813   3.692   4.622
10416SOL     OW32146   6.287   0.529   4.844
10416SOL    HW132147   6.243   0.481   4.919
10416SOL    HW232148   6.231   0.608   4.817
10417SOL     OW32149   3.095   5.182   4.520
10417SOL    HW132150   3.161   5.173   4.445
10417SOL    HW232151   3.081   5.093   4.563
10418SOL     OW32152   6.949   3.169   6.671
10418SOL    HW132153   6.990   3.232   6.605
10418SOL    HW232154   6.849   3.171   6.663
10419SOL     OW32155   2.112   0.017   5.905
10419SOL    HW132156   2.065   0.098   5.942
10419SOL    HW232157   2.090   0.007   5.808
10420SOL     OW32158   0.550   3.895   3.623
10420SOL    HW132159   0.605   3.973   3.594
10420SOL    HW232160   0.584   3.812   3.579
10421SOL     OW32161   0.637   1.939   4.061
10421SOL    HW132162   0.651   1.863   3.998
10421SOL    HW232163   0.572   1.912   4.132
10422SOL     OW32164   6.286   3.298   4.870
10422SOL    HW132165   6.347   3.219   4.871
10422SOL    HW232166   6.245   3.308   4.779
10423SOL     OW32167   6.383   6.077   5.471
10423SOL    HW132168   6.405   6.042   5.562
10423SOL    HW232169   6.450   6.147   5.445
10424SOL     OW32170   5.106   2.846   6.939
10424SOL    HW132171   5.016   2.813   6.970
10424SOL    HW232172   5.167   2.768   6.927
10425SOL     OW32173   1.162   0.348   1.847
10425SOL    HW132174   1.084   0.365   1.787
10425SOL    HW232175   1.240   0.317   1.792
10426SOL     OW32176   5.762   4.969   0.933
10426SOL    HW132177   5.842   4.944   0.878
10426SOL    HW232178   5.789   5.039   0.999
10427SOL     OW32179   3.658   0.808   6.600
10427SOL    HW132180   3.725   0.848   6.538
10427SOL    HW232181   3.666   0.850   6.690
10428SOL     OW32182   3.672   1.253   3.800
10428SOL    HW132183   3.613   1.173   3.795
10428SOL    HW232184   3.760   1.228   3.840
10429SOL     OW32185   6.515   4.226   0.901
10429SOL    HW132186   6.522   4.134   0.862
10429SOL    HW232187   6.418   4.248   0.915
10430SOL     OW32188   4.930   6.975   4.486
10430SOL    HW132189   4.915   7.025   4.400
10430SOL    HW232190   4.947   0.011   4.560
10431SOL     OW32191   3.046   6.013   4.355
10431SOL    HW132192   3.103   5.938   4.388
10431SOL    HW232193   3.070   6.034   4.260
10432SOL     OW32194   5.207   6.463   4.905
10432SOL    HW132195   5.165   6.391   4.850
10432SOL    HW232196   5.267   6.422   4.974
10433SOL     OW32197   1.259   6.175   1.493
10433SOL    HW132198   1.196   6.181   1.571
10433SOL    HW232199   1.318   6.095   1.504
10434SOL     OW32200   3.761   6.617   3.475
10434SOL    HW132201   3.781   6.679   3.550
10434SOL    HW232202   3.752   6.670   3.390
10435SOL     OW32203   7.007   0.501   4.774
10435SOL    HW132204   0.041   0.574   4.749
10435SOL    HW232205   6.923   0.509   4.721
10436SOL     OW32206   0.802   5.034   5.412
10436SOL    HW132207   0.721   5.033   5.471
10436SOL    HW232208   0.794   4.960   5.345
10437SOL     OW32209   4.942   4.581   5.385
10437SOL    HW132210   4.899   4.553   5.470
10437SOL    HW232211   5.015   4.647   5.404
10438SOL     OW32212   6.255   6.618   0.263
10438SOL    HW132213   6.213   6.535   0.300
10438SOL    HW232214   6.203   6.649   0.183
10439SOL     OW32215   4.480   1.052   5.385
10439SOL    HW132216   4.529   1.133   5.416
10439SOL    HW232217   4.454   0.996   5.464
10440SOL     OW32218   1.555   0.317   0.553
10440SOL    HW132219   1.502   0.287   0.473
10440SOL    HW232220   1.496   0.372   0.613
10441SOL     OW32221   2.846   0.357   1.474
10441SOL    HW132222   2.940   0.324   1.462
10441SOL    HW232223   2.800   0.359   1.385
10442SOL     OW32224   3.096   6.676   5.843
10442SOL    HW132225   3.080   6.581   5.870
10442SOL    HW232226   3.178   6.711   5.889
10443SOL     OW32227   4.908   3.796   4.688
10443SOL    HW132228   4.925   3.824   4.783
10443SOL    HW232229   4.911   3.696   4.683
10444SOL     OW32230   3.760   6.501   4.601
10444SOL    HW132231   3.706   6.523   4.519
10444SOL    HW232232   3.702   6.452   4.666
10445SOL     OW32233   0.671   4.962   5.049
10445SOL    HW132234   0.755   4.958   4.995
10445SOL    HW232235   0.664   5.052   5.092
10446SOL     OW32236   1.563   3.160   5.131
10446SOL    HW132237   1.647   3.183   5.180
10446SOL    HW232238   1.581   3.155   5.033
10447SOL     OW32239   0.170   0.941   2.215
10447SOL    HW132240   0.259   0.926   2.259
10447SOL    HW232241   0.155   0.872   2.145
10448SOL     OW32242   3.413   1.254   2.231
10448SOL    HW132243   3.436   1.301   2.316
10448SOL    HW232244   3.437   1.312   2.153
10449SOL     OW32245   2.426   5.332   4.834
10449SOL    HW132246   2.415   5.252   4.892
10449SOL    HW232247   2.365   5.326   4.755
10450SOL     OW32248   0.652   1.648   0.935
10450SOL    HW132249   0.563   1.603   0.924
10450SOL    HW232250   0.652   1.701   1.020
10451SOL     OW32251   1.469   5.906   2.525
10451SOL    HW132252   1.523   5.823   2.511
10451SOL    HW232253   1.421   5.929   2.441
10452SOL     OW32254   6.502   3.796   2.326
10452SOL    HW132255   6.498   3.820   2.229
10452SOL    HW232256   6.553   3.866   2.375
10453SOL     OW32257   3.953   5.956   1.625
10453SOL    HW132258   4.021   5.907   1.570
10453SOL    HW232259   3.882   5.993   1.565
10454SOL     OW32260   4.672   3.829   0.924
10454SOL    HW132261   4.674   3.917   0.877
10454SOL    HW232262   4.583   3.786   0.910
10455SOL     OW32263   6.120   6.032   3.424
10455SOL    HW132264   6.049   5.978   3.470
10455SOL    HW232265   6.151   6.105   3.485
10456SOL     OW32266   3.212   6.623   1.023
10456SOL    HW132267   3.199   6.722   1.017
10456SOL    HW232268   3.216   6.596   1.120
10457SOL     OW32269   3.195   3.555   1.891
10457SOL    HW132270   3.261   3.558   1.967
10457SOL    HW232271   3.185   3.461   1.860
10458SOL     OW32272   0.438   1.714   5.684
10458SOL    HW132273   0.528   1.744   5.716
10458SOL    HW232274   0.381   1.689   5.762
10459SOL     OW32275   4.640   5.873   1.873
10459SOL    HW132276   4.728   5.835   1.902
10459SOL    HW232277   4.627   5.855   1.775
10460SOL     OW32278   1.392   4.671   1.383
10460SOL    HW132279   1.375   4.593   1.443
10460SOL    HW232280   1.370   4.646   1.288
10461SOL     OW32281   1.308   5.044   5.523
10461SOL    HW132282   1.392   5.083   5.561
10461SOL    HW232283   1.245   5.020   5.596
10462SOL     OW32284   6.009   2.238   3.831
10462SOL    HW132285   5.922   2.224   3.877
10462SOL    HW232286   6.005   2.322   3.776
10463SOL     OW32287   3.899   3.158   5.574
10463SOL    HW132288   3.824   3.156   5.640
10463SOL    HW232289   3.985   3.176   5.622
10464SOL     OW32290   6.366   6.613   1.209
10464SOL    HW132291   6.396   6.621   1.114
10464SOL    HW232292   6.433   6.658   1.268
10465SOL     OW32293   6.658   5.816   1.696
10465SOL    HW132294   6.751   5.781   1.683
10465SOL    HW232295   6.641   5.830   1.794
10466SOL     OW32296   4.813   4.834   5.692
10466SOL    HW132297   4.817   4.813   5.594
10466SOL    HW232298   4.754   4.768   5.737
10467SOL     OW32299   1.433   2.333   5.764
10467SOL    HW132300   1.501   2.364   5.831
10467SOL    HW232301   1.467   2.251   5.718
10468SOL     OW32302   4.217   4.781   2.759
10468SOL    HW132303   4.158   4.780   2.677
10468SOL    HW232304   4.163   4.811   2.837
10469SOL     OW32305   3.870   2.991   6.370
10469SOL    HW132306   3.946   2.990   6.306
10469SOL    HW232307   3.866   3.080   6.417
10470SOL     OW32308   2.886   2.334   3.763
10470SOL    HW132309   2.967   2.354   3.818
10470SOL    HW232310   2.869   2.235   3.764
10471SOL     OW32311   2.590   2.299   1.461
10471SOL    HW132312   2.669   2.252   1.502
10471SOL    HW232313   2.544   2.236   1.398
10472SOL     OW32314   2.735   5.404   1.012
10472SOL    HW132315   2.721   5.405   0.913
10472SOL    HW232316   2.818   5.456   1.034
10473SOL     OW32317   6.555   0.871   0.369
10473SOL    HW132318   6.598   0.920   0.445
10473SOL    HW232319   6.586   0.911   0.282
10474SOL     OW32320   4.346   1.495   4.496
10474SOL    HW132321   4.265   1.528   4.544
10474SOL    HW232322   4.415   1.567   4.494
10475SOL     OW32323   4.973   6.800   2.840
10475SOL    HW132324   5.059   6.834   2.802
10475SOL    HW232325   4.918   6.877   2.871
10476SOL     OW32326   6.898   6.434   6.937
10476SOL    HW132327   6.986   6.389   6.918
10476SOL    HW232328   6.877   6.498   6.863
10477SOL     OW32329   6.170   1.617   4.286
10477SOL    HW132330   6.216   1.706   4.278
10477SOL    HW232331   6.114   1.600   4.205
10478SOL     OW32332   0.477   0.680   1.170
10478SOL    HW132333   0.514   0.689   1.078
10478SOL    HW232334   0.397   0.621   1.169
10479SOL     OW32335   0.385   2.801   1.951
10479SOL    HW132336   0.334   2.873   1.998
10479SOL    HW232337   0.480   2.829   1.939
10480SOL     OW32338   6.104   0.338   1.438
10480SOL    HW132339   6.200   0.315   1.453
10480SOL    HW232340   6.081   0.420   1.491
10481SOL     OW32341   2.283   7.008   4.438
10481SOL    HW132342   2.189   0.010   4.448
10481SOL    HW232343   2.346   0.052   4.462
10482SOL     OW32344   0.334   5.751   4.572
10482SOL    HW132345   0.425   5.787   4.590
10482SOL    HW232346   0.265   5.819   4.599
10483SOL     OW32347   0.269   6.016   0.441
10483SOL    HW132348   0.175   6.038   0.416
10483SOL    HW232349   0.321   6.100   0.456
10484SOL     OW32350   6.193   0.832   1.629
10484SOL    HW132351   6.180   0.842   1.728
10484SOL    HW232352   6.134   0.897   1.581
10485SOL     OW32353   3.142   3.494   2.293
10485SOL    HW132354   3.053   3.449   2.293
10485SOL    HW232355   3.162   3.529   2.384
10486SOL     OW32356   6.611   0.814   6.255
10486SOL    HW132357   6.606   0.860   6.344
10486SOL    HW232358   6.667   0.732   6.263
10487SOL     OW32359   4.847   2.272   1.503
10487SOL    HW132360   4.759   2.236   1.472
10487SOL    HW232361   4.921   2.218   1.464
10488SOL     OW32362   2.106   1.992   6.181
10488SOL    HW132363   2.024   1.938   6.200
10488SOL    HW232364   2.113   2.009   6.083
10489SOL     OW32365   6.034   6.635   3.510
10489SOL    HW132366   6.051   6.604   3.604
10489SOL    HW232367   5.982   6.566   3.461
10490SOL     OW32368   5.934   2.135   0.535
10490SOL    HW132369   5.850   2.083   0.519
10490SOL    HW232370   5.942   2.158   0.632
10491SOL     OW32371   2.180   2.168   5.325
10491SOL    HW132372   2.203   2.217   5.409
10491SOL    HW232373   2.083   2.144   5.326
10492SOL     OW32374   4.955   6.071   1.383
10492SOL    HW132375   4.941   6.150   1.442
10492SOL    HW232376   4.922   6.092   1.291
10493SOL     OW32377   2.943   6.400   1.755
10493SOL    HW132378   3.035   6.362   1.749
10493SOL    HW232379   2.879   6.340   1.708
10494SOL     OW32380   5.855   4.463   5.520
10494SOL    HW132381   5.800   4.459   5.603
10494SOL    HW232382   5.952   4.456   5.544
10495SOL     OW32383   0.131   0.157   0.278
10495SOL    HW132384   0.217   0.119   0.313
10495SOL    HW232385   0.143   0.183   0.182
10496SOL     OW32386   6.216   5.034   5.374
10496SOL    HW132387   6.135   5.050   5.429
10496SOL    HW232388   6.268   5.119   5.365
10497SOL     OW32389   1.516   6.711   2.575
10497SOL    HW132390   1.421   6.740   2.569
10497SOL    HW232391   1.574   6.791   2.589
10498SOL     OW32392   5.953   5.826   0.904
10498SOL    HW132393   5.975   5.911   0.951
10498SOL    HW232394   5.948   5.843   0.806
10499SOL     OW32395   4.874   6.943   1.668
10499SOL    HW132396   4.942   7.006   1.634
10499SOL    HW232397   4.879   6.938   1.768
10500SOL     OW32398   5.987   2.285   5.976
10500SOL    HW132399   5.967   2.326   5.887
10500SOL    HW232400   6.015   2.356   6.040
10501SOL     OW32401   2.246   6.040   2.267
10501SOL    HW132402   2.217   5.966   2.206
10501SOL    HW232403   2.233   6.128   2.221
10502SOL     OW32404   2.279   3.935   0.926
10502SOL    HW132405   2.342   3.967   0.998
10502SOL    HW232406   2.197   3.991   0.927
10503SOL     OW32407   5.760   3.714   0.613
10503SOL    HW132408   5.805   3.642   0.560
10503SOL    HW232409   5.663   3.718   0.589
10504SOL     OW32410   0.198   2.375   5.422
10504SOL    HW132411   0.238   2.360   5.512
10504SOL    HW232412   0.259   2.336   5.352
10505SOL     OW32413   5.565   6.465   1.200
10505SOL    HW132414   5.625   6.421   1.132
10505SOL    HW232415   5.621   6.518   1.264
10506SOL     OW32416   0.583   3.750   0.415
10506SOL    HW132417   0.641   3.679   0.376
10506SOL    HW232418   0.627   3.789   0.496
10507SOL     OW32419   2.488   5.293   6.859
10507SOL    HW132420   2.521   5.257   6.771
10507SOL    HW232421   2.517   5.389   6.868
10508SOL     OW32422   0.681   5.727   4.039
10508SOL    HW132423   0.684   5.768   4.130
10508SOL    HW232424   0.773   5.698   4.012
10509SOL     OW32425   6.217   4.921   4.958
10509SOL    HW132426   6.133   4.885   4.998
10509SOL    HW232427   6.294   4.899   5.018
10510SOL     OW32428   4.666   6.148   0.301
10510SOL    HW132429   4.652   6.207   0.221
10510SOL    HW232430   4.636   6.197   0.383
10511SOL     OW32431   3.229   1.553   2.432
10511SOL    HW132432   3.230   1.453   2.437
10511SOL    HW232433   3.178   1.581   2.350
10512SOL     OW32434   3.367   0.246   6.208
10512SOL    HW132435   3.308   0.183   6.157
10512SOL    HW232436   3.463   0.221   6.193
10513SOL     OW32437   6.631   2.900   3.036
10513SOL    HW132438   6.579   2.972   3.082
10513SOL    HW232439   6.568   2.839   2.988
10514SOL     OW32440   1.559   1.886   1.674
10514SOL    HW132441   1.503   1.951   1.725
10514SOL    HW232442   1.655   1.902   1.694
10515SOL     OW32443   1.682   3.267   4.189
10515SOL    HW132444   1.596   3.290   4.234
10515SOL    HW232445   1.710   3.175   4.216
10516SOL     OW32446   2.735   1.799   0.513
10516SOL    HW132447   2.790   1.877   0.483
10516SOL    HW232448   2.704   1.747   0.433
10517SOL     OW32449   1.475   4.042   1.433
10517SOL    HW132450   1.412   4.015   1.360
10517SOL    HW232451   1.474   3.972   1.505
10518SOL     OW32452   0.108   6.231   1.678
10518SOL    HW132453   0.052   6.151   1.652
10518SOL    HW232454   0.116   6.235   1.777
10519SOL     OW32455   2.619   4.779   0.287
10519SOL    HW132456   2.699   4.747   0.238
10519SOL    HW232457   2.553   4.817   0.222
10520SOL     OW32458   0.142   2.323   6.042
10520SOL    HW132459   0.230   2.276   6.044
10520SOL    HW232460   0.111   2.330   5.947
10521SOL     OW32461   6.880   5.826   1.445
10521SOL    HW132462   6.803   5.840   1.383
10521SOL    HW232463   6.955   5.782   1.396
10522SOL     OW32464   0.382   2.909   3.380
10522SOL    HW132465   0.310   2.841   3.390
10522SOL    HW232466   0.399   2.925   3.282
10523SOL     OW32467   0.575   4.194   3.578
10523SOL    HW132468   0.565   4.203   3.677
10523SOL    HW232469   0.671   4.177   3.555
10524SOL     OW32470   0.709   6.346   4.290
10524SOL    HW132471   0.675   6.253   4.275
10524SOL    HW232472   0.663   6.408   4.227
10525SOL     OW32473   3.932   0.069   5.300
10525SOL    HW132474   4.020   0.022   5.302
10525SOL    HW232475   3.878   0.034   5.223
10526SOL     OW32476   0.613   6.676   1.636
10526SOL    HW132477   0.540   6.638   1.694
10526SOL    HW232478   0.684   6.716   1.693
10527SOL     OW32479   1.011   0.723   6.170
10527SOL    HW132480   1.075   0.798   6.154
10527SOL    HW232481   1.061   0.637   6.174
10528SOL     OW32482   1.037   4.128   6.212
10528SOL    HW132483   0.984   4.071   6.150
10528SOL    HW232484   1.004   4.223   6.208
10529SOL     OW32485   2.076   5.771   4.662
10529SOL    HW132486   2.114   5.819   4.583
10529SOL    HW232487   2.119   5.804   4.746
10530SOL     OW32488   1.141   6.553   5.583
10530SOL    HW132489   1.155   6.515   5.491
10530SOL    HW232490   1.169   6.485   5.651
10531SOL     OW32491   2.711   2.130   4.428
10531SOL    HW132492   2.717   2.067   4.506
10531SOL    HW232493   2.673   2.081   4.349
10532SOL     OW32494   6.791   7.006   6.400
10532SOL    HW132495   6.691   7.005   6.400
10532SOL    HW232496   6.823   0.071   6.391
10533SOL     OW32497   3.212   6.028   3.621
10533SOL    HW132498   3.208   6.110   3.564
10533SOL    HW232499   3.119   5.998   3.643
10534SOL     OW32500   6.391   5.469   1.848
10534SOL    HW132501   6.390   5.445   1.945
10534SOL    HW232502   6.399   5.568   1.838
10535SOL     OW32503   2.044   2.049   2.282
10535SOL    HW132504   2.104   2.070   2.359
10535SOL    HW232505   2.028   2.131   2.227
10536SOL     OW32506   4.732   0.423   3.981
10536SOL    HW132507   4.733   0.403   3.883
10536SOL    HW232508   4.815   0.472   4.006
10537SOL     OW32509   4.932   6.457   4.010
10537SOL    HW132510   4.838   6.475   4.036
10537SOL    HW232511   4.970   6.385   4.067
10538SOL     OW32512   6.717   3.498   0.972
10538SOL    HW132513   6.802   3.453   0.942
10538SOL    HW232514   6.660   3.432   1.021
10539SOL     OW32515   6.485   5.375   1.260
10539SOL    HW132516   6.393   5.390   1.295
10539SOL    HW232517   6.480   5.335   1.169
10540SOL     OW32518   2.222   3.098   5.422
10540SOL    HW132519   2.182   3.098   5.331
10540SOL    HW232520   2.239   3.004   5.451
10541SOL     OW32521   3.984   3.175   3.502
10541SOL    HW132522   4.083   3.182   3.491
10541SOL    HW232523   3.962   3.129   3.588
10542SOL     OW32524   6.370   0.322   4.708
10542SOL    HW132525   6.459   0.332   4.752
10542SOL    HW232526   6.304   0.384   4.750
10543SOL     OW32527   1.014   1.805   4.330
10543SOL    HW132528   1.005   1.887   4.274
10543SOL    HW232529   0.944   1.738   4.303
10544SOL     OW32530   2.119   5.992   2.520
10544SOL    HW132531   2.148   5.992   2.424
10544SOL    HW232532   2.163   6.069   2.568
10545SOL     OW32533   1.828   1.954   1.747
10545SOL    HW132534   1.861   1.900   1.824
10545SOL    HW232535   1.854   2.050   1.761
10546SOL     OW32536   3.129   6.255   1.218
10546SOL    HW132537   3.068   6.207   1.281
10546SOL    HW232538   3.202   6.300   1.269
10547SOL     OW32539   4.933   2.026   3.995
10547SOL    HW132540   5.030   2.010   3.973
10547SOL    HW232541   4.880   2.027   3.910
10548SOL     OW32542   0.459   4.185   4.150
10548SOL    HW132543   0.510   4.102   4.174
10548SOL    HW232544   0.362   4.163   4.141
10549SOL     OW32545   0.192   1.481   0.464
10549SOL    HW132546   0.129   1.557   0.444
10549SOL    HW232547   0.248   1.504   0.544
10550SOL     OW32548   4.198   6.416   3.728
10550SOL    HW132549   4.229   6.446   3.818
10550SOL    HW232550   4.228   6.322   3.712
10551SOL     OW32551   2.091   2.254   6.338
10551SOL    HW132552   2.169   2.236   6.397
10551SOL    HW232553   2.060   2.168   6.296
10552SOL     OW32554   2.051   0.525   5.271
10552SOL    HW132555   2.026   0.594   5.338
10552SOL    HW232556   2.144   0.540   5.240
10553SOL     OW32557   0.140   4.150   1.083
10553SOL    HW132558   0.194   4.069   1.108
10553SOL    HW232559   0.196   4.210   1.026
10554SOL     OW32560   5.013   5.595   2.032
10554SOL    HW132561   5.058   5.650   1.961
10554SOL    HW232562   4.975   5.512   1.992
10555SOL     OW32563   2.543   2.341   1.089
10555SOL    HW132564   2.565   2.346   0.992
10555SOL    HW232565   2.513   2.431   1.121
10556SOL     OW32566   2.815   0.914   3.749
10556SOL    HW132567   2.913   0.927   3.765
10556SOL    HW232568   2.771   1.004   3.740
10557SOL     OW32569   1.429   3.527   3.324
10557SOL    HW132570   1.372   3.485   3.254
10557SOL    HW232571   1.399   3.496   3.415
10558SOL     OW32572   3.858   5.881   6.210
10558SOL    HW132573   3.827   5.973   6.236
10558SOL    HW232574   3.781   5.828   6.176
10559SOL     OW32575   3.988   0.702   1.955
10559SOL    HW132576   3.941   0.624   1.997
10559SOL    HW232577   3.937   0.732   1.875
10560SOL     OW32578   5.050   6.942   2.440
10560SOL    HW132579   5.049   0.004   2.482
10560SOL    HW232580   4.962   6.898   2.457
10561SOL     OW32581   3.868   4.228   1.741
10561SOL    HW132582   3.966   4.229   1.721
10561SOL    HW232583   3.829   4.319   1.725
10562SOL     OW32584   4.254   5.397   0.530
10562SOL    HW132585   4.302   5.371   0.447
10562SOL    HW232586   4.235   5.495   0.528
10563SOL     OW32587   0.930   0.697   1.782
10563SOL    HW132588   0.938   0.700   1.882
10563SOL    HW232589   0.887   0.781   1.750
10564SOL     OW32590   5.825   6.677   3.710
10564SOL    HW132591   5.872   6.597   3.747
10564SOL    HW232592   5.783   6.654   3.622
10565SOL     OW32593   6.492   6.544   5.602
10565SOL    HW132594   6.469   6.577   5.694
10565SOL    HW232595   6.587   6.570   5.580
10566SOL     OW32596   3.288   1.855   6.759
10566SOL    HW132597   3.258   1.862   6.854
10566SOL    HW232598   3.250   1.930   6.706
10567SOL     OW32599   2.500   2.993   5.922
10567SOL    HW132600   2.442   3.023   5.847
10567SOL    HW232601   2.474   2.901   5.950
10568SOL     OW32602   5.757   2.768   0.871
10568SOL    HW132603   5.711   2.812   0.794
10568SOL    HW232604   5.689   2.720   0.927
10569SOL     OW32605   5.821   0.472   1.829
10569SOL    HW132606   5.914   0.437   1.840
10569SOL    HW232607   5.800   0.537   1.902
10570SOL     OW32608   1.389   4.534   3.503
10570SOL    HW132609   1.299   4.555   3.466
10570SOL    HW232610   1.416   4.442   3.475
10571SOL     OW32611   7.015   4.257   5.233
10571SOL    HW132612   6.922   4.239   5.199
10571SOL    HW232613   0.051   4.203   5.179
10572SOL     OW32614   0.029   5.134   3.017
10572SOL    HW132615   0.090   5.211   2.997
10572SOL    HW232616   7.013   5.105   2.933
10573SOL     OW32617   5.090   0.392   4.864
10573SOL    HW132618   5.054   0.380   4.772
10573SOL    HW232619   5.022   0.361   4.931
10574SOL     OW32620   6.893   1.375   4.070
10574SOL    HW132621   6.895   1.394   3.972
10574SOL    HW232622   6.937   1.449   4.120
10575SOL     OW32623   6.797   1.061   3.716
10575SOL    HW132624   6.771   1.086   3.623
10575SOL    HW232625   6.716   1.032   3.767
10576SOL     OW32626   0.666   5.716   2.918
10576SOL    HW132627   0.644   5.621   2.940
10576SOL    HW232628   0.741   5.747   2.977
10577SOL     OW32629   1.605   4.595   0.449
10577SOL    HW132630   1.648   4.686   0.453
10577SOL    HW232631   1.515   4.603   0.405
10578SOL     OW32632   4.675   1.161   3.358
10578SOL    HW132633   4.770   1.182   3.335
10578SOL    HW232634   4.655   1.066   3.336
10579SOL     OW32635   3.791   2.823   1.203
10579SOL    HW132636   3.735   2.868   1.274
10579SOL    HW232637   3.732   2.798   1.126
10580SOL     OW32638   5.983   6.527   5.875
10580SOL    HW132639   6.074   6.516   5.836
10580SOL    HW232640   5.933   6.441   5.869
10581SOL     OW32641   5.894   0.549   2.319
10581SOL    HW132642   5.838   0.625   2.352
10581SOL    HW232643   5.839   0.490   2.260
10582SOL     OW32644   4.688   4.697   6.458
10582SOL    HW132645   4.736   4.688   6.545
10582SOL    HW232646   4.700   4.790   6.423
10583SOL     OW32647   4.583   0.241   4.100
10583SOL    HW132648   4.604   0.206   4.008
10583SOL    HW232649   4.616   0.335   4.108
10584SOL     OW32650   6.611   0.007   6.784
10584SOL    HW132651   6.697   0.027   6.738
10584SOL    HW232652   6.620   0.029   6.881
10585SOL     OW32653   2.349   2.126   5.779
10585SOL    HW132654   2.271   2.080   5.737
10585SOL    HW232655   2.332   2.224   5.784
10586SOL     OW32656   4.924   5.049   5.831
10586SOL    HW132657   4.852   5.076   5.894
10586SOL    HW232658   4.891   4.977   5.770
10587SOL     OW32659   6.594   5.236   6.949
10587SOL    HW132660   6.525   5.285   7.001
10587SOL    HW232661   6.665   5.201   7.011
10588SOL     OW32662   1.927   1.791   4.812
10588SOL    HW132663   1.955   1.886   4.823
10588SOL    HW232664   1.833   1.780   4.845
10589SOL     OW32665   5.180   0.201   4.577
10589SOL    HW132666   5.133   0.289   4.582
10589SOL    HW232667   5.143   0.139   4.647
10590SOL     OW32668   0.266   6.769   1.527
10590SOL    HW132669   0.312   6.769   1.439
10590SOL    HW232670   0.169   6.753   1.514
10591SOL     OW32671   2.434   1.716   1.025
10591SOL    HW132672   2.418   1.644   1.091
10591SOL    HW232673   2.403   1.686   0.934
10592SOL     OW32674   5.516   3.403   4.422
10592SOL    HW132675   5.540   3.492   4.383
10592SOL    HW232676   5.435   3.367   4.374
10593SOL     OW32677   2.610   6.032   0.598
10593SOL    HW132678   2.536   6.084   0.641
10593SOL    HW232679   2.649   5.968   0.664
10594SOL     OW32680   5.028   1.796   2.953
10594SOL    HW132681   4.984   1.867   3.008
10594SOL    HW232682   4.958   1.736   2.913
10595SOL     OW32683   5.887   0.012   6.616
10595SOL    HW132684   5.801   0.019   6.667
10595SOL    HW232685   5.960   0.059   6.666
10596SOL     OW32686   4.778   0.719   0.099
10596SOL    HW132687   4.876   0.700   0.093
10596SOL    HW232688   4.743   0.689   0.187
10597SOL     OW32689   3.048   1.128   6.215
10597SOL    HW132690   3.092   1.148   6.127
10597SOL    HW232691   2.949   1.130   6.204
10598SOL     OW32692   3.459   2.287   6.456
10598SOL    HW132693   3.425   2.244   6.373
10598SOL    HW232694   3.390   2.278   6.529
10599SOL     OW32695   6.383   3.615   6.683
10599SOL    HW132696   6.455   3.551   6.653
10599SOL    HW232697   6.294   3.571   6.675
10600SOL     OW32698   3.216   2.695   1.479
10600SOL    HW132699   3.172   2.705   1.390
10600SOL    HW232700   3.207   2.780   1.531
10601SOL     OW32701   1.464   4.891   5.750
10601SOL    HW132702   1.500   4.886   5.843
10601SOL    HW232703   1.540   4.908   5.687
10602SOL     OW32704   0.806   0.852   1.122
10602SOL    HW132705   0.866   0.932   1.121
10602SOL    HW232706   0.799   0.814   1.030
10603SOL     OW32707   4.821   0.063   3.232
10603SOL    HW132708   4.918   0.041   3.223
10603SOL    HW232709   4.810   0.138   3.297
10604SOL     OW32710   6.847   5.844   5.124
10604SOL    HW132711   6.765   5.893   5.153
10604SOL    HW232712   6.864   5.768   5.187
10605SOL     OW32713   2.072   6.318   7.012
10605SOL    HW132714   1.992   6.313   6.953
10605SOL    HW232715   2.055   6.266   0.066
10606SOL     OW32716   6.789   1.321   1.378
10606SOL    HW132717   6.764   1.341   1.283
10606SOL    HW232718   6.769   1.400   1.436
10607SOL     OW32719   3.837   4.775   0.213
10607SOL    HW132720   3.818   4.823   0.299
10607SOL    HW232721   3.890   4.835   0.153
10608SOL     OW32722   0.059   3.758   4.094
10608SOL    HW132723   0.129   3.796   4.156
10608SOL    HW232724   0.082   3.664   4.070
10609SOL     OW32725   3.253   6.691   6.881
10609SOL    HW132726   3.305   6.686   6.966
10609SOL    HW232727   3.303   6.643   6.808
10610SOL     OW32728   0.460   1.767   4.191
10610SOL    HW132729   0.477   1.733   4.099
10610SOL    HW232730   0.381   1.720   4.230
10611SOL     OW32731   2.617   5.013   6.405
10611SOL    HW132732   2.705   5.000   6.359
10611SOL    HW232733   2.572   4.924   6.416
10612SOL     OW32734   5.185   2.079   4.306
10612SOL    HW132735   5.166   2.103   4.211
10612SOL    HW232736   5.165   2.157   4.365
10613SOL     OW32737   6.326   5.925   5.246
10613SOL    HW132738   6.252   5.980   5.208
10613SOL    HW232739   6.347   5.956   5.338
10614SOL     OW32740   5.321   1.338   4.764
10614SOL    HW132741   5.347   1.430   4.734
10614SOL    HW232742   5.226   1.320   4.740
10615SOL     OW32743   3.221   0.796   6.109
10615SOL    HW132744   3.310   0.839   6.128
10615SOL    HW232745   3.191   0.744   6.189
10616SOL     OW32746   3.075   6.291   0.131
10616SOL    HW132747   3.152   6.325   0.184
10616SOL    HW232748   3.078   6.329   0.039
10617SOL     OW32749   3.018   4.424   1.477
10617SOL    HW132750   3.054   4.444   1.385
10617SOL    HW232751   3.082   4.365   1.526
10618SOL     OW32752   1.719   4.882   5.625
10618SOL    HW132753   1.777   4.801   5.614
10618SOL    HW232754   1.720   4.935   5.541
10619SOL     OW32755   0.291   2.670   2.973
10619SOL    HW132756   0.300   2.752   2.916
10619SOL    HW232757   0.368   2.664   3.036
10620SOL     OW32758   1.035   0.462   5.541
10620SOL    HW132759   1.064   0.392   5.475
10620SOL    HW232760   0.969   0.523   5.498
10621SOL     OW32761   0.183   3.804   2.206
10621SOL    HW132762   0.150   3.898   2.207
10621SOL    HW232763   0.282   3.802   2.209
10622SOL     OW32764   4.422   2.392   1.869
10622SOL    HW132765   4.478   2.423   1.946
10622SOL    HW232766   4.479   2.342   1.805
10623SOL     OW32767   6.602   5.563   5.728
10623SOL    HW132768   6.675   5.541   5.793
10623SOL    HW232769   6.532   5.618   5.774
10624SOL     OW32770   0.279   2.585   5.801
10624SOL    HW132771   0.372   2.550   5.789
10624SOL    HW232772   0.216   2.508   5.813
10625SOL     OW32773   0.235   3.962   1.275
10625SOL    HW132774   0.326   3.948   1.314
10625SOL    HW232775   0.165   3.946   1.346
10626SOL     OW32776   3.582   3.046   0.790
10626SOL    HW132777   3.484   3.032   0.781
10626SOL    HW232778   3.626   3.035   0.701
10627SOL     OW32779   5.829   1.339   6.955
10627SOL    HW132780   5.812   1.319   6.858
10627SOL    HW232781   5.752   1.308   7.010
10628SOL     OW32782   4.557   0.164   1.092
10628SOL    HW132783   4.573   0.087   1.154
10628SOL    HW232784   4.459   0.187   1.092
10629SOL     OW32785   3.084   4.935   4.662
10629SOL    HW132786   3.022   4.860   4.638
10629SOL    HW232787   3.068   4.963   4.756
10630SOL     OW32788   6.320   1.429   2.219
10630SOL    HW132789   6.361   1.499   2.160
10630SOL    HW232790   6.224   1.416   2.193
10631SOL     OW32791   3.837   4.472   5.718
10631SOL    HW132792   3.929   4.496   5.751
10631SOL    HW232793   3.787   4.427   5.792
10632SOL     OW32794   5.519   6.538   3.793
10632SOL    HW132795   5.461   6.566   3.870
10632SOL    HW232796   5.612   6.521   3.825
10633SOL     OW32797   2.391   2.545   1.494
10633SOL    HW132798   2.359   2.540   1.400
10633SOL    HW232799   2.465   2.479   1.509
10634SOL     OW32800   1.986   4.817   0.640
10634SOL    HW132801   2.015   4.766   0.721
10634SOL    HW232802   2.002   4.915   0.654
10635SOL     OW32803   1.627   2.869   6.189
10635SOL    HW132804   1.593   2.903   6.101
10635SOL    HW232805   1.723   2.843   6.179
10636SOL     OW32806   0.478   2.351   1.780
10636SOL    HW132807   0.559   2.406   1.760
10636SOL    HW232808   0.493   2.300   1.864
10637SOL     OW32809   1.313   4.971   6.578
10637SOL    HW132810   1.381   4.931   6.516
10637SOL    HW232811   1.233   4.998   6.525
10638SOL     OW32812   5.160   6.174   2.861
10638SOL    HW132813   5.192   6.169   2.766
10638SOL    HW232814   5.060   6.166   2.863
10639SOL     OW32815   1.094   3.832   2.511
10639SOL    HW132816   1.168   3.898   2.524
10639SOL    HW232817   1.043   3.854   2.428
10640SOL     OW32818   4.556   0.626   3.687
10640SOL    HW132819   4.497   0.614   3.767
10640SOL    HW232820   4.650   0.603   3.711
10641SOL     OW32821   2.351   1.829   3.102
10641SOL    HW132822   2.375   1.855   3.008
10641SOL    HW232823   2.417   1.762   3.136
10642SOL     OW32824   6.296   1.330   0.604
10642SOL    HW132825   6.223   1.295   0.663
10642SOL    HW232826   6.294   1.281   0.517
10643SOL     OW32827   2.635   5.739   5.508
10643SOL    HW132828   2.549   5.733   5.457
10643SOL    HW232829   2.646   5.656   5.563
10644SOL     OW32830   5.304   3.295   0.932
10644SOL    HW132831   5.354   3.360   0.875
10644SOL    HW232832   5.363   3.265   1.008
10645SOL     OW32833   1.153   3.265   4.300
10645SOL    HW132834   1.180   3.243   4.394
10645SOL    HW232835   1.058   3.240   4.286
10646SOL     OW32836   0.126   0.685   6.010
10646SOL    HW132837   0.186   0.657   5.935
10646SOL    HW232838   0.038   0.715   5.972
10647SOL     OW32839   3.292   5.552   4.797
10647SOL    HW132840   3.231   5.629   4.782
10647SOL    HW232841   3.249   5.487   4.859
10648SOL     OW32842   6.094   4.942   6.788
10648SOL    HW132843   6.193   4.943   6.772
10648SOL    HW232844   6.046   4.956   6.701
10649SOL     OW32845   0.342   3.565   3.254
10649SOL    HW132846   0.255   3.538   3.212
10649SOL    HW232847   0.333   3.656   3.293
10650SOL     OW32848   0.653   0.500   3.943
10650SOL    HW132849   0.694   0.573   3.888
10650SOL    HW232850   0.658   0.414   3.892
10651SOL     OW32851   6.245   6.241   6.176
10651SOL    HW132852   6.273   6.167   6.237
10651SOL    HW232853   6.167   6.212   6.122
10652SOL     OW32854   2.502   6.806   6.369
10652SOL    HW132855   2.572   6.866   6.408
10652SOL    HW232856   2.455   6.758   6.442
10653SOL     OW32857   4.208   5.641   4.330
10653SOL    HW132858   4.159   5.656   4.244
10653SOL    HW232859   4.296   5.688   4.326
10654SOL     OW32860   5.202   0.221   6.722
10654SOL    HW132861   5.165   0.204   6.813
10654SOL    HW232862   5.137   0.276   6.669
10655SOL     OW32863   1.769   5.564   0.035
10655SOL    HW132864   1.786   5.499   6.991
10655SOL    HW232865   1.715   5.641   7.029
10656SOL     OW32866   7.007   1.726   2.369
10656SOL    HW132867   0.049   1.719   2.439
10656SOL    HW232868   0.010   1.686   2.284
10657SOL     OW32869   6.066   0.785   4.801
10657SOL    HW132870   6.040   0.818   4.892
10657SOL    HW232871   6.141   0.840   4.765
10658SOL     OW32872   6.646   4.651   4.671
10658SOL    HW132873   6.627   4.723   4.738
10658SOL    HW232874   6.621   4.683   4.580
10659SOL     OW32875   1.025   5.675   0.686
10659SOL    HW132876   0.947   5.665   0.625
10659SOL    HW232877   0.998   5.655   0.780
10660SOL     OW32878   5.812   3.815   6.435
10660SOL    HW132879   5.828   3.845   6.529
10660SOL    HW232880   5.736   3.750   6.433
10661SOL     OW32881   1.324   6.659   0.682
10661SOL    HW132882   1.366   6.569   0.682
10661SOL    HW232883   1.323   6.696   0.775
10662SOL     OW32884   4.569   0.471   2.415
10662SOL    HW132885   4.593   0.563   2.445
10662SOL    HW232886   4.557   0.470   2.316
10663SOL     OW32887   0.631   1.201   2.473
10663SOL    HW132888   0.614   1.151   2.558
10663SOL    HW232889   0.717   1.252   2.481
10664SOL     OW32890   6.535   4.206   5.459
10664SOL    HW132891   6.571   4.295   5.489
10664SOL    HW232892   6.501   4.155   5.538
10665SOL     OW32893   0.915   1.784   0.255
10665SOL    HW132894   0.822   1.771   0.222
10665SOL    HW232895   0.977   1.792   0.177
10666SOL     OW32896   3.162   3.903   1.663
10666SOL    HW132897   3.224   3.950   1.727
10666SOL    HW232898   3.070   3.941   1.673
10667SOL     OW32899   4.611   2.287   3.761
10667SOL    HW132900   4.599   2.345   3.681
10667SOL    HW232901   4.601   2.191   3.735
10668SOL     OW32902   2.870   1.564   5.050
10668SOL    HW132903   2.771   1.550   5.051
10668SOL    HW232904   2.894   1.643   5.106
10669SOL     OW32905   5.208   0.236   1.531
10669SOL    HW132906   5.144   0.189   1.470
10669SOL    HW232907   5.277   0.171   1.562
10670SOL     OW32908   5.649   5.057   5.078
10670SOL    HW132909   5.664   5.076   4.980
10670SOL    HW232910   5.662   4.959   5.095
10671SOL     OW32911   2.185   2.040   4.041
10671SOL    HW132912   2.124   1.982   4.094
10671SOL    HW232913   2.168   2.027   3.943
10672SOL     OW32914   6.764   4.328   1.918
10672SOL    HW132915   6.777   4.286   2.008
10672SOL    HW232916   6.731   4.422   1.930
10673SOL     OW32917   0.419   1.209   6.797
10673SOL    HW132918   0.347   1.140   6.799
10673SOL    HW232919   0.507   1.164   6.776
10674SOL     OW32920   4.108   3.533   3.257
10674SOL    HW132921   4.118   3.530   3.356
10674SOL    HW232922   4.103   3.629   3.227
10675SOL     OW32923   1.575   6.674   6.909
10675SOL    HW132924   1.567   6.592   6.853
10675SOL    HW232925   1.637   6.739   6.864
10676SOL     OW32926   6.583   6.239   5.343
10676SOL    HW132927   6.519   6.250   5.268
10676SOL    HW232928   6.600   6.327   5.387
10677SOL     OW32929   1.897   0.704   1.699
10677SOL    HW132930   1.989   0.670   1.721
10677SOL    HW232931   1.829   0.647   1.744
10678SOL     OW32932   4.769   5.743   4.061
10678SOL    HW132933   4.797   5.652   4.093
10678SOL    HW232934   4.829   5.812   4.100
10679SOL     OW32935   4.391   5.439   6.923
10679SOL    HW132936   4.414   5.455   6.827
10679SOL    HW232937   4.475   5.419   6.974
10680SOL     OW32938   3.724   2.110   4.263
10680SOL    HW132939   3.651   2.104   4.195
10680SOL    HW232940   3.687   2.143   4.349
10681SOL     OW32941   0.556   3.601   0.754
10681SOL    HW132942   0.611   3.518   0.751
10681SOL    HW232943   0.507   3.605   0.841
10682SOL     OW32944   0.485   1.388   5.179
10682SOL    HW132945   0.485   1.362   5.275
10682SOL    HW232946   0.575   1.370   5.140
10683SOL     OW32947   4.876   1.643   3.734
10683SOL    HW132948   4.799   1.661   3.673
10683SOL    HW232949   4.842   1.615   3.823
10684SOL     OW32950   5.091   5.041   3.131
10684SOL    HW132951   5.168   4.994   3.174
10684SOL    HW232952   5.046   5.100   3.198
10685SOL     OW32953   0.554   5.485   1.910
10685SOL    HW132954   0.493   5.429   1.853
10685SOL    HW232955   0.566   5.575   1.867
10686SOL     OW32956   0.939   4.598   5.492
10686SOL    HW132957   1.032   4.621   5.463
10686SOL    HW232958   0.896   4.538   5.425
10687SOL     OW32959   5.820   5.500   3.632
10687SOL    HW132960   5.743   5.440   3.609
10687SOL    HW232961   5.861   5.535   3.547
10688SOL     OW32962   6.348   3.682   2.520
10688SOL    HW132963   6.415   3.661   2.591
10688SOL    HW232964   6.394   3.697   2.433
10689SOL     OW32965   0.345   6.980   3.624
10689SOL    HW132966   0.248   6.965   3.611
10689SOL    HW232967   0.359   0.026   3.689
10690SOL     OW32968   0.344   5.784   3.870
10690SOL    HW132969   0.341   5.718   3.945
10690SOL    HW232970   0.261   5.774   3.814
10691SOL     OW32971   0.539   2.162   2.691
10691SOL    HW132972   0.530   2.225   2.769
10691SOL    HW232973   0.614   2.192   2.632
10692SOL     OW32974   3.014   6.416   3.887
10692SOL    HW132975   2.965   6.357   3.822
10692SOL    HW232976   2.982   6.510   3.877
10693SOL     OW32977   1.791   5.973   0.704
10693SOL    HW132978   1.874   5.925   0.730
10693SOL    HW232979   1.780   5.970   0.605
10694SOL     OW32980   5.368   6.719   0.502
10694SOL    HW132981   5.378   6.693   0.406
10694SOL    HW232982   5.272   6.714   0.529
10695SOL     OW32983   0.244   2.426   2.901
10695SOL    HW132984   0.249   2.498   2.971
10695SOL    HW232985   0.228   2.338   2.945
10696SOL     OW32986   6.834   4.284   3.469
10696SOL    HW132987   6.879   4.279   3.380
10696SOL    HW232988   6.899   4.316   3.537
10697SOL     OW32989   0.081   6.090   5.006
10697SOL    HW132990   0.134   6.160   4.957
10697SOL    HW232991   0.111   5.999   4.976
10698SOL     OW32992   5.281   4.171   6.455
10698SOL    HW132993   5.323   4.085   6.425
10698SOL    HW232994   5.238   4.157   6.545
10699SOL     OW32995   3.695   4.135   1.935
10699SOL    HW132996   3.773   4.183   1.896
10699SOL    HW232997   3.640   4.095   1.861
10700SOL     OW32998   6.071   6.763   0.536
10700SOL    HW132999   6.097   6.845   0.587
10700SOL    HW233000   6.130   6.753   0.456
10701SOL     OW33001   3.056   6.595   6.671
10701SOL    HW133002   2.963   6.607   6.705
10701SOL    HW233003   3.121   6.622   6.741
10702SOL     OW33004   5.366   2.981   1.583
10702SOL    HW133005   5.358   3.078   1.608
10702SOL    HW233006   5.427   2.972   1.504
10703SOL     OW33007   3.031   3.306   4.827
10703SOL    HW133008   3.054   3.212   4.799
10703SOL    HW233009   2.937   3.309   4.861
10704SOL     OW33010   6.065   5.688   1.607
10704SOL    HW133011   6.110   5.777   1.611
10704SOL    HW233012   6.022   5.667   1.695
10705SOL     OW33013   5.841   4.845   2.061
10705SOL    HW133014   5.807   4.759   2.023
10705SOL    HW233015   5.765   4.908   2.073
10706SOL     OW33016   5.458   0.517   2.336
10706SOL    HW133017   5.457   0.434   2.281
10706SOL    HW233018   5.421   0.593   2.282
10707SOL     OW33019   0.098   6.895   4.406
10707SOL    HW133020   0.116   6.993   4.402
10707SOL    HW233021   0.153   6.847   4.337
10708SOL     OW33022   4.283   0.915   2.001
10708SOL    HW133023   4.189   0.895   2.028
10708SOL    HW233024   4.341   0.918   2.083
10709SOL     OW33025   5.754   5.603   5.316
10709SOL    HW133026   5.825   5.536   5.339
10709SOL    HW233027   5.778   5.692   5.354
10710SOL     OW33028   0.140   0.422   4.115
10710SOL    HW133029   0.080   0.344   4.131
10710SOL    HW233030   0.142   0.480   4.197
10711SOL     OW33031   1.641   0.049   4.420
10711SOL    HW133032   1.571   7.007   4.413
10711SOL    HW233033   1.676   0.070   4.328
10712SOL     OW33034   3.172   0.777   1.936
10712SOL    HW133035   3.224   0.757   2.019
10712SOL    HW233036   3.234   0.786   1.859
10713SOL     OW33037   0.700   3.797   1.652
10713SOL    HW133038   0.622   3.846   1.614
10713SOL    HW233039   0.681   3.770   1.747
10714SOL     OW33040   5.897   3.626   4.486
10714SOL    HW133041   5.897   3.649   4.389
10714SOL    HW233042   5.991   3.626   4.520
10715SOL     OW33043   5.055   0.689   2.793
10715SOL    HW133044   5.119   0.616   2.771
10715SOL    HW233045   5.105   0.766   2.834
10716SOL     OW33046   5.859   2.198   4.217
10716SOL    HW133047   5.836   2.180   4.121
10716SOL    HW233048   5.941   2.254   4.222
10717SOL     OW33049   1.655   2.087   1.120
10717SOL    HW133050   1.588   2.022   1.084
10717SOL    HW233051   1.681   2.060   1.212
10718SOL     OW33052   1.272   3.161   6.476
10718SOL    HW133053   1.209   3.104   6.529
10718SOL    HW233054   1.328   3.102   6.417
10719SOL     OW33055   6.482   5.671   2.597
10719SOL    HW133056   6.432   5.592   2.559
10719SOL    HW233057   6.419   5.725   2.652
10720SOL     OW33058   0.781   4.414   4.623
10720SOL    HW133059   0.863   4.358   4.637
10720SOL    HW233060   0.773   4.480   4.698
10721SOL     OW33061   5.800   4.164   5.116
10721SOL    HW133062   5.753   4.132   5.198
10721SOL    HW233063   5.791   4.263   5.109
10722SOL     OW33064   0.891   4.798   0.219
10722SOL    HW133065   0.807   4.847   0.240
10722SOL    HW233066   0.929   4.760   0.304
10723SOL     OW33067   0.272   3.436   6.086
10723SOL    HW133068   0.232   3.482   6.007
10723SOL    HW233069   0.261   3.337   6.076
10724SOL     OW33070   5.973   1.061   6.847
10724SOL    HW133071   5.904   1.128   6.818
10724SOL    HW233072   5.944   1.017   6.932
10725SOL     OW33073   1.029   5.155   4.739
10725SOL    HW133074   0.998   5.249   4.727
10725SOL    HW233075   0.958   5.092   4.707
10726SOL     OW33076   4.989   6.887   5.587
10726SOL    HW133077   5.007   6.789   5.585
10726SOL    HW233078   4.952   6.915   5.498
10727SOL     OW33079   0.492   4.825   5.194
10727SOL    HW133080   0.561   4.872   5.140
10727SOL    HW233081   0.536   4.768   5.263
10728SOL     OW33082   7.018   6.066   0.265
10728SOL    HW133083   0.014   5.978   0.225
10728SOL    HW233084   6.921   6.065   0.290
10729SOL     OW33085   5.497   1.026   1.594
10729SOL    HW133086   5.445   0.972   1.659
10729SOL    HW233087   5.441   1.047   1.514
10730SOL     OW33088   2.173   0.653   1.649
10730SOL    HW133089   2.195   0.722   1.719
10730SOL    HW233090   2.250   0.592   1.637
10731SOL     OW33091   3.137   5.965   0.880
10731SOL    HW133092   3.065   5.922   0.935
10731SOL    HW233093   3.097   6.038   0.825
10732SOL     OW33094   5.709   5.075   3.779
10732SOL    HW133095   5.706   5.079   3.679
10732SOL    HW233096   5.640   5.138   3.816
10733SOL     OW33097   6.428   1.692   1.031
10733SOL    HW133098   6.415   1.748   0.949
10733SOL    HW233099   6.443   1.597   1.004
10734SOL     OW33100   1.103   0.507   7.016
10734SOL    HW133101   1.022   0.561   0.007
10734SOL    HW233102   1.078   0.410   7.009
10735SOL     OW33103   1.687   3.576   3.259
10735SOL    HW133104   1.714   3.499   3.318
10735SOL    HW233105   1.590   3.567   3.237
10736SOL     OW33106   1.446   0.591   2.718
10736SOL    HW133107   1.353   0.564   2.743
10736SOL    HW233108   1.469   0.677   2.764
10737SOL     OW33109   2.193   1.547   0.444
10737SOL    HW133110   2.213   1.533   0.541
10737SOL    HW233111   2.229   1.470   0.391
10738SOL     OW33112   3.243   0.383   3.442
10738SOL    HW133113   3.265   0.359   3.348
10738SOL    HW233114   3.169   0.325   3.475
10739SOL     OW33115   0.446   1.395   1.150
10739SOL    HW133116   0.401   1.310   1.176
10739SOL    HW233117   0.519   1.375   1.084
10740SOL     OW33118   0.387   4.609   5.512
10740SOL    HW133119   0.475   4.642   5.478
10740SOL    HW233120   0.331   4.579   5.435
10741SOL     OW33121   6.622   0.165   1.215
10741SOL    HW133122   6.704   0.114   1.238
10741SOL    HW233123   6.549   0.101   1.190
10742SOL     OW33124   5.669   0.614   1.234
10742SOL    HW133125   5.725   0.643   1.311
10742SOL    HW233126   5.709   0.647   1.148
10743SOL     OW33127   2.579   1.641   5.067
10743SOL    HW133128   2.543   1.695   5.143
10743SOL    HW233129   2.580   1.697   4.984
10744SOL     OW33130   3.696   1.219   1.116
10744SOL    HW133131   3.626   1.237   1.185
10744SOL    HW233132   3.705   1.121   1.102
10745SOL     OW33133   0.288   5.447   6.937
10745SOL    HW133134   0.195   5.461   6.972
10745SOL    HW233135   0.349   5.425   7.013
10746SOL     OW33136   2.079   4.291   1.056
10746SOL    HW133137   2.035   4.374   1.021
10746SOL    HW233138   2.175   4.311   1.077
10747SOL     OW33139   4.493   0.877   3.688
10747SOL    HW133140   4.558   0.936   3.641
10747SOL    HW233141   4.518   0.781   3.672
10748SOL     OW33142   4.105   0.874   1.322
10748SOL    HW133143   4.046   0.933   1.267
10748SOL    HW233144   4.091   0.895   1.419
10749SOL     OW33145   0.419   5.698   3.449
10749SOL    HW133146   0.474   5.726   3.371
10749SOL    HW233147   0.453   5.611   3.484
10750SOL     OW33148   4.418   6.174   5.129
10750SOL    HW133149   4.408   6.098   5.064
10750SOL    HW233150   4.515   6.192   5.145
10751SOL     OW33151   1.681   4.681   4.106
10751SOL    HW133152   1.695   4.677   4.205
10751SOL    HW233153   1.596   4.633   4.083
10752SOL     OW33154   5.713   4.173   6.336
10752SOL    HW133155   5.681   4.106   6.269
10752SOL    HW233156   5.805   4.148   6.368
10753SOL     OW33157   4.507   6.388   4.492
10753SOL    HW133158   4.473   6.302   4.530
10753SOL    HW233159   4.435   6.458   4.498
10754SOL     OW33160   1.127   1.420   3.379
10754SOL    HW133161   1.099   1.344   3.438
10754SOL    HW233162   1.048   1.452   3.327
10755SOL     OW33163   0.083   1.070   6.539
10755SOL    HW133164   0.044   1.094   6.628
10755SOL    HW233165   0.008   1.051   6.474
10756SOL     OW33166   0.188   4.409   0.290
10756SOL    HW133167   0.147   4.476   0.228
10756SOL    HW233168   0.288   4.418   0.287
10757SOL     OW33169   1.133   2.581   0.399
10757SOL    HW133170   1.214   2.612   0.449
10757SOL    HW233171   1.159   2.554   0.306
10758SOL     OW33172   0.663   6.813   4.373
10758SOL    HW133173   0.675   6.730   4.428
10758SOL    HW233174   0.693   6.892   4.425
10759SOL     OW33175   1.688   2.843   1.198
10759SOL    HW133176   1.607   2.903   1.194
10759SOL    HW233177   1.737   2.849   1.111
10760SOL     OW33178   6.602   1.277   1.682
10760SOL    HW133179   6.530   1.243   1.622
10760SOL    HW233180   6.563   1.307   1.768
10761SOL     OW33181   1.163   1.031   6.184
10761SOL    HW133182   1.178   1.041   6.283
10761SOL    HW233183   1.085   1.087   6.156
10762SOL     OW33184   4.155   1.726   4.513
10762SOL    HW133185   4.176   1.762   4.604
10762SOL    HW233186   4.203   1.781   4.444
10763SOL     OW33187   4.681   6.351   2.420
10763SOL    HW133188   4.702   6.318   2.512
10763SOL    HW233189   4.689   6.275   2.355
10764SOL     OW33190   5.372   2.606   5.850
10764SOL    HW133191   5.453   2.662   5.864
10764SOL    HW233192   5.294   2.664   5.829
10765SOL     OW33193   5.482   2.429   0.454
10765SOL    HW133194   5.389   2.463   0.444
10765SOL    HW233195   5.525   2.422   0.364
10766SOL     OW33196   5.010   3.466   1.267
10766SOL    HW133197   4.998   3.368   1.250
10766SOL    HW233198   4.929   3.515   1.233
10767SOL     OW33199   1.231   0.745   0.189
10767SOL    HW133200   1.222   0.720   0.286
10767SOL    HW233201   1.141   0.767   0.152
10768SOL     OW33202   4.920   4.271   1.197
10768SOL    HW133203   4.892   4.216   1.118
10768SOL    HW233204   4.844   4.276   1.262
10769SOL     OW33205   2.603   4.724   4.831
10769SOL    HW133206   2.576   4.809   4.875
10769SOL    HW233207   2.665   4.673   4.890
10770SOL     OW33208   5.551   0.758   5.152
10770SOL    HW133209   5.526   0.798   5.240
10770SOL    HW233210   5.472   0.714   5.111
10771SOL     OW33211   5.398   1.397   3.220
10771SOL    HW133212   5.356   1.325   3.274
10771SOL    HW233213   5.339   1.420   3.142
10772SOL     OW33214   6.713   6.905   4.808
10772SOL    HW133215   6.772   6.945   4.737
10772SOL    HW233216   6.741   6.810   4.824
10773SOL     OW33217   6.763   5.558   6.885
10773SOL    HW133218   6.717   5.605   6.960
10773SOL    HW233219   6.849   5.604   6.864
10774SOL     OW33220   2.049   1.636   6.312
10774SOL    HW133221   2.117   1.563   6.319
10774SOL    HW233222   2.064   1.704   6.384
10775SOL     OW33223   6.999   4.355   1.032
10775SOL    HW133224   0.015   4.409   0.961
10775SOL    HW233225   0.019   4.270   1.048
10776SOL     OW33226   0.624   6.943   6.774
10776SOL    HW133227   0.620   6.859   6.829
10776SOL    HW233228   0.532   6.980   6.763
10777SOL     OW33229   3.376   5.733   3.084
10777SOL    HW133230   3.429   5.798   3.030
10777SOL    HW233231   3.280   5.736   3.056
10778SOL     OW33232   5.863   6.973   4.436
10778SOL    HW133233   5.888   6.896   4.378
10778SOL    HW233234   5.783   6.949   4.491
10779SOL     OW33235   6.481   4.577   3.803
10779SOL    HW133236   6.489   4.478   3.798
10779SOL    HW233237   6.551   4.619   3.746
10780SOL     OW33238   2.103   0.859   3.662
10780SOL    HW133239   2.036   0.925   3.695
10780SOL    HW233240   2.101   0.777   3.719
10781SOL     OW33241   4.460   0.673   3.305
10781SOL    HW133242   4.467   0.695   3.403
10781SOL    HW233243   4.367   0.691   3.273
10782SOL     OW33244   5.658   1.944   2.250
10782SOL    HW133245   5.706   1.973   2.167
10782SOL    HW233246   5.607   1.860   2.231
10783SOL     OW33247   0.692   3.249   3.564
10783SOL    HW133248   0.783   3.212   3.586
10783SOL    HW233249   0.663   3.215   3.475
10784SOL     OW33250   3.691   0.037   4.404
10784SOL    HW133251   3.714   0.052   4.308
10784SOL    HW233252   3.646   0.118   4.440
10785SOL     OW33253   0.394   4.761   2.092
10785SOL    HW133254   0.364   4.833   2.031
10785SOL    HW233255   0.364   4.781   2.185
10786SOL     OW33256   5.354   4.929   3.229
10786SOL    HW133257   5.414   4.945   3.308
10786SOL    HW233258   5.397   4.968   3.147
10787SOL     OW33259   1.765   1.404   4.619
10787SOL    HW133260   1.771   1.377   4.714
10787SOL    HW233261   1.836   1.472   4.598
10788SOL     OW33262   1.937   4.408   6.207
10788SOL    HW133263   1.889   4.484   6.250
10788SOL    HW233264   2.026   4.395   6.251
10789SOL     OW33265   0.399   2.835   6.505
10789SOL    HW133266   0.395   2.894   6.586
10789SOL    HW233267   0.348   2.877   6.430
10790SOL     OW33268   1.221   1.019   1.830
10790SOL    HW133269   1.208   0.945   1.764
10790SOL    HW233270   1.226   0.981   1.922
10791SOL     OW33271   0.937   7.024   1.134
10791SOL    HW133272   0.847   0.038   1.131
10791SOL    HW233273   1.007   0.066   1.127
10792SOL     OW33274   3.249   3.897   3.639
10792SOL    HW133275   3.150   3.882   3.628
10792SOL    HW233276   3.277   3.868   3.730
10793SOL     OW33277   6.062   3.421   4.192
10793SOL    HW133278   6.000   3.346   4.170
10793SOL    HW233279   6.009   3.497   4.231
10794SOL     OW33280   3.177   3.802   3.323
10794SOL    HW133281   3.177   3.902   3.310
10794SOL    HW233282   3.093   3.764   3.284
10795SOL     OW33283   6.480   4.608   2.704
10795SOL    HW133284   6.383   4.624   2.724
10795SOL    HW233285   6.524   4.569   2.784
10796SOL     OW33286   5.761   6.814   0.326
10796SOL    HW133287   5.822   6.885   0.362
10796SOL    HW233288   5.790   6.725   0.360
10797SOL     OW33289   4.315   2.812   1.644
10797SOL    HW133290   4.364   2.725   1.653
10797SOL    HW233291   4.233   2.798   1.588
10798SOL     OW33292   2.876   6.034   0.471
10798SOL    HW133293   2.788   6.047   0.516
10798SOL    HW233294   2.949   6.074   0.526
10799SOL     OW33295   3.711   0.936   1.875
10799SOL    HW133296   3.723   0.925   1.974
10799SOL    HW233297   3.621   0.975   1.856
10800SOL     OW33298   0.735   6.799   6.183
10800SOL    HW133299   0.737   6.703   6.155
10800SOL    HW233300   0.828   6.835   6.185
10801SOL     OW33301   0.436   5.881   5.762
10801SOL    HW133302   0.360   5.839   5.712
10801SOL    HW233303   0.454   5.829   5.846
10802SOL     OW33304   0.580   1.779   3.187
10802SOL    HW133305   0.620   1.860   3.229
10802SOL    HW233306   0.527   1.729   3.256
10803SOL     OW33307   3.156   3.898   6.181
10803SOL    HW133308   3.085   3.968   6.177
10803SOL    HW233309   3.175   3.864   6.089
10804SOL     OW33310   5.965   3.357   1.844
10804SOL    HW133311   6.043   3.395   1.794
10804SOL    HW233312   5.971   3.257   1.841
10805SOL     OW33313   4.312   6.898   6.914
10805SOL    HW133314   4.222   6.905   6.958
10805SOL    HW233315   4.372   6.970   6.951
10806SOL     OW33316   4.721   3.848   5.936
10806SOL    HW133317   4.650   3.804   5.881
10806SOL    HW233318   4.681   3.885   6.019
10807SOL     OW33319   1.106   0.153   2.416
10807SOL    HW133320   1.052   0.217   2.361
10807SOL    HW233321   1.151   0.087   2.356
10808SOL     OW33322   0.420   3.040   5.648
10808SOL    HW133323   0.373   3.013   5.564
10808SOL    HW233324   0.448   3.136   5.641
10809SOL     OW33325   2.853   4.828   3.283
10809SOL    HW133326   2.914   4.898   3.319
10809SOL    HW233327   2.887   4.798   3.194
10810SOL     OW33328   1.657   0.337   4.162
10810SOL    HW133329   1.746   0.376   4.141
10810SOL    HW233330   1.601   0.334   4.079
10811SOL     OW33331   4.008   4.502   6.506
10811SOL    HW133332   3.967   4.591   6.490
10811SOL    HW233333   4.066   4.478   6.428
10812SOL     OW33334   0.603   3.988   1.018
10812SOL    HW133335   0.588   3.959   1.113
10812SOL    HW233336   0.542   3.936   0.958
10813SOL     OW33337   2.242   4.633   6.420
10813SOL    HW133338   2.331   4.600   6.452
10813SOL    HW233339   2.253   4.671   6.328
10814SOL     OW33340   1.419   6.559   6.542
10814SOL    HW133341   1.459   6.596   6.458
10814SOL    HW233342   1.491   6.544   6.610
10815SOL     OW33343   4.443   4.621   3.376
10815SOL    HW133344   4.421   4.670   3.292
10815SOL    HW233345   4.442   4.522   3.358
10816SOL     OW33346   3.173   3.251   2.530
10816SOL    HW133347   3.195   3.195   2.450
10816SOL    HW233348   3.092   3.306   2.510
10817SOL     OW33349   4.351   0.158   3.416
10817SOL    HW133350   4.373   0.240   3.468
10817SOL    HW233351   4.411   0.083   3.443
10818SOL     OW33352   4.351   4.339   5.429
10818SOL    HW133353   4.261   4.299   5.441
10818SOL    HW233354   4.345   4.439   5.433
10819SOL     OW33355   6.620   4.903   6.370
10819SOL    HW133356   6.565   4.871   6.448
10819SOL    HW233357   6.578   4.871   6.285
10820SOL     OW33358   6.617   5.859   3.900
10820SOL    HW133359   6.524   5.872   3.934
10820SOL    HW233360   6.645   5.765   3.918
10821SOL     OW33361   5.686   6.895   2.188
10821SOL    HW133362   5.713   6.988   2.163
10821SOL    HW233363   5.744   6.862   2.262
10822SOL     OW33364   6.956   3.252   2.987
10822SOL    HW133365   6.920   3.295   3.070
10822SOL    HW233366   6.927   3.157   2.984
10823SOL     OW33367   1.899   6.374   1.340
10823SOL    HW133368   1.979   6.316   1.328
10823SOL    HW233369   1.827   6.346   1.277
10824SOL     OW33370   6.625   1.405   3.177
10824SOL    HW133371   6.541   1.440   3.137
10824SOL    HW233372   6.704   1.446   3.132
10825SOL     OW33373   2.311   1.088   6.321
10825SOL    HW133374   2.320   0.999   6.277
10825SOL    HW233375   2.293   1.158   6.252
10826SOL     OW33376   1.249   3.258   4.032
10826SOL    HW133377   1.228   3.294   4.123
10826SOL    HW233378   1.346   3.230   4.029
10827SOL     OW33379   6.736   3.294   4.181
10827SOL    HW133380   6.701   3.253   4.096
10827SOL    HW233381   6.783   3.379   4.161
10828SOL     OW33382   1.038   4.559   0.754
10828SOL    HW133383   1.137   4.572   0.748
10828SOL    HW233384   1.010   4.565   0.850
10829SOL     OW33385   4.369   2.137   0.262
10829SOL    HW133386   4.290   2.160   0.204
10829SOL    HW233387   4.339   2.080   0.338
10830SOL     OW33388   5.186   1.768   2.709
10830SOL    HW133389   5.117   1.789   2.779
10830SOL    HW233390   5.204   1.850   2.654
10831SOL     OW33391   2.784   5.731   2.802
10831SOL    HW133392   2.858   5.784   2.761
10831SOL    HW233393   2.709   5.792   2.826
10832SOL     OW33394   0.730   2.931   6.254
10832SOL    HW133395   0.696   2.838   6.258
10832SOL    HW233396   0.807   2.941   6.318
10833SOL     OW33397   0.836   0.618   2.323
10833SOL    HW133398   0.783   0.631   2.406
10833SOL    HW233399   0.890   0.700   2.304
10834SOL     OW33400   0.660   1.748   0.179
10834SOL    HW133401   0.592   1.791   0.238
10834SOL    HW233402   0.623   1.739   0.086
10835SOL     OW33403   5.353   2.521   0.720
10835SOL    HW133404   5.274   2.473   0.681
10835SOL    HW233405   5.345   2.524   0.819
10836SOL     OW33406   6.577   1.518   5.051
10836SOL    HW133407   6.514   1.564   4.988
10836SOL    HW233408   6.662   1.496   5.004
10837SOL     OW33409   6.996   5.190   1.431
10837SOL    HW133410   0.019   5.269   1.400
10837SOL    HW233411   0.027   5.111   1.441
10838SOL     OW33412   5.954   5.671   4.322
10838SOL    HW133413   5.916   5.580   4.338
10838SOL    HW233414   6.043   5.662   4.277
10839SOL     OW33415   4.393   3.039   1.739
10839SOL    HW133416   4.379   2.948   1.699
10839SOL    HW233417   4.474   3.037   1.798
10840SOL     OW33418   2.389   5.745   2.558
10840SOL    HW133419   2.327   5.750   2.635
10840SOL    HW233420   2.442   5.660   2.563
10841SOL     OW33421   5.870   5.021   6.149
10841SOL    HW133422   5.904   5.073   6.071
10841SOL    HW233423   5.944   5.007   6.215
10842SOL     OW33424   4.769   2.717   1.937
10842SOL    HW133425   4.765   2.805   1.984
10842SOL    HW233426   4.831   2.723   1.859
10843SOL     OW33427   1.238   1.863   1.684
10843SOL    HW133428   1.307   1.897   1.748
10843SOL    HW233429   1.267   1.775   1.646
10844SOL     OW33430   0.123   0.068   3.378
10844SOL    HW133431   0.028   0.089   3.355
10844SOL    HW233432   0.164   0.147   3.424
10845SOL     OW33433   2.916   0.540   5.657
10845SOL    HW133434   2.904   0.484   5.739
10845SOL    HW233435   2.925   0.637   5.683
10846SOL     OW33436   4.965   1.538   0.138
10846SOL    HW133437   4.938   1.458   0.084
10846SOL    HW233438   5.023   1.509   0.214
10847SOL     OW33439   3.738   3.334   6.673
10847SOL    HW133440   3.652   3.381   6.692
10847SOL    HW233441   3.741   3.247   6.721
10848SOL     OW33442   3.073   3.801   6.827
10848SOL    HW133443   3.142   3.818   6.757
10848SOL    HW233444   3.074   3.876   6.894
10849SOL     OW33445   1.998   5.718   3.692
10849SOL    HW133446   2.060   5.647   3.725
10849SOL    HW233447   1.964   5.771   3.770
10850SOL     OW33448   2.297   5.480   0.128
10850SOL    HW133449   2.309   5.579   0.136
10850SOL    HW233450   2.355   5.446   0.054
10851SOL     OW33451   1.742   3.324   6.673
10851SOL    HW133452   1.753   3.247   6.736
10851SOL    HW233453   1.690   3.396   6.718
10852SOL     OW33454   1.429   0.362   6.991
10852SOL    HW133455   1.502   0.318   0.015
10852SOL    HW233456   1.398   0.444   0.009
10853SOL     OW33457   1.523   2.210   5.007
10853SOL    HW133458   1.532   2.234   5.103
10853SOL    HW233459   1.473   2.283   4.959
10854SOL     OW33460   4.418   4.831   5.048
10854SOL    HW133461   4.485   4.827   5.122
10854SOL    HW233462   4.348   4.900   5.069
10855SOL     OW33463   3.326   0.121   0.538
10855SOL    HW133464   3.392   0.047   0.520
10855SOL    HW233465   3.236   0.093   0.504
10856SOL     OW33466   5.492   1.746   0.474
10856SOL    HW133467   5.556   1.751   0.398
10856SOL    HW233468   5.401   1.722   0.440
10857SOL     OW33469   6.461   2.709   2.933
10857SOL    HW133470   6.530   2.646   2.969
10857SOL    HW233471   6.416   2.668   2.855
10858SOL     OW33472   1.121   1.648   6.330
10858SOL    HW133473   1.197   1.681   6.273
10858SOL    HW233474   1.149   1.564   6.376
10859SOL     OW33475   1.374   4.488   4.554
10859SOL    HW133476   1.320   4.471   4.636
10859SOL    HW233477   1.319   4.540   4.489
10860SOL     OW33478   6.819   1.470   5.614
10860SOL    HW133479   6.816   1.375   5.646
10860SOL    HW233480   6.802   1.472   5.516
10861SOL     OW33481   3.589   3.398   2.962
10861SOL    HW133482   3.565   3.311   2.921
10861SOL    HW233483   3.684   3.420   2.941
10862SOL     OW33484   2.407   1.796   6.674
10862SOL    HW133485   2.470   1.873   6.685
10862SOL    HW233486   2.415   1.735   6.753
10863SOL     OW33487   3.481   0.722   3.636
10863SOL    HW133488   3.496   0.783   3.714
10863SOL    HW233489   3.471   0.777   3.553
10864SOL     OW33490   2.555   5.645   0.881
10864SOL    HW133491   2.520   5.574   0.821
10864SOL    HW233492   2.496   5.653   0.962
10865SOL     OW33493   6.921   1.088   2.000
10865SOL    HW133494   7.017   1.076   2.025
10865SOL    HW233495   6.914   1.111   1.903
10866SOL     OW33496   5.347   4.654   0.918
10866SOL    HW133497   5.298   4.667   0.831
10866SOL    HW233498   5.441   4.688   0.908
10867SOL     OW33499   3.610   4.358   0.051
10867SOL    HW133500   3.565   4.430   0.105
10867SOL    HW233501   3.673   4.400   7.016
10868SOL     OW33502   4.055   2.213   3.934
10868SOL    HW133503   3.966   2.175   3.907
10868SOL    HW233504   4.094   2.265   3.858
10869NA      NA33505   6.964   2.055   5.322
10870NA      NA33506   4.466   4.309   5.215
10871NA      NA33507   2.046   3.631   2.205
10872NA      NA33508   5.010   3.943   4.550
10873NA      NA33509   4.366   2.393   5.191
10874NA      NA33510   3.259   4.773   1.594
10875NA      NA33511   0.167   4.340   0.513
10876NA      NA33512   3.269   3.668   3.490
10877NA      NA33513   5.172   5.486   0.496
10878NA      NA33514   2.887   7.010   5.446
10879NA      NA33515   5.950   5.311   1.697
10880NA      NA33516   2.181   0.562   4.571
10881NA      NA33517   3.564   5.050   2.281
10882NA      NA33518   3.991   3.571   1.989
   7.02946   7.02946   7.02946
