Generated by trjconv : CNT in water t= 217.00000
33518
    1C        C    1   2.843   2.768   4.751
    1C        C    2   2.897   2.721   4.872
    1C        C    3   2.846   2.780   4.988
    1C        C    4   2.849   2.779   4.265
    1C        C    5   2.899   2.727   4.386
    1C        C    6   2.846   2.776   4.508
    1C        C    7   3.017   2.647   4.630
    1C        C    8   2.899   2.725   4.629
    1C        C    9   3.079   2.612   4.752
    1C        C   10   3.009   2.635   4.872
    1C        C   11   3.182   2.495   4.982
    1C        C   12   3.061   2.566   4.982
    1C        C   13   2.849   2.772   3.775
    1C        C   14   2.902   2.729   3.898
    1C        C   15   2.849   2.774   4.021
    1C        C   16   3.021   2.651   4.142
    1C        C   17   2.905   2.732   4.144
    1C        C   18   3.085   2.621   4.264
    1C        C   19   3.020   2.654   4.385
    1C        C   20   3.212   2.565   4.510
    1C        C   21   3.080   2.616   4.507
    1C        C   22   3.284   2.550   4.630
    1C        C   23   3.212   2.561   4.751
    1C        C   24   3.413   2.491   4.867
    1C        C   25   3.271   2.509   4.870
    1C        C   26   3.489   2.481   4.984
    1C        C   27   2.849   2.769   3.286
    1C        C   28   2.905   2.728   3.408
    1C        C   29   2.850   2.771   3.531
    1C        C   30   3.021   2.647   3.653
    1C        C   31   2.902   2.723   3.654
    1C        C   32   3.084   2.617   3.776
    1C        C   33   3.021   2.653   3.897
    1C        C   34   3.211   2.558   4.019
    1C        C   35   3.081   2.616   4.020
    1C        C   36   3.279   2.539   4.141
    1C        C   37   3.215   2.566   4.264
    1C        C   38   3.419   2.518   4.386
    1C        C   39   3.280   2.545   4.388
    1C        C   40   3.493   2.512   4.506
    1C        C   41   3.422   2.521   4.628
    1C        C   42   3.633   2.485   4.749
    1C        C   43   3.491   2.493   4.748
    1C        C   44   3.707   2.493   4.869
    1C        C   45   3.628   2.476   4.984
    1C        C   46   2.837   2.756   2.797
    1C        C   47   2.895   2.715   2.919
    1C        C   48   2.839   2.761   3.040
    1C        C   49   3.019   2.647   3.164
    1C        C   50   2.900   2.723   3.162
    1C        C   51   3.083   2.613   3.285
    1C        C   52   3.022   2.649   3.408
    1C        C   53   3.213   2.557   3.531
    1C        C   54   3.083   2.612   3.531
    1C        C   55   3.279   2.540   3.654
    1C        C   56   3.213   2.560   3.778
    1C        C   57   3.423   2.519   3.899
    1C        C   58   3.284   2.544   3.899
    1C        C   59   3.492   2.511   4.022
    1C        C   60   3.419   2.518   4.143
    1C        C   61   3.632   2.509   4.265
    1C        C   62   3.490   2.511   4.264
    1C        C   63   3.706   2.513   4.384
    1C        C   64   3.634   2.506   4.505
    1C        C   65   3.838   2.547   4.626
    1C        C   66   3.704   2.504   4.628
    1C        C   67   3.909   2.564   4.747
    1C        C   68   3.843   2.529   4.867
    1C        C   69   4.052   2.595   4.979
    1C        C   70   3.927   2.533   4.979
    1C        C   71   2.831   2.743   2.314
    1C        C   72   2.890   2.701   2.435
    1C        C   73   2.833   2.754   2.553
    1C        C   74   3.007   2.630   2.676
    1C        C   75   2.890   2.709   2.674
    1C        C   76   3.074   2.603   2.798
    1C        C   77   3.014   2.639   2.921
    1C        C   78   3.210   2.555   3.042
    1C        C   79   3.080   2.610   3.042
    1C        C   80   3.278   2.533   3.164
    1C        C   81   3.212   2.555   3.287
    1C        C   82   3.418   2.508   3.408
    1C        C   83   3.278   2.530   3.409
    1C        C   84   3.488   2.503   3.531
    1C        C   85   3.418   2.517   3.653
    1C        C   86   3.630   2.506   3.774
    1C        C   87   3.489   2.507   3.775
    1C        C   88   3.700   2.519   3.896
    1C        C   89   3.633   2.518   4.020
    1C        C   90   3.840   2.553   4.138
    1C        C   91   3.703   2.518   4.143
    1C        C   92   3.908   2.574   4.260
    1C        C   93   3.843   2.550   4.383
    1C        C   94   4.034   2.636   4.502
    1C        C   95   3.909   2.571   4.506
    1C        C   96   4.095   2.672   4.624
    1C        C   97   4.038   2.624   4.744
    1C        C   98   4.199   2.768   4.867
    1C        C   99   4.104   2.661   4.864
    1C        C  100   4.219   2.845   4.982
    1C        C  101   2.828   2.735   2.076
    1C        C  102   2.996   2.597   2.196
    1C        C  103   2.884   2.685   2.194
    1C        C  104   3.071   2.581   2.316
    1C        C  105   3.008   2.623   2.435
    1C        C  106   3.205   2.542   2.556
    1C        C  107   3.074   2.595   2.557
    1C        C  108   3.273   2.520   2.678
    1C        C  109   3.204   2.547   2.798
    1C        C  110   3.414   2.511   2.920
    1C        C  111   3.274   2.529   2.919
    1C        C  112   3.487   2.509   3.041
    1C        C  113   3.418   2.509   3.164
    1C        C  114   3.630   2.507   3.283
    1C        C  115   3.489   2.499   3.286
    1C        C  116   3.697   2.519   3.406
    1C        C  117   3.629   2.505   3.529
    1C        C  118   3.836   2.550   3.649
    1C        C  119   3.699   2.513   3.651
    1C        C  120   3.900   2.579   3.772
    1C        C  121   3.838   2.553   3.895
    1C        C  122   4.032   2.643   4.018
    1C        C  123   3.908   2.574   4.016
    1C        C  124   4.095   2.677   4.140
    1C        C  125   4.034   2.638   4.261
    1C        C  126   4.207   2.764   4.379
    1C        C  127   4.098   2.674   4.382
    1C        C  128   4.251   2.818   4.502
    1C        C  129   4.200   2.767   4.623
    1C        C  130   4.330   2.938   4.745
    1C        C  131   4.246   2.823   4.744
    1C        C  132   4.356   3.009   4.864
    1C        C  133   4.291   2.964   4.979
    1C        C  134   3.177   2.473   2.089
    1C        C  135   3.043   2.512   2.091
    1C        C  136   3.266   2.483   2.197
    1C        C  137   3.203   2.528   2.315
    1C        C  138   3.411   2.481   2.435
    1C        C  139   3.273   2.513   2.436
    1C        C  140   3.484   2.484   2.556
    1C        C  141   3.413   2.502   2.677
    1C        C  142   3.626   2.500   2.794
    1C        C  143   3.485   2.498   2.798
    1C        C  144   3.697   2.514   2.916
    1C        C  145   3.628   2.510   3.040
    1C        C  146   3.838   2.540   3.158
    1C        C  147   3.701   2.509   3.161
    1C        C  148   3.903   2.567   3.281
    1C        C  149   3.836   2.546   3.404
    1C        C  150   4.030   2.631   3.526
    1C        C  151   3.902   2.570   3.526
    1C        C  152   4.091   2.669   3.647
    1C        C  153   4.027   2.641   3.770
    1C        C  154   4.198   2.765   3.894
    1C        C  155   4.085   2.680   3.893
    1C        C  156   4.255   2.812   4.014
    1C        C  157   4.208   2.761   4.137
    1C        C  158   4.349   2.923   4.255
    1C        C  159   4.263   2.810   4.258
    1C        C  160   4.380   2.984   4.379
    1C        C  161   4.337   2.930   4.502
    1C        C  162   4.440   3.119   4.619
    1C        C  163   4.374   2.994   4.623
    1C        C  164   4.471   3.186   4.739
    1C        C  165   4.434   3.127   4.863
    1C        C  166   4.515   3.326   4.976
    1C        C  167   4.482   3.191   4.978
    1C        C  168   3.480   2.440   2.077
    1C        C  169   3.405   2.461   2.194
    1C        C  170   3.623   2.475   2.311
    1C        C  171   3.481   2.468   2.313
    1C        C  172   3.696   2.492   2.431
    1C        C  173   3.625   2.489   2.552
    1C        C  174   3.835   2.537   2.669
    1C        C  175   3.698   2.502   2.673
    1C        C  176   3.902   2.561   2.791
    1C        C  177   3.835   2.543   2.914
    1C        C  178   4.032   2.625   3.034
    1C        C  179   3.903   2.568   3.035
    1C        C  180   4.094   2.661   3.156
    1C        C  181   4.027   2.634   3.278
    1C        C  182   4.197   2.757   3.399
    1C        C  183   4.085   2.670   3.402
    1C        C  184   4.248   2.805   3.522
    1C        C  185   4.198   2.761   3.646
    1C        C  186   4.339   2.919   3.768
    1C        C  187   4.246   2.812   3.769
    1C        C  188   4.385   2.979   3.888
    1C        C  189   4.345   2.921   4.010
    1C        C  190   4.452   3.105   4.134
    1C        C  191   4.383   2.982   4.132
    1C        C  192   4.473   3.174   4.256
    1C        C  193   4.438   3.113   4.378
    1C        C  194   4.503   3.321   4.495
    1C        C  195   4.465   3.185   4.496
    1C        C  196   4.524   3.392   4.615
    1C        C  197   4.513   3.321   4.736
    1C        C  198   4.559   3.537   4.855
    1C        C  199   4.536   3.395   4.856
    1C        C  200   4.586   3.622   4.967
    1C        C  201   3.619   2.424   2.075
    1C        C  202   3.830   2.514   2.186
    1C        C  203   3.695   2.466   2.189
    1C        C  204   3.903   2.542   2.305
    1C        C  205   3.835   2.519   2.426
    1C        C  206   4.026   2.621   2.547
    1C        C  207   3.902   2.554   2.546
    1C        C  208   4.086   2.665   2.667
    1C        C  209   4.027   2.627   2.790
    1C        C  210   4.201   2.750   2.911
    1C        C  211   4.088   2.665   2.911
    1C        C  212   4.252   2.801   3.032
    1C        C  213   4.206   2.747   3.155
    1C        C  214   4.339   2.911   3.275
    1C        C  215   4.254   2.798   3.277
    1C        C  216   4.374   2.972   3.397
    1C        C  217   4.335   2.917   3.521
    1C        C  218   4.436   3.102   3.641
    1C        C  219   4.375   2.974   3.644
    1C        C  220   4.462   3.170   3.762
    1C        C  221   4.443   3.107   3.887
    1C        C  222   4.498   3.310   4.009
    1C        C  223   4.470   3.172   4.010
    1C        C  224   4.515   3.383   4.129
    1C        C  225   4.509   3.311   4.251
    1C        C  226   4.521   3.527   4.371
    1C        C  227   4.518   3.386   4.370
    1C        C  228   4.523   3.602   4.490
    1C        C  229   4.531   3.533   4.614
    1C        C  230   4.507   3.746   4.730
    1C        C  231   4.540   3.607   4.734
    1C        C  232   4.503   3.825   4.847
    1C        C  233   4.550   3.758   4.960
    1C        C  234   4.026   2.610   2.064
    1C        C  235   3.903   2.546   2.070
    1C        C  236   4.091   2.648   2.182
    1C        C  237   4.029   2.608   2.302
    1C        C  238   4.201   2.737   2.423
    1C        C  239   4.089   2.650   2.423
    1C        C  240   4.257   2.789   2.542
    1C        C  241   4.201   2.747   2.665
    1C        C  242   4.339   2.907   2.786
    1C        C  243   4.252   2.797   2.787
    1C        C  244   4.383   2.964   2.908
    1C        C  245   4.341   2.911   3.032
    1C        C  246   4.443   3.097   3.151
    1C        C  247   4.380   2.971   3.153
    1C        C  248   4.459   3.163   3.275
    1C        C  249   4.433   3.100   3.399
    1C        C  250   4.497   3.305   3.518
    1C        C  251   4.460   3.169   3.520
    1C        C  252   4.506   3.376   3.640
    1C        C  253   4.498   3.307   3.763
    1C        C  254   4.517   3.518   3.883
    1C        C  255   4.509   3.377   3.885
    1C        C  256   4.517   3.592   4.003
    1C        C  257   4.520   3.524   4.127
    1C        C  258   4.495   3.737   4.245
    1C        C  259   4.516   3.597   4.248
    1C        C  260   4.481   3.809   4.365
    1C        C  261   4.500   3.741   4.488
    1C        C  262   4.431   3.944   4.607
    1C        C  263   4.484   3.813   4.608
    1C        C  264   4.407   4.016   4.726
    1C        C  265   4.448   3.955   4.847
    1C        C  266   4.325   4.133   4.963
    1C        C  267   4.399   4.015   4.963
    1C        C  268   4.262   2.784   2.062
    1C        C  269   4.204   2.733   2.180
    1C        C  270   4.349   2.890   2.301
    1C        C  271   4.256   2.783   2.302
    1C        C  272   4.391   2.951   2.421
    1C        C  273   4.349   2.895   2.544
    1C        C  274   4.449   3.087   2.661
    1C        C  275   4.384   2.962   2.664
    1C        C  276   4.475   3.153   2.784
    1C        C  277   4.450   3.089   2.907
    1C        C  278   4.504   3.296   3.026
    1C        C  279   4.474   3.158   3.028
    1C        C  280   4.507   3.367   3.149
    1C        C  281   4.492   3.301   3.273
    1C        C  282   4.520   3.512   3.395
    1C        C  283   4.512   3.371   3.394
    1C        C  284   4.516   3.586   3.516
    1C        C  285   4.518   3.517   3.639
    1C        C  286   4.489   3.728   3.756
    1C        C  287   4.514   3.589   3.761
    1C        C  288   4.476   3.799   3.877
    1C        C  289   4.490   3.731   4.000
    1C        C  290   4.431   3.937   4.119
    1C        C  291   4.475   3.803   4.121
    1C        C  292   4.400   4.004   4.240
    1C        C  293   4.427   3.939   4.362
    1C        C  294   4.330   4.129   4.482
    1C        C  295   4.399   4.005   4.484
    1C        C  296   4.293   4.193   4.602
    1C        C  297   4.331   4.136   4.725
    1C        C  298   4.204   4.315   4.843
    1C        C  299   4.287   4.199   4.845
    1C        C  300   4.172   4.403   4.950
    1C        C  301   4.355   2.887   2.063
    1C        C  302   4.471   3.071   2.177
    1C        C  303   4.398   2.949   2.181
    1C        C  304   4.483   3.145   2.298
    1C        C  305   4.453   3.078   2.419
    1C        C  306   4.511   3.287   2.538
    1C        C  307   4.479   3.149   2.538
    1C        C  308   4.515   3.360   2.659
    1C        C  309   4.507   3.291   2.782
    1C        C  310   4.524   3.505   2.904
    1C        C  311   4.516   3.363   2.903
    1C        C  312   4.520   3.576   3.026
    1C        C  313   4.517   3.508   3.149
    1C        C  314   4.480   3.717   3.269
    1C        C  315   4.510   3.579   3.271
    1C        C  316   4.472   3.791   3.389
    1C        C  317   4.493   3.725   3.512
    1C        C  318   4.433   3.931   3.631
    1C        C  319   4.476   3.796   3.633
    1C        C  320   4.399   3.996   3.751
    1C        C  321   4.427   3.931   3.874
    1C        C  322   4.325   4.117   3.994
    1C        C  323   4.399   3.997   3.996
    1C        C  324   4.281   4.175   4.115
    1C        C  325   4.325   4.124   4.239
    1C        C  326   4.186   4.286   4.358
    1C        C  327   4.285   4.185   4.360
    1C        C  328   4.137   4.338   4.480
    1C        C  329   4.198   4.298   4.601
    1C        C  330   4.029   4.436   4.721
    1C        C  331   4.144   4.353   4.719
    1C        C  332   3.973   4.495   4.836
    1C        C  333   4.055   4.481   4.949
    1C        C  334   4.545   3.271   2.063
    1C        C  335   4.540   3.131   2.067
    1C        C  336   4.534   3.352   2.176
    1C        C  337   4.514   3.284   2.298
    1C        C  338   4.523   3.500   2.415
    1C        C  339   4.522   3.359   2.417
    1C        C  340   4.520   3.571   2.537
    1C        C  341   4.526   3.501   2.660
    1C        C  342   4.490   3.712   2.778
    1C        C  343   4.517   3.573   2.781
    1C        C  344   4.473   3.782   2.899
    1C        C  345   4.490   3.714   3.021
    1C        C  346   4.431   3.917   3.143
    1C        C  347   4.467   3.781   3.144
    1C        C  348   4.397   3.986   3.262
    1C        C  349   4.424   3.924   3.386
    1C        C  350   4.323   4.110   3.507
    1C        C  351   4.401   3.992   3.508
    1C        C  352   4.279   4.171   3.626
    1C        C  353   4.321   4.114   3.748
    1C        C  354   4.180   4.270   3.869
    1C        C  355   4.281   4.171   3.871
    1C        C  356   4.122   4.315   3.990
    1C        C  357   4.178   4.272   4.112
    1C        C  358   4.014   4.404   4.235
    1C        C  359   4.131   4.326   4.234
    1C        C  360   3.956   4.448   4.357
    1C        C  361   4.023   4.421   4.478
    1C        C  362   3.831   4.515   4.598
    1C        C  363   3.962   4.462   4.599
    1C        C  364   3.766   4.552   4.717
    1C        C  365   3.842   4.547   4.836
    1C        C  366   3.631   4.601   4.956
    1C        C  367   3.768   4.578   4.950
    1C        C  368   4.512   3.567   2.056
    1C        C  369   4.521   3.493   2.175
    1C        C  370   4.507   3.711   2.292
    1C        C  371   4.524   3.571   2.293
    1C        C  372   4.486   3.781   2.412
    1C        C  373   4.499   3.711   2.534
    1C        C  374   4.426   3.912   2.655
    1C        C  375   4.479   3.781   2.655
    1C        C  376   4.400   3.981   2.775
    1C        C  377   4.428   3.916   2.897
    1C        C  378   4.322   4.098   3.016
    1C        C  379   4.400   3.980   3.020
    1C        C  380   4.275   4.154   3.136
    1C        C  381   4.319   4.104   3.261
    1C        C  382   4.181   4.263   3.379
    1C        C  383   4.277   4.160   3.383
    1C        C  384   4.126   4.313   3.499
    1C        C  385   4.181   4.273   3.623
    1C        C  386   4.010   4.394   3.745
    1C        C  387   4.130   4.318   3.747
    1C        C  388   3.947   4.429   3.866
    1C        C  389   4.005   4.394   3.990
    1C        C  390   3.823   4.498   4.112
    1C        C  391   3.951   4.437   4.113
    1C        C  392   3.754   4.518   4.233
    1C        C  393   3.825   4.500   4.354
    1C        C  394   3.622   4.555   4.480
    1C        C  395   3.760   4.529   4.476
    1C        C  396   3.548   4.568   4.600
    1C        C  397   3.625   4.568   4.719
    1C        C  398   3.415   4.559   4.842
    1C        C  399   3.555   4.578   4.841
    1C        C  400   3.345   4.514   4.955
    1C        C  401   4.505   3.706   2.054
    1C        C  402   4.454   3.919   2.168
    1C        C  403   4.489   3.782   2.171
    1C        C  404   4.412   3.979   2.288
    1C        C  405   4.435   3.913   2.411
    1C        C  406   4.329   4.099   2.530
    1C        C  407   4.401   3.977   2.532
    1C        C  408   4.282   4.156   2.650
    1C        C  409   4.322   4.098   2.773
    1C        C  410   4.178   4.254   2.894
    1C        C  411   4.281   4.157   2.894
    1C        C  412   4.125   4.304   3.015
    1C        C  413   4.181   4.260   3.137
    1C        C  414   4.003   4.380   3.257
    1C        C  415   4.125   4.309   3.257
    1C        C  416   3.943   4.419   3.378
    1C        C  417   4.006   4.387   3.501
    1C        C  418   3.814   4.477   3.622
    1C        C  419   3.945   4.423   3.623
    1C        C  420   3.750   4.507   3.744
    1C        C  421   3.818   4.488   3.867
    1C        C  422   3.615   4.540   3.991
    1C        C  423   3.753   4.513   3.990
    1C        C  424   3.545   4.541   4.114
    1C        C  425   3.615   4.542   4.236
    1C        C  426   3.407   4.555   4.361
    1C        C  427   3.548   4.559   4.360
    1C        C  428   3.332   4.555   4.480
    1C        C  429   3.407   4.561   4.600
    1C        C  430   3.200   4.523   4.726
    1C        C  431   3.339   4.551   4.723
    1C        C  432   3.127   4.502   4.847
    1C        C  433   3.207   4.504   4.962
    1C        C  434   4.383   4.129   2.053
    1C        C  435   4.446   4.004   2.057
    1C        C  436   4.306   4.166   2.167
    1C        C  437   4.336   4.099   2.288
    1C        C  438   4.186   4.256   2.404
    1C        C  439   4.284   4.154   2.408
    1C        C  440   4.130   4.302   2.526
    1C        C  441   4.185   4.259   2.649
    1C        C  442   4.009   4.377   2.769
    1C        C  443   4.129   4.303   2.771
    1C        C  444   3.944   4.414   2.889
    1C        C  445   4.005   4.379   3.012
    1C        C  446   3.818   4.479   3.133
    1C        C  447   3.944   4.416   3.133
    1C        C  448   3.747   4.497   3.255
    1C        C  449   3.813   4.476   3.378
    1C        C  450   3.609   4.530   3.500
    1C        C  451   3.748   4.502   3.500
    1C        C  452   3.542   4.545   3.624
    1C        C  453   3.613   4.540   3.746
    1C        C  454   3.403   4.549   3.869
    1C        C  455   3.544   4.547   3.869
    1C        C  456   3.334   4.542   3.992
    1C        C  457   3.403   4.543   4.115
    1C        C  458   3.199   4.506   4.239
    1C        C  459   3.336   4.540   4.239
    1C        C  460   3.129   4.493   4.361
    1C        C  461   3.195   4.520   4.483
    1C        C  462   3.003   4.436   4.607
    1C        C  463   3.131   4.496   4.606
    1C        C  464   2.938   4.401   4.728
    1C        C  465   2.994   4.450   4.849
    1C        C  466   2.805   4.343   4.963
    1C        C  467   2.907   4.439   4.962
    1C        C  468   4.127   4.294   2.048
    1C        C  469   4.195   4.257   2.165
    1C        C  470   4.011   4.378   2.282
    1C        C  471   4.133   4.306   2.284
    1C        C  472   3.948   4.410   2.405
    1C        C  473   4.008   4.372   2.527
    1C        C  474   3.815   4.466   2.645
    1C        C  475   3.946   4.411   2.647
    1C        C  476   3.749   4.494   2.766
    1C        C  477   3.817   4.475   2.889
    1C        C  478   3.611   4.521   3.013
    1C        C  479   3.751   4.501   3.011
    1C        C  480   3.538   4.533   3.134
    1C        C  481   3.609   4.526   3.256
    1C        C  482   3.398   4.541   3.382
    1C        C  483   3.539   4.538   3.378
    1C        C  484   3.329   4.533   3.505
    1C        C  485   3.401   4.545   3.626
    1C        C  486   3.192   4.511   3.750
    1C        C  487   3.330   4.543   3.748
    1C        C  488   3.126   4.492   3.874
    1C        C  489   3.196   4.513   3.995
    1C        C  490   3.005   4.421   4.120
    1C        C  491   3.130   4.488   4.117
    1C        C  492   2.947   4.383   4.243
    1C        C  493   3.003   4.428   4.364
    1C        C  494   2.833   4.303   4.486
    1C        C  495   2.943   4.392   4.487
    1C        C  496   2.780   4.258   4.609
    1C        C  497   2.823   4.317   4.730
    1C        C  498   2.669   4.167   4.850
    1C        C  499   2.758   4.277   4.849
    1C        C  500   2.603   4.116   4.963
    1C        C  501   4.005   4.361   2.045
    1C        C  502   3.819   4.473   2.156
    1C        C  503   3.944   4.408   2.162
    1C        C  504   3.752   4.492   2.279
    1C        C  505   3.818   4.464   2.401
    1C        C  506   3.610   4.508   2.525
    1C        C  507   3.750   4.489   2.522
    1C        C  508   3.539   4.520   2.646
    1C        C  509   3.610   4.518   2.769
    1C        C  510   3.399   4.530   2.888
    1C        C  511   3.540   4.526   2.891
    1C        C  512   3.328   4.525   3.011
    1C        C  513   3.397   4.537   3.133
    1C        C  514   3.193   4.499   3.261
    1C        C  515   3.330   4.533   3.258
    1C        C  516   3.125   4.473   3.382
    1C        C  517   3.192   4.498   3.503
    1C        C  518   3.003   4.417   3.630
    1C        C  519   3.127   4.485   3.628
    1C        C  520   2.944   4.382   3.753
    1C        C  521   3.003   4.423   3.875
    1C        C  522   2.840   4.289   3.998
    1C        C  523   2.949   4.379   3.997
    1C        C  524   2.791   4.242   4.122
    1C        C  525   2.839   4.292   4.245
    1C        C  526   2.697   4.135   4.367
    1C        C  527   2.782   4.248   4.367
    1C        C  528   2.658   4.080   4.491
    1C        C  529   2.694   4.146   4.611
    1C        C  530   2.586   3.964   4.737
    1C        C  531   2.643   4.094   4.732
    1C        C  532   2.544   3.901   4.857
    1C        C  533   2.531   3.996   4.963
    1C        C  534   3.618   4.559   2.040
    1C        C  535   3.751   4.516   2.042
    1C        C  536   3.541   4.538   2.158
    1C        C  537   3.612   4.518   2.280
    1C        C  538   3.400   4.518   2.404
    1C        C  539   3.541   4.522   2.402
    1C        C  540   3.324   4.510   2.523
    1C        C  541   3.397   4.517   2.644
    1C        C  542   3.189   4.490   2.770
    1C        C  543   3.327   4.518   2.766
    1C        C  544   3.124   4.470   2.894
    1C        C  545   3.191   4.494   3.016
    1C        C  546   3.002   4.404   3.138
    1C        C  547   3.125   4.474   3.139
    1C        C  548   2.943   4.367   3.260
    1C        C  549   2.997   4.413   3.383
    1C        C  550   2.836   4.285   3.509
    1C        C  551   2.941   4.379   3.508
    1C        C  552   2.789   4.234   3.632
    1C        C  553   2.840   4.286   3.753
    1C        C  554   2.706   4.125   3.881
    1C        C  555   2.790   4.238   3.876
    1C        C  556   2.671   4.064   4.003
    1C        C  557   2.706   4.129   4.124
    1C        C  558   2.603   3.945   4.250
    1C        C  559   2.660   4.074   4.246
    1C        C  560   2.578   3.882   4.374
    1C        C  561   2.599   3.952   4.495
    1C        C  562   2.536   3.752   4.617
    1C        C  563   2.570   3.889   4.618
    1C        C  564   2.521   3.683   4.738
    1C        C  565   2.525   3.759   4.858
    1C        C  566   2.529   3.547   4.980
    1C        C  567   2.527   3.686   4.978
    1C        C  568   3.332   4.474   2.045
    1C        C  569   3.400   4.518   2.160
    1C        C  570   3.190   4.479   2.282
    1C        C  571   3.329   4.510   2.283
    1C        C  572   3.120   4.463   2.403
    1C        C  573   3.185   4.484   2.527
    1C        C  574   2.993   4.401   2.653
    1C        C  575   3.118   4.466   2.650
    1C        C  576   2.932   4.368   2.776
    1C        C  577   2.997   4.408   2.894
    1C        C  578   2.830   4.278   3.017
    1C        C  579   2.941   4.366   3.016
    1C        C  580   2.783   4.228   3.141
    1C        C  581   2.835   4.276   3.263
    1C        C  582   2.697   4.121   3.390
    1C        C  583   2.788   4.229   3.388
    1C        C  584   2.665   4.060   3.513
    1C        C  585   2.708   4.118   3.635
    1C        C  586   2.608   3.935   3.759
    1C        C  587   2.671   4.062   3.759
    1C        C  588   2.582   3.871   3.882
    1C        C  589   2.608   3.938   4.004
    1C        C  590   2.547   3.740   4.131
    1C        C  591   2.578   3.878   4.128
    1C        C  592   2.537   3.673   4.254
    1C        C  593   2.545   3.744   4.376
    1C        C  594   2.517   3.536   4.501
    1C        C  595   2.522   3.677   4.498
    1C        C  596   2.521   3.465   4.623
    1C        C  597   2.517   3.540   4.743
    1C        C  598   2.531   3.328   4.865
    1C        C  599   2.527   3.469   4.864
    1C        C  600   2.537   3.252   4.983
    1C        C  601   3.197   4.445   2.043
    1C        C  602   2.989   4.392   2.161
    1C        C  603   3.123   4.444   2.162
    1C        C  604   2.933   4.358   2.287
    1C        C  605   2.992   4.403   2.407
    1C        C  606   2.824   4.277   2.532
    1C        C  607   2.930   4.370   2.530
    1C        C  608   2.772   4.226   2.653
    1C        C  609   2.826   4.274   2.774
    1C        C  610   2.695   4.111   2.899
    1C        C  611   2.778   4.225   2.897
    1C        C  612   2.658   4.056   3.024
    1C        C  613   2.694   4.118   3.146
    1C        C  614   2.600   3.931   3.271
    1C        C  615   2.656   4.060   3.269
    1C        C  616   2.579   3.863   3.394
    1C        C  617   2.607   3.931   3.514
    1C        C  618   2.543   3.731   3.640
    1C        C  619   2.584   3.866   3.638
    1C        C  620   2.529   3.664   3.764
    1C        C  621   2.543   3.736   3.885
    1C        C  622   2.520   3.529   4.012
    1C        C  623   2.534   3.669   4.009
    1C        C  624   2.522   3.458   4.135
    1C        C  625   2.523   3.532   4.255
    1C        C  626   2.542   3.325   4.383
    1C        C  627   2.519   3.464   4.379
    1C        C  628   2.558   3.256   4.505
    1C        C  629   2.537   3.325   4.627
    1C        C  630   2.594   3.118   4.746
    1C        C  631   2.543   3.251   4.747
    1C        C  632   2.619   3.053   4.869
    1C        C  633   2.565   3.115   4.986
    1C        C  634   2.788   4.311   2.061
    1C        C  635   2.898   4.397   2.052
    1C        C  636   2.752   4.235   2.173
    1C        C  637   2.816   4.276   2.292
    1C        C  638   2.682   4.112   2.415
    1C        C  639   2.769   4.224   2.414
    1C        C  640   2.645   4.053   2.538
    1C        C  641   2.686   4.114   2.659
    1C        C  642   2.593   3.921   2.782
    1C        C  643   2.651   4.050   2.780
    1C        C  644   2.570   3.859   2.907
    1C        C  645   2.596   3.929   3.027
    1C        C  646   2.537   3.728   3.154
    1C        C  647   2.571   3.865   3.150
    1C        C  648   2.520   3.658   3.275
    1C        C  649   2.539   3.728   3.397
    1C        C  650   2.515   3.518   3.523
    1C        C  651   2.528   3.659   3.520
    1C        C  652   2.519   3.451   3.647
    1C        C  653   2.520   3.523   3.768
    1C        C  654   2.529   3.314   3.894
    1C        C  655   2.515   3.455   3.892
    1C        C  656   2.549   3.247   4.016
    1C        C  657   2.537   3.318   4.138
    1C        C  658   2.600   3.119   4.261
    1C        C  659   2.556   3.253   4.262
    1C        C  660   2.627   3.055   4.384
    1C        C  661   2.601   3.122   4.505
    1C        C  662   2.714   2.939   4.629
    1C        C  663   2.634   3.055   4.626
    1C        C  664   2.748   2.874   4.750
    1C        C  665   2.693   2.931   4.869
    1C        C  666   2.742   2.872   4.986
    1C        C  667   2.688   4.028   2.059
    1C        C  668   2.685   4.110   2.173
    1C        C  669   2.597   3.916   2.295
    1C        C  670   2.643   4.051   2.294
    1C        C  671   2.567   3.851   2.417
    1C        C  672   2.590   3.923   2.536
    1C        C  673   2.524   3.723   2.662
    1C        C  674   2.563   3.859   2.659
    1C        C  675   2.519   3.652   2.785
    1C        C  676   2.536   3.722   2.907
    1C        C  677   2.512   3.516   3.034
    1C        C  678   2.527   3.657   3.032
    1C        C  679   2.510   3.445   3.156
    1C        C  680   2.510   3.517   3.277
    1C        C  681   2.534   3.307   3.405
    1C        C  682   2.515   3.447   3.400
    1C        C  683   2.556   3.241   3.528
    1C        C  684   2.540   3.311   3.649
    1C        C  685   2.599   3.112   3.773
    1C        C  686   2.544   3.243   3.773
    1C        C  687   2.630   3.049   3.895
    1C        C  688   2.600   3.115   4.016
    1C        C  689   2.709   2.936   4.140
    1C        C  690   2.629   3.052   4.140
    1C        C  691   2.755   2.884   4.263
    1C        C  692   2.709   2.940   4.385
    1C        C  693   2.754   2.883   4.506
    1C        C  694   2.634   3.899   2.061
    1C        C  695   2.527   3.710   2.179
    1C        C  696   2.582   3.840   2.177
    1C        C  697   2.512   3.643   2.302
    1C        C  698   2.527   3.715   2.422
    1C        C  699   2.502   3.506   2.545
    1C        C  700   2.508   3.647   2.544
    1C        C  701   2.509   3.438   2.669
    1C        C  702   2.505   3.512   2.789
    1C        C  703   2.522   3.303   2.913
    1C        C  704   2.506   3.444   2.913
    1C        C  705   2.541   3.237   3.036
    1C        C  706   2.527   3.305   3.159
    1C        C  707   2.592   3.104   3.282
    1C        C  708   2.544   3.237   3.282
    1C        C  709   2.627   3.044   3.405
    1C        C  710   2.601   3.108   3.529
    1C        C  711   2.708   2.928   3.651
    1C        C  712   2.633   3.047   3.652
    1C        C  713   2.751   2.874   3.775
    1C        C  714   2.709   2.932   3.896
    1C        C  715   2.755   2.879   4.019
    1C        C  716   2.457   3.503   2.064
    1C        C  717   2.495   3.638   2.063
    1C        C  718   2.472   3.427   2.185
    1C        C  719   2.490   3.502   2.304
    1C        C  720   2.516   3.291   2.427
    1C        C  721   2.492   3.430   2.426
    1C        C  722   2.536   3.224   2.550
    1C        C  723   2.525   3.298   2.670
    1C        C  724   2.589   3.099   2.794
    1C        C  725   2.537   3.230   2.793
    1C        C  726   2.622   3.039   2.918
    1C        C  727   2.592   3.105   3.039
    1C        C  728   2.710   2.927   3.162
    1C        C  729   2.625   3.040   3.160
    1C        C  730   2.749   2.870   3.285
    1C        C  731   2.708   2.928   3.406
    1C        C  732   2.757   2.876   3.528
    1C        C  733   2.494   3.202   2.076
    1C        C  734   2.488   3.285   2.188
    1C        C  735   2.580   3.086   2.309
    1C        C  736   2.527   3.217   2.307
    1C        C  737   2.606   3.020   2.431
    1C        C  738   2.572   3.087   2.551
    1C        C  739   2.692   2.912   2.675
    1C        C  740   2.620   3.033   2.672
    1C        C  741   2.740   2.859   2.797
    1C        C  742   2.701   2.922   2.917
    1C        C  743   2.748   2.869   3.039
    1C        C  744   2.555   3.077   2.074
    1C        C  745   2.685   2.899   2.188
    1C        C  746   2.611   3.019   2.188
    1C        C  747   2.733   2.846   2.310
    1C        C  748   2.683   2.902   2.429
    1C        C  749   2.732   2.853   2.553
    1C        C  750   2.741   2.844   2.072
    1C        C  751   3.660   2.313   1.987
    1C        O  752   3.698   2.197   2.021
    1C        O  753   3.672   2.330   1.848
    1C        C  754   4.651   3.063   1.995
    1C        O  755   4.625   3.004   1.887
    1C        O  756   4.773   3.022   2.048
    1C        C  757   4.448   4.237   1.974
    1C        O  758   4.570   4.263   1.989
    1C        O  759   4.410   4.262   1.842
    1C        C  760   3.597   4.663   1.937
    1C        O  761   3.654   4.775   1.954
    1C        O  762   3.571   4.627   1.804
    1C        C  763   2.886   4.511   1.958
    1C        O  764   2.915   4.501   1.836
    1C        O  765   2.796   4.614   1.989
    1C        C  766   2.354   3.473   1.962
    1C        O  767   2.386   3.446   1.843
    1C        O  768   2.220   3.453   1.994
    1C        C  769   4.709   3.595   5.044
    1C        O  770   4.710   3.627   5.166
    1C        O  771   4.837   3.579   4.988
    1C        C  772   4.275   4.431   5.053
    1C        O  773   4.241   4.415   5.173
    1C        O  774   4.401   4.490   5.039
    1C        C  775   4.144   2.558   5.090
    1C        O  776   4.209   2.451   5.072
    1C        O  777   4.099   2.543   5.221
    1C        C  778   2.876   4.548   5.056
    1C        O  779   2.822   4.653   5.010
    1C        O  780   2.937   4.558   5.182
    1C        C  781   2.463   3.038   5.061
    1C        O  782   2.342   3.044   5.026
    1C        O  783   2.490   2.948   5.163
    1C        C  784   2.414   3.991   5.053
    1C        O  785   2.308   4.059   5.046
    1C        O  786   2.430   3.944   5.184
    1C        C  787   2.950   2.432   2.007
    1C        O  788   2.934   2.474   1.889
    1C        O  789   2.878   2.317   2.036
    1C        C  790   3.187   2.381   5.076
    1C        O  791   3.175   2.259   5.046
    1C        O  792   3.176   2.383   5.216
    1C        H  793   4.276   3.031   5.061
    1C        H  794   4.213   2.801   5.080
    1C        H  795   4.542   3.127   5.039
    1C        H  796   4.493   3.385   5.062
    1C        H  797   4.561   3.813   5.051
    1C        H  798   4.417   3.968   5.058
    1C        H  799   4.269   4.158   5.050
    1C        H  800   4.041   4.555   5.025
    1C        H  801   3.819   4.596   5.043
    1C        H  802   3.584   4.654   5.036
    1C        H  803   3.397   4.437   5.008
    1C        H  804   3.168   4.455   5.049
    1C        H  805   3.909   2.463   5.058
    1C        H  806   3.670   2.417   5.063
    1C        H  807   3.009   2.580   5.074
    1C        H  808   3.445   2.501   5.079
    1C        H  809   2.888   2.767   5.086
    1C        H  810   2.685   2.887   5.076
    1C        H  811   2.521   3.301   5.077
    1C        H  812   2.582   3.510   5.066
    1C        H  813   2.500   3.737   5.068
    1C        H  814   2.566   4.197   5.023
    1C        H  815   2.739   4.349   5.047
    1C        H  816   2.741   2.901   1.982
    1C        H  817   2.861   2.701   1.980
    1C        H  818   3.216   2.432   1.998
    1C        H  819   3.445   2.505   1.999
    1C        H  820   3.882   2.483   1.986
    1C        H  821   4.087   2.595   1.978
    1C        H  822   4.239   2.745   1.965
    1C        H  823   4.421   2.897   1.979
    1C        H  824   4.550   3.319   1.967
    1C        H  825   4.485   3.521   1.963
    1C        H  826   4.532   3.757   1.964
    1C        H  827   3.808   4.525   1.951
    1C        H  828   3.963   4.380   1.948
    1C        H  829   4.169   4.270   1.953
    1C        H  830   4.441   3.953   1.963
    1C        H  831   2.591   3.868   1.968
    1C        H  832   2.782   4.037   2.010
    1C        H  833   2.718   4.310   1.980
    1C        H  834   3.382   4.431   1.961
    1C        H  835   3.163   4.375   1.970
    1C        H  836   2.589   3.042   1.978
    1C        H  837   2.417   3.205   2.002
    1C        H  838   2.485   3.694   1.972
    2V3OU   H29  839   2.797   3.554   2.013
    2V3OU   C27  840   2.786   3.510   2.115
    2V3OU   H27  841   2.728   3.574   2.186
    2V3OU   H28  842   2.735   3.412   2.101
    2V3OU   O11  843   2.911   3.482   2.179
    2V3OU   C15  844   2.926   3.402   2.290
    2V3OU   C13  845   3.055   3.383   2.345
    2V3OU   C14  846   3.081   3.276   2.432
    2V3OU   C16  847   2.979   3.193   2.475
    2V3OU    H6  848   2.993   3.109   2.545
    2V3OU   C12  849   3.217   3.232   2.471
    2V3OU    O2  850   3.236   3.130   2.541
    2V3OU   C10  851   3.330   3.319   2.435
    2V3OU    C8  852   3.459   3.278   2.464
    2V3OU   O10  853   3.490   3.156   2.515
    2V3OU   H26  854   3.403   3.121   2.541
    2V3OU    C6  855   3.573   3.359   2.431
    2V3OU    C5  856   3.543   3.473   2.358
    2V3OU    C4  857   3.710   3.300   2.432
    2V3OU    H4  858   3.733   3.231   2.518
    2V3OU    H5  859   3.712   3.233   2.341
    2V3OU    C2  860   3.821   3.405   2.428
    2V3OU    O6  861   3.810   3.483   2.547
    2V3OU   H21  862   3.773   3.565   2.510
    2V3OU    C3  863   3.786   3.502   2.314
    2V3OU    H2  864   3.865   3.579   2.294
    2V3OU    H3  865   3.786   3.444   2.219
    2V3OU   C25  866   3.955   3.332   2.415
    2V3OU    O7  867   4.001   3.301   2.305
    2V3OU   C26  868   4.036   3.294   2.537
    2V3OU   H22  869   4.070   3.386   2.592
    2V3OU   H23  870   4.126   3.234   2.508
    2V3OU    O8  871   3.963   3.219   2.632
    2V3OU   H24  872   3.922   3.276   2.699
    2V3OU    C1  873   3.652   3.573   2.330
    2V3OU    H1  874   3.630   3.624   2.232
    2V3OU    O3  875   3.663   3.662   2.442
    2V3OU   C19  876   3.623   3.798   2.425
    2V3OU    H9  877   3.528   3.807   2.365
    2V3OU    O4  878   3.718   3.851   2.335
    2V3OU   C20  879   3.848   3.876   2.389
    2V3OU   H10  880   3.898   3.775   2.398
    2V3OU   C24  881   3.611   3.856   2.566
    2V3OU   H16  882   3.540   3.795   2.628
    2V3OU   H17  883   3.566   3.958   2.554
    2V3OU   C23  884   3.752   3.879   2.619
    2V3OU   H15  885   3.790   3.773   2.642
    2V3OU    N1  886   3.741   3.950   2.745
    2V3OU   H19  887   3.815   3.925   2.808
    2V3OU   H20  888   3.659   3.932   2.799
    2V3OU   C21  889   3.855   3.948   2.524
    2V3OU   H11  890   3.956   3.926   2.570
    2V3OU    O5  891   3.831   4.087   2.534
    2V3OU   H18  892   3.783   4.101   2.617
    2V3OU   C22  893   3.919   3.953   2.278
    2V3OU   H12  894   3.872   4.053   2.264
    2V3OU   H13  895   3.911   3.893   2.183
    2V3OU   H14  896   4.029   3.954   2.300
    2V3OU   C11  897   3.163   3.479   2.321
    2V3OU    O1  898   3.146   3.587   2.261
    2V3OU    C9  899   3.299   3.436   2.361
    2V3OU    C7  900   3.410   3.507   2.317
    2V3OU    O9  901   3.394   3.621   2.241
    2V3OU   H25  902   3.299   3.634   2.227
    2V3OU   C17  903   2.826   3.314   2.337
    2V3OU    H7  904   2.726   3.350   2.316
    2V3OU   C18  905   2.848   3.213   2.431
    2V3OU    H8  906   2.776   3.166   2.499
    3SOL     OW  907   2.929   4.942   0.770
    3SOL    HW1  908   2.936   5.025   0.826
    3SOL    HW2  909   3.016   4.927   0.722
    4SOL     OW  910   6.535   6.253   1.619
    4SOL    HW1  911   6.569   6.347   1.626
    4SOL    HW2  912   6.477   6.245   1.538
    5SOL     OW  913   4.723   1.548   2.740
    5SOL    HW1  914   4.662   1.515   2.812
    5SOL    HW2  915   4.796   1.482   2.724
    6SOL     OW  916   4.343   0.919   0.926
    6SOL    HW1  917   4.245   0.903   0.939
    6SOL    HW2  918   4.387   0.834   0.896
    7SOL     OW  919   6.858   3.675   2.158
    7SOL    HW1  920   6.937   3.626   2.121
    7SOL    HW2  921   6.830   3.632   2.244
    8SOL     OW  922   2.786   0.480   6.847
    8SOL    HW1  923   2.801   0.571   6.885
    8SOL    HW2  924   2.747   0.420   6.917
    9SOL     OW  925   6.355   6.751   6.328
    9SOL    HW1  926   6.278   6.814   6.338
    9SOL    HW2  927   6.361   6.692   6.408
   10SOL     OW  928   1.764   5.188   6.575
   10SOL    HW1  929   1.773   5.197   6.476
   10SOL    HW2  930   1.677   5.144   6.597
   11SOL     OW  931   2.511   0.469   6.176
   11SOL    HW1  932   2.554   0.392   6.129
   11SOL    HW2  933   2.539   0.555   6.132
   12SOL     OW  934   4.044   6.606   3.532
   12SOL    HW1  935   4.106   6.581   3.606
   12SOL    HW2  936   4.091   6.670   3.470
   13SOL     OW  937   3.919   5.617   3.856
   13SOL    HW1  938   3.877   5.708   3.859
   13SOL    HW2  939   3.925   5.580   3.948
   14SOL     OW  940   3.860   5.632   5.945
   14SOL    HW1  941   3.821   5.716   5.907
   14SOL    HW2  942   3.841   5.556   5.883
   15SOL     OW  943   1.541   6.493   1.495
   15SOL    HW1  944   1.612   6.424   1.507
   15SOL    HW2  945   1.487   6.500   1.579
   16SOL     OW  946   5.199   2.989   5.625
   16SOL    HW1  947   5.134   2.915   5.640
   16SOL    HW2  948   5.157   3.077   5.647
   17SOL     OW  949   5.407   5.889   5.829
   17SOL    HW1  950   5.419   5.801   5.875
   17SOL    HW2  951   5.457   5.959   5.880
   18SOL     OW  952   3.393   0.561   5.873
   18SOL    HW1  953   3.429   0.474   5.840
   18SOL    HW2  954   3.465   0.630   5.871
   19SOL     OW  955   0.745   0.212   3.461
   19SOL    HW1  956   0.772   0.164   3.378
   19SOL    HW2  957   0.653   0.185   3.486
   20SOL     OW  958   5.455   2.614   4.890
   20SOL    HW1  959   5.427   2.589   4.983
   20SOL    HW2  960   5.555   2.614   4.885
   21SOL     OW  961   3.832   2.133   2.689
   21SOL    HW1  962   3.790   2.146   2.600
   21SOL    HW2  963   3.922   2.091   2.678
   22SOL     OW  964   2.102   5.927   0.593
   22SOL    HW1  965   2.116   5.983   0.511
   22SOL    HW2  966   2.190   5.892   0.624
   23SOL     OW  967   5.351   6.212   3.069
   23SOL    HW1  968   5.354   6.230   2.971
   23SOL    HW2  969   5.443   6.218   3.107
   24SOL     OW  970   4.765   1.426   3.004
   24SOL    HW1  971   4.840   1.439   2.940
   24SOL    HW2  972   4.790   1.358   3.073
   25SOL     OW  973   3.088   7.014   5.076
   25SOL    HW1  974   3.129   0.065   5.116
   25SOL    HW2  975   3.080   7.024   4.977
   26SOL     OW  976   6.626   0.830   0.169
   26SOL    HW1  977   6.595   0.810   0.076
   26SOL    HW2  978   6.634   0.929   0.181
   27SOL     OW  979   1.216   2.081   2.350
   27SOL    HW1  980   1.271   1.999   2.335
   27SOL    HW2  981   1.153   2.065   2.426
   28SOL     OW  982   3.122   2.128   5.904
   28SOL    HW1  983   3.168   2.123   5.815
   28SOL    HW2  984   3.067   2.046   5.917
   29SOL     OW  985   4.669   2.187   2.055
   29SOL    HW1  986   4.634   2.244   2.130
   29SOL    HW2  987   4.650   2.231   1.968
   30SOL     OW  988   3.381   1.237   4.527
   30SOL    HW1  989   3.431   1.321   4.505
   30SOL    HW2  990   3.415   1.199   4.613
   31SOL     OW  991   1.201   2.728   6.405
   31SOL    HW1  992   1.292   2.762   6.385
   31SOL    HW2  993   1.147   2.799   6.450
   32SOL     OW  994   0.290   1.577   2.899
   32SOL    HW1  995   0.229   1.654   2.881
   32SOL    HW2  996   0.286   1.513   2.823
   33SOL     OW  997   2.231   4.233   6.720
   33SOL    HW1  998   2.211   4.244   6.818
   33SOL    HW2  999   2.152   4.193   6.674
   34SOL     OW 1000   2.515   0.840   4.561
   34SOL    HW1 1001   2.494   0.873   4.469
   34SOL    HW2 1002   2.444   0.871   4.624
   35SOL     OW 1003   3.077   3.640   6.902
   35SOL    HW1 1004   3.126   3.568   6.952
   35SOL    HW2 1005   3.137   3.678   6.831
   36SOL     OW 1006   6.289   0.959   4.917
   36SOL    HW1 1007   6.222   1.021   4.958
   36SOL    HW2 1008   6.347   1.010   4.853
   37SOL     OW 1009   1.034   1.306   0.536
   37SOL    HW1 1010   1.123   1.268   0.510
   37SOL    HW2 1011   0.961   1.252   0.493
   38SOL     OW 1012   6.911   4.501   2.793
   38SOL    HW1 1013   6.943   4.475   2.702
   38SOL    HW2 1014   6.988   4.533   2.848
   39SOL     OW 1015   0.092   4.950   6.770
   39SOL    HW1 1016   0.005   4.927   6.813
   39SOL    HW2 1017   0.075   4.992   6.681
   40SOL     OW 1018   5.232   1.803   0.862
   40SOL    HW1 1019   5.208   1.779   0.768
   40SOL    HW2 1020   5.158   1.778   0.924
   41SOL     OW 1021   6.945   5.980   3.686
   41SOL    HW1 1022   6.868   5.944   3.739
   41SOL    HW2 1023   6.946   5.938   3.596
   42SOL     OW 1024   2.757   5.271   5.265
   42SOL    HW1 1025   2.720   5.362   5.284
   42SOL    HW2 1026   2.713   5.233   5.183
   43SOL     OW 1027   6.051   6.142   5.392
   43SOL    HW1 1028   5.957   6.173   5.403
   43SOL    HW2 1029   6.052   6.042   5.380
   44SOL     OW 1030   5.117   1.657   6.462
   44SOL    HW1 1031   5.163   1.572   6.437
   44SOL    HW2 1032   5.029   1.636   6.505
   45SOL     OW 1033   4.438   6.394   3.115
   45SOL    HW1 1034   4.345   6.417   3.145
   45SOL    HW2 1035   4.492   6.477   3.107
   46SOL     OW 1036   0.819   2.972   3.000
   46SOL    HW1 1037   0.837   2.945   3.095
   46SOL    HW2 1038   0.736   2.927   2.968
   47SOL     OW 1039   4.973   4.341   0.718
   47SOL    HW1 1040   4.986   4.435   0.751
   47SOL    HW2 1041   5.047   4.318   0.655
   48SOL     OW 1042   0.068   2.627   5.351
   48SOL    HW1 1043   0.166   2.638   5.338
   48SOL    HW2 1044   0.046   2.639   5.448
   49SOL     OW 1045   5.440   3.924   1.691
   49SOL    HW1 1046   5.474   3.863   1.763
   49SOL    HW2 1047   5.494   4.008   1.689
   50SOL     OW 1048   5.768   1.212   4.711
   50SOL    HW1 1049   5.697   1.256   4.656
   50SOL    HW2 1050   5.798   1.128   4.665
   51SOL     OW 1051   2.971   6.595   3.383
   51SOL    HW1 1052   2.969   6.693   3.400
   51SOL    HW2 1053   2.895   6.570   3.324
   52SOL     OW 1054   5.624   2.204   3.164
   52SOL    HW1 1055   5.600   2.286   3.216
   52SOL    HW2 1056   5.637   2.228   3.068
   53SOL     OW 1057   3.608   6.685   4.710
   53SOL    HW1 1058   3.687   6.746   4.698
   53SOL    HW2 1059   3.614   6.609   4.646
   54SOL     OW 1060   3.428   5.447   1.027
   54SOL    HW1 1061   3.427   5.462   1.126
   54SOL    HW2 1062   3.409   5.351   1.008
   55SOL     OW 1063   2.649   2.318   6.752
   55SOL    HW1 1064   2.643   2.314   6.653
   55SOL    HW2 1065   2.744   2.317   6.781
   56SOL     OW 1066   7.016   6.993   1.158
   56SOL    HW1 1067   0.013   0.059   1.155
   56SOL    HW2 1068   0.012   6.953   1.246
   57SOL     OW 1069   5.037   1.296   0.897
   57SOL    HW1 1070   5.019   1.263   0.804
   57SOL    HW2 1071   5.134   1.282   0.919
   58SOL     OW 1072   6.479   6.535   5.546
   58SOL    HW1 1073   6.385   6.528   5.511
   58SOL    HW2 1074   6.535   6.462   5.506
   59SOL     OW 1075   1.105   1.842   5.295
   59SOL    HW1 1076   1.062   1.924   5.333
   59SOL    HW2 1077   1.172   1.806   5.359
   60SOL     OW 1078   5.307   2.235   5.898
   60SOL    HW1 1079   5.363   2.296   5.954
   60SOL    HW2 1080   5.345   2.143   5.899
   61SOL     OW 1081   5.462   2.479   5.139
   61SOL    HW1 1082   5.394   2.437   5.199
   61SOL    HW2 1083   5.538   2.415   5.124
   62SOL     OW 1084   0.632   1.101   1.766
   62SOL    HW1 1085   0.695   1.174   1.738
   62SOL    HW2 1086   0.654   1.018   1.715
   63SOL     OW 1087   5.022   1.494   3.308
   63SOL    HW1 1088   5.030   1.409   3.359
   63SOL    HW2 1089   5.104   1.507   3.251
   64SOL     OW 1090   0.082   3.632   5.444
   64SOL    HW1 1091   0.145   3.580   5.388
   64SOL    HW2 1092   0.123   3.649   5.534
   65SOL     OW 1093   0.412   5.153   6.561
   65SOL    HW1 1094   0.439   5.057   6.550
   65SOL    HW2 1095   0.438   5.185   6.652
   66SOL     OW 1096   3.803   0.862   5.661
   66SOL    HW1 1097   3.865   0.880   5.737
   66SOL    HW2 1098   3.777   0.948   5.618
   67SOL     OW 1099   5.226   4.288   5.903
   67SOL    HW1 1100   5.171   4.350   5.958
   67SOL    HW2 1101   5.318   4.283   5.941
   68SOL     OW 1102   5.733   1.239   6.392
   68SOL    HW1 1103   5.741   1.169   6.463
   68SOL    HW2 1104   5.823   1.278   6.374
   69SOL     OW 1105   0.593   3.436   5.682
   69SOL    HW1 1106   0.615   3.518   5.735
   69SOL    HW2 1107   0.598   3.457   5.584
   70SOL     OW 1108   5.500   3.864   5.066
   70SOL    HW1 1109   5.596   3.853   5.089
   70SOL    HW2 1110   5.466   3.780   5.022
   71SOL     OW 1111   4.183   1.941   2.988
   71SOL    HW1 1112   4.234   1.979   2.911
   71SOL    HW2 1113   4.227   1.970   3.074
   72SOL     OW 1114   2.130   6.118   4.377
   72SOL    HW1 1115   2.049   6.141   4.432
   72SOL    HW2 1116   2.101   6.098   4.283
   73SOL     OW 1117   3.235   0.911   1.377
   73SOL    HW1 1118   3.310   0.854   1.346
   73SOL    HW2 1119   3.205   0.972   1.303
   74SOL     OW 1120   5.011   6.759   0.001
   74SOL    HW1 1121   4.939   6.756   6.963
   74SOL    HW2 1122   5.096   6.792   6.989
   75SOL     OW 1123   4.241   0.647   1.091
   75SOL    HW1 1124   4.335   0.612   1.091
   75SOL    HW2 1125   4.186   0.597   1.158
   76SOL     OW 1126   3.413   3.401   0.557
   76SOL    HW1 1127   3.409   3.410   0.656
   76SOL    HW2 1128   3.331   3.353   0.525
   77SOL     OW 1129   6.778   6.877   3.390
   77SOL    HW1 1130   6.753   6.783   3.413
   77SOL    HW2 1131   6.748   6.938   3.463
   78SOL     OW 1132   5.638   1.733   0.287
   78SOL    HW1 1133   5.627   1.788   0.204
   78SOL    HW2 1134   5.617   1.788   0.367
   79SOL     OW 1135   3.209   6.263   0.675
   79SOL    HW1 1136   3.276   6.232   0.608
   79SOL    HW2 1137   3.252   6.269   0.765
   80SOL     OW 1138   5.936   1.413   4.773
   80SOL    HW1 1139   5.872   1.337   4.765
   80SOL    HW2 1140   6.009   1.403   4.706
   81SOL     OW 1141   1.678   6.847   2.613
   81SOL    HW1 1142   1.602   6.897   2.572
   81SOL    HW2 1143   1.670   6.851   2.713
   82SOL     OW 1144   6.166   4.672   1.090
   82SOL    HW1 1145   6.151   4.610   1.167
   82SOL    HW2 1146   6.241   4.637   1.033
   83SOL     OW 1147   0.747   0.842   0.282
   83SOL    HW1 1148   0.654   0.808   0.298
   83SOL    HW2 1149   0.809   0.764   0.269
   84SOL     OW 1150   5.552   2.394   3.345
   84SOL    HW1 1151   5.639   2.385   3.392
   84SOL    HW2 1152   5.481   2.423   3.410
   85SOL     OW 1153   1.665   1.250   4.084
   85SOL    HW1 1154   1.701   1.157   4.081
   85SOL    HW2 1155   1.704   1.304   4.010
   86SOL     OW 1156   6.641   0.811   4.788
   86SOL    HW1 1157   6.543   0.789   4.781
   86SOL    HW2 1158   6.653   0.881   4.858
   87SOL     OW 1159   4.730   3.544   0.727
   87SOL    HW1 1160   4.797   3.617   0.742
   87SOL    HW2 1161   4.671   3.536   0.807
   88SOL     OW 1162   3.274   1.942   5.338
   88SOL    HW1 1163   3.300   1.878   5.266
   88SOL    HW2 1164   3.352   1.955   5.400
   89SOL     OW 1165   1.256   2.629   5.942
   89SOL    HW1 1166   1.195   2.556   5.913
   89SOL    HW2 1167   1.328   2.642   5.874
   90SOL     OW 1168   3.744   5.281   2.376
   90SOL    HW1 1169   3.675   5.338   2.332
   90SOL    HW2 1170   3.734   5.187   2.344
   91SOL     OW 1171   5.184   4.486   5.215
   91SOL    HW1 1172   5.197   4.484   5.315
   91SOL    HW2 1173   5.095   4.448   5.192
   92SOL     OW 1174   3.888   4.674   0.490
   92SOL    HW1 1175   3.796   4.712   0.483
   92SOL    HW2 1176   3.955   4.748   0.497
   93SOL     OW 1177   3.035   4.106   6.861
   93SOL    HW1 1178   3.015   4.042   6.935
   93SOL    HW2 1179   2.949   4.137   6.819
   94SOL     OW 1180   1.871   5.772   6.785
   94SOL    HW1 1181   1.947   5.707   6.796
   94SOL    HW2 1182   1.852   5.815   6.873
   95SOL     OW 1183   1.452   0.656   3.752
   95SOL    HW1 1184   1.363   0.699   3.768
   95SOL    HW2 1185   1.504   0.655   3.837
   96SOL     OW 1186   3.169   0.241   5.168
   96SOL    HW1 1187   3.153   0.278   5.260
   96SOL    HW2 1188   3.146   0.312   5.101
   97SOL     OW 1189   2.278   3.329   5.832
   97SOL    HW1 1190   2.255   3.234   5.852
   97SOL    HW2 1191   2.198   3.377   5.798
   98SOL     OW 1192   0.398   3.851   0.824
   98SOL    HW1 1193   0.383   3.937   0.872
   98SOL    HW2 1194   0.310   3.805   0.810
   99SOL     OW 1195   3.766   3.120   0.730
   99SOL    HW1 1196   3.754   3.123   0.631
   99SOL    HW2 1197   3.703   3.185   0.774
  100SOL     OW 1198   6.804   6.932   5.104
  100SOL    HW1 1199   6.744   6.960   5.179
  100SOL    HW2 1200   6.773   6.974   5.019
  101SOL     OW 1201   1.472   5.089   2.013
  101SOL    HW1 1202   1.551   5.035   2.042
  101SOL    HW2 1203   1.503   5.163   1.953
  102SOL     OW 1204   4.079   5.617   2.489
  102SOL    HW1 1205   4.055   5.679   2.563
  102SOL    HW2 1206   4.029   5.531   2.500
  103SOL     OW 1207   2.266   1.555   1.851
  103SOL    HW1 1208   2.287   1.620   1.923
  103SOL    HW2 1209   2.210   1.480   1.887
  104SOL     OW 1210   0.934   5.709   2.317
  104SOL    HW1 1211   0.879   5.750   2.391
  104SOL    HW2 1212   0.948   5.777   2.245
  105SOL     OW 1213   6.530   2.129   6.246
  105SOL    HW1 1214   6.591   2.191   6.294
  105SOL    HW2 1215   6.573   2.097   6.162
  106SOL     OW 1216   3.359   6.376   4.778
  106SOL    HW1 1217   3.408   6.423   4.851
  106SOL    HW2 1218   3.264   6.361   4.805
  107SOL     OW 1219   2.056   1.658   1.398
  107SOL    HW1 1220   2.091   1.581   1.345
  107SOL    HW2 1221   2.049   1.631   1.494
  108SOL     OW 1222   2.828   5.897   5.605
  108SOL    HW1 1223   2.841   5.977   5.663
  108SOL    HW2 1224   2.866   5.816   5.651
  109SOL     OW 1225   6.699   7.029   1.633
  109SOL    HW1 1226   6.614   6.977   1.645
  109SOL    HW2 1227   6.719   0.007   1.536
  110SOL     OW 1228   3.507   6.105   4.754
  110SOL    HW1 1229   3.483   6.198   4.726
  110SOL    HW2 1230   3.453   6.040   4.702
  111SOL     OW 1231   2.119   1.052   4.567
  111SOL    HW1 1232   2.078   1.037   4.657
  111SOL    HW2 1233   2.213   1.019   4.567
  112SOL     OW 1234   3.734   6.841   6.922
  112SOL    HW1 1235   3.635   6.853   6.923
  112SOL    HW2 1236   3.770   6.851   7.014
  113SOL     OW 1237   0.125   6.123   3.432
  113SOL    HW1 1238   0.161   6.061   3.362
  113SOL    HW2 1239   0.185   6.121   3.512
  114SOL     OW 1240   0.693   0.179   1.751
  114SOL    HW1 1241   0.600   0.176   1.787
  114SOL    HW2 1242   0.729   0.086   1.742
  115SOL     OW 1243   4.146   1.717   3.322
  115SOL    HW1 1244   4.175   1.765   3.240
  115SOL    HW2 1245   4.192   1.756   3.402
  116SOL     OW 1246   5.872   5.286   1.552
  116SOL    HW1 1247   5.925   5.227   1.613
  116SOL    HW2 1248   5.902   5.380   1.562
  117SOL     OW 1249   1.827   1.983   0.453
  117SOL    HW1 1250   1.802   1.888   0.436
  117SOL    HW2 1251   1.812   2.005   0.550
  118SOL     OW 1252   1.407   0.918   2.734
  118SOL    HW1 1253   1.454   0.836   2.702
  118SOL    HW2 1254   1.327   0.935   2.676
  119SOL     OW 1255   0.582   0.443   6.834
  119SOL    HW1 1256   0.523   0.446   6.753
  119SOL    HW2 1257   0.534   0.399   6.909
  120SOL     OW 1258   5.895   6.825   6.926
  120SOL    HW1 1259   5.958   6.763   6.974
  120SOL    HW2 1260   5.944   6.870   6.851
  121SOL     OW 1261   1.172   3.921   5.991
  121SOL    HW1 1262   1.150   3.905   6.087
  121SOL    HW2 1263   1.238   3.852   5.960
  122SOL     OW 1264   1.745   3.298   5.620
  122SOL    HW1 1265   1.755   3.284   5.521
  122SOL    HW2 1266   1.690   3.223   5.658
  123SOL     OW 1267   0.519   1.466   2.994
  123SOL    HW1 1268   0.548   1.396   2.929
  123SOL    HW2 1269   0.432   1.505   2.964
  124SOL     OW 1270   4.240   2.887   0.419
  124SOL    HW1 1271   4.260   2.840   0.333
  124SOL    HW2 1272   4.163   2.842   0.464
  125SOL     OW 1273   3.045   1.732   0.814
  125SOL    HW1 1274   2.975   1.757   0.747
  125SOL    HW2 1275   3.068   1.812   0.870
  126SOL     OW 1276   1.825   4.454   0.828
  126SOL    HW1 1277   1.833   4.384   0.899
  126SOL    HW2 1278   1.916   4.486   0.802
  127SOL     OW 1279   0.739   5.435   0.219
  127SOL    HW1 1280   0.806   5.365   0.194
  127SOL    HW2 1281   0.648   5.393   0.228
  128SOL     OW 1282   5.325   2.442   1.456
  128SOL    HW1 1283   5.296   2.523   1.507
  128SOL    HW2 1284   5.255   2.371   1.463
  129SOL     OW 1285   1.938   3.334   6.537
  129SOL    HW1 1286   1.922   3.387   6.453
  129SOL    HW2 1287   1.906   3.240   6.524
  130SOL     OW 1288   1.113   2.028   4.584
  130SOL    HW1 1289   1.174   2.031   4.505
  130SOL    HW2 1290   1.164   2.001   4.665
  131SOL     OW 1291   5.296   1.526   3.253
  131SOL    HW1 1292   5.307   1.427   3.246
  131SOL    HW2 1293   5.381   1.566   3.288
  132SOL     OW 1294   2.822   2.891   1.223
  132SOL    HW1 1295   2.726   2.863   1.224
  132SOL    HW2 1296   2.841   2.946   1.305
  133SOL     OW 1297   5.132   0.270   4.191
  133SOL    HW1 1298   5.039   0.254   4.223
  133SOL    HW2 1299   5.180   0.183   4.181
  134SOL     OW 1300   6.529   0.615   2.735
  134SOL    HW1 1301   6.540   0.701   2.684
  134SOL    HW2 1302   6.603   0.607   2.802
  135SOL     OW 1303   5.428   3.854   3.575
  135SOL    HW1 1304   5.333   3.828   3.594
  135SOL    HW2 1305   5.472   3.884   3.659
  136SOL     OW 1306   2.903   4.270   5.919
  136SOL    HW1 1307   2.992   4.295   5.879
  136SOL    HW2 1308   2.918   4.206   5.994
  137SOL     OW 1309   5.744   2.094   3.796
  137SOL    HW1 1310   5.787   2.171   3.750
  137SOL    HW2 1311   5.799   2.011   3.781
  138SOL     OW 1312   1.185   4.477   2.297
  138SOL    HW1 1313   1.230   4.429   2.373
  138SOL    HW2 1314   1.226   4.568   2.286
  139SOL     OW 1315   1.435   0.107   5.041
  139SOL    HW1 1316   1.509   0.058   5.087
  139SOL    HW2 1317   1.401   0.052   4.964
  140SOL     OW 1318   1.152   6.223   3.093
  140SOL    HW1 1319   1.188   6.311   3.125
  140SOL    HW2 1320   1.208   6.190   3.016
  141SOL     OW 1321   0.013   2.218   5.222
  141SOL    HW1 1322   6.961   2.177   5.184
  141SOL    HW2 1323   7.021   2.261   5.310
  142SOL     OW 1324   1.020   3.504   1.599
  142SOL    HW1 1325   1.023   3.404   1.610
  142SOL    HW2 1326   0.994   3.525   1.505
  143SOL     OW 1327   6.090   4.604   0.638
  143SOL    HW1 1328   6.003   4.580   0.682
  143SOL    HW2 1329   6.151   4.525   0.640
  144SOL     OW 1330   1.391   5.163   5.897
  144SOL    HW1 1331   1.317   5.210   5.849
  144SOL    HW2 1332   1.425   5.221   5.971
  145SOL     OW 1333   7.022   5.533   0.458
  145SOL    HW1 1334   7.029   5.600   0.531
  145SOL    HW2 1335   6.935   5.485   0.464
  146SOL     OW 1336   4.863   0.526   6.028
  146SOL    HW1 1337   4.907   0.482   5.949
  146SOL    HW2 1338   4.848   0.457   6.099
  147SOL     OW 1339   5.772   3.708   6.859
  147SOL    HW1 1340   5.698   3.689   6.924
  147SOL    HW2 1341   5.860   3.703   6.906
  148SOL     OW 1342   6.646   5.802   6.824
  148SOL    HW1 1343   6.645   5.702   6.829
  148SOL    HW2 1344   6.590   5.832   6.746
  149SOL     OW 1345   3.546   2.089   4.120
  149SOL    HW1 1346   3.501   2.157   4.062
  149SOL    HW2 1347   3.558   2.004   4.069
  150SOL     OW 1348   5.884   6.445   0.657
  150SOL    HW1 1349   5.839   6.531   0.631
  150SOL    HW2 1350   5.953   6.464   0.726
  151SOL     OW 1351   2.956   2.693   1.072
  151SOL    HW1 1352   2.889   2.627   1.039
  151SOL    HW2 1353   2.909   2.766   1.122
  152SOL     OW 1354   0.688   0.834   1.725
  152SOL    HW1 1355   0.627   0.804   1.799
  152SOL    HW2 1356   0.773   0.782   1.729
  153SOL     OW 1357   2.529   0.778   2.457
  153SOL    HW1 1358   2.606   0.769   2.520
  153SOL    HW2 1359   2.540   0.861   2.402
  154SOL     OW 1360   0.233   2.554   1.985
  154SOL    HW1 1361   0.240   2.527   1.889
  154SOL    HW2 1362   0.304   2.621   2.006
  155SOL     OW 1363   0.337   1.557   3.596
  155SOL    HW1 1364   0.305   1.588   3.685
  155SOL    HW2 1365   0.385   1.631   3.550
  156SOL     OW 1366   7.001   1.852   0.637
  156SOL    HW1 1367   6.917   1.901   0.617
  156SOL    HW2 1368   6.980   1.768   0.687
  157SOL     OW 1369   5.270   3.654   1.835
  157SOL    HW1 1370   5.332   3.715   1.884
  157SOL    HW2 1371   5.229   3.589   1.899
  158SOL     OW 1372   2.231   4.626   2.473
  158SOL    HW1 1373   2.200   4.667   2.387
  158SOL    HW2 1374   2.316   4.669   2.502
  159SOL     OW 1375   4.931   4.264   2.406
  159SOL    HW1 1376   4.918   4.177   2.455
  159SOL    HW2 1377   4.848   4.284   2.353
  160SOL     OW 1378   5.296   5.365   1.048
  160SOL    HW1 1379   5.253   5.283   1.087
  160SOL    HW2 1380   5.280   5.443   1.107
  161SOL     OW 1381   2.037   6.005   4.122
  161SOL    HW1 1382   2.098   5.928   4.105
  161SOL    HW2 1383   2.077   6.088   4.083
  162SOL     OW 1384   3.975   6.156   0.078
  162SOL    HW1 1385   4.006   6.141   0.173
  162SOL    HW2 1386   4.010   6.082   0.020
  163SOL     OW 1387   6.156   5.577   0.694
  163SOL    HW1 1388   6.117   5.504   0.750
  163SOL    HW2 1389   6.095   5.655   0.693
  164SOL     OW 1390   6.849   4.501   1.399
  164SOL    HW1 1391   6.788   4.422   1.393
  164SOL    HW2 1392   6.859   4.542   1.308
  165SOL     OW 1393   5.071   3.147   1.208
  165SOL    HW1 1394   5.071   3.156   1.307
  165SOL    HW2 1395   4.985   3.184   1.171
  166SOL     OW 1396   0.530   4.044   2.850
  166SOL    HW1 1397   0.618   4.079   2.816
  166SOL    HW2 1398   0.513   4.080   2.942
  167SOL     OW 1399   5.081   2.847   6.939
  167SOL    HW1 1400   5.142   2.853   6.861
  167SOL    HW2 1401   5.023   2.929   6.943
  168SOL     OW 1402   2.698   3.384   1.320
  168SOL    HW1 1403   2.786   3.382   1.367
  168SOL    HW2 1404   2.634   3.321   1.364
  169SOL     OW 1405   5.250   1.797   1.901
  169SOL    HW1 1406   5.321   1.756   1.845
  169SOL    HW2 1407   5.170   1.737   1.903
  170SOL     OW 1408   0.883   0.576   2.760
  170SOL    HW1 1409   0.956   0.595   2.826
  170SOL    HW2 1410   0.797   0.616   2.792
  171SOL     OW 1411   3.283   4.830   6.287
  171SOL    HW1 1412   3.355   4.893   6.315
  171SOL    HW2 1413   3.224   4.810   6.365
  172SOL     OW 1414   6.500   1.498   2.972
  172SOL    HW1 1415   6.442   1.455   2.902
  172SOL    HW2 1416   6.556   1.428   3.016
  173SOL     OW 1417   5.690   1.628   4.120
  173SOL    HW1 1418   5.658   1.722   4.105
  173SOL    HW2 1419   5.731   1.621   4.211
  174SOL     OW 1420   3.827   4.975   3.462
  174SOL    HW1 1421   3.875   5.046   3.410
  174SOL    HW2 1422   3.861   4.885   3.434
  175SOL     OW 1423   3.073   0.339   1.461
  175SOL    HW1 1424   3.105   0.425   1.501
  175SOL    HW2 1425   3.150   0.277   1.449
  176SOL     OW 1426   0.704   4.587   0.512
  176SOL    HW1 1427   0.778   4.553   0.570
  176SOL    HW2 1428   0.667   4.672   0.550
  177SOL     OW 1429   5.503   3.118   2.831
  177SOL    HW1 1430   5.542   3.061   2.759
  177SOL    HW2 1431   5.458   3.198   2.790
  178SOL     OW 1432   2.405   3.074   6.372
  178SOL    HW1 1433   2.339   3.046   6.441
  178SOL    HW2 1434   2.371   3.154   6.323
  179SOL     OW 1435   3.817   1.323   5.710
  179SOL    HW1 1436   3.762   1.392   5.662
  179SOL    HW2 1437   3.786   1.232   5.683
  180SOL     OW 1438   2.190   6.664   7.008
  180SOL    HW1 1439   2.276   6.616   7.023
  180SOL    HW2 1440   2.132   6.610   6.946
  181SOL     OW 1441   3.020   3.175   6.141
  181SOL    HW1 1442   3.118   3.193   6.153
  181SOL    HW2 1443   2.985   3.132   6.224
  182SOL     OW 1444   3.625   1.930   5.257
  182SOL    HW1 1445   3.558   1.891   5.194
  182SOL    HW2 1446   3.645   2.025   5.230
  183SOL     OW 1447   4.258   2.284   3.563
  183SOL    HW1 1448   4.267   2.285   3.464
  183SOL    HW2 1449   4.308   2.205   3.600
  184SOL     OW 1450   1.413   6.184   4.514
  184SOL    HW1 1451   1.412   6.251   4.440
  184SOL    HW2 1452   1.321   6.173   4.550
  185SOL     OW 1453   0.750   1.233   6.013
  185SOL    HW1 1454   0.822   1.173   6.048
  185SOL    HW2 1455   0.781   1.276   5.928
  186SOL     OW 1456   5.944   0.443   4.377
  186SOL    HW1 1457   6.001   0.441   4.295
  186SOL    HW2 1458   5.998   0.411   4.456
  187SOL     OW 1459   4.587   0.119   2.283
  187SOL    HW1 1460   4.608   0.214   2.261
  187SOL    HW2 1461   4.536   0.078   2.208
  188SOL     OW 1462   0.670   2.180   3.755
  188SOL    HW1 1463   0.736   2.176   3.830
  188SOL    HW2 1464   0.706   2.236   3.681
  189SOL     OW 1465   2.261   5.412   1.694
  189SOL    HW1 1466   2.244   5.332   1.753
  189SOL    HW2 1467   2.196   5.484   1.718
  190SOL     OW 1468   5.085   2.435   4.875
  190SOL    HW1 1469   5.095   2.355   4.934
  190SOL    HW2 1470   5.160   2.438   4.809
  191SOL     OW 1471   6.064   0.255   6.925
  191SOL    HW1 1472   5.996   0.220   6.860
  191SOL    HW2 1473   6.035   0.233   7.018
  192SOL     OW 1474   1.470   5.784   1.764
  192SOL    HW1 1475   1.532   5.720   1.718
  192SOL    HW2 1476   1.386   5.793   1.710
  193SOL     OW 1477   4.257   3.503   5.544
  193SOL    HW1 1478   4.213   3.461   5.623
  193SOL    HW2 1479   4.350   3.469   5.536
  194SOL     OW 1480   4.033   0.752   3.055
  194SOL    HW1 1481   4.102   0.815   3.019
  194SOL    HW2 1482   3.970   0.802   3.114
  195SOL     OW 1483   1.813   0.483   5.163
  195SOL    HW1 1484   1.797   0.549   5.237
  195SOL    HW2 1485   1.733   0.479   5.103
  196SOL     OW 1486   2.608   0.597   0.868
  196SOL    HW1 1487   2.611   0.639   0.959
  196SOL    HW2 1488   2.533   0.531   0.865
  197SOL     OW 1489   2.490   0.125   1.270
  197SOL    HW1 1490   2.547   0.102   1.349
  197SOL    HW2 1491   2.532   0.090   1.187
  198SOL     OW 1492   4.960   0.795   1.947
  198SOL    HW1 1493   4.874   0.766   1.990
  198SOL    HW2 1494   5.011   0.714   1.918
  199SOL     OW 1495   6.682   1.516   3.601
  199SOL    HW1 1496   6.603   1.488   3.655
  199SOL    HW2 1497   6.657   1.519   3.505
  200SOL     OW 1498   1.182   4.607   1.557
  200SOL    HW1 1499   1.219   4.679   1.498
  200SOL    HW2 1500   1.083   4.620   1.567
  201SOL     OW 1501   6.825   0.102   5.412
  201SOL    HW1 1502   6.861   0.009   5.420
  201SOL    HW2 1503   6.738   0.107   5.461
  202SOL     OW 1504   4.488   1.420   6.720
  202SOL    HW1 1505   4.411   1.448   6.663
  202SOL    HW2 1506   4.489   1.474   6.804
  203SOL     OW 1507   5.499   2.075   5.370
  203SOL    HW1 1508   5.550   2.158   5.394
  203SOL    HW2 1509   5.525   2.002   5.433
  204SOL     OW 1510   0.696   0.353   5.285
  204SOL    HW1 1511   0.644   0.360   5.199
  204SOL    HW2 1512   0.665   0.425   5.348
  205SOL     OW 1513   0.567   1.526   2.635
  205SOL    HW1 1514   0.654   1.523   2.585
  205SOL    HW2 1515   0.558   1.443   2.691
  206SOL     OW 1516   0.578   4.355   0.852
  206SOL    HW1 1517   0.655   4.306   0.809
  206SOL    HW2 1518   0.496   4.343   0.796
  207SOL     OW 1519   6.257   1.582   3.617
  207SOL    HW1 1520   6.163   1.563   3.587
  207SOL    HW2 1521   6.258   1.660   3.679
  208SOL     OW 1522   6.144   3.229   5.094
  208SOL    HW1 1523   6.097   3.228   5.182
  208SOL    HW2 1524   6.105   3.300   5.035
  209SOL     OW 1525   0.645   4.896   3.787
  209SOL    HW1 1526   0.642   4.994   3.765
  209SOL    HW2 1527   0.668   4.885   3.884
  210SOL     OW 1528   4.350   2.340   0.646
  210SOL    HW1 1529   4.384   2.370   0.557
  210SOL    HW2 1530   4.257   2.307   0.638
  211SOL     OW 1531   2.253   6.342   2.626
  211SOL    HW1 1532   2.295   6.418   2.576
  211SOL    HW2 1533   2.156   6.336   2.603
  212SOL     OW 1534   1.078   3.864   1.805
  212SOL    HW1 1535   1.046   3.892   1.714
  212SOL    HW2 1536   1.022   3.908   1.875
  213SOL     OW 1537   3.209   0.830   0.642
  213SOL    HW1 1538   3.266   0.831   0.560
  213SOL    HW2 1539   3.213   0.920   0.686
  214SOL     OW 1540   4.614   4.770   1.860
  214SOL    HW1 1541   4.612   4.670   1.860
  214SOL    HW2 1542   4.521   4.805   1.851
  215SOL     OW 1543   2.289   4.311   1.009
  215SOL    HW1 1544   2.198   4.305   0.967
  215SOL    HW2 1545   2.346   4.235   0.976
  216SOL     OW 1546   2.139   6.250   4.047
  216SOL    HW1 1547   2.207   6.188   4.009
  216SOL    HW2 1548   2.185   6.330   4.086
  217SOL     OW 1549   1.134   1.814   4.272
  217SOL    HW1 1550   1.119   1.829   4.174
  217SOL    HW2 1551   1.177   1.895   4.312
  218SOL     OW 1552   0.004   3.664   4.149
  218SOL    HW1 1553   0.027   3.724   4.226
  218SOL    HW2 1554   6.938   3.639   4.154
  219SOL     OW 1555   4.660   0.136   6.282
  219SOL    HW1 1556   4.653   0.214   6.220
  219SOL    HW2 1557   4.630   0.164   6.373
  220SOL     OW 1558   3.215   6.855   1.348
  220SOL    HW1 1559   3.153   6.800   1.404
  220SOL    HW2 1560   3.252   6.929   1.403
  221SOL     OW 1561   6.901   3.625   0.908
  221SOL    HW1 1562   6.895   3.526   0.893
  221SOL    HW2 1563   6.938   3.643   0.999
  222SOL     OW 1564   1.820   4.891   5.795
  222SOL    HW1 1565   1.746   4.957   5.804
  222SOL    HW2 1566   1.801   4.811   5.852
  223SOL     OW 1567   5.835   3.514   6.587
  223SOL    HW1 1568   5.789   3.426   6.599
  223SOL    HW2 1569   5.766   3.586   6.576
  224SOL     OW 1570   1.968   1.549   4.281
  224SOL    HW1 1571   2.012   1.601   4.207
  224SOL    HW2 1572   1.873   1.578   4.290
  225SOL     OW 1573   3.894   3.783   6.343
  225SOL    HW1 1574   3.980   3.746   6.378
  225SOL    HW2 1575   3.891   3.882   6.359
  226SOL     OW 1576   2.019   1.541   5.709
  226SOL    HW1 1577   2.107   1.501   5.682
  226SOL    HW2 1578   1.959   1.468   5.741
  227SOL     OW 1579   1.533   3.664   1.974
  227SOL    HW1 1580   1.440   3.645   2.006
  227SOL    HW2 1581   1.583   3.714   2.045
  228SOL     OW 1582   3.231   6.643   3.910
  228SOL    HW1 1583   3.135   6.657   3.934
  228SOL    HW2 1584   3.262   6.556   3.949
  229SOL     OW 1585   6.107   6.291   0.197
  229SOL    HW1 1586   6.016   6.333   0.196
  229SOL    HW2 1587   6.145   6.296   0.289
  230SOL     OW 1588   3.243   4.885   3.872
  230SOL    HW1 1589   3.302   4.932   3.805
  230SOL    HW2 1590   3.294   4.869   3.956
  231SOL     OW 1591   6.268   2.023   6.235
  231SOL    HW1 1592   6.360   2.059   6.254
  231SOL    HW2 1593   6.275   1.934   6.190
  232SOL     OW 1594   0.599   3.272   6.645
  232SOL    HW1 1595   0.601   3.229   6.735
  232SOL    HW2 1596   0.575   3.204   6.576
  233SOL     OW 1597   3.068   1.569   2.785
  233SOL    HW1 1598   3.070   1.655   2.836
  233SOL    HW2 1599   3.161   1.544   2.757
  234SOL     OW 1600   5.406   0.594   5.805
  234SOL    HW1 1601   5.403   0.501   5.769
  234SOL    HW2 1602   5.329   0.608   5.868
  235SOL     OW 1603   3.469   2.480   1.481
  235SOL    HW1 1604   3.470   2.390   1.437
  235SOL    HW2 1605   3.563   2.513   1.491
  236SOL     OW 1606   5.183   3.395   6.395
  236SOL    HW1 1607   5.140   3.308   6.371
  236SOL    HW2 1608   5.197   3.448   6.311
  237SOL     OW 1609   5.992   4.388   1.711
  237SOL    HW1 1610   6.068   4.375   1.775
  237SOL    HW2 1611   6.028   4.397   1.618
  238SOL     OW 1612   5.074   2.254   0.380
  238SOL    HW1 1613   5.085   2.344   0.338
  238SOL    HW2 1614   5.147   2.194   0.350
  239SOL     OW 1615   0.633   5.161   7.027
  239SOL    HW1 1616   0.729   5.174   0.021
  239SOL    HW2 1617   0.620   5.181   6.930
  240SOL     OW 1618   6.785   2.450   3.417
  240SOL    HW1 1619   6.839   2.366   3.420
  240SOL    HW2 1620   6.810   2.509   3.493
  241SOL     OW 1621   2.400   1.843   5.314
  241SOL    HW1 1622   2.346   1.797   5.385
  241SOL    HW2 1623   2.356   1.829   5.225
  242SOL     OW 1624   3.416   3.550   4.151
  242SOL    HW1 1625   3.505   3.556   4.106
  242SOL    HW2 1626   3.430   3.548   4.250
  243SOL     OW 1627   3.955   0.417   6.248
  243SOL    HW1 1628   3.962   0.326   6.207
  243SOL    HW2 1629   4.032   0.473   6.219
  244SOL     OW 1630   6.011   2.754   5.021
  244SOL    HW1 1631   5.945   2.800   4.962
  244SOL    HW2 1632   6.016   2.801   5.109
  245SOL     OW 1633   5.715   3.653   4.187
  245SOL    HW1 1634   5.808   3.629   4.160
  245SOL    HW2 1635   5.673   3.707   4.114
  246SOL     OW 1636   4.613   2.650   3.755
  246SOL    HW1 1637   4.569   2.622   3.839
  246SOL    HW2 1638   4.590   2.586   3.681
  247SOL     OW 1639   2.931   1.969   1.698
  247SOL    HW1 1640   3.026   1.975   1.729
  247SOL    HW2 1641   2.892   2.061   1.692
  248SOL     OW 1642   3.613   1.486   2.233
  248SOL    HW1 1643   3.656   1.398   2.252
  248SOL    HW2 1644   3.643   1.554   2.300
  249SOL     OW 1645   4.256   0.319   4.920
  249SOL    HW1 1646   4.251   0.220   4.906
  249SOL    HW2 1647   4.251   0.365   4.831
  250SOL     OW 1648   4.845   2.806   0.884
  250SOL    HW1 1649   4.805   2.724   0.924
  250SOL    HW2 1650   4.913   2.844   0.947
  251SOL     OW 1651   4.484   4.214   5.957
  251SOL    HW1 1652   4.405   4.217   5.895
  251SOL    HW2 1653   4.537   4.131   5.939
  252SOL     OW 1654   6.430   5.819   0.187
  252SOL    HW1 1655   6.396   5.725   0.182
  252SOL    HW2 1656   6.363   5.877   0.233
  253SOL     OW 1657   2.484   5.720   6.589
  253SOL    HW1 1658   2.519   5.758   6.675
  253SOL    HW2 1659   2.450   5.628   6.605
  254SOL     OW 1660   5.410   3.054   3.547
  254SOL    HW1 1661   5.483   3.110   3.506
  254SOL    HW2 1662   5.450   2.971   3.587
  255SOL     OW 1663   1.598   3.699   5.160
  255SOL    HW1 1664   1.657   3.767   5.201
  255SOL    HW2 1665   1.550   3.738   5.082
  256SOL     OW 1666   6.615   3.787   6.380
  256SOL    HW1 1667   6.605   3.713   6.446
  256SOL    HW2 1668   6.560   3.865   6.409
  257SOL     OW 1669   4.681   0.329   3.409
  257SOL    HW1 1670   4.738   0.332   3.491
  257SOL    HW2 1671   4.620   0.408   3.408
  258SOL     OW 1672   2.073   4.936   5.110
  258SOL    HW1 1673   2.139   4.991   5.161
  258SOL    HW2 1674   2.117   4.853   5.075
  259SOL     OW 1675   0.600   1.875   2.097
  259SOL    HW1 1676   0.586   1.796   2.038
  259SOL    HW2 1677   0.665   1.938   2.054
  260SOL     OW 1678   4.629   0.807   1.091
  260SOL    HW1 1679   4.726   0.788   1.079
  260SOL    HW2 1680   4.611   0.903   1.074
  261SOL     OW 1681   6.804   3.350   0.838
  261SOL    HW1 1682   6.779   3.324   0.932
  261SOL    HW2 1683   6.865   3.281   0.799
  262SOL     OW 1684   0.191   4.011   0.500
  262SOL    HW1 1685   0.160   4.101   0.529
  262SOL    HW2 1686   0.198   4.010   0.400
  263SOL     OW 1687   1.910   0.823   3.453
  263SOL    HW1 1688   1.996   0.813   3.503
  263SOL    HW2 1689   1.860   0.902   3.489
  264SOL     OW 1690   6.000   3.226   6.497
  264SOL    HW1 1691   6.033   3.239   6.404
  264SOL    HW2 1692   5.912   3.273   6.508
  265SOL     OW 1693   5.403   5.881   2.400
  265SOL    HW1 1694   5.437   5.937   2.475
  265SOL    HW2 1695   5.328   5.823   2.432
  266SOL     OW 1696   3.126   2.797   5.505
  266SOL    HW1 1697   3.201   2.818   5.442
  266SOL    HW2 1698   3.071   2.879   5.518
  267SOL     OW 1699   0.505   1.227   6.564
  267SOL    HW1 1700   0.426   1.174   6.593
  267SOL    HW2 1701   0.543   1.277   6.642
  268SOL     OW 1702   3.770   0.651   5.972
  268SOL    HW1 1703   3.810   0.575   5.921
  268SOL    HW2 1704   3.744   0.620   6.064
  269SOL     OW 1705   0.893   3.713   2.087
  269SOL    HW1 1706   0.944   3.674   2.010
  269SOL    HW2 1707   0.955   3.724   2.165
  270SOL     OW 1708   0.705   0.058   0.488
  270SOL    HW1 1709   0.612   0.025   0.502
  270SOL    HW2 1710   0.764   0.023   0.560
  271SOL     OW 1711   0.574   1.328   6.806
  271SOL    HW1 1712   0.571   1.426   6.825
  271SOL    HW2 1713   0.581   1.278   6.892
  272SOL     OW 1714   3.439   5.432   4.432
  272SOL    HW1 1715   3.393   5.367   4.494
  272SOL    HW2 1716   3.536   5.438   4.455
  273SOL     OW 1717   1.787   4.324   4.872
  273SOL    HW1 1718   1.788   4.415   4.831
  273SOL    HW2 1719   1.782   4.332   4.971
  274SOL     OW 1720   4.301   1.992   3.219
  274SOL    HW1 1721   4.325   2.083   3.251
  274SOL    HW2 1722   4.281   1.934   3.298
  275SOL     OW 1723   5.810   4.206   5.302
  275SOL    HW1 1724   5.720   4.182   5.339
  275SOL    HW2 1725   5.826   4.304   5.313
  276SOL     OW 1726   0.635   6.265   2.509
  276SOL    HW1 1727   0.664   6.358   2.486
  276SOL    HW2 1728   0.607   6.261   2.605
  277SOL     OW 1729   1.224   4.010   1.002
  277SOL    HW1 1730   1.322   3.992   0.988
  277SOL    HW2 1731   1.170   3.943   0.952
  278SOL     OW 1732   6.284   4.947   2.086
  278SOL    HW1 1733   6.251   5.013   2.018
  278SOL    HW2 1734   6.208   4.921   2.146
  279SOL     OW 1735   6.837   2.930   4.200
  279SOL    HW1 1736   6.844   2.832   4.218
  279SOL    HW2 1737   6.922   2.962   4.159
  280SOL     OW 1738   2.948   6.967   3.149
  280SOL    HW1 1739   2.919   6.950   3.055
  280SOL    HW2 1740   3.043   6.938   3.161
  281SOL     OW 1741   2.497   4.796   2.382
  281SOL    HW1 1742   2.551   4.827   2.460
  281SOL    HW2 1743   2.558   4.762   2.311
  282SOL     OW 1744   3.222   1.918   5.672
  282SOL    HW1 1745   3.252   1.826   5.650
  282SOL    HW2 1746   3.299   1.982   5.660
  283SOL     OW 1747   6.180   1.703   6.631
  283SOL    HW1 1748   6.113   1.731   6.563
  283SOL    HW2 1749   6.232   1.784   6.661
  284SOL     OW 1750   1.755   3.993   3.838
  284SOL    HW1 1751   1.694   4.005   3.917
  284SOL    HW2 1752   1.832   3.935   3.865
  285SOL     OW 1753   6.008   4.360   5.541
  285SOL    HW1 1754   5.916   4.399   5.541
  285SOL    HW2 1755   6.075   4.432   5.560
  286SOL     OW 1756   4.014   5.935   5.475
  286SOL    HW1 1757   4.051   5.870   5.408
  286SOL    HW2 1758   3.960   5.885   5.543
  287SOL     OW 1759   0.254   4.760   6.875
  287SOL    HW1 1760   0.197   4.825   6.823
  287SOL    HW2 1761   0.348   4.764   6.841
  288SOL     OW 1762   3.945   1.577   5.927
  288SOL    HW1 1763   4.010   1.652   5.937
  288SOL    HW2 1764   3.866   1.609   5.874
  289SOL     OW 1765   7.021   4.315   4.771
  289SOL    HW1 1766   6.925   4.288   4.780
  289SOL    HW2 1767   0.015   4.319   4.674
  290SOL     OW 1768   6.119   1.739   4.504
  290SOL    HW1 1769   6.165   1.812   4.452
  290SOL    HW2 1770   6.137   1.752   4.602
  291SOL     OW 1771   1.464   2.482   4.708
  291SOL    HW1 1772   1.449   2.539   4.789
  291SOL    HW2 1773   1.392   2.413   4.701
  292SOL     OW 1774   1.430   1.888   3.031
  292SOL    HW1 1775   1.391   1.877   3.122
  292SOL    HW2 1776   1.380   1.831   2.966
  293SOL     OW 1777   4.343   4.792   1.822
  293SOL    HW1 1778   4.266   4.855   1.826
  293SOL    HW2 1779   4.309   4.698   1.818
  294SOL     OW 1780   0.205   5.354   6.548
  294SOL    HW1 1781   0.291   5.304   6.537
  294SOL    HW2 1782   0.205   5.434   6.489
  295SOL     OW 1783   3.271   2.160   4.329
  295SOL    HW1 1784   3.337   2.085   4.335
  295SOL    HW2 1785   3.266   2.193   4.235
  296SOL     OW 1786   4.545   1.773   2.642
  296SOL    HW1 1787   4.522   1.682   2.676
  296SOL    HW2 1788   4.562   1.769   2.543
  297SOL     OW 1789   2.119   4.517   2.992
  297SOL    HW1 1790   2.088   4.551   3.080
  297SOL    HW2 1791   2.191   4.577   2.956
  298SOL     OW 1792   4.036   6.385   0.888
  298SOL    HW1 1793   3.962   6.378   0.954
  298SOL    HW2 1794   4.123   6.397   0.936
  299SOL     OW 1795   4.601   4.203   6.441
  299SOL    HW1 1796   4.637   4.291   6.474
  299SOL    HW2 1797   4.544   4.220   6.361
  300SOL     OW 1798   6.020   0.968   1.502
  300SOL    HW1 1799   5.948   0.900   1.489
  300SOL    HW2 1800   5.990   1.056   1.466
  301SOL     OW 1801   5.124   3.326   1.523
  301SOL    HW1 1802   5.123   3.240   1.573
  301SOL    HW2 1803   5.033   3.368   1.526
  302SOL     OW 1804   0.875   0.527   3.438
  302SOL    HW1 1805   0.799   0.465   3.419
  302SOL    HW2 1806   0.927   0.544   3.355
  303SOL     OW 1807   6.179   6.906   1.432
  303SOL    HW1 1808   6.137   6.849   1.503
  303SOL    HW2 1809   6.170   6.861   1.344
  304SOL     OW 1810   2.818   0.449   4.035
  304SOL    HW1 1811   2.773   0.382   3.976
  304SOL    HW2 1812   2.750   0.501   4.086
  305SOL     OW 1813   0.377   3.044   0.043
  305SOL    HW1 1814   0.436   3.009   0.115
  305SOL    HW2 1815   0.283   3.053   0.077
  306SOL     OW 1816   2.510   0.834   3.757
  306SOL    HW1 1817   2.511   0.896   3.678
  306SOL    HW2 1818   2.463   0.879   3.833
  307SOL     OW 1819   4.812   0.093   0.349
  307SOL    HW1 1820   4.725   0.064   0.309
  307SOL    HW2 1821   4.794   0.162   0.420
  308SOL     OW 1822   5.621   3.306   5.188
  308SOL    HW1 1823   5.547   3.368   5.159
  308SOL    HW2 1824   5.599   3.267   5.277
  309SOL     OW 1825   3.172   4.942   6.884
  309SOL    HW1 1826   3.192   4.936   6.786
  309SOL    HW2 1827   3.078   4.973   6.897
  310SOL     OW 1828   6.007   6.782   4.934
  310SOL    HW1 1829   5.938   6.725   4.979
  310SOL    HW2 1830   6.078   6.723   4.895
  311SOL     OW 1831   5.513   4.744   2.087
  311SOL    HW1 1832   5.506   4.679   2.012
  311SOL    HW2 1833   5.591   4.720   2.146
  312SOL     OW 1834   4.136   1.695   5.652
  312SOL    HW1 1835   4.100   1.679   5.744
  312SOL    HW2 1836   4.084   1.641   5.586
  313SOL     OW 1837   3.559   4.165   1.861
  313SOL    HW1 1838   3.603   4.115   1.936
  313SOL    HW2 1839   3.476   4.115   1.833
  314SOL     OW 1840   3.531   4.973   0.007
  314SOL    HW1 1841   3.451   5.027   0.034
  314SOL    HW2 1842   3.538   4.892   0.065
  315SOL     OW 1843   1.658   2.472   3.549
  315SOL    HW1 1844   1.753   2.464   3.578
  315SOL    HW2 1845   1.626   2.566   3.563
  316SOL     OW 1846   3.018   1.524   4.094
  316SOL    HW1 1847   3.087   1.497   4.028
  316SOL    HW2 1848   3.040   1.485   4.184
  317SOL     OW 1849   0.686   0.636   1.006
  317SOL    HW1 1850   0.627   0.716   1.015
  317SOL    HW2 1851   0.761   0.657   0.944
  318SOL     OW 1852   1.745   6.361   0.084
  318SOL    HW1 1853   1.712   6.273   0.118
  318SOL    HW2 1854   1.710   6.376   7.022
  319SOL     OW 1855   6.948   0.658   3.953
  319SOL    HW1 1856   7.001   0.574   3.943
  319SOL    HW2 1857   6.939   0.702   3.864
  320SOL     OW 1858   5.972   2.316   0.447
  320SOL    HW1 1859   6.042   2.344   0.381
  320SOL    HW2 1860   5.890   2.372   0.435
  321SOL     OW 1861   3.954   1.450   0.809
  321SOL    HW1 1862   3.981   1.525   0.870
  321SOL    HW2 1863   4.000   1.366   0.838
  322SOL     OW 1864   3.580   4.191   4.548
  322SOL    HW1 1865   3.609   4.098   4.527
  322SOL    HW2 1866   3.480   4.197   4.542
  323SOL     OW 1867   0.806   3.476   6.330
  323SOL    HW1 1868   0.780   3.524   6.246
  323SOL    HW2 1869   0.735   3.489   6.399
  324SOL     OW 1870   2.646   1.989   4.130
  324SOL    HW1 1871   2.613   2.011   4.039
  324SOL    HW2 1872   2.640   1.890   4.145
  325SOL     OW 1873   1.135   3.033   1.777
  325SOL    HW1 1874   1.216   3.024   1.718
  325SOL    HW2 1875   1.061   2.977   1.741
  326SOL     OW 1876   1.226   4.911   6.968
  326SOL    HW1 1877   1.263   4.944   0.024
  326SOL    HW2 1878   1.254   4.971   6.894
  327SOL     OW 1879   1.397   5.299   3.630
  327SOL    HW1 1880   1.372   5.363   3.703
  327SOL    HW2 1881   1.349   5.213   3.643
  328SOL     OW 1882   1.371   6.155   1.456
  328SOL    HW1 1883   1.398   6.198   1.370
  328SOL    HW2 1884   1.301   6.210   1.500
  329SOL     OW 1885   3.716   4.134   4.235
  329SOL    HW1 1886   3.655   4.204   4.270
  329SOL    HW2 1887   3.786   4.114   4.304
  330SOL     OW 1888   2.842   0.285   1.064
  330SOL    HW1 1889   2.904   0.363   1.057
  330SOL    HW2 1890   2.791   0.275   0.979
  331SOL     OW 1891   3.592   5.932   0.166
  331SOL    HW1 1892   3.630   5.840   0.169
  331SOL    HW2 1893   3.617   5.977   0.080
  332SOL     OW 1894   2.732   1.613   4.529
  332SOL    HW1 1895   2.819   1.617   4.479
  332SOL    HW2 1896   2.668   1.554   4.479
  333SOL     OW 1897   3.587   6.661   6.626
  333SOL    HW1 1898   3.519   6.588   6.629
  333SOL    HW2 1899   3.677   6.625   6.651
  334SOL     OW 1900   2.773   0.455   1.469
  334SOL    HW1 1901   2.714   0.432   1.392
  334SOL    HW2 1902   2.869   0.453   1.440
  335SOL     OW 1903   3.744   7.025   4.472
  335SOL    HW1 1904   3.704   0.084   4.490
  335SOL    HW2 1905   3.695   6.982   4.396
  336SOL     OW 1906   2.356   1.008   3.918
  336SOL    HW1 1907   2.377   1.095   3.872
  336SOL    HW2 1908   2.268   0.974   3.885
  337SOL     OW 1909   0.105   3.183   0.125
  337SOL    HW1 1910   0.060   3.230   0.049
  337SOL    HW2 1911   0.078   3.087   0.126
  338SOL     OW 1912   3.455   2.838   1.606
  338SOL    HW1 1913   3.535   2.896   1.622
  338SOL    HW2 1914   3.437   2.782   1.687
  339SOL     OW 1915   3.118   6.582   4.493
  339SOL    HW1 1916   3.193   6.616   4.551
  339SOL    HW2 1917   3.050   6.536   4.551
  340SOL     OW 1918   4.883   4.423   5.851
  340SOL    HW1 1919   4.938   4.463   5.925
  340SOL    HW2 1920   4.786   4.430   5.875
  341SOL     OW 1921   6.793   0.680   4.406
  341SOL    HW1 1922   6.702   0.641   4.421
  341SOL    HW2 1923   6.797   0.722   4.315
  342SOL     OW 1924   6.181   3.832   0.150
  342SOL    HW1 1925   6.244   3.756   0.166
  342SOL    HW2 1926   6.231   3.919   0.154
  343SOL     OW 1927   1.677   5.427   0.624
  343SOL    HW1 1928   1.607   5.498   0.633
  343SOL    HW2 1929   1.747   5.457   0.560
  344SOL     OW 1930   1.041   4.803   2.117
  344SOL    HW1 1931   0.950   4.846   2.114
  344SOL    HW2 1932   1.038   4.715   2.070
  345SOL     OW 1933   6.153   1.027   4.644
  345SOL    HW1 1934   6.079   1.007   4.707
  345SOL    HW2 1935   6.117   1.033   4.551
  346SOL     OW 1936   2.175   0.583   2.948
  346SOL    HW1 1937   2.174   0.579   2.848
  346SOL    HW2 1938   2.122   0.508   2.986
  347SOL     OW 1939   3.225   5.824   6.078
  347SOL    HW1 1940   3.208   5.794   6.172
  347SOL    HW2 1941   3.319   5.802   6.052
  348SOL     OW 1942   5.472   5.052   1.729
  348SOL    HW1 1943   5.454   4.958   1.701
  348SOL    HW2 1944   5.527   5.098   1.658
  349SOL     OW 1945   6.911   4.299   0.808
  349SOL    HW1 1946   6.860   4.226   0.854
  349SOL    HW2 1947   7.004   4.268   0.789
  350SOL     OW 1948   3.873   2.845   0.730
  350SOL    HW1 1949   3.827   2.926   0.766
  350SOL    HW2 1950   3.811   2.767   0.733
  351SOL     OW 1951   2.227   2.883   0.341
  351SOL    HW1 1952   2.227   2.826   0.259
  351SOL    HW2 1953   2.146   2.862   0.396
  352SOL     OW 1954   3.479   0.138   4.954
  352SOL    HW1 1955   3.521   0.048   4.961
  352SOL    HW2 1956   3.506   0.194   5.033
  353SOL     OW 1957   2.680   6.724   0.684
  353SOL    HW1 1958   2.766   6.703   0.729
  353SOL    HW2 1959   2.622   6.778   0.744
  354SOL     OW 1960   3.413   2.741   6.810
  354SOL    HW1 1961   3.424   2.751   6.711
  354SOL    HW2 1962   3.321   2.705   6.829
  355SOL     OW 1963   0.079   2.967   2.641
  355SOL    HW1 1964   7.016   2.935   2.626
  355SOL    HW2 1965   0.077   3.059   2.679
  356SOL     OW 1966   3.834   6.300   5.447
  356SOL    HW1 1967   3.763   6.309   5.516
  356SOL    HW2 1968   3.914   6.256   5.488
  357SOL     OW 1969   6.610   6.585   5.166
  357SOL    HW1 1970   6.702   6.556   5.194
  357SOL    HW2 1971   6.577   6.655   5.228
  358SOL     OW 1972   5.306   0.210   1.892
  358SOL    HW1 1973   5.206   0.206   1.889
  358SOL    HW2 1974   5.335   0.238   1.983
  359SOL     OW 1975   1.203   2.339   2.233
  359SOL    HW1 1976   1.212   2.242   2.257
  359SOL    HW2 1977   1.294   2.380   2.227
  360SOL     OW 1978   1.182   5.949   6.519
  360SOL    HW1 1979   1.120   5.903   6.583
  360SOL    HW2 1980   1.147   5.938   6.425
  361SOL     OW 1981   5.654   5.929   3.083
  361SOL    HW1 1982   5.617   5.856   3.141
  361SOL    HW2 1983   5.735   5.968   3.125
  362SOL     OW 1984   3.616   4.097   1.157
  362SOL    HW1 1985   3.627   4.187   1.116
  362SOL    HW2 1986   3.520   4.081   1.179
  363SOL     OW 1987   5.020   4.381   3.862
  363SOL    HW1 1988   5.012   4.475   3.897
  363SOL    HW2 1989   4.929   4.343   3.846
  364SOL     OW 1990   6.831   5.770   6.092
  364SOL    HW1 1991   6.779   5.828   6.030
  364SOL    HW2 1992   6.897   5.827   6.142
  365SOL     OW 1993   5.430   5.031   2.077
  365SOL    HW1 1994   5.370   5.062   2.151
  365SOL    HW2 1995   5.442   4.932   2.083
  366SOL     OW 1996   6.261   0.872   0.133
  366SOL    HW1 1997   6.250   0.966   0.101
  366SOL    HW2 1998   6.270   0.810   0.055
  367SOL     OW 1999   5.072   2.926   1.023
  367SOL    HW1 2000   5.016   3.002   1.056
  367SOL    HW2 2001   5.155   2.919   1.079
  368SOL     OW 2002   0.342   3.399   4.766
  368SOL    HW1 2003   0.339   3.383   4.668
  368SOL    HW2 2004   0.437   3.410   4.795
  369SOL     OW 2005   6.850   5.097   1.575
  369SOL    HW1 2006   6.796   5.017   1.603
  369SOL    HW2 2007   6.939   5.095   1.621
  370SOL     OW 2008   2.969   1.620   5.623
  370SOL    HW1 2009   2.875   1.635   5.592
  370SOL    HW2 2010   3.026   1.697   5.594
  371SOL     OW 2011   2.625   3.537   6.800
  371SOL    HW1 2012   2.594   3.589   6.879
  371SOL    HW2 2013   2.571   3.562   6.720
  372SOL     OW 2014   0.499   0.232   5.583
  372SOL    HW1 2015   0.520   0.270   5.673
  372SOL    HW2 2016   0.403   0.248   5.561
  373SOL     OW 2017   6.531   6.007   5.205
  373SOL    HW1 2018   6.602   6.058   5.254
  373SOL    HW2 2019   6.573   5.933   5.153
  374SOL     OW 2020   2.913   1.170   2.248
  374SOL    HW1 2021   2.985   1.227   2.290
  374SOL    HW2 2022   2.938   1.150   2.153
  375SOL     OW 2023   0.836   4.236   3.247
  375SOL    HW1 2024   0.870   4.253   3.339
  375SOL    HW2 2025   0.743   4.200   3.252
  376SOL     OW 2026   1.846   2.289   4.636
  376SOL    HW1 2027   1.817   2.376   4.676
  376SOL    HW2 2028   1.914   2.246   4.696
  377SOL     OW 2029   6.879   3.031   2.061
  377SOL    HW1 2030   6.888   3.101   1.991
  377SOL    HW2 2031   6.807   2.967   2.036
  378SOL     OW 2032   3.595   2.820   5.407
  378SOL    HW1 2033   3.601   2.838   5.308
  378SOL    HW2 2034   3.637   2.895   5.457
  379SOL     OW 2035   6.227   3.909   1.756
  379SOL    HW1 2036   6.275   3.824   1.779
  379SOL    HW2 2037   6.228   3.922   1.657
  380SOL     OW 2038   2.604   1.583   1.578
  380SOL    HW1 2039   2.507   1.609   1.582
  380SOL    HW2 2040   2.647   1.604   1.666
  381SOL     OW 2041   1.692   4.355   2.674
  381SOL    HW1 2042   1.676   4.427   2.606
  381SOL    HW2 2043   1.766   4.383   2.735
  382SOL     OW 2044   5.557   6.128   5.903
  382SOL    HW1 2045   5.635   6.187   5.922
  382SOL    HW2 2046   5.500   6.170   5.832
  383SOL     OW 2047   5.618   3.249   5.897
  383SOL    HW1 2048   5.652   3.338   5.867
  383SOL    HW2 2049   5.617   3.246   5.997
  384SOL     OW 2050   6.465   4.617   4.204
  384SOL    HW1 2051   6.452   4.525   4.240
  384SOL    HW2 2052   6.560   4.630   4.177
  385SOL     OW 2053   4.356   6.349   6.206
  385SOL    HW1 2054   4.438   6.329   6.153
  385SOL    HW2 2055   4.288   6.394   6.147
  386SOL     OW 2056   3.238   6.600   5.704
  386SOL    HW1 2057   3.204   6.519   5.656
  386SOL    HW2 2058   3.276   6.665   5.638
  387SOL     OW 2059   6.763   6.684   2.862
  387SOL    HW1 2060   6.844   6.681   2.921
  387SOL    HW2 2061   6.745   6.592   2.826
  388SOL     OW 2062   1.024   2.446   3.783
  388SOL    HW1 2063   1.042   2.456   3.881
  388SOL    HW2 2064   1.081   2.373   3.746
  389SOL     OW 2065   4.260   4.213   1.642
  389SOL    HW1 2066   4.318   4.195   1.562
  389SOL    HW2 2067   4.317   4.233   1.721
  390SOL     OW 2068   3.804   1.415   0.105
  390SOL    HW1 2069   3.750   1.411   0.189
  390SOL    HW2 2070   3.882   1.476   0.119
  391SOL     OW 2071   2.283   4.052   5.372
  391SOL    HW1 2072   2.208   3.987   5.363
  391SOL    HW2 2073   2.351   4.035   5.300
  392SOL     OW 2074   1.909   3.693   1.806
  392SOL    HW1 2075   1.832   3.753   1.786
  392SOL    HW2 2076   1.971   3.690   1.728
  393SOL     OW 2077   1.332   5.138   0.537
  393SOL    HW1 2078   1.354   5.181   0.625
  393SOL    HW2 2079   1.406   5.155   0.472
  394SOL     OW 2080   0.882   2.923   7.005
  394SOL    HW1 2081   0.805   2.892   6.949
  394SOL    HW2 2082   0.915   3.011   6.971
  395SOL     OW 2083   5.361   4.207   2.888
  395SOL    HW1 2084   5.424   4.284   2.898
  395SOL    HW2 2085   5.282   4.221   2.947
  396SOL     OW 2086   2.339   2.690   1.939
  396SOL    HW1 2087   2.269   2.618   1.940
  396SOL    HW2 2088   2.398   2.680   2.019
  397SOL     OW 2089   5.508   2.061   6.720
  397SOL    HW1 2090   5.517   1.966   6.689
  397SOL    HW2 2091   5.598   2.099   6.737
  398SOL     OW 2092   1.674   6.063   3.582
  398SOL    HW1 2093   1.771   6.041   3.596
  398SOL    HW2 2094   1.659   6.160   3.603
  399SOL     OW 2095   5.653   6.345   4.405
  399SOL    HW1 2096   5.578   6.280   4.400
  399SOL    HW2 2097   5.642   6.403   4.485
  400SOL     OW 2098   6.189   6.404   5.378
  400SOL    HW1 2099   6.110   6.343   5.370
  400SOL    HW2 2100   6.260   6.374   5.314
  401SOL     OW 2101   5.590   0.149   6.327
  401SOL    HW1 2102   5.528   0.147   6.248
  401SOL    HW2 2103   5.649   0.069   6.324
  402SOL     OW 2104   6.043   6.746   3.237
  402SOL    HW1 2105   5.994   6.824   3.198
  402SOL    HW2 2106   6.017   6.663   3.187
  403SOL     OW 2107   3.808   0.237   5.882
  403SOL    HW1 2108   3.857   0.304   5.826
  403SOL    HW2 2109   3.841   0.242   5.976
  404SOL     OW 2110   1.891   5.243   5.545
  404SOL    HW1 2111   1.990   5.236   5.558
  404SOL    HW2 2112   1.860   5.174   5.480
  405SOL     OW 2113   1.919   4.004   3.233
  405SOL    HW1 2114   1.983   3.936   3.200
  405SOL    HW2 2115   1.919   4.004   3.333
  406SOL     OW 2116   0.556   4.573   4.444
  406SOL    HW1 2117   0.557   4.637   4.521
  406SOL    HW2 2118   0.466   4.531   4.437
  407SOL     OW 2119   2.189   2.345   4.205
  407SOL    HW1 2120   2.248   2.312   4.278
  407SOL    HW2 2121   2.101   2.372   4.243
  408SOL     OW 2122   3.291   2.092   2.936
  408SOL    HW1 2123   3.378   2.129   2.906
  408SOL    HW2 2124   3.230   2.080   2.857
  409SOL     OW 2125   6.630   3.247   1.658
  409SOL    HW1 2126   6.700   3.257   1.587
  409SOL    HW2 2127   6.674   3.243   1.748
  410SOL     OW 2128   1.282   2.186   1.215
  410SOL    HW1 2129   1.293   2.093   1.249
  410SOL    HW2 2130   1.196   2.225   1.249
  411SOL     OW 2131   6.285   1.044   1.507
  411SOL    HW1 2132   6.190   1.014   1.500
  411SOL    HW2 2133   6.308   1.101   1.428
  412SOL     OW 2134   3.440   4.935   2.954
  412SOL    HW1 2135   3.485   4.990   3.025
  412SOL    HW2 2136   3.421   4.992   2.874
  413SOL     OW 2137   4.708   4.476   1.598
  413SOL    HW1 2138   4.807   4.478   1.584
  413SOL    HW2 2139   4.676   4.381   1.592
  414SOL     OW 2140   3.850   0.061   3.929
  414SOL    HW1 2141   3.914   0.061   3.853
  414SOL    HW2 2142   3.872   7.017   3.991
  415SOL     OW 2143   0.437   0.758   6.824
  415SOL    HW1 2144   0.460   0.700   6.902
  415SOL    HW2 2145   0.518   0.807   6.793
  416SOL     OW 2146   5.059   5.210   4.927
  416SOL    HW1 2147   5.095   5.121   4.899
  416SOL    HW2 2148   5.111   5.244   5.005
  417SOL     OW 2149   1.980   1.268   6.740
  417SOL    HW1 2150   2.080   1.266   6.748
  417SOL    HW2 2151   1.948   1.363   6.744
  418SOL     OW 2152   2.497   6.765   5.573
  418SOL    HW1 2153   2.503   6.665   5.572
  418SOL    HW2 2154   2.588   6.803   5.560
  419SOL     OW 2155   0.361   6.795   3.462
  419SOL    HW1 2156   0.400   6.703   3.473
  419SOL    HW2 2157   0.436   6.861   3.451
  420SOL     OW 2158   5.487   1.155   6.060
  420SOL    HW1 2159   5.543   1.135   6.140
  420SOL    HW2 2160   5.546   1.173   5.982
  421SOL     OW 2161   5.748   3.815   5.261
  421SOL    HW1 2162   5.815   3.824   5.188
  421SOL    HW2 2163   5.742   3.720   5.290
  422SOL     OW 2164   5.347   2.991   0.458
  422SOL    HW1 2165   5.318   2.948   0.544
  422SOL    HW2 2166   5.351   3.090   0.469
  423SOL     OW 2167   2.732   1.363   7.019
  423SOL    HW1 2168   2.691   1.447   0.023
  423SOL    HW2 2169   2.804   1.386   6.953
  424SOL     OW 2170   1.928   4.947   2.936
  424SOL    HW1 2171   1.874   4.899   3.005
  424SOL    HW2 2172   2.007   4.990   2.980
  425SOL     OW 2173   5.126   1.032   4.677
  425SOL    HW1 2174   5.139   1.004   4.773
  425SOL    HW2 2175   5.210   1.075   4.644
  426SOL     OW 2176   2.271   2.771   5.052
  426SOL    HW1 2177   2.340   2.843   5.061
  426SOL    HW2 2178   2.194   2.792   5.113
  427SOL     OW 2179   5.330   0.562   3.580
  427SOL    HW1 2180   5.416   0.525   3.545
  427SOL    HW2 2181   5.260   0.555   3.509
  428SOL     OW 2182   3.238   0.300   3.053
  428SOL    HW1 2183   3.187   0.386   3.048
  428SOL    HW2 2184   3.241   0.269   3.148
  429SOL     OW 2185   0.826   5.212   4.315
  429SOL    HW1 2186   0.834   5.295   4.369
  429SOL    HW2 2187   0.731   5.181   4.315
  430SOL     OW 2188   1.637   6.779   3.462
  430SOL    HW1 2189   1.667   6.815   3.374
  430SOL    HW2 2190   1.589   6.692   3.449
  431SOL     OW 2191   2.528   2.180   0.624
  431SOL    HW1 2192   2.460   2.184   0.551
  431SOL    HW2 2193   2.482   2.160   0.711
  432SOL     OW 2194   6.251   2.052   0.621
  432SOL    HW1 2195   6.259   1.959   0.586
  432SOL    HW2 2196   6.161   2.089   0.595
  433SOL     OW 2197   2.875   6.094   5.786
  433SOL    HW1 2198   2.855   6.148   5.867
  433SOL    HW2 2199   2.948   6.138   5.733
  434SOL     OW 2200   4.245   5.853   4.329
  434SOL    HW1 2201   4.254   5.931   4.268
  434SOL    HW2 2202   4.159   5.858   4.379
  435SOL     OW 2203   3.865   1.600   5.401
  435SOL    HW1 2204   3.788   1.551   5.443
  435SOL    HW2 2205   3.894   1.551   5.318
  436SOL     OW 2206   3.351   6.108   2.605
  436SOL    HW1 2207   3.389   6.016   2.600
  436SOL    HW2 2208   3.395   6.159   2.678
  437SOL     OW 2209   0.048   1.211   5.348
  437SOL    HW1 2210   0.022   1.292   5.296
  437SOL    HW2 2211   0.131   1.172   5.310
  438SOL     OW 2212   1.950   3.951   3.543
  438SOL    HW1 2213   1.852   3.966   3.558
  438SOL    HW2 2214   2.002   4.027   3.580
  439SOL     OW 2215   6.053   0.062   2.293
  439SOL    HW1 2216   5.972   0.078   2.349
  439SOL    HW2 2217   6.129   0.034   2.352
  440SOL     OW 2218   3.735   1.323   6.493
  440SOL    HW1 2219   3.687   1.237   6.513
  440SOL    HW2 2220   3.681   1.400   6.526
  441SOL     OW 2221   5.952   4.114   3.159
  441SOL    HW1 2222   5.893   4.132   3.238
  441SOL    HW2 2223   5.900   4.131   3.075
  442SOL     OW 2224   4.300   4.406   5.759
  442SOL    HW1 2225   4.252   4.319   5.773
  442SOL    HW2 2226   4.378   4.391   5.698
  443SOL     OW 2227   5.555   4.643   4.005
  443SOL    HW1 2228   5.514   4.728   4.038
  443SOL    HW2 2229   5.639   4.624   4.057
  444SOL     OW 2230   4.110   1.383   6.584
  444SOL    HW1 2231   4.064   1.439   6.516
  444SOL    HW2 2232   4.122   1.290   6.548
  445SOL     OW 2233   2.238   5.777   3.005
  445SOL    HW1 2234   2.157   5.794   3.061
  445SOL    HW2 2235   2.320   5.782   3.062
  446SOL     OW 2236   4.207   5.526   3.021
  446SOL    HW1 2237   4.211   5.509   2.922
  446SOL    HW2 2238   4.112   5.544   3.047
  447SOL     OW 2239   6.215   2.975   5.023
  447SOL    HW1 2240   6.196   3.073   5.032
  447SOL    HW2 2241   6.191   2.929   5.108
  448SOL     OW 2242   1.810   1.422   2.705
  448SOL    HW1 2243   1.818   1.324   2.688
  448SOL    HW2 2244   1.718   1.452   2.681
  449SOL     OW 2245   2.620   2.103   3.347
  449SOL    HW1 2246   2.605   2.162   3.426
  449SOL    HW2 2247   2.564   2.133   3.271
  450SOL     OW 2248   1.608   4.717   3.605
  450SOL    HW1 2249   1.694   4.723   3.555
  450SOL    HW2 2250   1.611   4.641   3.670
  451SOL     OW 2251   1.168   2.539   3.998
  451SOL    HW1 2252   1.221   2.613   3.955
  451SOL    HW2 2253   1.229   2.465   4.025
  452SOL     OW 2254   3.903   0.758   1.485
  452SOL    HW1 2255   3.806   0.748   1.464
  452SOL    HW2 2256   3.940   0.836   1.435
  453SOL     OW 2257   3.776   6.986   6.700
  453SOL    HW1 2258   3.767   6.929   6.781
  453SOL    HW2 2259   3.686   7.002   6.660
  454SOL     OW 2260   6.667   4.164   6.600
  454SOL    HW1 2261   6.739   4.097   6.613
  454SOL    HW2 2262   6.583   4.118   6.571
  455SOL     OW 2263   6.396   3.525   5.203
  455SOL    HW1 2264   6.463   3.456   5.175
  455SOL    HW2 2265   6.354   3.565   5.122
  456SOL     OW 2266   1.569   0.680   4.338
  456SOL    HW1 2267   1.560   0.755   4.404
  456SOL    HW2 2268   1.648   0.624   4.361
  457SOL     OW 2269   0.878   5.025   4.845
  457SOL    HW1 2270   0.786   4.994   4.822
  457SOL    HW2 2271   0.945   4.958   4.814
  458SOL     OW 2272   3.376   0.936   2.830
  458SOL    HW1 2273   3.428   0.941   2.916
  458SOL    HW2 2274   3.392   0.847   2.787
  459SOL     OW 2275   2.074   0.854   5.451
  459SOL    HW1 2276   2.113   0.871   5.361
  459SOL    HW2 2277   2.099   0.928   5.513
  460SOL     OW 2278   1.306   1.506   5.347
  460SOL    HW1 2279   1.395   1.470   5.377
  460SOL    HW2 2280   1.283   1.586   5.402
  461SOL     OW 2281   6.588   4.890   5.566
  461SOL    HW1 2282   6.678   4.928   5.589
  461SOL    HW2 2283   6.576   4.802   5.611
  462SOL     OW 2284   3.963   3.845   4.654
  462SOL    HW1 2285   3.903   3.923   4.669
  462SOL    HW2 2286   4.019   3.829   4.735
  463SOL     OW 2287   6.824   0.079   3.027
  463SOL    HW1 2288   6.842   0.037   2.938
  463SOL    HW2 2289   6.899   0.058   3.090
  464SOL     OW 2290   3.270   7.025   5.988
  464SOL    HW1 2291   3.362   0.029   5.974
  464SOL    HW2 2292   3.217   0.059   6.043
  465SOL     OW 2293   0.665   2.557   6.995
  465SOL    HW1 2294   0.642   2.647   6.960
  465SOL    HW2 2295   0.710   2.566   0.054
  466SOL     OW 2296   2.884   6.690   3.982
  466SOL    HW1 2297   2.786   6.704   3.975
  466SOL    HW2 2298   2.916   6.718   4.073
  467SOL     OW 2299   0.393   1.930   2.588
  467SOL    HW1 2300   0.453   1.918   2.509
  467SOL    HW2 2301   0.301   1.898   2.565
  468SOL     OW 2302   4.674   6.560   6.314
  468SOL    HW1 2303   4.620   6.488   6.357
  468SOL    HW2 2304   4.636   6.649   6.339
  469SOL     OW 2305   2.901   4.597   6.157
  469SOL    HW1 2306   2.894   4.569   6.061
  469SOL    HW2 2307   2.996   4.588   6.187
  470SOL     OW 2308   3.898   6.129   2.653
  470SOL    HW1 2309   3.972   6.157   2.713
  470SOL    HW2 2310   3.891   6.029   2.652
  471SOL     OW 2311   2.717   2.357   3.965
  471SOL    HW1 2312   2.795   2.320   3.915
  471SOL    HW2 2313   2.634   2.310   3.936
  472SOL     OW 2314   5.974   5.459   6.829
  472SOL    HW1 2315   6.043   5.387   6.832
  472SOL    HW2 2316   5.992   5.525   6.901
  473SOL     OW 2317   6.767   2.113   2.096
  473SOL    HW1 2318   6.708   2.065   2.161
  473SOL    HW2 2319   6.841   2.158   2.145
  474SOL     OW 2320   6.118   4.752   5.501
  474SOL    HW1 2321   6.048   4.780   5.567
  474SOL    HW2 2322   6.199   4.810   5.512
  475SOL     OW 2323   6.098   3.554   0.345
  475SOL    HW1 2324   6.112   3.570   0.248
  475SOL    HW2 2325   6.048   3.631   0.385
  476SOL     OW 2326   0.234   4.147   1.792
  476SOL    HW1 2327   0.276   4.150   1.883
  476SOL    HW2 2328   0.184   4.232   1.776
  477SOL     OW 2329   2.034   5.771   3.444
  477SOL    HW1 2330   1.984   5.795   3.527
  477SOL    HW2 2331   2.101   5.699   3.464
  478SOL     OW 2332   4.483   5.752   3.181
  478SOL    HW1 2333   4.425   5.677   3.149
  478SOL    HW2 2334   4.478   5.757   3.281
  479SOL     OW 2335   3.637   3.407   4.616
  479SOL    HW1 2336   3.601   3.367   4.700
  479SOL    HW2 2337   3.676   3.497   4.636
  480SOL     OW 2338   1.753   0.199   2.655
  480SOL    HW1 2339   1.767   0.123   2.592
  480SOL    HW2 2340   1.842   0.234   2.686
  481SOL     OW 2341   0.621   6.616   1.343
  481SOL    HW1 2342   0.531   6.652   1.320
  481SOL    HW2 2343   0.623   6.592   1.440
  482SOL     OW 2344   4.612   5.032   2.877
  482SOL    HW1 2345   4.589   4.990   2.789
  482SOL    HW2 2346   4.703   5.002   2.906
  483SOL     OW 2347   6.404   2.798   2.696
  483SOL    HW1 2348   6.457   2.729   2.746
  483SOL    HW2 2349   6.440   2.889   2.715
  484SOL     OW 2350   1.598   4.030   5.100
  484SOL    HW1 2351   1.655   3.982   5.035
  484SOL    HW2 2352   1.509   3.985   5.107
  485SOL     OW 2353   5.269   3.696   2.364
  485SOL    HW1 2354   5.290   3.792   2.382
  485SOL    HW2 2355   5.295   3.641   2.443
  486SOL     OW 2356   5.457   0.626   6.328
  486SOL    HW1 2357   5.526   0.581   6.385
  486SOL    HW2 2358   5.485   0.721   6.311
  487SOL     OW 2359   0.377   0.434   3.199
  487SOL    HW1 2360   0.381   0.334   3.186
  487SOL    HW2 2361   0.466   0.474   3.175
  488SOL     OW 2362   1.565   6.543   3.322
  488SOL    HW1 2363   1.495   6.490   3.370
  488SOL    HW2 2364   1.561   6.523   3.224
  489SOL     OW 2365   6.300   5.466   4.671
  489SOL    HW1 2366   6.373   5.528   4.643
  489SOL    HW2 2367   6.333   5.372   4.668
  490SOL     OW 2368   1.908   5.833   4.937
  490SOL    HW1 2369   1.834   5.832   4.871
  490SOL    HW2 2370   1.888   5.769   5.011
  491SOL     OW 2371   0.573   3.724   0.255
  491SOL    HW1 2372   0.579   3.627   0.280
  491SOL    HW2 2373   0.529   3.775   0.329
  492SOL     OW 2374   1.652   1.624   5.764
  492SOL    HW1 2375   1.701   1.617   5.851
  492SOL    HW2 2376   1.713   1.664   5.695
  493SOL     OW 2377   2.383   6.836   5.812
  493SOL    HW1 2378   2.411   6.823   5.717
  493SOL    HW2 2379   2.455   6.886   5.861
  494SOL     OW 2380   2.183   1.779   6.254
  494SOL    HW1 2381   2.178   1.826   6.343
  494SOL    HW2 2382   2.268   1.727   6.248
  495SOL     OW 2383   4.600   6.545   5.497
  495SOL    HW1 2384   4.597   6.481   5.421
  495SOL    HW2 2385   4.511   6.546   5.543
  496SOL     OW 2386   5.903   1.202   2.356
  496SOL    HW1 2387   5.879   1.155   2.441
  496SOL    HW2 2388   5.999   1.184   2.334
  497SOL     OW 2389   3.596   1.598   4.946
  497SOL    HW1 2390   3.651   1.681   4.955
  497SOL    HW2 2391   3.603   1.563   4.853
  498SOL     OW 2392   0.539   5.115   1.910
  498SOL    HW1 2393   0.599   5.098   1.988
  498SOL    HW2 2394   0.576   5.070   1.829
  499SOL     OW 2395   2.489   5.789   5.809
  499SOL    HW1 2396   2.587   5.791   5.830
  499SOL    HW2 2397   2.448   5.708   5.850
  500SOL     OW 2398   5.123   3.261   5.690
  500SOL    HW1 2399   5.191   3.287   5.759
  500SOL    HW2 2400   5.100   3.340   5.634
  501SOL     OW 2401   2.537   6.986   2.333
  501SOL    HW1 2402   2.584   6.919   2.276
  501SOL    HW2 2403   2.602   0.025   2.364
  502SOL     OW 2404   1.380   4.713   6.498
  502SOL    HW1 2405   1.282   4.730   6.510
  502SOL    HW2 2406   1.415   4.770   6.424
  503SOL     OW 2407   2.421   5.169   6.155
  503SOL    HW1 2408   2.430   5.074   6.186
  503SOL    HW2 2409   2.343   5.177   6.093
  504SOL     OW 2410   0.144   5.618   2.639
  504SOL    HW1 2411   0.230   5.668   2.636
  504SOL    HW2 2412   0.084   5.650   2.565
  505SOL     OW 2413   3.938   0.055   5.260
  505SOL    HW1 2414   3.965   6.999   5.300
  505SOL    HW2 2415   3.962   0.130   5.322
  506SOL     OW 2416   3.275   5.481   2.513
  506SOL    HW1 2417   3.199   5.505   2.453
  506SOL    HW2 2418   3.274   5.540   2.594
  507SOL     OW 2419   4.222   1.047   2.514
  507SOL    HW1 2420   4.134   1.003   2.501
  507SOL    HW2 2421   4.216   1.143   2.487
  508SOL     OW 2422   6.708   2.260   3.626
  508SOL    HW1 2423   6.791   2.302   3.589
  508SOL    HW2 2424   6.636   2.262   3.557
  509SOL     OW 2425   4.537   0.701   6.662
  509SOL    HW1 2426   4.483   0.762   6.605
  509SOL    HW2 2427   4.612   0.663   6.609
  510SOL     OW 2428   7.000   4.776   5.726
  510SOL    HW1 2429   0.057   4.727   5.719
  510SOL    HW2 2430   6.925   4.712   5.709
  511SOL     OW 2431   1.562   2.050   6.413
  511SOL    HW1 2432   1.545   1.985   6.488
  511SOL    HW2 2433   1.475   2.077   6.372
  512SOL     OW 2434   6.386   2.496   7.008
  512SOL    HW1 2435   6.402   2.525   0.072
  512SOL    HW2 2436   6.331   2.413   7.008
  513SOL     OW 2437   5.762   6.379   2.591
  513SOL    HW1 2438   5.750   6.391   2.493
  513SOL    HW2 2439   5.674   6.389   2.638
  514SOL     OW 2440   0.482   7.007   3.949
  514SOL    HW1 2441   0.383   7.000   3.963
  514SOL    HW2 2442   0.530   6.960   4.023
  515SOL     OW 2443   2.187   0.748   6.247
  515SOL    HW1 2444   2.213   0.658   6.212
  515SOL    HW2 2445   2.259   0.814   6.226
  516SOL     OW 2446   2.427   4.317   1.920
  516SOL    HW1 2447   2.494   4.384   1.889
  516SOL    HW2 2448   2.415   4.326   2.019
  517SOL     OW 2449   3.657   5.011   2.400
  517SOL    HW1 2450   3.669   5.000   2.499
  517SOL    HW2 2451   3.560   5.011   2.378
  518SOL     OW 2452   2.433   2.483   4.121
  518SOL    HW1 2453   2.352   2.429   4.143
  518SOL    HW2 2454   2.506   2.462   4.186
  519SOL     OW 2455   6.996   6.772   3.748
  519SOL    HW1 2456   6.958   6.863   3.732
  519SOL    HW2 2457   6.986   6.747   3.844
  520SOL     OW 2458   0.822   4.241   6.759
  520SOL    HW1 2459   0.869   4.291   6.687
  520SOL    HW2 2460   0.811   4.146   6.731
  521SOL     OW 2461   4.584   5.522   4.297
  521SOL    HW1 2462   4.529   5.515   4.380
  521SOL    HW2 2463   4.633   5.436   4.282
  522SOL     OW 2464   3.984   3.853   1.571
  522SOL    HW1 2465   4.068   3.877   1.619
  522SOL    HW2 2466   3.969   3.916   1.495
  523SOL     OW 2467   0.184   6.239   1.736
  523SOL    HW1 2468   0.131   6.236   1.820
  523SOL    HW2 2469   0.159   6.321   1.684
  524SOL     OW 2470   0.702   3.339   2.318
  524SOL    HW1 2471   0.673   3.432   2.297
  524SOL    HW2 2472   0.793   3.323   2.281
  525SOL     OW 2473   1.994   3.646   6.755
  525SOL    HW1 2474   2.042   3.629   6.841
  525SOL    HW2 2475   1.930   3.572   6.737
  526SOL     OW 2476   2.680   0.062   4.344
  526SOL    HW1 2477   2.596   0.060   4.398
  526SOL    HW2 2478   2.674   7.026   4.270
  527SOL     OW 2479   0.527   2.306   0.174
  527SOL    HW1 2480   0.577   2.391   0.195
  527SOL    HW2 2481   0.458   2.324   0.104
  528SOL     OW 2482   1.127   2.728   3.687
  528SOL    HW1 2483   1.096   2.638   3.719
  528SOL    HW2 2484   1.127   2.729   3.587
  529SOL     OW 2485   2.142   0.566   5.419
  529SOL    HW1 2486   2.081   0.509   5.475
  529SOL    HW2 2487   2.097   0.654   5.400
  530SOL     OW 2488   3.729   2.958   2.526
  530SOL    HW1 2489   3.827   2.973   2.541
  530SOL    HW2 2490   3.678   3.037   2.560
  531SOL     OW 2491   1.565   0.695   2.724
  531SOL    HW1 2492   1.653   0.689   2.676
  531SOL    HW2 2493   1.582   0.698   2.823
  532SOL     OW 2494   1.324   3.772   0.765
  532SOL    HW1 2495   1.364   3.742   0.851
  532SOL    HW2 2496   1.361   3.862   0.741
  533SOL     OW 2497   5.116   6.733   3.754
  533SOL    HW1 2498   5.076   6.825   3.750
  533SOL    HW2 2499   5.108   6.689   3.665
  534SOL     OW 2500   6.868   6.090   1.860
  534SOL    HW1 2501   6.919   6.029   1.920
  534SOL    HW2 2502   6.770   6.075   1.872
  535SOL     OW 2503   6.991   4.406   3.218
  535SOL    HW1 2504   6.920   4.459   3.264
  535SOL    HW2 2505   6.962   4.311   3.209
  536SOL     OW 2506   6.472   5.428   3.058
  536SOL    HW1 2507   6.452   5.517   3.017
  536SOL    HW2 2508   6.548   5.437   3.122
  537SOL     OW 2509   3.557   6.869   4.323
  537SOL    HW1 2510   3.491   6.853   4.249
  537SOL    HW2 2511   3.508   6.903   4.404
  538SOL     OW 2512   1.042   4.817   4.751
  538SOL    HW1 2513   0.994   4.744   4.701
  538SOL    HW2 2514   1.118   4.777   4.802
  539SOL     OW 2515   1.959   6.013   1.981
  539SOL    HW1 2516   1.865   6.005   1.948
  539SOL    HW2 2517   1.973   5.946   2.054
  540SOL     OW 2518   2.168   0.650   3.962
  540SOL    HW1 2519   2.254   0.610   3.931
  540SOL    HW2 2520   2.152   0.737   3.915
  541SOL     OW 2521   4.769   6.141   3.357
  541SOL    HW1 2522   4.810   6.198   3.428
  541SOL    HW2 2523   4.679   6.178   3.332
  542SOL     OW 2524   3.536   6.381   6.600
  542SOL    HW1 2525   3.454   6.329   6.624
  542SOL    HW2 2526   3.587   6.332   6.529
  543SOL     OW 2527   5.453   3.563   3.933
  543SOL    HW1 2528   5.482   3.542   3.839
  543SOL    HW2 2529   5.407   3.651   3.934
  544SOL     OW 2530   0.318   5.162   0.583
  544SOL    HW1 2531   0.332   5.218   0.665
  544SOL    HW2 2532   0.400   5.166   0.526
  545SOL     OW 2533   4.388   1.482   1.025
  545SOL    HW1 2534   4.438   1.447   0.946
  545SOL    HW2 2535   4.335   1.408   1.066
  546SOL     OW 2536   1.018   3.618   1.851
  546SOL    HW1 2537   1.069   3.704   1.839
  546SOL    HW2 2538   0.979   3.590   1.764
  547SOL     OW 2539   3.164   2.904   0.936
  547SOL    HW1 2540   3.107   2.837   0.983
  547SOL    HW2 2541   3.221   2.858   0.868
  548SOL     OW 2542   3.538   3.946   0.944
  548SOL    HW1 2543   3.615   3.882   0.939
  548SOL    HW2 2544   3.551   4.008   1.021
  549SOL     OW 2545   5.438   2.719   1.790
  549SOL    HW1 2546   5.538   2.715   1.799
  549SOL    HW2 2547   5.397   2.643   1.841
  550SOL     OW 2548   0.457   5.126   3.053
  550SOL    HW1 2549   0.520   5.163   2.986
  550SOL    HW2 2550   0.454   5.187   3.133
  551SOL     OW 2551   6.925   0.375   1.871
  551SOL    HW1 2552   6.869   0.456   1.885
  551SOL    HW2 2553   6.866   0.294   1.867
  552SOL     OW 2554   5.343   4.671   5.119
  552SOL    HW1 2555   5.274   4.616   5.166
  552SOL    HW2 2556   5.344   4.648   5.022
  553SOL     OW 2557   3.450   6.640   3.662
  553SOL    HW1 2558   3.542   6.637   3.701
  553SOL    HW2 2559   3.382   6.647   3.736
  554SOL     OW 2560   5.848   6.076   0.285
  554SOL    HW1 2561   5.798   6.149   0.332
  554SOL    HW2 2562   5.817   6.069   0.190
  555SOL     OW 2563   3.005   5.141   5.238
  555SOL    HW1 2564   2.984   5.044   5.233
  555SOL    HW2 2565   2.922   5.193   5.259
  556SOL     OW 2566   5.289   1.141   4.301
  556SOL    HW1 2567   5.368   1.141   4.240
  556SOL    HW2 2568   5.207   1.117   4.249
  557SOL     OW 2569   0.126   5.040   6.106
  557SOL    HW1 2570   0.182   4.959   6.089
  557SOL    HW2 2571   0.174   5.100   6.171
  558SOL     OW 2572   3.616   2.863   4.511
  558SOL    HW1 2573   3.537   2.921   4.532
  558SOL    HW2 2574   3.585   2.770   4.494
  559SOL     OW 2575   0.006   5.920   5.821
  559SOL    HW1 2576   6.967   5.990   5.832
  559SOL    HW2 2577   7.029   5.879   5.730
  560SOL     OW 2578   6.294   3.572   3.077
  560SOL    HW1 2579   6.223   3.567   3.146
  560SOL    HW2 2580   6.350   3.489   3.081
  561SOL     OW 2581   0.335   2.422   7.029
  561SOL    HW1 2582   0.309   2.517   0.020
  561SOL    HW2 2583   0.252   2.367   7.020
  562SOL     OW 2584   4.105   1.022   6.409
  562SOL    HW1 2585   4.175   1.088   6.381
  562SOL    HW2 2586   4.019   1.042   6.364
  563SOL     OW 2587   2.582   1.488   3.301
  563SOL    HW1 2588   2.679   1.492   3.326
  563SOL    HW2 2589   2.526   1.515   3.379
  564SOL     OW 2590   0.776   2.308   6.959
  564SOL    HW1 2591   0.715   2.386   6.957
  564SOL    HW2 2592   0.739   2.239   7.022
  565SOL     OW 2593   2.885   3.657   3.231
  565SOL    HW1 2594   2.905   3.562   3.254
  565SOL    HW2 2595   2.846   3.661   3.139
  566SOL     OW 2596   1.825   3.497   3.540
  566SOL    HW1 2597   1.805   3.519   3.444
  566SOL    HW2 2598   1.847   3.581   3.589
  567SOL     OW 2599   3.264   2.618   1.360
  567SOL    HW1 2600   3.306   2.550   1.421
  567SOL    HW2 2601   3.312   2.705   1.372
  568SOL     OW 2602   5.235   0.037   0.100
  568SOL    HW1 2603   5.232   6.975   0.063
  568SOL    HW2 2604   5.248   0.102   0.026
  569SOL     OW 2605   0.758   2.507   0.955
  569SOL    HW1 2606   0.683   2.522   0.891
  569SOL    HW2 2607   0.845   2.525   0.908
  570SOL     OW 2608   3.291   0.448   6.496
  570SOL    HW1 2609   3.244   0.534   6.475
  570SOL    HW2 2610   3.224   0.373   6.498
  571SOL     OW 2611   2.788   5.000   4.170
  571SOL    HW1 2612   2.781   4.963   4.077
  571SOL    HW2 2613   2.804   4.926   4.235
  572SOL     OW 2614   1.534   4.991   5.229
  572SOL    HW1 2615   1.479   5.007   5.311
  572SOL    HW2 2616   1.500   5.049   5.154
  573SOL     OW 2617   6.231   1.158   5.353
  573SOL    HW1 2618   6.282   1.092   5.297
  573SOL    HW2 2619   6.232   1.247   5.308
  574SOL     OW 2620   3.625   0.334   5.429
  574SOL    HW1 2621   3.672   0.421   5.413
  574SOL    HW2 2622   3.687   0.270   5.475
  575SOL     OW 2623   4.323   2.730   1.612
  575SOL    HW1 2624   4.337   2.637   1.646
  575SOL    HW2 2625   4.225   2.746   1.597
  576SOL     OW 2626   1.347   3.259   3.008
  576SOL    HW1 2627   1.274   3.234   3.073
  576SOL    HW2 2628   1.435   3.229   3.044
  577SOL     OW 2629   1.507   0.920   2.026
  577SOL    HW1 2630   1.489   0.868   1.943
  577SOL    HW2 2631   1.573   0.992   2.007
  578SOL     OW 2632   0.691   5.213   5.219
  578SOL    HW1 2633   0.787   5.215   5.244
  578SOL    HW2 2634   0.664   5.120   5.197
  579SOL     OW 2635   1.627   4.563   3.178
  579SOL    HW1 2636   1.663   4.481   3.134
  579SOL    HW2 2637   1.580   4.537   3.263
  580SOL     OW 2638   3.748   5.107   5.394
  580SOL    HW1 2639   3.753   5.072   5.300
  580SOL    HW2 2640   3.712   5.035   5.454
  581SOL     OW 2641   2.137   3.264   2.679
  581SOL    HW1 2642   2.101   3.266   2.773
  581SOL    HW2 2643   2.185   3.349   2.659
  582SOL     OW 2644   4.589   5.963   3.042
  582SOL    HW1 2645   4.573   5.949   2.945
  582SOL    HW2 2646   4.536   5.896   3.094
  583SOL     OW 2647   2.990   5.891   5.348
  583SOL    HW1 2648   2.949   5.897   5.439
  583SOL    HW2 2649   3.088   5.911   5.354
  584SOL     OW 2650   3.200   0.034   6.384
  584SOL    HW1 2651   3.200   0.087   6.300
  584SOL    HW2 2652   3.154   6.977   6.368
  585SOL     OW 2653   4.476   1.307   0.507
  585SOL    HW1 2654   4.382   1.323   0.538
  585SOL    HW2 2655   4.515   1.392   0.475
  586SOL     OW 2656   3.602   0.705   0.908
  586SOL    HW1 2657   3.658   0.644   0.851
  586SOL    HW2 2658   3.534   0.651   0.957
  587SOL     OW 2659   4.806   2.474   2.814
  587SOL    HW1 2660   4.896   2.498   2.778
  587SOL    HW2 2661   4.755   2.422   2.745
  588SOL     OW 2662   2.059   5.383   1.127
  588SOL    HW1 2663   2.135   5.396   1.192
  588SOL    HW2 2664   2.078   5.305   1.068
  589SOL     OW 2665   3.628   5.757   1.601
  589SOL    HW1 2666   3.632   5.844   1.551
  589SOL    HW2 2667   3.663   5.771   1.694
  590SOL     OW 2668   5.477   1.198   1.302
  590SOL    HW1 2669   5.441   1.142   1.377
  590SOL    HW2 2670   5.449   1.293   1.315
  591SOL     OW 2671   3.707   6.182   3.801
  591SOL    HW1 2672   3.728   6.187   3.704
  591SOL    HW2 2673   3.792   6.185   3.854
  592SOL     OW 2674   4.540   0.649   2.523
  592SOL    HW1 2675   4.512   0.616   2.433
  592SOL    HW2 2676   4.561   0.571   2.582
  593SOL     OW 2677   4.755   1.582   4.361
  593SOL    HW1 2678   4.768   1.631   4.275
  593SOL    HW2 2679   4.812   1.624   4.432
  594SOL     OW 2680   6.231   0.449   1.127
  594SOL    HW1 2681   6.196   0.397   1.049
  594SOL    HW2 2682   6.186   0.538   1.130
  595SOL     OW 2683   5.430   6.583   3.693
  595SOL    HW1 2684   5.407   6.667   3.644
  595SOL    HW2 2685   5.346   6.537   3.722
  596SOL     OW 2686   0.571   4.860   3.040
  596SOL    HW1 2687   0.561   4.958   3.058
  596SOL    HW2 2688   0.510   4.809   3.102
  597SOL     OW 2689   2.552   6.251   6.481
  597SOL    HW1 2690   2.461   6.293   6.485
  597SOL    HW2 2691   2.618   6.319   6.449
  598SOL     OW 2692   3.774   4.052   4.718
  598SOL    HW1 2693   3.686   4.022   4.681
  598SOL    HW2 2694   3.769   4.149   4.742
  599SOL     OW 2695   2.235   5.514   2.960
  599SOL    HW1 2696   2.258   5.606   2.992
  599SOL    HW2 2697   2.283   5.495   2.874
  600SOL     OW 2698   6.143   2.759   6.256
  600SOL    HW1 2699   6.071   2.813   6.213
  600SOL    HW2 2700   6.220   2.749   6.192
  601SOL     OW 2701   1.384   1.264   4.161
  601SOL    HW1 2702   1.467   1.279   4.107
  601SOL    HW2 2703   1.395   1.302   4.253
  602SOL     OW 2704   2.419   0.885   6.201
  602SOL    HW1 2705   2.463   0.829   6.130
  602SOL    HW2 2706   2.473   0.879   6.285
  603SOL     OW 2707   2.729   2.470   5.231
  603SOL    HW1 2708   2.649   2.529   5.238
  603SOL    HW2 2709   2.812   2.526   5.240
  604SOL     OW 2710   1.283   1.919   1.235
  604SOL    HW1 2711   1.363   1.861   1.251
  604SOL    HW2 2712   1.239   1.890   1.150
  605SOL     OW 2713   6.205   4.626   1.641
  605SOL    HW1 2714   6.169   4.652   1.551
  605SOL    HW2 2715   6.267   4.548   1.631
  606SOL     OW 2716   5.012   6.683   5.318
  606SOL    HW1 2717   4.976   6.643   5.233
  606SOL    HW2 2718   5.098   6.638   5.341
  607SOL     OW 2719   6.824   4.894   4.826
  607SOL    HW1 2720   6.882   4.907   4.745
  607SOL    HW2 2721   6.761   4.818   4.810
  608SOL     OW 2722   3.958   6.375   6.764
  608SOL    HW1 2723   3.929   6.462   6.802
  608SOL    HW2 2724   3.899   6.302   6.798
  609SOL     OW 2725   4.000   3.059   2.116
  609SOL    HW1 2726   4.033   3.144   2.075
  609SOL    HW2 2727   4.018   3.060   2.215
  610SOL     OW 2728   5.736   3.304   0.013
  610SOL    HW1 2729   5.643   3.300   7.006
  610SOL    HW2 2730   5.760   3.215   0.051
  611SOL     OW 2731   4.497   0.216   1.841
  611SOL    HW1 2732   4.433   0.169   1.780
  611SOL    HW2 2733   4.473   0.198   1.936
  612SOL     OW 2734   3.268   5.625   4.765
  612SOL    HW1 2735   3.181   5.591   4.802
  612SOL    HW2 2736   3.296   5.706   4.817
  613SOL     OW 2737   4.941   4.318   5.236
  613SOL    HW1 2738   4.966   4.295   5.330
  613SOL    HW2 2739   4.909   4.236   5.189
  614SOL     OW 2740   5.173   5.021   5.584
  614SOL    HW1 2741   5.115   5.030   5.665
  614SOL    HW2 2742   5.236   5.099   5.581
  615SOL     OW 2743   6.716   2.543   1.187
  615SOL    HW1 2744   6.642   2.477   1.203
  615SOL    HW2 2745   6.737   2.590   1.273
  616SOL     OW 2746   6.936   2.277   2.664
  616SOL    HW1 2747   6.951   2.181   2.688
  616SOL    HW2 2748   7.023   2.327   2.672
  617SOL     OW 2749   0.802   4.622   5.675
  617SOL    HW1 2750   0.885   4.568   5.689
  617SOL    HW2 2751   0.731   4.592   5.738
  618SOL     OW 2752   1.192   2.232   0.567
  618SOL    HW1 2753   1.094   2.246   0.554
  618SOL    HW2 2754   1.208   2.155   0.628
  619SOL     OW 2755   2.832   1.790   0.666
  619SOL    HW1 2756   2.769   1.745   0.729
  619SOL    HW2 2757   2.818   1.889   0.670
  620SOL     OW 2758   4.549   2.459   7.015
  620SOL    HW1 2759   4.494   2.490   6.937
  620SOL    HW2 2760   4.489   2.418   0.053
  621SOL     OW 2761   3.337   5.516   6.910
  621SOL    HW1 2762   3.435   5.497   6.921
  621SOL    HW2 2763   3.312   5.594   6.967
  622SOL     OW 2764   1.082   0.793   6.827
  622SOL    HW1 2765   1.119   0.717   6.881
  622SOL    HW2 2766   1.101   0.778   6.730
  623SOL     OW 2767   0.972   6.369   6.079
  623SOL    HW1 2768   0.998   6.385   5.984
  623SOL    HW2 2769   0.894   6.427   6.103
  624SOL     OW 2770   0.509   2.652   1.377
  624SOL    HW1 2771   0.607   2.643   1.392
  624SOL    HW2 2772   0.459   2.616   1.456
  625SOL     OW 2773   2.584   2.321   0.922
  625SOL    HW1 2774   2.627   2.343   0.834
  625SOL    HW2 2775   2.514   2.252   0.908
  626SOL     OW 2776   2.442   5.828   3.415
  626SOL    HW1 2777   2.492   5.748   3.446
  626SOL    HW2 2778   2.363   5.844   3.474
  627SOL     OW 2779   5.319   0.580   0.705
  627SOL    HW1 2780   5.293   0.647   0.635
  627SOL    HW2 2781   5.419   0.574   0.710
  628SOL     OW 2782   5.524   4.978   5.694
  628SOL    HW1 2783   5.479   5.062   5.664
  628SOL    HW2 2784   5.470   4.899   5.665
  629SOL     OW 2785   6.755   6.392   1.143
  629SOL    HW1 2786   6.705   6.460   1.196
  629SOL    HW2 2787   6.780   6.315   1.202
  630SOL     OW 2788   5.916   1.532   2.709
  630SOL    HW1 2789   5.870   1.461   2.655
  630SOL    HW2 2790   5.906   1.512   2.806
  631SOL     OW 2791   3.937   6.590   4.978
  631SOL    HW1 2792   4.033   6.598   5.002
  631SOL    HW2 2793   3.897   6.681   4.968
  632SOL     OW 2794   2.779   2.057   0.663
  632SOL    HW1 2795   2.695   2.094   0.623
  632SOL    HW2 2796   2.826   2.129   0.714
  633SOL     OW 2797   4.232   5.045   0.231
  633SOL    HW1 2798   4.147   5.092   0.205
  633SOL    HW2 2799   4.310   5.091   0.190
  634SOL     OW 2800   4.912   4.559   1.863
  634SOL    HW1 2801   4.943   4.535   1.771
  634SOL    HW2 2802   4.818   4.525   1.876
  635SOL     OW 2803   4.356   5.931   2.416
  635SOL    HW1 2804   4.446   5.958   2.380
  635SOL    HW2 2805   4.286   5.949   2.347
  636SOL     OW 2806   4.905   6.202   6.661
  636SOL    HW1 2807   4.954   6.209   6.575
  636SOL    HW2 2808   4.949   6.133   6.719
  637SOL     OW 2809   6.034   3.808   1.924
  637SOL    HW1 2810   6.060   3.844   2.014
  637SOL    HW2 2811   6.086   3.856   1.853
  638SOL     OW 2812   4.897   1.736   2.019
  638SOL    HW1 2813   4.828   1.673   2.055
  638SOL    HW2 2814   4.855   1.823   1.997
  639SOL     OW 2815   5.290   3.978   2.391
  639SOL    HW1 2816   5.291   4.027   2.478
  639SOL    HW2 2817   5.379   3.987   2.346
  640SOL     OW 2818   1.216   4.916   5.153
  640SOL    HW1 2819   1.233   4.924   5.251
  640SOL    HW2 2820   1.209   5.007   5.113
  641SOL     OW 2821   0.373   5.393   4.357
  641SOL    HW1 2822   0.350   5.348   4.443
  641SOL    HW2 2823   0.296   5.450   4.328
  642SOL     OW 2824   6.744   4.063   4.085
  642SOL    HW1 2825   6.824   4.119   4.111
  642SOL    HW2 2826   6.775   3.975   4.049
  643SOL     OW 2827   5.748   4.461   5.530
  643SOL    HW1 2828   5.716   4.535   5.590
  643SOL    HW2 2829   5.786   4.501   5.446
  644SOL     OW 2830   1.237   6.150   3.353
  644SOL    HW1 2831   1.198   6.168   3.263
  644SOL    HW2 2832   1.166   6.160   3.423
  645SOL     OW 2833   5.300   2.226   4.563
  645SOL    HW1 2834   5.319   2.299   4.629
  645SOL    HW2 2835   5.270   2.144   4.611
  646SOL     OW 2836   2.932   1.690   3.358
  646SOL    HW1 2837   2.867   1.765   3.363
  646SOL    HW2 2838   2.890   1.606   3.394
  647SOL     OW 2839   5.688   2.801   6.130
  647SOL    HW1 2840   5.606   2.855   6.110
  647SOL    HW2 2841   5.732   2.774   6.045
  648SOL     OW 2842   0.208   3.831   3.281
  648SOL    HW1 2843   0.165   3.827   3.371
  648SOL    HW2 2844   0.196   3.743   3.234
  649SOL     OW 2845   4.173   4.018   0.738
  649SOL    HW1 2846   4.119   4.072   0.673
  649SOL    HW2 2847   4.124   4.010   0.824
  650SOL     OW 2848   5.452   4.317   0.803
  650SOL    HW1 2849   5.462   4.290   0.899
  650SOL    HW2 2850   5.499   4.251   0.745
  651SOL     OW 2851   0.285   6.677   6.730
  651SOL    HW1 2852   0.240   6.651   6.815
  651SOL    HW2 2853   0.216   6.701   6.662
  652SOL     OW 2854   5.609   6.066   3.555
  652SOL    HW1 2855   5.525   6.116   3.576
  652SOL    HW2 2856   5.585   5.981   3.507
  653SOL     OW 2857   3.793   5.775   5.146
  653SOL    HW1 2858   3.722   5.844   5.135
  653SOL    HW2 2859   3.752   5.686   5.163
  654SOL     OW 2860   0.162   4.252   6.076
  654SOL    HW1 2861   0.083   4.312   6.063
  654SOL    HW2 2862   0.132   4.162   6.105
  655SOL     OW 2863   0.693   0.021   2.299
  655SOL    HW1 2864   0.732   0.106   2.332
  655SOL    HW2 2865   0.716   0.007   2.203
  656SOL     OW 2866   1.736   5.699   1.411
  656SOL    HW1 2867   1.680   5.781   1.412
  656SOL    HW2 2868   1.680   5.620   1.385
  657SOL     OW 2869   1.995   2.211   1.658
  657SOL    HW1 2870   1.974   2.306   1.684
  657SOL    HW2 2871   2.090   2.190   1.683
  658SOL     OW 2872   2.788   3.734   6.153
  658SOL    HW1 2873   2.693   3.703   6.157
  658SOL    HW2 2874   2.839   3.697   6.230
  659SOL     OW 2875   2.694   6.500   6.428
  659SOL    HW1 2876   2.637   6.580   6.449
  659SOL    HW2 2877   2.753   6.521   6.350
  660SOL     OW 2878   4.913   4.106   1.728
  660SOL    HW1 2879   4.938   4.009   1.738
  660SOL    HW2 2880   4.995   4.162   1.737
  661SOL     OW 2881   4.545   6.236   3.908
  661SOL    HW1 2882   4.636   6.250   3.871
  661SOL    HW2 2883   4.507   6.150   3.874
  662SOL     OW 2884   3.998   0.929   5.179
  662SOL    HW1 2885   3.982   1.012   5.126
  662SOL    HW2 2886   4.084   0.887   5.150
  663SOL     OW 2887   2.271   3.572   6.105
  663SOL    HW1 2888   2.175   3.550   6.121
  663SOL    HW2 2889   2.282   3.603   6.010
  664SOL     OW 2890   0.581   6.482   6.295
  664SOL    HW1 2891   0.504   6.438   6.339
  664SOL    HW2 2892   0.644   6.518   6.365
  665SOL     OW 2893   4.356   5.559   1.961
  665SOL    HW1 2894   4.272   5.588   2.007
  665SOL    HW2 2895   4.371   5.461   1.979
  666SOL     OW 2896   5.238   1.098   1.900
  666SOL    HW1 2897   5.283   1.182   1.931
  666SOL    HW2 2898   5.304   1.042   1.850
  667SOL     OW 2899   1.322   5.380   2.494
  667SOL    HW1 2900   1.399   5.323   2.521
  667SOL    HW2 2901   1.302   5.446   2.566
  668SOL     OW 2902   4.825   6.323   6.150
  668SOL    HW1 2903   4.890   6.313   6.225
  668SOL    HW2 2904   4.741   6.364   6.185
  669SOL     OW 2905   5.150   0.495   3.384
  669SOL    HW1 2906   5.088   0.455   3.452
  669SOL    HW2 2907   5.140   0.446   3.297
  670SOL     OW 2908   2.872   2.262   1.705
  670SOL    HW1 2909   2.831   2.327   1.641
  670SOL    HW2 2910   2.915   2.313   1.780
  671SOL     OW 2911   3.266   6.249   0.960
  671SOL    HW1 2912   3.256   6.171   1.022
  671SOL    HW2 2913   3.359   6.286   0.968
  672SOL     OW 2914   6.541   5.628   1.746
  672SOL    HW1 2915   6.528   5.714   1.796
  672SOL    HW2 2916   6.479   5.558   1.783
  673SOL     OW 2917   6.400   0.270   0.837
  673SOL    HW1 2918   6.303   0.260   0.855
  673SOL    HW2 2919   6.417   0.257   0.739
  674SOL     OW 2920   0.481   1.496   4.885
  674SOL    HW1 2921   0.476   1.439   4.803
  674SOL    HW2 2922   0.406   1.562   4.884
  675SOL     OW 2923   6.396   2.373   2.277
  675SOL    HW1 2924   6.437   2.297   2.328
  675SOL    HW2 2925   6.427   2.460   2.318
  676SOL     OW 2926   3.037   5.410   3.606
  676SOL    HW1 2927   2.970   5.346   3.571
  676SOL    HW2 2928   3.015   5.434   3.701
  677SOL     OW 2929   5.215   1.231   0.372
  677SOL    HW1 2930   5.125   1.257   0.406
  677SOL    HW2 2931   5.282   1.240   0.445
  678SOL     OW 2932   2.718   6.058   4.941
  678SOL    HW1 2933   2.789   6.085   5.006
  678SOL    HW2 2934   2.635   6.034   4.991
  679SOL     OW 2935   4.787   1.741   4.140
  679SOL    HW1 2936   4.722   1.701   4.075
  679SOL    HW2 2937   4.753   1.830   4.170
  680SOL     OW 2938   5.041   5.796   4.690
  680SOL    HW1 2939   5.120   5.852   4.662
  680SOL    HW2 2940   5.072   5.717   4.742
  681SOL     OW 2941   4.637   5.494   1.746
  681SOL    HW1 2942   4.658   5.439   1.827
  681SOL    HW2 2943   4.538   5.500   1.734
  682SOL     OW 2944   6.075   1.268   1.895
  682SOL    HW1 2945   6.149   1.257   1.830
  682SOL    HW2 2946   6.012   1.191   1.888
  683SOL     OW 2947   4.839   2.505   0.657
  683SOL    HW1 2948   4.929   2.510   0.613
  683SOL    HW2 2949   4.800   2.414   0.641
  684SOL     OW 2950   6.449   1.118   0.771
  684SOL    HW1 2951   6.445   1.046   0.702
  684SOL    HW2 2952   6.460   1.078   0.862
  685SOL     OW 2953   3.155   1.761   3.822
  685SOL    HW1 2954   3.212   1.679   3.825
  685SOL    HW2 2955   3.191   1.824   3.753
  686SOL     OW 2956   4.728   2.304   4.379
  686SOL    HW1 2957   4.658   2.367   4.411
  686SOL    HW2 2958   4.783   2.272   4.456
  687SOL     OW 2959   0.731   1.997   4.153
  687SOL    HW1 2960   0.648   1.973   4.103
  687SOL    HW2 2961   0.768   1.916   4.198
  688SOL     OW 2962   0.456   1.572   6.287
  688SOL    HW1 2963   0.430   1.618   6.372
  688SOL    HW2 2964   0.528   1.506   6.305
  689SOL     OW 2965   1.115   4.638   6.456
  689SOL    HW1 2966   1.140   4.630   6.360
  689SOL    HW2 2967   1.118   4.547   6.499
  690SOL     OW 2968   6.665   3.050   3.372
  690SOL    HW1 2969   6.747   3.031   3.427
  690SOL    HW2 2970   6.664   3.147   3.346
  691SOL     OW 2971   3.051   1.395   0.192
  691SOL    HW1 2972   3.145   1.388   0.228
  691SOL    HW2 2973   3.049   1.459   0.116
  692SOL     OW 2974   4.373   2.154   4.277
  692SOL    HW1 2975   4.283   2.191   4.296
  692SOL    HW2 2976   4.365   2.077   4.215
  693SOL     OW 2977   4.769   6.548   3.931
  693SOL    HW1 2978   4.792   6.630   3.878
  693SOL    HW2 2979   4.670   6.541   3.941
  694SOL     OW 2980   4.569   6.912   4.965
  694SOL    HW1 2981   4.654   6.899   4.913
  694SOL    HW2 2982   4.563   7.008   4.994
  695SOL     OW 2983   3.940   6.771   3.909
  695SOL    HW1 2984   4.023   6.799   3.958
  695SOL    HW2 2985   3.898   6.693   3.956
  696SOL     OW 2986   5.170   4.613   3.552
  696SOL    HW1 2987   5.221   4.557   3.617
  696SOL    HW2 2988   5.225   4.693   3.526
  697SOL     OW 2989   1.680   3.801   2.178
  697SOL    HW1 2990   1.653   3.897   2.186
  697SOL    HW2 2991   1.774   3.791   2.210
  698SOL     OW 2992   5.224   6.474   1.363
  698SOL    HW1 2993   5.129   6.499   1.381
  698SOL    HW2 2994   5.272   6.551   1.321
  699SOL     OW 2995   1.617   3.444   7.004
  699SOL    HW1 2996   1.532   3.456   0.023
  699SOL    HW2 2997   1.623   3.350   6.969
  700SOL     OW 2998   3.548   0.334   2.354
  700SOL    HW1 2999   3.563   0.395   2.432
  700SOL    HW2 3000   3.614   0.259   2.358
  701SOL     OW 3001   6.671   3.568   0.207
  701SOL    HW1 3002   6.700   3.504   0.136
  701SOL    HW2 3003   6.733   3.646   0.209
  702SOL     OW 3004   1.768   6.412   4.883
  702SOL    HW1 3005   1.812   6.326   4.912
  702SOL    HW2 3006   1.838   6.478   4.858
  703SOL     OW 3007   3.512   3.399   5.641
  703SOL    HW1 3008   3.553   3.339   5.572
  703SOL    HW2 3009   3.479   3.343   5.718
  704SOL     OW 3010   1.430   2.863   6.281
  704SOL    HW1 3011   1.419   2.955   6.320
  704SOL    HW2 3012   1.357   2.846   6.215
  705SOL     OW 3013   5.815   5.429   2.880
  705SOL    HW1 3014   5.835   5.527   2.878
  705SOL    HW2 3015   5.899   5.378   2.861
  706SOL     OW 3016   3.857   1.854   5.456
  706SOL    HW1 3017   3.872   1.759   5.429
  706SOL    HW2 3018   3.763   1.880   5.437
  707SOL     OW 3019   4.488   4.500   3.503
  707SOL    HW1 3020   4.444   4.414   3.530
  707SOL    HW2 3021   4.573   4.511   3.554
  708SOL     OW 3022   2.772   0.528   2.884
  708SOL    HW1 3023   2.683   0.570   2.865
  708SOL    HW2 3024   2.812   0.496   2.798
  709SOL     OW 3025   1.171   5.967   1.063
  709SOL    HW1 3026   1.117   5.953   0.979
  709SOL    HW2 3027   1.132   6.043   1.115
  710SOL     OW 3028   4.353   2.107   1.333
  710SOL    HW1 3029   4.387   2.198   1.356
  710SOL    HW2 3030   4.260   2.095   1.370
  711SOL     OW 3031   0.099   2.839   5.955
  711SOL    HW1 3032   0.047   2.824   6.040
  711SOL    HW2 3033   0.098   2.755   5.901
  712SOL     OW 3034   4.809   2.593   1.022
  712SOL    HW1 3035   4.836   2.599   1.117
  712SOL    HW2 3036   4.866   2.525   0.975
  713SOL     OW 3037   3.613   3.691   5.825
  713SOL    HW1 3038   3.687   3.723   5.766
  713SOL    HW2 3039   3.541   3.649   5.769
  714SOL     OW 3040   0.152   5.102   3.611
  714SOL    HW1 3041   0.052   5.100   3.599
  714SOL    HW2 3042   0.178   5.047   3.689
  715SOL     OW 3043   5.567   5.845   6.503
  715SOL    HW1 3044   5.479   5.800   6.518
  715SOL    HW2 3045   5.620   5.843   6.587
  716SOL     OW 3046   0.827   1.134   2.494
  716SOL    HW1 3047   0.852   1.098   2.585
  716SOL    HW2 3048   0.846   1.064   2.425
  717SOL     OW 3049   0.167   4.677   3.919
  717SOL    HW1 3050   0.250   4.718   3.883
  717SOL    HW2 3051   0.100   4.666   3.845
  718SOL     OW 3052   4.492   2.956   5.950
  718SOL    HW1 3053   4.580   2.987   5.916
  718SOL    HW2 3054   4.446   3.031   5.998
  719SOL     OW 3055   5.836   0.090   2.706
  719SOL    HW1 3056   5.740   0.110   2.727
  719SOL    HW2 3057   5.844   7.026   2.675
  720SOL     OW 3058   2.224   0.489   6.119
  720SOL    HW1 3059   2.311   0.484   6.168
  720SOL    HW2 3060   2.231   0.439   6.033
  721SOL     OW 3061   2.298   1.697   2.096
  721SOL    HW1 3062   2.384   1.730   2.136
  721SOL    HW2 3063   2.231   1.682   2.168
  722SOL     OW 3064   2.737   0.844   5.761
  722SOL    HW1 3065   2.802   0.865   5.834
  722SOL    HW2 3066   2.767   0.888   5.676
  723SOL     OW 3067   1.978   4.988   3.373
  723SOL    HW1 3068   2.018   4.896   3.364
  723SOL    HW2 3069   1.880   4.980   3.389
  724SOL     OW 3070   0.686   1.325   3.340
  724SOL    HW1 3071   0.772   1.278   3.360
  724SOL    HW2 3072   0.626   1.320   3.419
  725SOL     OW 3073   1.411   4.906   2.707
  725SOL    HW1 3074   1.444   4.813   2.719
  725SOL    HW2 3075   1.312   4.909   2.721
  726SOL     OW 3076   2.743   5.137   1.518
  726SOL    HW1 3077   2.805   5.147   1.596
  726SOL    HW2 3078   2.753   5.215   1.457
  727SOL     OW 3079   5.641   4.475   6.023
  727SOL    HW1 3080   5.593   4.545   5.971
  727SOL    HW2 3081   5.667   4.512   6.112
  728SOL     OW 3082   6.328   3.176   4.039
  728SOL    HW1 3083   6.363   3.082   4.043
  728SOL    HW2 3084   6.404   3.240   4.034
  729SOL     OW 3085   0.064   2.838   1.291
  729SOL    HW1 3086   0.126   2.786   1.233
  729SOL    HW2 3087   0.105   2.928   1.311
  730SOL     OW 3088   0.044   0.187   4.094
  730SOL    HW1 3089   0.114   0.221   4.031
  730SOL    HW2 3090   0.078   0.104   4.139
  731SOL     OW 3091   4.630   5.143   6.267
  731SOL    HW1 3092   4.631   5.105   6.360
  731SOL    HW2 3093   4.617   5.242   6.272
  732SOL     OW 3094   6.044   2.943   2.498
  732SOL    HW1 3095   5.982   2.898   2.434
  732SOL    HW2 3096   6.102   2.874   2.541
  733SOL     OW 3097   5.624   0.049   5.355
  733SOL    HW1 3098   5.559   0.109   5.403
  733SOL    HW2 3099   5.634   0.080   5.261
  734SOL     OW 3100   5.903   5.255   2.597
  734SOL    HW1 3101   5.840   5.189   2.638
  734SOL    HW2 3102   5.975   5.278   2.663
  735SOL     OW 3103   4.258   1.371   0.683
  735SOL    HW1 3104   4.196   1.337   0.754
  735SOL    HW2 3105   4.264   1.470   0.689
  736SOL     OW 3106   0.722   1.309   3.735
  736SOL    HW1 3107   0.779   1.389   3.717
  736SOL    HW2 3108   0.647   1.306   3.669
  737SOL     OW 3109   5.327   1.701   6.069
  737SOL    HW1 3110   5.377   1.784   6.094
  737SOL    HW2 3111   5.391   1.630   6.041
  738SOL     OW 3112   3.130   3.718   1.547
  738SOL    HW1 3113   3.202   3.657   1.582
  738SOL    HW2 3114   3.043   3.669   1.548
  739SOL     OW 3115   4.384   0.481   4.522
  739SOL    HW1 3116   4.445   0.427   4.580
  739SOL    HW2 3117   4.351   0.423   4.447
  740SOL     OW 3118   5.538   1.238   3.075
  740SOL    HW1 3119   5.519   1.143   3.102
  740SOL    HW2 3120   5.516   1.299   3.151
  741SOL     OW 3121   1.834   0.210   4.117
  741SOL    HW1 3122   1.833   0.166   4.027
  741SOL    HW2 3123   1.928   0.219   4.149
  742SOL     OW 3124   1.803   6.673   1.448
  742SOL    HW1 3125   1.898   6.704   1.451
  742SOL    HW2 3126   1.761   6.700   1.361
  743SOL     OW 3127   0.517   5.360   3.235
  743SOL    HW1 3128   0.449   5.380   3.306
  743SOL    HW2 3129   0.498   5.416   3.154
  744SOL     OW 3130   5.571   0.692   1.134
  744SOL    HW1 3131   5.472   0.688   1.149
  744SOL    HW2 3132   5.603   0.785   1.149
  745SOL     OW 3133   1.711   5.385   5.223
  745SOL    HW1 3134   1.642   5.362   5.155
  745SOL    HW2 3135   1.670   5.386   5.314
  746SOL     OW 3136   6.248   3.825   6.179
  746SOL    HW1 3137   6.166   3.810   6.123
  746SOL    HW2 3138   6.245   3.916   6.220
  747SOL     OW 3139   4.310   5.995   4.774
  747SOL    HW1 3140   4.376   5.977   4.701
  747SOL    HW2 3141   4.278   5.908   4.811
  748SOL     OW 3142   4.617   5.302   2.217
  748SOL    HW1 3143   4.634   5.359   2.298
  748SOL    HW2 3144   4.521   5.273   2.216
  749SOL     OW 3145   5.606   3.898   4.561
  749SOL    HW1 3146   5.520   3.890   4.611
  749SOL    HW2 3147   5.590   3.948   4.476
  750SOL     OW 3148   2.345   1.292   1.694
  750SOL    HW1 3149   2.277   1.279   1.622
  750SOL    HW2 3150   2.340   1.386   1.728
  751SOL     OW 3151   4.430   1.620   0.197
  751SOL    HW1 3152   4.334   1.609   0.173
  751SOL    HW2 3153   4.463   1.708   0.162
  752SOL     OW 3154   2.903   3.573   0.946
  752SOL    HW1 3155   2.851   3.559   1.030
  752SOL    HW2 3156   2.883   3.664   0.909
  753SOL     OW 3157   1.373   3.788   5.825
  753SOL    HW1 3158   1.428   3.709   5.801
  753SOL    HW2 3159   1.282   3.780   5.783
  754SOL     OW 3160   4.487   1.612   6.196
  754SOL    HW1 3161   4.404   1.620   6.251
  754SOL    HW2 3162   4.562   1.660   6.241
  755SOL     OW 3163   2.512   4.652   5.321
  755SOL    HW1 3164   2.588   4.713   5.298
  755SOL    HW2 3165   2.474   4.614   5.237
  756SOL     OW 3166   2.382   5.448   0.207
  756SOL    HW1 3167   2.317   5.374   0.227
  756SOL    HW2 3168   2.434   5.470   0.290
  757SOL     OW 3169   1.298   5.885   3.908
  757SOL    HW1 3170   1.379   5.836   3.876
  757SOL    HW2 3171   1.224   5.874   3.842
  758SOL     OW 3172   4.435   0.946   3.356
  758SOL    HW1 3173   4.359   0.992   3.309
  758SOL    HW2 3174   4.418   0.947   3.454
  759SOL     OW 3175   0.333   2.871   2.688
  759SOL    HW1 3176   0.407   2.926   2.650
  759SOL    HW2 3177   0.245   2.908   2.658
  760SOL     OW 3178   6.508   7.004   3.860
  760SOL    HW1 3179   6.545   6.913   3.878
  760SOL    HW2 3180   6.479   7.010   3.765
  761SOL     OW 3181   5.754   4.269   6.684
  761SOL    HW1 3182   5.842   4.317   6.689
  761SOL    HW2 3183   5.683   4.331   6.651
  762SOL     OW 3184   3.161   7.018   5.543
  762SOL    HW1 3185   3.084   0.046   5.518
  762SOL    HW2 3186   3.195   6.972   5.461
  763SOL     OW 3187   4.130   6.473   6.098
  763SOL    HW1 3188   4.062   6.400   6.100
  763SOL    HW2 3189   4.117   6.533   6.177
  764SOL     OW 3190   4.990   0.947   5.731
  764SOL    HW1 3191   5.043   0.901   5.660
  764SOL    HW2 3192   4.973   1.042   5.704
  765SOL     OW 3193   1.843   6.016   0.788
  765SOL    HW1 3194   1.785   6.087   0.827
  765SOL    HW2 3195   1.930   6.055   0.760
  766SOL     OW 3196   2.943   1.976   5.667
  766SOL    HW1 3197   2.933   2.055   5.606
  766SOL    HW2 3198   3.038   1.947   5.669
  767SOL     OW 3199   6.521   6.381   3.786
  767SOL    HW1 3200   6.527   6.335   3.698
  767SOL    HW2 3201   6.611   6.412   3.814
  768SOL     OW 3202   2.150   5.508   3.491
  768SOL    HW1 3203   2.223   5.535   3.554
  768SOL    HW2 3204   2.071   5.475   3.543
  769SOL     OW 3205   3.004   0.954   5.879
  769SOL    HW1 3206   3.060   1.013   5.821
  769SOL    HW2 3207   3.054   0.869   5.899
  770SOL     OW 3208   1.916   5.165   3.918
  770SOL    HW1 3209   1.970   5.244   3.948
  770SOL    HW2 3210   1.972   5.109   3.856
  771SOL     OW 3211   1.360   4.630   2.634
  771SOL    HW1 3212   1.264   4.653   2.623
  771SOL    HW2 3213   1.379   4.608   2.730
  772SOL     OW 3214   6.119   4.543   6.978
  772SOL    HW1 3215   6.177   4.520   6.900
  772SOL    HW2 3216   6.108   4.642   6.983
  773SOL     OW 3217   0.712   3.912   3.141
  773SOL    HW1 3218   0.685   3.819   3.115
  773SOL    HW2 3219   0.794   3.939   3.091
  774SOL     OW 3220   1.487   1.623   2.161
  774SOL    HW1 3221   1.394   1.589   2.163
  774SOL    HW2 3222   1.551   1.546   2.167
  775SOL     OW 3223   2.358   1.712   4.043
  775SOL    HW1 3224   2.408   1.717   4.130
  775SOL    HW2 3225   2.418   1.677   3.971
  776SOL     OW 3226   6.819   0.772   6.174
  776SOL    HW1 3227   6.815   0.673   6.166
  776SOL    HW2 3228   6.914   0.800   6.189
  777SOL     OW 3229   2.177   4.238   1.535
  777SOL    HW1 3230   2.101   4.249   1.471
  777SOL    HW2 3231   2.158   4.160   1.595
  778SOL     OW 3232   2.397   0.051   1.575
  778SOL    HW1 3233   2.494   0.077   1.569
  778SOL    HW2 3234   2.382   7.028   1.658
  779SOL     OW 3235   6.641   1.905   1.814
  779SOL    HW1 3236   6.612   1.980   1.754
  779SOL    HW2 3237   6.576   1.894   1.889
  780SOL     OW 3238   0.836   2.134   4.482
  780SOL    HW1 3239   0.924   2.091   4.502
  780SOL    HW2 3240   0.851   2.223   4.440
  781SOL     OW 3241   5.439   5.784   0.810
  781SOL    HW1 3242   5.442   5.881   0.833
  781SOL    HW2 3243   5.346   5.759   0.782
  782SOL     OW 3244   1.479   3.492   5.282
  782SOL    HW1 3245   1.505   3.582   5.248
  782SOL    HW2 3246   1.555   3.429   5.272
  783SOL     OW 3247   5.153   4.567   2.012
  783SOL    HW1 3248   5.066   4.567   1.963
  783SOL    HW2 3249   5.225   4.535   1.952
  784SOL     OW 3250   4.124   4.967   1.793
  784SOL    HW1 3251   4.034   4.923   1.795
  784SOL    HW2 3252   4.118   5.056   1.838
  785SOL     OW 3253   0.510   1.103   3.377
  785SOL    HW1 3254   0.471   1.092   3.468
  785SOL    HW2 3255   0.542   1.014   3.343
  786SOL     OW 3256   6.973   0.847   2.444
  786SOL    HW1 3257   6.908   0.923   2.449
  786SOL    HW2 3258   7.002   0.822   2.536
  787SOL     OW 3259   1.525   0.130   7.011
  787SOL    HW1 3260   1.493   0.041   0.013
  787SOL    HW2 3261   1.512   0.137   6.912
  788SOL     OW 3262   4.693   2.194   1.150
  788SOL    HW1 3263   4.633   2.270   1.124
  788SOL    HW2 3264   4.756   2.175   1.075
  789SOL     OW 3265   4.506   5.115   2.009
  789SOL    HW1 3266   4.430   5.094   2.071
  789SOL    HW2 3267   4.578   5.047   2.020
  790SOL     OW 3268   2.542   1.377   2.968
  790SOL    HW1 3269   2.631   1.396   2.927
  790SOL    HW2 3270   2.553   1.316   3.046
  791SOL     OW 3271   2.536   6.165   5.285
  791SOL    HW1 3272   2.595   6.144   5.363
  791SOL    HW2 3273   2.474   6.088   5.269
  792SOL     OW 3274   0.910   0.661   1.816
  792SOL    HW1 3275   0.883   0.579   1.764
  792SOL    HW2 3276   0.938   0.635   1.908
  793SOL     OW 3277   5.182   5.635   4.874
  793SOL    HW1 3278   5.255   5.574   4.904
  793SOL    HW2 3279   5.134   5.671   4.954
  794SOL     OW 3280   2.765   3.652   5.648
  794SOL    HW1 3281   2.736   3.559   5.667
  794SOL    HW2 3282   2.792   3.697   5.733
  795SOL     OW 3283   3.797   0.569   5.398
  795SOL    HW1 3284   3.834   0.661   5.408
  795SOL    HW2 3285   3.836   0.525   5.317
  796SOL     OW 3286   1.030   2.699   7.015
  796SOL    HW1 3287   0.963   2.768   0.014
  796SOL    HW2 3288   1.122   2.738   7.023
  797SOL     OW 3289   4.808   0.656   0.852
  797SOL    HW1 3290   4.875   0.592   0.816
  797SOL    HW2 3291   4.728   0.657   0.792
  798SOL     OW 3292   3.844   6.504   1.993
  798SOL    HW1 3293   3.778   6.441   2.033
  798SOL    HW2 3294   3.930   6.457   1.977
  799SOL     OW 3295   0.712   0.250   6.288
  799SOL    HW1 3296   0.663   0.335   6.310
  799SOL    HW2 3297   0.808   0.272   6.270
  800SOL     OW 3298   6.796   1.006   2.531
  800SOL    HW1 3299   6.741   0.922   2.532
  800SOL    HW2 3300   6.736   1.084   2.548
  801SOL     OW 3301   2.303   4.317   5.132
  801SOL    HW1 3302   2.271   4.336   5.225
  801SOL    HW2 3303   2.315   4.218   5.121
  802SOL     OW 3304   3.280   2.429   6.773
  802SOL    HW1 3305   3.221   2.506   6.798
  802SOL    HW2 3306   3.246   2.388   6.688
  803SOL     OW 3307   1.408   0.398   5.808
  803SOL    HW1 3308   1.358   0.314   5.787
  803SOL    HW2 3309   1.364   0.445   5.885
  804SOL     OW 3310   6.673   6.594   1.295
  804SOL    HW1 3311   6.756   6.649   1.283
  804SOL    HW2 3312   6.651   6.588   1.392
  805SOL     OW 3313   1.976   0.465   3.946
  805SOL    HW1 3314   2.058   0.516   3.971
  805SOL    HW2 3315   1.905   0.479   4.016
  806SOL     OW 3316   6.191   0.565   6.077
  806SOL    HW1 3317   6.192   0.466   6.064
  806SOL    HW2 3318   6.115   0.605   6.025
  807SOL     OW 3319   0.610   6.821   4.127
  807SOL    HW1 3320   0.634   6.911   4.164
  807SOL    HW2 3321   0.549   6.774   4.191
  808SOL     OW 3322   5.016   3.235   0.101
  808SOL    HW1 3323   4.956   3.257   0.178
  808SOL    HW2 3324   5.091   3.176   0.134
  809SOL     OW 3325   1.297   4.589   0.861
  809SOL    HW1 3326   1.389   4.550   0.860
  809SOL    HW2 3327   1.239   4.535   0.922
  810SOL     OW 3328   3.430   4.134   0.087
  810SOL    HW1 3329   3.455   4.160   0.181
  810SOL    HW2 3330   3.421   4.217   0.031
  811SOL     OW 3331   5.351   5.406   4.224
  811SOL    HW1 3332   5.396   5.441   4.142
  811SOL    HW2 3333   5.419   5.393   4.296
  812SOL     OW 3334   6.900   1.892   1.886
  812SOL    HW1 3335   6.804   1.908   1.866
  812SOL    HW2 3336   6.924   1.938   1.971
  813SOL     OW 3337   3.156   0.348   4.445
  813SOL    HW1 3338   3.211   0.410   4.390
  813SOL    HW2 3339   3.063   0.344   4.408
  814SOL     OW 3340   6.610   5.705   2.587
  814SOL    HW1 3341   6.666   5.681   2.666
  814SOL    HW2 3342   6.588   5.803   2.591
  815SOL     OW 3343   5.602   3.230   3.426
  815SOL    HW1 3344   5.612   3.310   3.367
  815SOL    HW2 3345   5.655   3.244   3.510
  816SOL     OW 3346   5.274   5.347   0.169
  816SOL    HW1 3347   5.338   5.347   0.245
  816SOL    HW2 3348   5.239   5.440   0.155
  817SOL     OW 3349   0.771   5.398   1.427
  817SOL    HW1 3350   0.839   5.328   1.406
  817SOL    HW2 3351   0.743   5.389   1.523
  818SOL     OW 3352   5.629   2.828   3.879
  818SOL    HW1 3353   5.728   2.814   3.885
  818SOL    HW2 3354   5.583   2.766   3.943
  819SOL     OW 3355   6.176   2.568   1.361
  819SOL    HW1 3356   6.176   2.509   1.441
  819SOL    HW2 3357   6.088   2.560   1.314
  820SOL     OW 3358   2.943   2.201   4.779
  820SOL    HW1 3359   3.009   2.218   4.853
  820SOL    HW2 3360   2.992   2.198   4.692
  821SOL     OW 3361   6.723   4.794   6.272
  821SOL    HW1 3362   6.697   4.703   6.241
  821SOL    HW2 3363   6.643   4.841   6.308
  822SOL     OW 3364   6.962   3.720   3.203
  822SOL    HW1 3365   0.021   3.680   3.220
  822SOL    HW2 3366   6.906   3.656   3.150
  823SOL     OW 3367   6.674   4.550   6.180
  823SOL    HW1 3368   6.693   4.559   6.082
  823SOL    HW2 3369   6.737   4.484   6.220
  824SOL     OW 3370   4.634   1.153   6.010
  824SOL    HW1 3371   4.594   1.239   6.042
  824SOL    HW2 3372   4.729   1.169   5.982
  825SOL     OW 3373   6.480   5.610   0.714
  825SOL    HW1 3374   6.478   5.515   0.682
  825SOL    HW2 3375   6.393   5.654   0.692
  826SOL     OW 3376   3.611   2.543   5.765
  826SOL    HW1 3377   3.547   2.603   5.717
  826SOL    HW2 3378   3.601   2.450   5.731
  827SOL     OW 3379   2.929   4.093   5.312
  827SOL    HW1 3380   2.833   4.072   5.331
  827SOL    HW2 3381   2.956   4.052   5.225
  828SOL     OW 3382   6.126   6.046   6.433
  828SOL    HW1 3383   6.204   6.109   6.440
  828SOL    HW2 3384   6.149   5.971   6.372
  829SOL     OW 3385   3.579   3.262   1.809
  829SOL    HW1 3386   3.651   3.240   1.875
  829SOL    HW2 3387   3.491   3.265   1.855
  830SOL     OW 3388   5.834   5.051   6.824
  830SOL    HW1 3389   5.826   5.146   6.793
  830SOL    HW2 3390   5.776   5.037   6.904
  831SOL     OW 3391   5.960   0.007   0.990
  831SOL    HW1 3392   5.900   0.086   1.005
  831SOL    HW2 3393   5.937   6.966   1.056
  832SOL     OW 3394   4.553   1.988   3.973
  832SOL    HW1 3395   4.553   2.081   3.935
  832SOL    HW2 3396   4.603   1.987   4.059
  833SOL     OW 3397   1.891   3.783   6.251
  833SOL    HW1 3398   1.828   3.716   6.210
  833SOL    HW2 3399   1.926   3.746   6.338
  834SOL     OW 3400   5.392   3.544   1.087
  834SOL    HW1 3401   5.359   3.542   0.993
  834SOL    HW2 3402   5.364   3.460   1.134
  835SOL     OW 3403   2.341   0.367   4.828
  835SOL    HW1 3404   2.298   0.368   4.918
  835SOL    HW2 3405   2.313   0.449   4.777
  836SOL     OW 3406   3.197   0.664   5.432
  836SOL    HW1 3407   3.248   0.611   5.500
  836SOL    HW2 3408   3.143   0.734   5.478
  837SOL     OW 3409   0.414   0.180   1.064
  837SOL    HW1 3410   0.462   0.162   0.978
  837SOL    HW2 3411   0.480   0.207   1.134
  838SOL     OW 3412   2.712   6.312   4.509
  838SOL    HW1 3413   2.645   6.354   4.449
  838SOL    HW2 3414   2.665   6.267   4.586
  839SOL     OW 3415   2.077   1.362   1.866
  839SOL    HW1 3416   2.010   1.376   1.939
  839SOL    HW2 3417   2.097   1.264   1.858
  840SOL     OW 3418   6.352   5.724   6.905
  840SOL    HW1 3419   6.306   5.760   6.824
  840SOL    HW2 3420   6.405   5.797   6.949
  841SOL     OW 3421   3.468   5.606   5.993
  841SOL    HW1 3422   3.499   5.525   6.044
  841SOL    HW2 3423   3.394   5.580   5.931
  842SOL     OW 3424   3.902   6.953   5.989
  842SOL    HW1 3425   3.810   6.975   5.959
  842SOL    HW2 3426   3.900   6.923   6.084
  843SOL     OW 3427   1.464   1.913   1.543
  843SOL    HW1 3428   1.504   1.997   1.505
  843SOL    HW2 3429   1.451   1.923   1.641
  844SOL     OW 3430   6.871   6.809   1.033
  844SOL    HW1 3431   6.912   6.887   1.080
  844SOL    HW2 3432   6.929   6.728   1.046
  845SOL     OW 3433   5.192   3.979   3.472
  845SOL    HW1 3434   5.147   3.988   3.383
  845SOL    HW2 3435   5.238   3.890   3.478
  846SOL     OW 3436   2.478   0.510   5.768
  846SOL    HW1 3437   2.432   0.541   5.685
  846SOL    HW2 3438   2.509   0.416   5.755
  847SOL     OW 3439   1.309   3.388   1.786
  847SOL    HW1 3440   1.305   3.488   1.792
  847SOL    HW2 3441   1.402   3.360   1.764
  848SOL     OW 3442   6.547   6.748   5.741
  848SOL    HW1 3443   6.481   6.768   5.813
  848SOL    HW2 3444   6.508   6.679   5.679
  849SOL     OW 3445   6.157   4.192   5.934
  849SOL    HW1 3446   6.152   4.287   5.964
  849SOL    HW2 3447   6.074   4.168   5.885
  850SOL     OW 3448   6.398   6.923   4.746
  850SOL    HW1 3449   6.369   6.999   4.804
  850SOL    HW2 3450   6.356   6.838   4.778
  851SOL     OW 3451   0.216   2.661   0.099
  851SOL    HW1 3452   0.197   2.715   0.018
  851SOL    HW2 3453   0.151   2.684   0.171
  852SOL     OW 3454   0.865   4.315   0.500
  852SOL    HW1 3455   0.899   4.390   0.444
  852SOL    HW2 3456   0.769   4.298   0.478
  853SOL     OW 3457   1.089   4.660   0.222
  853SOL    HW1 3458   1.005   4.669   0.169
  853SOL    HW2 3459   1.166   4.644   0.160
  854SOL     OW 3460   4.735   5.948   7.028
  854SOL    HW1 3461   4.758   5.927   0.092
  854SOL    HW2 3462   4.647   5.906   7.005
  855SOL     OW 3463   6.405   0.104   0.562
  855SOL    HW1 3464   6.416   0.201   0.541
  855SOL    HW2 3465   6.457   0.050   0.495
  856SOL     OW 3466   1.495   1.259   6.869
  856SOL    HW1 3467   1.589   1.232   6.849
  856SOL    HW2 3468   1.495   1.330   6.940
  857SOL     OW 3469   6.431   5.293   2.407
  857SOL    HW1 3470   6.492   5.230   2.358
  857SOL    HW2 3471   6.483   5.372   2.438
  858SOL     OW 3472   3.140   5.035   1.251
  858SOL    HW1 3473   3.186   5.095   1.316
  858SOL    HW2 3474   3.198   5.023   1.170
  859SOL     OW 3475   5.847   6.573   5.069
  859SOL    HW1 3476   5.773   6.528   5.121
  859SOL    HW2 3477   5.934   6.554   5.114
  860SOL     OW 3478   6.219   2.396   6.652
  860SOL    HW1 3479   6.302   2.366   6.699
  860SOL    HW2 3480   6.245   2.439   6.565
  861SOL     OW 3481   2.620   5.178   3.666
  861SOL    HW1 3482   2.687   5.144   3.600
  861SOL    HW2 3483   2.665   5.195   3.753
  862SOL     OW 3484   2.232   4.183   3.187
  862SOL    HW1 3485   2.266   4.220   3.100
  862SOL    HW2 3486   2.141   4.221   3.206
  863SOL     OW 3487   6.054   1.077   6.261
  863SOL    HW1 3488   6.067   1.047   6.356
  863SOL    HW2 3489   6.143   1.088   6.217
  864SOL     OW 3490   4.004   6.207   4.542
  864SOL    HW1 3491   3.969   6.235   4.631
  864SOL    HW2 3492   4.103   6.194   4.547
  865SOL     OW 3493   1.951   0.174   5.722
  865SOL    HW1 3494   1.933   0.176   5.820
  865SOL    HW2 3495   1.926   0.084   5.686
  866SOL     OW 3496   2.778   0.560   0.628
  866SOL    HW1 3497   2.859   0.620   0.629
  866SOL    HW2 3498   2.721   0.580   0.707
  867SOL     OW 3499   4.959   3.713   0.954
  867SOL    HW1 3500   5.057   3.725   0.937
  867SOL    HW2 3501   4.941   3.617   0.978
  868SOL     OW 3502   6.745   1.211   1.479
  868SOL    HW1 3503   6.656   1.255   1.495
  868SOL    HW2 3504   6.818   1.276   1.502
  869SOL     OW 3505   0.062   4.540   3.002
  869SOL    HW1 3506   0.012   4.525   3.087
  869SOL    HW2 3507   0.160   4.535   3.020
  870SOL     OW 3508   4.154   4.362   1.011
  870SOL    HW1 3509   4.114   4.445   1.048
  870SOL    HW2 3510   4.137   4.358   0.912
  871SOL     OW 3511   5.139   2.242   3.580
  871SOL    HW1 3512   5.149   2.329   3.531
  871SOL    HW2 3513   5.168   2.254   3.675
  872SOL     OW 3514   5.885   2.501   4.235
  872SOL    HW1 3515   5.891   2.435   4.160
  872SOL    HW2 3516   5.974   2.507   4.281
  873SOL     OW 3517   5.289   5.605   5.275
  873SOL    HW1 3518   5.202   5.619   5.229
  873SOL    HW2 3519   5.273   5.576   5.370
  874SOL     OW 3520   6.731   3.639   6.785
  874SOL    HW1 3521   6.830   3.634   6.793
  874SOL    HW2 3522   6.703   3.609   6.694
  875SOL     OW 3523   4.679   4.915   0.918
  875SOL    HW1 3524   4.597   4.956   0.957
  875SOL    HW2 3525   4.734   4.874   0.990
  876SOL     OW 3526   7.020   5.668   2.249
  876SOL    HW1 3527   6.992   5.656   2.345
  876SOL    HW2 3528   0.086   5.646   2.240
  877SOL     OW 3529   3.154   4.547   6.249
  877SOL    HW1 3530   3.224   4.535   6.179
  877SOL    HW2 3531   3.170   4.632   6.299
  878SOL     OW 3532   4.569   6.637   4.621
  878SOL    HW1 3533   4.497   6.567   4.619
  878SOL    HW2 3534   4.658   6.593   4.634
  879SOL     OW 3535   4.326   0.418   1.538
  879SOL    HW1 3536   4.344   0.373   1.451
  879SOL    HW2 3537   4.358   0.513   1.534
  880SOL     OW 3538   3.368   3.283   4.151
  880SOL    HW1 3539   3.381   3.380   4.133
  880SOL    HW2 3540   3.271   3.260   4.147
  881SOL     OW 3541   5.129   3.668   5.636
  881SOL    HW1 3542   5.204   3.607   5.663
  881SOL    HW2 3543   5.043   3.634   5.673
  882SOL     OW 3544   0.839   2.174   3.974
  882SOL    HW1 3545   0.927   2.209   4.008
  882SOL    HW2 3546   0.799   2.114   4.043
  883SOL     OW 3547   3.229   0.783   1.072
  883SOL    HW1 3548   3.205   0.736   1.156
  883SOL    HW2 3549   3.229   0.882   1.088
  884SOL     OW 3550   6.440   4.103   5.956
  884SOL    HW1 3551   6.438   4.203   5.969
  884SOL    HW2 3552   6.346   4.070   5.946
  885SOL     OW 3553   3.675   0.911   4.820
  885SOL    HW1 3554   3.677   0.863   4.908
  885SOL    HW2 3555   3.757   0.887   4.768
  886SOL     OW 3556   3.322   0.573   0.305
  886SOL    HW1 3557   3.257   0.612   0.240
  886SOL    HW2 3558   3.330   0.634   0.384
  887SOL     OW 3559   3.610   6.571   3.937
  887SOL    HW1 3560   3.674   6.555   4.011
  887SOL    HW2 3561   3.626   6.662   3.898
  888SOL     OW 3562   0.297   5.987   2.979
  888SOL    HW1 3563   0.227   5.919   2.956
  888SOL    HW2 3564   0.375   5.977   2.917
  889SOL     OW 3565   7.017   1.533   0.048
  889SOL    HW1 3566   0.037   1.486   7.006
  889SOL    HW2 3567   0.048   1.595   0.097
  890SOL     OW 3568   2.073   5.090   3.132
  890SOL    HW1 3569   2.072   5.188   3.115
  890SOL    HW2 3570   2.012   5.068   3.208
  891SOL     OW 3571   6.431   3.422   1.400
  891SOL    HW1 3572   6.360   3.482   1.363
  891SOL    HW2 3573   6.515   3.474   1.416
  892SOL     OW 3574   2.959   3.655   4.654
  892SOL    HW1 3575   2.942   3.583   4.587
  892SOL    HW2 3576   2.921   3.629   4.742
  893SOL     OW 3577   2.233   6.394   3.415
  893SOL    HW1 3578   2.222   6.437   3.326
  893SOL    HW2 3579   2.299   6.445   3.469
  894SOL     OW 3580   0.933   3.113   2.374
  894SOL    HW1 3581   0.895   3.030   2.333
  894SOL    HW2 3582   0.942   3.184   2.304
  895SOL     OW 3583   0.888   5.114   3.902
  895SOL    HW1 3584   0.819   5.185   3.893
  895SOL    HW2 3585   0.960   5.145   3.965
  896SOL     OW 3586   5.180   4.700   1.654
  896SOL    HW1 3587   5.132   4.614   1.634
  896SOL    HW2 3588   5.257   4.710   1.591
  897SOL     OW 3589   3.799   1.354   6.833
  897SOL    HW1 3590   3.718   1.404   6.805
  897SOL    HW2 3591   3.813   1.366   6.932
  898SOL     OW 3592   3.906   6.402   3.024
  898SOL    HW1 3593   3.920   6.485   3.079
  898SOL    HW2 3594   3.821   6.358   3.053
  899SOL     OW 3595   0.634   6.522   0.164
  899SOL    HW1 3596   0.723   6.519   0.119
  899SOL    HW2 3597   0.644   6.552   0.258
  900SOL     OW 3598   5.554   0.430   0.058
  900SOL    HW1 3599   5.614   0.363   0.101
  900SOL    HW2 3600   5.585   0.446   6.995
  901SOL     OW 3601   1.828   0.921   3.783
  901SOL    HW1 3602   1.785   0.944   3.696
  901SOL    HW2 3603   1.772   0.956   3.858
  902SOL     OW 3604   1.030   2.265   1.308
  902SOL    HW1 3605   1.007   2.309   1.221
  902SOL    HW2 3606   0.973   2.303   1.381
  903SOL     OW 3607   0.875   3.143   6.855
  903SOL    HW1 3608   0.776   3.155   6.866
  903SOL    HW2 3609   0.922   3.228   6.879
  904SOL     OW 3610   1.926   1.585   2.451
  904SOL    HW1 3611   1.877   1.501   2.425
  904SOL    HW2 3612   1.903   1.608   2.545
  905SOL     OW 3613   5.274   3.489   6.163
  905SOL    HW1 3614   5.245   3.583   6.177
  905SOL    HW2 3615   5.370   3.487   6.136
  906SOL     OW 3616   0.377   1.746   6.519
  906SOL    HW1 3617   0.380   1.665   6.577
  906SOL    HW2 3618   0.329   1.820   6.567
  907SOL     OW 3619   5.278   3.257   0.538
  907SOL    HW1 3620   5.260   3.319   0.461
  907SOL    HW2 3621   5.263   3.306   0.624
  908SOL     OW 3622   2.562   4.554   2.994
  908SOL    HW1 3623   2.613   4.468   2.997
  908SOL    HW2 3624   2.622   4.628   2.965
  909SOL     OW 3625   4.235   6.841   1.631
  909SOL    HW1 3626   4.222   6.933   1.597
  909SOL    HW2 3627   4.170   6.779   1.588
  910SOL     OW 3628   3.230   1.555   0.923
  910SOL    HW1 3629   3.162   1.605   0.870
  910SOL    HW2 3630   3.184   1.490   0.984
  911SOL     OW 3631   1.208   6.457   6.607
  911SOL    HW1 3632   1.294   6.495   6.574
  911SOL    HW2 3633   1.201   6.361   6.581
  912SOL     OW 3634   6.192   1.116   3.137
  912SOL    HW1 3635   6.234   1.072   3.217
  912SOL    HW2 3636   6.223   1.211   3.131
  913SOL     OW 3637   3.507   0.660   3.560
  913SOL    HW1 3638   3.445   0.693   3.489
  913SOL    HW2 3639   3.454   0.619   3.634
  914SOL     OW 3640   2.187   0.046   6.082
  914SOL    HW1 3641   2.228   7.027   6.159
  914SOL    HW2 3642   2.251   0.117   6.051
  915SOL     OW 3643   6.737   3.211   6.886
  915SOL    HW1 3644   6.677   3.140   6.922
  915SOL    HW2 3645   6.710   3.300   6.923
  916SOL     OW 3646   1.455   3.204   2.505
  916SOL    HW1 3647   1.371   3.165   2.467
  916SOL    HW2 3648   1.464   3.177   2.601
  917SOL     OW 3649   0.714   6.658   1.604
  917SOL    HW1 3650   0.801   6.683   1.646
  917SOL    HW2 3651   0.646   6.729   1.621
  918SOL     OW 3652   3.849   0.798   1.001
  918SOL    HW1 3653   3.750   0.794   1.013
  918SOL    HW2 3654   3.872   0.769   0.908
  919SOL     OW 3655   6.692   0.055   2.550
  919SOL    HW1 3656   6.645   0.087   2.468
  919SOL    HW2 3657   6.624   0.026   2.618
  920SOL     OW 3658   2.390   4.390   2.179
  920SOL    HW1 3659   2.372   4.304   2.226
  920SOL    HW2 3660   2.309   4.449   2.185
  921SOL     OW 3661   3.954   5.474   4.108
  921SOL    HW1 3662   3.985   5.501   4.199
  921SOL    HW2 3663   3.977   5.378   4.092
  922SOL     OW 3664   3.086   3.170   4.163
  922SOL    HW1 3665   3.016   3.167   4.234
  922SOL    HW2 3666   3.069   3.247   4.102
  923SOL     OW 3667   2.189   3.665   6.568
  923SOL    HW1 3668   2.261   3.721   6.608
  923SOL    HW2 3669   2.103   3.682   6.615
  924SOL     OW 3670   6.226   3.761   2.211
  924SOL    HW1 3671   6.321   3.755   2.183
  924SOL    HW2 3672   6.221   3.800   2.303
  925SOL     OW 3673   0.040   1.803   6.771
  925SOL    HW1 3674   0.129   1.776   6.807
  925SOL    HW2 3675   7.004   1.731   6.788
  926SOL     OW 3676   6.752   0.947   1.463
  926SOL    HW1 3677   6.674   0.891   1.490
  926SOL    HW2 3678   6.738   1.041   1.496
  927SOL     OW 3679   5.553   3.714   3.368
  927SOL    HW1 3680   5.489   3.754   3.434
  927SOL    HW2 3681   5.631   3.777   3.356
  928SOL     OW 3682   2.382   5.982   0.698
  928SOL    HW1 3683   2.416   6.076   0.699
  928SOL    HW2 3684   2.455   5.921   0.665
  929SOL     OW 3685   0.688   1.011   6.651
  929SOL    HW1 3686   0.767   1.064   6.681
  929SOL    HW2 3687   0.626   1.069   6.599
  930SOL     OW 3688   5.603   6.772   6.140
  930SOL    HW1 3689   5.538   6.725   6.200
  930SOL    HW2 3690   5.646   6.706   6.079
  931SOL     OW 3691   7.029   1.125   4.898
  931SOL    HW1 3692   6.950   1.149   4.954
  931SOL    HW2 3693   0.056   1.060   4.947
  932SOL     OW 3694   3.235   0.739   3.429
  932SOL    HW1 3695   3.162   0.672   3.420
  932SOL    HW2 3696   3.196   0.828   3.455
  933SOL     OW 3697   1.822   5.793   3.260
  933SOL    HW1 3698   1.822   5.703   3.216
  933SOL    HW2 3699   1.898   5.799   3.325
  934SOL     OW 3700   2.722   5.975   6.843
  934SOL    HW1 3701   2.767   5.975   6.754
  934SOL    HW2 3702   2.643   6.036   6.842
  935SOL     OW 3703   4.819   3.874   4.298
  935SOL    HW1 3704   4.875   3.798   4.265
  935SOL    HW2 3705   4.761   3.843   4.373
  936SOL     OW 3706   6.843   0.473   5.868
  936SOL    HW1 3707   6.818   0.391   5.817
  936SOL    HW2 3708   6.868   0.546   5.804
  937SOL     OW 3709   5.716   1.782   6.248
  937SOL    HW1 3710   5.672   1.715   6.308
  937SOL    HW2 3711   5.712   1.873   6.291
  938SOL     OW 3712   5.873   4.498   6.446
  938SOL    HW1 3713   5.905   4.453   6.529
  938SOL    HW2 3714   5.949   4.509   6.382
  939SOL     OW 3715   0.716   6.617   3.956
  939SOL    HW1 3716   0.688   6.689   4.019
  939SOL    HW2 3717   0.785   6.654   3.893
  940SOL     OW 3718   0.410   4.099   0.956
  940SOL    HW1 3719   0.478   4.125   0.887
  940SOL    HW2 3720   0.369   4.182   0.995
  941SOL     OW 3721   5.746   2.200   0.048
  941SOL    HW1 3722   5.767   2.295   0.071
  941SOL    HW2 3723   5.744   2.145   0.132
  942SOL     OW 3724   6.196   6.856   2.757
  942SOL    HW1 3725   6.156   6.944   2.783
  942SOL    HW2 3726   6.279   6.871   2.703
  943SOL     OW 3727   1.739   4.184   2.905
  943SOL    HW1 3728   1.726   4.227   2.815
  943SOL    HW2 3729   1.658   4.129   2.926
  944SOL     OW 3730   0.267   5.268   5.403
  944SOL    HW1 3731   0.291   5.259   5.500
  944SOL    HW2 3732   0.174   5.235   5.388
  945SOL     OW 3733   0.641   4.635   6.131
  945SOL    HW1 3734   0.670   4.686   6.050
  945SOL    HW2 3735   0.720   4.587   6.170
  946SOL     OW 3736   4.941   4.335   5.606
  946SOL    HW1 3737   4.928   4.369   5.700
  946SOL    HW2 3738   4.852   4.315   5.565
  947SOL     OW 3739   3.407   3.114   3.091
  947SOL    HW1 3740   3.314   3.093   3.060
  947SOL    HW2 3741   3.406   3.197   3.146
  948SOL     OW 3742   5.328   0.858   3.070
  948SOL    HW1 3743   5.237   0.862   3.028
  948SOL    HW2 3744   5.325   0.796   3.149
  949SOL     OW 3745   2.606   5.769   0.285
  949SOL    HW1 3746   2.525   5.781   0.228
  949SOL    HW2 3747   2.613   5.673   0.314
  950SOL     OW 3748   6.049   5.651   2.158
  950SOL    HW1 3749   5.978   5.583   2.144
  950SOL    HW2 3750   6.136   5.617   2.123
  951SOL     OW 3751   1.749   0.120   4.442
  951SOL    HW1 3752   1.765   0.162   4.531
  951SOL    HW2 3753   1.673   0.055   4.450
  952SOL     OW 3754   4.610   2.652   3.397
  952SOL    HW1 3755   4.607   2.605   3.309
  952SOL    HW2 3756   4.548   2.608   3.461
  953SOL     OW 3757   5.934   5.367   4.707
  953SOL    HW1 3758   5.963   5.449   4.757
  953SOL    HW2 3759   5.835   5.367   4.696
  954SOL     OW 3760   3.544   6.171   2.312
  954SOL    HW1 3761   3.452   6.198   2.284
  954SOL    HW2 3762   3.545   6.074   2.335
  955SOL     OW 3763   1.028   4.106   1.184
  955SOL    HW1 3764   1.094   4.088   1.111
  955SOL    HW2 3765   0.987   4.196   1.169
  956SOL     OW 3766   6.114   0.386   1.398
  956SOL    HW1 3767   6.157   0.405   1.309
  956SOL    HW2 3768   6.130   0.291   1.423
  957SOL     OW 3769   5.336   2.716   2.568
  957SOL    HW1 3770   5.292   2.800   2.536
  957SOL    HW2 3771   5.323   2.707   2.667
  958SOL     OW 3772   4.391   0.718   1.460
  958SOL    HW1 3773   4.357   0.775   1.534
  958SOL    HW2 3774   4.404   0.774   1.378
  959SOL     OW 3775   3.529   6.435   4.575
  959SOL    HW1 3776   3.529   6.374   4.495
  959SOL    HW2 3777   3.448   6.417   4.630
  960SOL     OW 3778   0.907   0.574   1.440
  960SOL    HW1 3779   0.895   0.537   1.533
  960SOL    HW2 3780   0.930   0.499   1.378
  961SOL     OW 3781   4.245   6.556   3.714
  961SOL    HW1 3782   4.283   6.467   3.686
  961SOL    HW2 3783   4.301   6.629   3.678
  962SOL     OW 3784   6.821   0.591   4.800
  962SOL    HW1 3785   6.780   0.682   4.789
  962SOL    HW2 3786   6.767   0.539   4.866
  963SOL     OW 3787   5.511   0.884   6.720
  963SOL    HW1 3788   5.468   0.950   6.782
  963SOL    HW2 3789   5.579   0.931   6.664
  964SOL     OW 3790   5.150   5.055   6.740
  964SOL    HW1 3791   5.166   5.131   6.804
  964SOL    HW2 3792   5.137   5.092   6.648
  965SOL     OW 3793   6.005   1.444   2.381
  965SOL    HW1 3794   5.957   1.356   2.385
  965SOL    HW2 3795   5.938   1.518   2.387
  966SOL     OW 3796   5.549   2.449   2.749
  966SOL    HW1 3797   5.638   2.492   2.734
  966SOL    HW2 3798   5.490   2.512   2.800
  967SOL     OW 3799   2.841   4.768   0.962
  967SOL    HW1 3800   2.840   4.851   0.906
  967SOL    HW2 3801   2.913   4.775   1.032
  968SOL     OW 3802   4.390   0.590   2.033
  968SOL    HW1 3803   4.350   0.499   2.018
  968SOL    HW2 3804   4.323   0.650   2.075
  969SOL     OW 3805   2.493   4.037   5.745
  969SOL    HW1 3806   2.408   4.030   5.797
  969SOL    HW2 3807   2.503   3.956   5.687
  970SOL     OW 3808   5.034   0.739   6.295
  970SOL    HW1 3809   5.034   0.643   6.323
  970SOL    HW2 3810   4.960   0.755   6.229
  971SOL     OW 3811   0.079   2.952   2.921
  971SOL    HW1 3812   0.067   2.862   2.964
  971SOL    HW2 3813   0.100   2.939   2.824
  972SOL     OW 3814   5.968   1.539   1.938
  972SOL    HW1 3815   5.957   1.580   1.847
  972SOL    HW2 3816   6.017   1.452   1.928
  973SOL     OW 3817   1.126   5.396   6.772
  973SOL    HW1 3818   1.065   5.438   6.839
  973SOL    HW2 3819   1.182   5.466   6.729
  974SOL     OW 3820   6.086   5.718   1.530
  974SOL    HW1 3821   6.089   5.717   1.430
  974SOL    HW2 3822   6.175   5.745   1.566
  975SOL     OW 3823   2.555   0.227   0.437
  975SOL    HW1 3824   2.530   0.318   0.467
  975SOL    HW2 3825   2.648   0.206   0.469
  976SOL     OW 3826   0.187   3.714   1.481
  976SOL    HW1 3827   0.272   3.705   1.429
  976SOL    HW2 3828   0.158   3.809   1.483
  977SOL     OW 3829   0.406   0.551   2.185
  977SOL    HW1 3830   0.461   0.468   2.193
  977SOL    HW2 3831   0.327   0.534   2.126
  978SOL     OW 3832   5.383   2.247   0.156
  978SOL    HW1 3833   5.389   2.183   0.080
  978SOL    HW2 3834   5.459   2.313   0.151
  979SOL     OW 3835   0.819   3.580   0.024
  979SOL    HW1 3836   0.840   3.626   0.110
  979SOL    HW2 3837   0.769   3.642   6.995
  980SOL     OW 3838   5.264   1.983   4.023
  980SOL    HW1 3839   5.241   1.981   3.925
  980SOL    HW2 3840   5.354   1.942   4.037
  981SOL     OW 3841   0.089   1.174   4.635
  981SOL    HW1 3842   0.036   1.130   4.563
  981SOL    HW2 3843   0.044   1.161   4.723
  982SOL     OW 3844   0.688   1.244   4.940
  982SOL    HW1 3845   0.676   1.323   5.000
  982SOL    HW2 3846   0.742   1.271   4.860
  983SOL     OW 3847   6.459   2.883   3.543
  983SOL    HW1 3848   6.489   2.930   3.626
  983SOL    HW2 3849   6.506   2.922   3.464
  984SOL     OW 3850   2.548   2.554   3.830
  984SOL    HW1 3851   2.461   2.521   3.868
  984SOL    HW2 3852   2.624   2.518   3.884
  985SOL     OW 3853   6.526   3.748   4.738
  985SOL    HW1 3854   6.587   3.670   4.724
  985SOL    HW2 3855   6.469   3.731   4.819
  986SOL     OW 3856   4.494   4.336   1.244
  986SOL    HW1 3857   4.437   4.321   1.325
  986SOL    HW2 3858   4.449   4.402   1.183
  987SOL     OW 3859   4.511   6.604   2.613
  987SOL    HW1 3860   4.570   6.524   2.600
  987SOL    HW2 3861   4.445   6.609   2.537
  988SOL     OW 3862   3.248   4.233   0.990
  988SOL    HW1 3863   3.234   4.324   0.950
  988SOL    HW2 3864   3.166   4.204   1.038
  989SOL     OW 3865   6.745   1.980   6.443
  989SOL    HW1 3866   6.704   1.938   6.361
  989SOL    HW2 3867   6.673   1.994   6.512
  990SOL     OW 3868   3.354   0.605   2.160
  990SOL    HW1 3869   3.450   0.589   2.141
  990SOL    HW2 3870   3.342   0.627   2.257
  991SOL     OW 3871   0.252   3.748   3.540
  991SOL    HW1 3872   0.336   3.751   3.487
  991SOL    HW2 3873   0.253   3.669   3.601
  992SOL     OW 3874   0.328   3.413   1.951
  992SOL    HW1 3875   0.424   3.439   1.961
  992SOL    HW2 3876   0.319   3.314   1.966
  993SOL     OW 3877   6.968   4.570   0.815
  993SOL    HW1 3878   6.932   4.477   0.822
  993SOL    HW2 3879   6.905   4.634   0.860
  994SOL     OW 3880   4.300   5.043   2.179
  994SOL    HW1 3881   4.205   5.067   2.156
  994SOL    HW2 3882   4.300   4.960   2.234
  995SOL     OW 3883   3.716   2.962   6.061
  995SOL    HW1 3884   3.639   2.929   6.117
  995SOL    HW2 3885   3.769   3.028   6.113
  996SOL     OW 3886   3.710   4.944   4.743
  996SOL    HW1 3887   3.789   4.981   4.793
  996SOL    HW2 3888   3.626   4.967   4.792
  997SOL     OW 3889   1.098   6.933   3.107
  997SOL    HW1 3890   1.042   6.908   3.028
  997SOL    HW2 3891   1.127   7.028   3.099
  998SOL     OW 3892   6.022   0.296   5.922
  998SOL    HW1 3893   5.937   0.304   5.973
  998SOL    HW2 3894   6.003   0.299   5.824
  999SOL     OW 3895   5.058   4.003   2.261
  999SOL    HW1 3896   4.983   3.941   2.285
  999SOL    HW2 3897   5.134   3.991   2.325
 1000SOL     OW 3898   4.211   1.792   1.324
 1000SOL    HW1 3899   4.220   1.851   1.404
 1000SOL    HW2 3900   4.122   1.746   1.327
 1001SOL     OW 3901   4.190   5.995   2.226
 1001SOL    HW1 3902   4.242   5.972   2.144
 1001SOL    HW2 3903   4.144   6.082   2.213
 1002SOL     OW 3904   5.409   1.960   1.239
 1002SOL    HW1 3905   5.471   2.008   1.301
 1002SOL    HW2 3906   5.358   1.890   1.289
 1003SOL     OW 3907   2.341   5.311   3.231
 1003SOL    HW1 3908   2.264   5.343   3.176
 1003SOL    HW2 3909   2.307   5.264   3.312
 1004SOL     OW 3910   0.836   1.414   2.176
 1004SOL    HW1 3911   0.820   1.320   2.148
 1004SOL    HW2 3912   0.748   1.460   2.192
 1005SOL     OW 3913   1.833   3.035   4.205
 1005SOL    HW1 3914   1.753   2.985   4.172
 1005SOL    HW2 3915   1.914   3.004   4.156
 1006SOL     OW 3916   1.227   4.301   0.629
 1006SOL    HW1 3917   1.230   4.341   0.538
 1006SOL    HW2 3918   1.308   4.330   0.681
 1007SOL     OW 3919   4.007   0.904   5.835
 1007SOL    HW1 3920   4.063   0.971   5.787
 1007SOL    HW2 3921   4.038   0.895   5.929
 1008SOL     OW 3922   0.480   2.127   5.357
 1008SOL    HW1 3923   0.420   2.189   5.306
 1008SOL    HW2 3924   0.483   2.038   5.312
 1009SOL     OW 3925   0.037   5.546   5.682
 1009SOL    HW1 3926   7.017   5.558   5.767
 1009SOL    HW2 3927   0.043   5.449   5.660
 1010SOL     OW 3928   2.627   2.566   1.318
 1010SOL    HW1 3929   2.712   2.530   1.357
 1010SOL    HW2 3930   2.588   2.498   1.256
 1011SOL     OW 3931   1.270   5.478   3.415
 1011SOL    HW1 3932   1.298   5.406   3.478
 1011SOL    HW2 3933   1.314   5.464   3.326
 1012SOL     OW 3934   6.899   6.657   2.262
 1012SOL    HW1 3935   6.888   6.625   2.168
 1012SOL    HW2 3936   6.977   6.611   2.304
 1013SOL     OW 3937   0.382   0.714   6.377
 1013SOL    HW1 3938   0.392   0.730   6.475
 1013SOL    HW2 3939   0.285   0.707   6.354
 1014SOL     OW 3940   0.497   4.200   4.873
 1014SOL    HW1 3941   0.432   4.177   4.945
 1014SOL    HW2 3942   0.527   4.117   4.826
 1015SOL     OW 3943   1.931   0.318   5.999
 1015SOL    HW1 3944   1.843   0.338   5.956
 1015SOL    HW2 3945   2.004   0.337   5.934
 1016SOL     OW 3946   4.169   4.204   0.533
 1016SOL    HW1 3947   4.181   4.296   0.494
 1016SOL    HW2 3948   4.115   4.149   0.470
 1017SOL     OW 3949   4.021   2.375   0.781
 1017SOL    HW1 3950   3.949   2.394   0.848
 1017SOL    HW2 3951   4.102   2.342   0.828
 1018SOL     OW 3952   0.876   4.415   4.170
 1018SOL    HW1 3953   0.836   4.507   4.174
 1018SOL    HW2 3954   0.968   4.420   4.133
 1019SOL     OW 3955   7.018   5.803   1.418
 1019SOL    HW1 3956   0.015   5.712   1.386
 1019SOL    HW2 3957   0.034   5.873   1.364
 1020SOL     OW 3958   6.564   1.384   1.850
 1020SOL    HW1 3959   6.645   1.436   1.879
 1020SOL    HW2 3960   6.592   1.291   1.826
 1021SOL     OW 3961   5.588   6.687   2.042
 1021SOL    HW1 3962   5.568   6.767   1.985
 1021SOL    HW2 3963   5.662   6.633   2.001
 1022SOL     OW 3964   3.041   5.053   5.673
 1022SOL    HW1 3965   2.977   5.130   5.670
 1022SOL    HW2 3966   3.047   5.011   5.582
 1023SOL     OW 3967   0.287   1.192   2.899
 1023SOL    HW1 3968   0.303   1.219   2.994
 1023SOL    HW2 3969   0.350   1.242   2.839
 1024SOL     OW 3970   0.495   1.987   4.047
 1024SOL    HW1 3971   0.510   1.946   3.957
 1024SOL    HW2 3972   0.398   2.003   4.061
 1025SOL     OW 3973   4.022   3.291   0.532
 1025SOL    HW1 3974   3.933   3.275   0.489
 1025SOL    HW2 3975   4.011   3.355   0.608
 1026SOL     OW 3976   2.245   2.952   1.677
 1026SOL    HW1 3977   2.331   2.907   1.653
 1026SOL    HW2 3978   2.259   3.051   1.683
 1027SOL     OW 3979   2.892   6.885   2.300
 1027SOL    HW1 3980   2.833   6.809   2.328
 1027SOL    HW2 3981   2.866   6.968   2.349
 1028SOL     OW 3982   1.440   6.646   2.699
 1028SOL    HW1 3983   1.529   6.606   2.722
 1028SOL    HW2 3984   1.367   6.585   2.729
 1029SOL     OW 3985   1.050   1.765   6.074
 1029SOL    HW1 3986   1.108   1.805   6.146
 1029SOL    HW2 3987   0.990   1.836   6.037
 1030SOL     OW 3988   3.334   3.536   1.643
 1030SOL    HW1 3989   3.432   3.555   1.634
 1030SOL    HW2 3990   3.322   3.439   1.663
 1031SOL     OW 3991   4.828   3.307   1.712
 1031SOL    HW1 3992   4.813   3.211   1.689
 1031SOL    HW2 3993   4.842   3.316   1.811
 1032SOL     OW 3994   0.944   1.134   5.284
 1032SOL    HW1 3995   1.022   1.080   5.317
 1032SOL    HW2 3996   0.910   1.092   5.200
 1033SOL     OW 3997   1.559   5.285   1.676
 1033SOL    HW1 3998   1.618   5.251   1.749
 1033SOL    HW2 3999   1.589   5.378   1.651
 1034SOL     OW 4000   1.802   5.451   4.237
 1034SOL    HW1 4001   1.779   5.357   4.210
 1034SOL    HW2 4002   1.841   5.500   4.158
 1035SOL     OW 4003   6.916   2.142   6.749
 1035SOL    HW1 4004   6.999   2.197   6.747
 1035SOL    HW2 4005   6.929   2.063   6.809
 1036SOL     OW 4006   4.295   0.983   1.944
 1036SOL    HW1 4007   4.324   0.921   2.017
 1036SOL    HW2 4008   4.261   1.068   1.983
 1037SOL     OW 4009   1.553   1.451   2.627
 1037SOL    HW1 4010   1.462   1.485   2.653
 1037SOL    HW2 4011   1.544   1.394   2.545
 1038SOL     OW 4012   1.928   1.356   5.351
 1038SOL    HW1 4013   1.928   1.334   5.254
 1038SOL    HW2 4014   1.939   1.454   5.364
 1039SOL     OW 4015   3.688   3.972   4.003
 1039SOL    HW1 4016   3.716   4.034   4.077
 1039SOL    HW2 4017   3.764   3.957   3.941
 1040SOL     OW 4018   5.146   0.955   2.130
 1040SOL    HW1 4019   5.179   1.005   2.051
 1040SOL    HW2 4020   5.064   0.903   2.105
 1041SOL     OW 4021   6.988   6.316   3.276
 1041SOL    HW1 4022   7.019   6.390   3.217
 1041SOL    HW2 4023   0.028   6.295   3.344
 1042SOL     OW 4024   4.243   5.500   2.739
 1042SOL    HW1 4025   4.218   5.503   2.642
 1042SOL    HW2 4026   4.341   5.513   2.749
 1043SOL     OW 4027   3.650   2.113   3.124
 1043SOL    HW1 4028   3.569   2.102   3.182
 1043SOL    HW2 4029   3.653   2.038   3.057
 1044SOL     OW 4030   6.191   5.222   2.288
 1044SOL    HW1 4031   6.279   5.204   2.331
 1044SOL    HW2 4032   6.167   5.318   2.300
 1045SOL     OW 4033   4.182   0.606   2.708
 1045SOL    HW1 4034   4.102   0.640   2.659
 1045SOL    HW2 4035   4.234   0.682   2.745
 1046SOL     OW 4036   1.675   1.483   0.173
 1046SOL    HW1 4037   1.612   1.480   0.251
 1046SOL    HW2 4038   1.740   1.408   0.181
 1047SOL     OW 4039   2.442   0.114   4.166
 1047SOL    HW1 4040   2.428   0.171   4.085
 1047SOL    HW2 4041   2.508   0.042   4.145
 1048SOL     OW 4042   3.497   6.615   2.177
 1048SOL    HW1 4043   3.530   6.708   2.194
 1048SOL    HW2 4044   3.491   6.566   2.264
 1049SOL     OW 4045   6.128   6.847   3.753
 1049SOL    HW1 4046   6.222   6.868   3.728
 1049SOL    HW2 4047   6.125   6.819   3.849
 1050SOL     OW 4048   3.920   5.015   2.540
 1050SOL    HW1 4049   3.847   5.084   2.537
 1050SOL    HW2 4050   3.892   4.939   2.598
 1051SOL     OW 4051   0.627   5.335   0.696
 1051SOL    HW1 4052   0.656   5.264   0.761
 1051SOL    HW2 4053   0.581   5.292   0.619
 1052SOL     OW 4054   4.529   0.893   5.660
 1052SOL    HW1 4055   4.563   0.899   5.754
 1052SOL    HW2 4056   4.594   0.841   5.604
 1053SOL     OW 4057   5.898   3.540   2.469
 1053SOL    HW1 4058   5.994   3.560   2.452
 1053SOL    HW2 4059   5.879   3.445   2.446
 1054SOL     OW 4060   3.326   3.740   0.746
 1054SOL    HW1 4061   3.289   3.772   0.834
 1054SOL    HW2 4062   3.325   3.640   0.744
 1055SOL     OW 4063   4.324   6.632   5.525
 1055SOL    HW1 4064   4.244   6.580   5.495
 1055SOL    HW2 4065   4.301   6.683   5.608
 1056SOL     OW 4066   1.259   3.307   0.513
 1056SOL    HW1 4067   1.224   3.216   0.493
 1056SOL    HW2 4068   1.353   3.315   0.479
 1057SOL     OW 4069   3.554   3.249   0.911
 1057SOL    HW1 4070   3.616   3.188   0.960
 1057SOL    HW2 4071   3.461   3.238   0.947
 1058SOL     OW 4072   5.091   2.097   4.181
 1058SOL    HW1 4073   5.160   2.052   4.124
 1058SOL    HW2 4074   5.037   2.159   4.125
 1059SOL     OW 4075   2.099   0.712   2.277
 1059SOL    HW1 4076   2.147   0.652   2.341
 1059SOL    HW2 4077   2.122   0.687   2.183
 1060SOL     OW 4078   0.534   4.452   4.088
 1060SOL    HW1 4079   0.575   4.524   4.032
 1060SOL    HW2 4080   0.590   4.369   4.082
 1061SOL     OW 4081   6.760   3.101   6.078
 1061SOL    HW1 4082   6.816   3.119   5.997
 1061SOL    HW2 4083   6.811   3.047   6.143
 1062SOL     OW 4084   5.112   5.130   5.956
 1062SOL    HW1 4085   5.018   5.107   5.983
 1062SOL    HW2 4086   5.159   5.170   6.035
 1063SOL     OW 4087   0.606   6.123   0.432
 1063SOL    HW1 4088   0.613   6.029   0.398
 1063SOL    HW2 4089   0.531   6.129   0.498
 1064SOL     OW 4090   1.611   4.278   2.361
 1064SOL    HW1 4091   1.580   4.311   2.451
 1064SOL    HW2 4092   1.710   4.288   2.354
 1065SOL     OW 4093   4.509   0.819   2.757
 1065SOL    HW1 4094   4.470   0.780   2.674
 1065SOL    HW2 4095   4.551   0.907   2.736
 1066SOL     OW 4096   4.496   6.792   2.827
 1066SOL    HW1 4097   4.400   6.782   2.854
 1066SOL    HW2 4098   4.514   6.736   2.746
 1067SOL     OW 4099   1.631   2.325   0.038
 1067SOL    HW1 4100   1.602   2.305   0.132
 1067SOL    HW2 4101   1.597   2.415   0.011
 1068SOL     OW 4102   6.739   4.249   1.287
 1068SOL    HW1 4103   6.821   4.289   1.245
 1068SOL    HW2 4104   6.677   4.217   1.215
 1069SOL     OW 4105   5.139   5.861   0.875
 1069SOL    HW1 4106   5.042   5.867   0.901
 1069SOL    HW2 4107   5.189   5.938   0.915
 1070SOL     OW 4108   1.483   0.354   1.837
 1070SOL    HW1 4109   1.510   0.267   1.795
 1070SOL    HW2 4110   1.547   0.426   1.809
 1071SOL     OW 4111   2.544   2.012   3.681
 1071SOL    HW1 4112   2.507   1.932   3.729
 1071SOL    HW2 4113   2.478   2.043   3.612
 1072SOL     OW 4114   2.688   1.232   1.098
 1072SOL    HW1 4115   2.700   1.141   1.059
 1072SOL    HW2 4116   2.770   1.287   1.080
 1073SOL     OW 4117   4.820   0.760   3.353
 1073SOL    HW1 4118   4.787   0.673   3.316
 1073SOL    HW2 4119   4.861   0.745   3.443
 1074SOL     OW 4120   2.731   5.169   1.950
 1074SOL    HW1 4121   2.642   5.143   1.912
 1074SOL    HW2 4122   2.723   5.257   1.996
 1075SOL     OW 4123   6.098   0.405   3.229
 1075SOL    HW1 4124   6.123   0.373   3.321
 1075SOL    HW2 4125   6.064   0.327   3.176
 1076SOL     OW 4126   0.689   2.091   5.542
 1076SOL    HW1 4127   0.594   2.110   5.515
 1076SOL    HW2 4128   0.699   2.105   5.640
 1077SOL     OW 4129   6.610   6.785   0.997
 1077SOL    HW1 4130   6.708   6.777   1.010
 1077SOL    HW2 4131   6.586   6.879   0.973
 1078SOL     OW 4132   0.112   0.414   2.837
 1078SOL    HW1 4133   0.158   0.352   2.900
 1078SOL    HW2 4134   0.027   0.447   2.880
 1079SOL     OW 4135   1.573   5.977   2.281
 1079SOL    HW1 4136   1.557   6.035   2.202
 1079SOL    HW2 4137   1.570   6.032   2.365
 1080SOL     OW 4138   2.526   5.554   3.721
 1080SOL    HW1 4139   2.576   5.575   3.636
 1080SOL    HW2 4140   2.489   5.461   3.715
 1081SOL     OW 4141   6.723   5.527   5.723
 1081SOL    HW1 4142   6.766   5.612   5.694
 1081SOL    HW2 4143   6.715   5.527   5.823
 1082SOL     OW 4144   5.727   2.197   5.970
 1082SOL    HW1 4145   5.727   2.289   6.009
 1082SOL    HW2 4146   5.688   2.200   5.877
 1083SOL     OW 4147   4.945   4.052   0.358
 1083SOL    HW1 4148   4.938   3.968   0.412
 1083SOL    HW2 4149   5.032   4.097   0.378
 1084SOL     OW 4150   6.667   6.601   6.479
 1084SOL    HW1 4151   6.627   6.571   6.566
 1084SOL    HW2 4152   6.594   6.619   6.413
 1085SOL     OW 4153   1.827   3.929   4.649
 1085SOL    HW1 4154   1.863   3.838   4.629
 1085SOL    HW2 4155   1.765   3.925   4.728
 1086SOL     OW 4156   6.738   4.666   0.484
 1086SOL    HW1 4157   6.664   4.639   0.422
 1086SOL    HW2 4158   6.781   4.584   0.521
 1087SOL     OW 4159   0.033   1.922   5.040
 1087SOL    HW1 4160   7.000   1.877   4.977
 1087SOL    HW2 4161   7.016   1.996   5.088
 1088SOL     OW 4162   0.100   4.219   2.730
 1088SOL    HW1 4163   0.078   4.244   2.635
 1088SOL    HW2 4164   0.191   4.177   2.733
 1089SOL     OW 4165   6.520   5.653   4.629
 1089SOL    HW1 4166   6.585   5.636   4.555
 1089SOL    HW2 4167   6.563   5.709   4.699
 1090SOL     OW 4168   3.641   1.925   2.937
 1090SOL    HW1 4169   3.740   1.918   2.951
 1090SOL    HW2 4170   3.619   2.013   2.895
 1091SOL     OW 4171   2.279   2.730   4.245
 1091SOL    HW1 4172   2.311   2.735   4.340
 1091SOL    HW2 4173   2.334   2.664   4.194
 1092SOL     OW 4174   1.208   4.687   0.634
 1092SOL    HW1 4175   1.219   4.626   0.556
 1092SOL    HW2 4176   1.233   4.639   0.718
 1093SOL     OW 4177   2.827   6.882   1.421
 1093SOL    HW1 4178   2.848   6.803   1.363
 1093SOL    HW2 4179   2.859   6.965   1.377
 1094SOL     OW 4180   0.915   6.251   2.933
 1094SOL    HW1 4181   1.003   6.271   2.976
 1094SOL    HW2 4182   0.910   6.296   2.844
 1095SOL     OW 4183   0.452   3.084   6.056
 1095SOL    HW1 4184   0.410   3.095   5.966
 1095SOL    HW2 4185   0.471   2.987   6.072
 1096SOL     OW 4186   3.538   4.472   1.341
 1096SOL    HW1 4187   3.609   4.450   1.273
 1096SOL    HW2 4188   3.517   4.391   1.395
 1097SOL     OW 4189   2.246   4.652   4.014
 1097SOL    HW1 4190   2.149   4.661   4.037
 1097SOL    HW2 4191   2.266   4.703   3.930
 1098SOL     OW 4192   5.522   3.724   6.389
 1098SOL    HW1 4193   5.424   3.739   6.407
 1098SOL    HW2 4194   5.575   3.748   6.471
 1099SOL     OW 4195   3.737   1.121   6.718
 1099SOL    HW1 4196   3.735   1.217   6.746
 1099SOL    HW2 4197   3.827   1.098   6.681
 1100SOL     OW 4198   4.461   1.573   4.509
 1100SOL    HW1 4199   4.556   1.551   4.488
 1100SOL    HW2 4200   4.458   1.650   4.573
 1101SOL     OW 4201   5.527   4.017   5.701
 1101SOL    HW1 4202   5.431   4.028   5.679
 1101SOL    HW2 4203   5.579   3.995   5.618
 1102SOL     OW 4204   1.605   0.696   4.852
 1102SOL    HW1 4205   1.562   0.608   4.831
 1102SOL    HW2 4206   1.550   0.770   4.813
 1103SOL     OW 4207   3.323   1.298   0.683
 1103SOL    HW1 4208   3.342   1.260   0.592
 1103SOL    HW2 4209   3.256   1.373   0.674
 1104SOL     OW 4210   1.655   3.420   3.834
 1104SOL    HW1 4211   1.675   3.332   3.789
 1104SOL    HW2 4212   1.740   3.462   3.864
 1105SOL     OW 4213   5.782   3.167   5.023
 1105SOL    HW1 4214   5.865   3.224   5.020
 1105SOL    HW2 4215   5.717   3.207   5.087
 1106SOL     OW 4216   0.656   2.135   1.364
 1106SOL    HW1 4217   0.599   2.166   1.288
 1106SOL    HW2 4218   0.718   2.063   1.333
 1107SOL     OW 4219   1.278   0.331   7.019
 1107SOL    HW1 4220   1.290   0.344   0.087
 1107SOL    HW2 4221   1.232   0.244   7.002
 1108SOL     OW 4222   3.330   6.708   5.461
 1108SOL    HW1 4223   3.417   6.757   5.465
 1108SOL    HW2 4224   3.335   6.637   5.390
 1109SOL     OW 4225   5.858   1.040   4.518
 1109SOL    HW1 4226   5.831   0.955   4.473
 1109SOL    HW2 4227   5.889   1.106   4.450
 1110SOL     OW 4228   4.513   2.182   2.959
 1110SOL    HW1 4229   4.416   2.197   2.977
 1110SOL    HW2 4230   4.550   2.116   3.024
 1111SOL     OW 4231   5.745   5.824   6.726
 1111SOL    HW1 4232   5.823   5.887   6.724
 1111SOL    HW2 4233   5.731   5.792   6.819
 1112SOL     OW 4234   5.821   0.793   2.474
 1112SOL    HW1 4235   5.837   0.873   2.532
 1112SOL    HW2 4236   5.880   0.718   2.504
 1113SOL     OW 4237   5.790   4.757   1.418
 1113SOL    HW1 4238   5.812   4.787   1.511
 1113SOL    HW2 4239   5.723   4.684   1.421
 1114SOL     OW 4240   2.272   1.038   6.433
 1114SOL    HW1 4241   2.289   1.134   6.413
 1114SOL    HW2 4242   2.345   0.982   6.394
 1115SOL     OW 4243   3.802   3.508   5.531
 1115SOL    HW1 4244   3.719   3.562   5.547
 1115SOL    HW2 4245   3.808   3.436   5.601
 1116SOL     OW 4246   5.050   6.811   6.592
 1116SOL    HW1 4247   5.119   6.879   6.612
 1116SOL    HW2 4248   5.040   6.801   6.493
 1117SOL     OW 4249   0.943   2.018   2.055
 1117SOL    HW1 4250   0.861   2.038   2.000
 1117SOL    HW2 4251   1.008   2.093   2.048
 1118SOL     OW 4252   2.023   5.232   0.498
 1118SOL    HW1 4253   2.067   5.241   0.588
 1118SOL    HW2 4254   1.992   5.138   0.486
 1119SOL     OW 4255   4.103   4.467   1.621
 1119SOL    HW1 4256   4.100   4.454   1.720
 1119SOL    HW2 4257   4.190   4.507   1.595
 1120SOL     OW 4258   5.933   5.723   0.646
 1120SOL    HW1 4259   5.903   5.634   0.611
 1120SOL    HW2 4260   5.866   5.756   0.713
 1121SOL     OW 4261   0.026   4.345   4.497
 1121SOL    HW1 4262   7.028   4.423   4.441
 1121SOL    HW2 4263   0.058   4.271   4.438
 1122SOL     OW 4264   5.604   3.036   2.331
 1122SOL    HW1 4265   5.568   2.955   2.284
 1122SOL    HW2 4266   5.528   3.091   2.366
 1123SOL     OW 4267   5.145   2.522   3.540
 1123SOL    HW1 4268   5.198   2.541   3.457
 1123SOL    HW2 4269   5.048   2.529   3.520
 1124SOL     OW 4270   0.165   3.926   5.173
 1124SOL    HW1 4271   0.092   3.927   5.242
 1124SOL    HW2 4272   0.149   3.852   5.108
 1125SOL     OW 4273   1.636   2.304   3.861
 1125SOL    HW1 4274   1.728   2.328   3.829
 1125SOL    HW2 4275   1.577   2.385   3.858
 1126SOL     OW 4276   6.492   5.343   6.209
 1126SOL    HW1 4277   6.521   5.306   6.121
 1126SOL    HW2 4278   6.512   5.278   6.282
 1127SOL     OW 4279   5.531   6.044   4.641
 1127SOL    HW1 4280   5.603   6.047   4.710
 1127SOL    HW2 4281   5.442   6.032   4.686
 1128SOL     OW 4282   5.917   1.264   4.043
 1128SOL    HW1 4283   5.823   1.298   4.040
 1128SOL    HW2 4284   5.975   1.322   3.986
 1129SOL     OW 4285   2.081   6.853   1.025
 1129SOL    HW1 4286   2.165   6.898   0.995
 1129SOL    HW2 4287   2.037   6.910   1.095
 1130SOL     OW 4288   2.279   4.630   1.071
 1130SOL    HW1 4289   2.328   4.573   1.136
 1130SOL    HW2 4290   2.200   4.672   1.115
 1131SOL     OW 4291   1.638   7.029   5.224
 1131SOL    HW1 4292   1.729   0.040   5.216
 1131SOL    HW2 4293   1.601   0.016   5.315
 1132SOL     OW 4294   4.423   0.208   2.754
 1132SOL    HW1 4295   4.362   0.270   2.705
 1132SOL    HW2 4296   4.449   0.249   2.841
 1133SOL     OW 4297   1.615   1.078   0.325
 1133SOL    HW1 4298   1.532   1.129   0.347
 1133SOL    HW2 4299   1.619   1.062   0.226
 1134SOL     OW 4300   4.997   6.882   2.918
 1134SOL    HW1 4301   5.096   6.869   2.914
 1134SOL    HW2 4302   4.968   6.942   2.843
 1135SOL     OW 4303   2.079   6.396   4.338
 1135SOL    HW1 4304   2.152   6.464   4.349
 1135SOL    HW2 4305   2.120   6.305   4.331
 1136SOL     OW 4306   4.337   4.647   3.174
 1136SOL    HW1 4307   4.245   4.681   3.156
 1136SOL    HW2 4308   4.372   4.688   3.258
 1137SOL     OW 4309   1.323   6.609   0.118
 1137SOL    HW1 4310   1.288   6.633   0.209
 1137SOL    HW2 4311   1.277   6.665   0.049
 1138SOL     OW 4312   0.164   1.221   5.913
 1138SOL    HW1 4313   0.124   1.178   5.832
 1138SOL    HW2 4314   0.102   1.293   5.946
 1139SOL     OW 4315   2.398   4.871   3.443
 1139SOL    HW1 4316   2.481   4.831   3.482
 1139SOL    HW2 4317   2.419   4.962   3.407
 1140SOL     OW 4318   2.708   0.715   2.083
 1140SOL    HW1 4319   2.638   0.785   2.064
 1140SOL    HW2 4320   2.794   0.760   2.107
 1141SOL     OW 4321   0.605   6.258   0.178
 1141SOL    HW1 4322   0.620   6.357   0.171
 1141SOL    HW2 4323   0.603   6.232   0.275
 1142SOL     OW 4324   3.242   0.364   3.980
 1142SOL    HW1 4325   3.166   0.427   3.966
 1142SOL    HW2 4326   3.268   0.322   3.893
 1143SOL     OW 4327   2.007   2.664   2.730
 1143SOL    HW1 4328   2.010   2.692   2.826
 1143SOL    HW2 4329   2.070   2.588   2.716
 1144SOL     OW 4330   5.880   4.774   3.500
 1144SOL    HW1 4331   5.930   4.744   3.581
 1144SOL    HW2 4332   5.924   4.856   3.462
 1145SOL     OW 4333   6.998   3.142   0.854
 1145SOL    HW1 4334   6.959   3.053   0.831
 1145SOL    HW2 4335   0.066   3.132   0.872
 1146SOL     OW 4336   0.109   1.714   2.170
 1146SOL    HW1 4337   0.089   1.810   2.151
 1146SOL    HW2 4338   0.025   1.668   2.199
 1147SOL     OW 4339   3.318   5.867   1.871
 1147SOL    HW1 4340   3.246   5.817   1.919
 1147SOL    HW2 4341   3.396   5.879   1.931
 1148SOL     OW 4342   4.480   6.323   0.784
 1148SOL    HW1 4343   4.535   6.378   0.721
 1148SOL    HW2 4344   4.540   6.259   0.832
 1149SOL     OW 4345   5.235   2.531   2.341
 1149SOL    HW1 4346   5.291   2.580   2.407
 1149SOL    HW2 4347   5.141   2.522   2.376
 1150SOL     OW 4348   0.894   4.521   6.812
 1150SOL    HW1 4349   0.854   4.430   6.819
 1150SOL    HW2 4350   0.879   4.557   6.719
 1151SOL     OW 4351   5.542   4.332   4.942
 1151SOL    HW1 4352   5.573   4.253   4.995
 1151SOL    HW2 4353   5.443   4.342   4.953
 1152SOL     OW 4354   4.849   5.788   6.042
 1152SOL    HW1 4355   4.942   5.824   6.035
 1152SOL    HW2 4356   4.847   5.695   6.003
 1153SOL     OW 4357   6.475   6.878   1.637
 1153SOL    HW1 4358   6.396   6.854   1.581
 1153SOL    HW2 4359   6.493   6.806   1.703
 1154SOL     OW 4360   0.399   4.894   0.518
 1154SOL    HW1 4361   0.342   4.817   0.544
 1154SOL    HW2 4362   0.354   4.979   0.545
 1155SOL     OW 4363   3.233   4.850   5.569
 1155SOL    HW1 4364   3.259   4.942   5.541
 1155SOL    HW2 4365   3.214   4.849   5.667
 1156SOL     OW 4366   4.397   1.795   5.333
 1156SOL    HW1 4367   4.484   1.747   5.343
 1156SOL    HW2 4368   4.396   1.846   5.247
 1157SOL     OW 4369   5.154   1.205   6.119
 1157SOL    HW1 4370   5.196   1.162   6.040
 1157SOL    HW2 4371   5.175   1.153   6.202
 1158SOL     OW 4372   6.957   5.098   4.962
 1158SOL    HW1 4373   6.922   5.074   5.053
 1158SOL    HW2 4374   6.930   5.027   4.897
 1159SOL     OW 4375   6.338   6.987   3.626
 1159SOL    HW1 4376   6.357   6.950   3.535
 1159SOL    HW2 4377   6.292   0.044   3.617
 1160SOL     OW 4378   4.274   4.915   1.330
 1160SOL    HW1 4379   4.289   4.979   1.405
 1160SOL    HW2 4380   4.177   4.891   1.326
 1161SOL     OW 4381   0.165   5.801   6.225
 1161SOL    HW1 4382   0.101   5.872   6.196
 1161SOL    HW2 4383   0.176   5.734   6.152
 1162SOL     OW 4384   1.890   2.377   6.364
 1162SOL    HW1 4385   1.885   2.362   6.265
 1162SOL    HW2 4386   1.814   2.330   6.409
 1163SOL     OW 4387   6.435   4.109   1.877
 1163SOL    HW1 4388   6.481   4.100   1.789
 1163SOL    HW2 4389   6.347   4.060   1.873
 1164SOL     OW 4390   4.649   1.961   4.515
 1164SOL    HW1 4391   4.632   2.056   4.489
 1164SOL    HW2 4392   4.746   1.949   4.535
 1165SOL     OW 4393   4.518   5.583   3.799
 1165SOL    HW1 4394   4.536   5.651   3.871
 1165SOL    HW2 4395   4.465   5.626   3.726
 1166SOL     OW 4396   2.757   6.528   0.063
 1166SOL    HW1 4397   2.810   6.448   0.091
 1166SOL    HW2 4398   2.681   6.499   0.004
 1167SOL     OW 4399   4.332   6.268   0.238
 1167SOL    HW1 4400   4.333   6.366   0.257
 1167SOL    HW2 4401   4.323   6.218   0.324
 1168SOL     OW 4402   5.669   2.683   1.258
 1168SOL    HW1 4403   5.588   2.644   1.213
 1168SOL    HW2 4404   5.679   2.642   1.349
 1169SOL     OW 4405   4.479   1.899   6.002
 1169SOL    HW1 4406   4.551   1.836   5.975
 1169SOL    HW2 4407   4.399   1.847   6.031
 1170SOL     OW 4408   5.384   0.142   3.101
 1170SOL    HW1 4409   5.434   0.187   3.175
 1170SOL    HW2 4410   5.430   0.057   3.077
 1171SOL     OW 4411   2.975   6.191   6.584
 1171SOL    HW1 4412   3.015   6.216   6.496
 1171SOL    HW2 4413   3.039   6.210   6.658
 1172SOL     OW 4414   4.942   4.590   1.069
 1172SOL    HW1 4415   4.997   4.669   1.043
 1172SOL    HW2 4416   4.993   4.506   1.050
 1173SOL     OW 4417   3.490   0.995   0.977
 1173SOL    HW1 4418   3.455   1.068   0.918
 1173SOL    HW2 4419   3.531   0.924   0.920
 1174SOL     OW 4420   3.311   4.054   1.836
 1174SOL    HW1 4421   3.225   4.079   1.793
 1174SOL    HW2 4422   3.321   3.954   1.836
 1175SOL     OW 4423   4.276   3.609   6.194
 1175SOL    HW1 4424   4.230   3.697   6.202
 1175SOL    HW2 4425   4.212   3.542   6.154
 1176SOL     OW 4426   5.231   3.722   0.237
 1176SOL    HW1 4427   5.237   3.629   0.273
 1176SOL    HW2 4428   5.252   3.788   0.310
 1177SOL     OW 4429   6.165   3.945   4.690
 1177SOL    HW1 4430   6.220   3.975   4.612
 1177SOL    HW2 4431   6.072   3.980   4.681
 1178SOL     OW 4432   3.159   4.243   0.211
 1178SOL    HW1 4433   3.200   4.229   0.301
 1178SOL    HW2 4434   3.065   4.274   0.222
 1179SOL     OW 4435   2.566   5.835   0.990
 1179SOL    HW1 4436   2.486   5.776   0.997
 1179SOL    HW2 4437   2.589   5.849   0.894
 1180SOL     OW 4438   2.577   6.575   3.843
 1180SOL    HW1 4439   2.614   6.567   3.750
 1180SOL    HW2 4440   2.586   6.487   3.890
 1181SOL     OW 4441   0.345   5.255   4.989
 1181SOL    HW1 4442   0.269   5.271   5.052
 1181SOL    HW2 4443   0.314   5.265   4.895
 1182SOL     OW 4444   5.228   5.443   3.660
 1182SOL    HW1 4445   5.313   5.493   3.644
 1182SOL    HW2 4446   5.214   5.377   3.586
 1183SOL     OW 4447   2.376   4.877   0.352
 1183SOL    HW1 4448   2.456   4.819   0.363
 1183SOL    HW2 4449   2.349   4.879   0.256
 1184SOL     OW 4450   6.867   1.260   4.303
 1184SOL    HW1 4451   6.913   1.183   4.347
 1184SOL    HW2 4452   6.816   1.227   4.223
 1185SOL     OW 4453   0.494   0.822   1.026
 1185SOL    HW1 4454   0.511   0.921   1.025
 1185SOL    HW2 4455   0.474   0.793   1.119
 1186SOL     OW 4456   5.470   6.036   5.546
 1186SOL    HW1 4457   5.428   6.062   5.633
 1186SOL    HW2 4458   5.504   6.118   5.500
 1187SOL     OW 4459   4.938   0.088   5.742
 1187SOL    HW1 4460   4.869   0.091   5.670
 1187SOL    HW2 4461   4.954   7.024   5.769
 1188SOL     OW 4462   3.461   6.399   5.806
 1188SOL    HW1 4463   3.430   6.315   5.852
 1188SOL    HW2 4464   3.384   6.440   5.758
 1189SOL     OW 4465   6.214   1.889   1.496
 1189SOL    HW1 4466   6.230   1.840   1.410
 1189SOL    HW2 4467   6.176   1.827   1.564
 1190SOL     OW 4468   3.581   5.870   3.816
 1190SOL    HW1 4469   3.518   5.942   3.844
 1190SOL    HW2 4470   3.603   5.881   3.719
 1191SOL     OW 4471   4.021   5.831   4.546
 1191SOL    HW1 4472   3.975   5.903   4.494
 1191SOL    HW2 4473   3.974   5.817   4.633
 1192SOL     OW 4474   5.050   4.530   2.269
 1192SOL    HW1 4475   5.087   4.531   2.176
 1192SOL    HW2 4476   5.029   4.436   2.296
 1193SOL     OW 4477   6.343   2.320   4.802
 1193SOL    HW1 4478   6.315   2.290   4.894
 1193SOL    HW2 4479   6.280   2.391   4.770
 1194SOL     OW 4480   5.740   6.788   1.500
 1194SOL    HW1 4481   5.776   6.881   1.490
 1194SOL    HW2 4482   5.684   6.766   1.420
 1195SOL     OW 4483   0.397   4.284   0.664
 1195SOL    HW1 4484   0.313   4.311   0.710
 1195SOL    HW2 4485   0.388   4.301   0.566
 1196SOL     OW 4486   6.783   4.763   3.468
 1196SOL    HW1 4487   6.854   4.806   3.413
 1196SOL    HW2 4488   6.694   4.800   3.443
 1197SOL     OW 4489   4.768   0.194   4.922
 1197SOL    HW1 4490   4.814   0.147   4.997
 1197SOL    HW2 4491   4.757   0.291   4.945
 1198SOL     OW 4492   1.636   2.728   3.285
 1198SOL    HW1 4493   1.579   2.780   3.220
 1198SOL    HW2 4494   1.732   2.749   3.268
 1199SOL     OW 4495   3.278   3.978   0.897
 1199SOL    HW1 4496   3.273   4.076   0.914
 1199SOL    HW2 4497   3.373   3.948   0.901
 1200SOL     OW 4498   3.408   4.003   4.016
 1200SOL    HW1 4499   3.506   3.984   4.016
 1200SOL    HW2 4500   3.388   4.076   4.082
 1201SOL     OW 4501   0.989   1.212   4.398
 1201SOL    HW1 4502   1.086   1.188   4.400
 1201SOL    HW2 4503   0.974   1.295   4.452
 1202SOL     OW 4504   0.293   5.977   5.646
 1202SOL    HW1 4505   0.249   6.056   5.603
 1202SOL    HW2 4506   0.234   5.941   5.718
 1203SOL     OW 4507   6.789   6.540   6.885
 1203SOL    HW1 4508   6.863   6.607   6.899
 1203SOL    HW2 4509   6.829   6.450   6.869
 1204SOL     OW 4510   4.383   1.359   1.371
 1204SOL    HW1 4511   4.466   1.378   1.319
 1204SOL    HW2 4512   4.368   1.260   1.374
 1205SOL     OW 4513   4.246   3.137   0.517
 1205SOL    HW1 4514   4.276   3.066   0.452
 1205SOL    HW2 4515   4.160   3.177   0.486
 1206SOL     OW 4516   2.588   2.708   5.278
 1206SOL    HW1 4517   2.668   2.746   5.325
 1206SOL    HW2 4518   2.536   2.783   5.236
 1207SOL     OW 4519   2.472   6.577   0.975
 1207SOL    HW1 4520   2.378   6.610   0.985
 1207SOL    HW2 4521   2.473   6.477   0.987
 1208SOL     OW 4522   3.137   3.527   1.277
 1208SOL    HW1 4523   3.081   3.608   1.260
 1208SOL    HW2 4524   3.079   3.454   1.314
 1209SOL     OW 4525   4.200   1.143   4.480
 1209SOL    HW1 4526   4.114   1.152   4.530
 1209SOL    HW2 4527   4.261   1.220   4.504
 1210SOL     OW 4528   3.598   0.027   3.770
 1210SOL    HW1 4529   3.579   6.961   3.787
 1210SOL    HW2 4530   3.686   0.051   3.810
 1211SOL     OW 4531   0.352   3.702   2.638
 1211SOL    HW1 4532   0.310   3.755   2.712
 1211SOL    HW2 4533   0.363   3.607   2.668
 1212SOL     OW 4534   6.214   0.571   0.186
 1212SOL    HW1 4535   6.311   0.593   0.195
 1212SOL    HW2 4536   6.160   0.645   0.227
 1213SOL     OW 4537   6.467   2.374   1.109
 1213SOL    HW1 4538   6.453   2.322   1.024
 1213SOL    HW2 4539   6.432   2.467   1.097
 1214SOL     OW 4540   1.301   2.789   7.002
 1214SOL    HW1 4541   1.344   2.823   6.919
 1214SOL    HW2 4542   1.342   2.834   0.051
 1215SOL     OW 4543   1.218   4.709   2.950
 1215SOL    HW1 4544   1.262   4.784   3.000
 1215SOL    HW2 4545   1.249   4.621   2.989
 1216SOL     OW 4546   5.092   0.345   1.231
 1216SOL    HW1 4547   5.030   0.390   1.167
 1216SOL    HW2 4548   5.183   0.386   1.224
 1217SOL     OW 4549   2.065   4.585   0.909
 1217SOL    HW1 4550   1.979   4.586   0.960
 1217SOL    HW2 4551   2.141   4.591   0.974
 1218SOL     OW 4552   1.611   3.993   4.825
 1218SOL    HW1 4553   1.576   4.087   4.815
 1218SOL    HW2 4554   1.536   3.933   4.854
 1219SOL     OW 4555   5.373   5.965   2.146
 1219SOL    HW1 4556   5.405   5.919   2.229
 1219SOL    HW2 4557   5.355   6.061   2.165
 1220SOL     OW 4558   0.767   4.614   3.067
 1220SOL    HW1 4559   0.713   4.696   3.048
 1220SOL    HW2 4560   0.728   4.536   3.018
 1221SOL     OW 4561   5.240   4.084   6.510
 1221SOL    HW1 4562   5.339   4.088   6.519
 1221SOL    HW2 4563   5.210   4.148   6.439
 1222SOL     OW 4564   6.920   0.753   6.999
 1222SOL    HW1 4565   6.989   0.816   6.963
 1222SOL    HW2 4566   6.865   0.717   6.923
 1223SOL     OW 4567   3.762   1.746   0.340
 1223SOL    HW1 4568   3.738   1.731   0.436
 1223SOL    HW2 4569   3.831   1.817   0.334
 1224SOL     OW 4570   3.378   5.880   1.072
 1224SOL    HW1 4571   3.463   5.846   1.112
 1224SOL    HW2 4572   3.391   5.895   0.974
 1225SOL     OW 4573   2.902   3.012   5.946
 1225SOL    HW1 4574   2.925   3.101   5.986
 1225SOL    HW2 4575   2.982   2.975   5.899
 1226SOL     OW 4576   2.764   5.812   1.927
 1226SOL    HW1 4577   2.715   5.776   2.006
 1226SOL    HW2 4578   2.811   5.897   1.953
 1227SOL     OW 4579   6.709   4.082   6.018
 1227SOL    HW1 4580   6.625   4.054   5.970
 1227SOL    HW2 4581   6.777   4.009   6.013
 1228SOL     OW 4582   3.262   2.091   6.388
 1228SOL    HW1 4583   3.299   2.035   6.462
 1228SOL    HW2 4584   3.297   2.059   6.300
 1229SOL     OW 4585   3.380   5.359   5.283
 1229SOL    HW1 4586   3.405   5.301   5.206
 1229SOL    HW2 4587   3.462   5.392   5.329
 1230SOL     OW 4588   4.587   7.023   2.715
 1230SOL    HW1 4589   4.548   6.961   2.783
 1230SOL    HW2 4590   4.561   0.086   2.737
 1231SOL     OW 4591   1.896   3.042   4.459
 1231SOL    HW1 4592   1.924   2.949   4.480
 1231SOL    HW2 4593   1.859   3.046   4.366
 1232SOL     OW 4594   0.789   1.652   4.958
 1232SOL    HW1 4595   0.802   1.718   4.884
 1232SOL    HW2 4596   0.701   1.605   4.944
 1233SOL     OW 4597   0.743   4.456   4.769
 1233SOL    HW1 4598   0.661   4.482   4.820
 1233SOL    HW2 4599   0.716   4.407   4.686
 1234SOL     OW 4600   6.414   3.733   4.995
 1234SOL    HW1 4601   6.510   3.722   5.023
 1234SOL    HW2 4602   6.396   3.829   4.974
 1235SOL     OW 4603   0.138   6.034   2.575
 1235SOL    HW1 4604   0.219   6.002   2.526
 1235SOL    HW2 4605   0.165   6.095   2.649
 1236SOL     OW 4606   4.838   1.872   0.000
 1236SOL    HW1 4607   4.818   1.964   6.995
 1236SOL    HW2 4608   4.877   1.816   6.958
 1237SOL     OW 4609   1.891   5.516   5.620
 1237SOL    HW1 4610   1.982   5.545   5.589
 1237SOL    HW2 4611   1.885   5.417   5.615
 1238SOL     OW 4612   2.703   1.253   0.240
 1238SOL    HW1 4613   2.776   1.223   0.302
 1238SOL    HW2 4614   2.744   1.289   0.156
 1239SOL     OW 4615   0.234   6.852   5.625
 1239SOL    HW1 4616   0.257   6.894   5.537
 1239SOL    HW2 4617   0.229   6.753   5.615
 1240SOL     OW 4618   5.267   6.202   2.251
 1240SOL    HW1 4619   5.198   6.250   2.305
 1240SOL    HW2 4620   5.357   6.217   2.292
 1241SOL     OW 4621   5.630   3.901   3.850
 1241SOL    HW1 4622   5.707   3.916   3.913
 1241SOL    HW2 4623   5.646   3.816   3.800
 1242SOL     OW 4624   0.356   3.414   1.634
 1242SOL    HW1 4625   0.270   3.429   1.586
 1242SOL    HW2 4626   0.378   3.493   1.690
 1243SOL     OW 4627   6.954   6.976   4.775
 1243SOL    HW1 4628   6.886   6.904   4.771
 1243SOL    HW2 4629   0.001   6.946   4.830
 1244SOL     OW 4630   6.681   0.116   4.308
 1244SOL    HW1 4631   6.682   0.017   4.296
 1244SOL    HW2 4632   6.774   0.152   4.299
 1245SOL     OW 4633   4.610   4.865   0.304
 1245SOL    HW1 4634   4.590   4.767   0.302
 1245SOL    HW2 4635   4.709   4.879   0.291
 1246SOL     OW 4636   2.411   6.314   1.543
 1246SOL    HW1 4637   2.338   6.292   1.607
 1246SOL    HW2 4638   2.458   6.230   1.517
 1247SOL     OW 4639   2.127   0.570   6.726
 1247SOL    HW1 4640   2.031   0.575   6.700
 1247SOL    HW2 4641   2.168   0.661   6.720
 1248SOL     OW 4642   2.036   0.337   5.037
 1248SOL    HW1 4643   1.964   0.387   5.086
 1248SOL    HW2 4644   1.996   0.294   4.955
 1249SOL     OW 4645   5.842   2.261   2.405
 1249SOL    HW1 4646   5.910   2.206   2.453
 1249SOL    HW2 4647   5.851   2.247   2.307
 1250SOL     OW 4648   6.502   4.868   4.389
 1250SOL    HW1 4649   6.443   4.811   4.332
 1250SOL    HW2 4650   6.488   4.846   4.486
 1251SOL     OW 4651   3.283   0.547   4.627
 1251SOL    HW1 4652   3.256   0.461   4.585
 1251SOL    HW2 4653   3.304   0.615   4.556
 1252SOL     OW 4654   3.660   3.330   4.991
 1252SOL    HW1 4655   3.595   3.333   4.915
 1252SOL    HW2 4656   3.752   3.316   4.956
 1253SOL     OW 4657   3.492   5.521   1.944
 1253SOL    HW1 4658   3.450   5.445   1.895
 1253SOL    HW2 4659   3.429   5.555   2.014
 1254SOL     OW 4660   0.709   2.573   2.731
 1254SOL    HW1 4661   0.619   2.533   2.745
 1254SOL    HW2 4662   0.700   2.665   2.694
 1255SOL     OW 4663   6.383   2.106   4.620
 1255SOL    HW1 4664   6.342   2.143   4.704
 1255SOL    HW2 4665   6.458   2.045   4.645
 1256SOL     OW 4666   6.795   6.626   3.502
 1256SOL    HW1 4667   6.792   6.535   3.460
 1256SOL    HW2 4668   6.885   6.667   3.484
 1257SOL     OW 4669   0.104   6.455   4.242
 1257SOL    HW1 4670   0.152   6.416   4.320
 1257SOL    HW2 4671   0.165   6.517   4.192
 1258SOL     OW 4672   1.669   5.434   3.686
 1258SOL    HW1 4673   1.583   5.466   3.647
 1258SOL    HW2 4674   1.676   5.335   3.675
 1259SOL     OW 4675   3.837   1.562   4.113
 1259SOL    HW1 4676   3.924   1.603   4.140
 1259SOL    HW2 4677   3.839   1.464   4.132
 1260SOL     OW 4678   1.320   1.716   6.965
 1260SOL    HW1 4679   1.253   1.648   6.998
 1260SOL    HW2 4680   1.411   1.675   6.965
 1261SOL     OW 4681   0.532   5.767   6.850
 1261SOL    HW1 4682   0.541   5.732   6.943
 1261SOL    HW2 4683   0.601   5.838   6.835
 1262SOL     OW 4684   4.938   3.981   1.473
 1262SOL    HW1 4685   4.921   4.038   1.393
 1262SOL    HW2 4686   4.925   4.035   1.556
 1263SOL     OW 4687   0.758   1.720   2.432
 1263SOL    HW1 4688   0.829   1.768   2.380
 1263SOL    HW2 4689   0.800   1.648   2.487
 1264SOL     OW 4690   0.005   4.344   0.079
 1264SOL    HW1 4691   6.941   4.311   0.074
 1264SOL    HW2 4692   0.065   4.282   0.028
 1265SOL     OW 4693   5.990   4.918   4.724
 1265SOL    HW1 4694   5.915   4.853   4.736
 1265SOL    HW2 4695   6.042   4.924   4.809
 1266SOL     OW 4696   0.130   0.972   4.173
 1266SOL    HW1 4697   0.189   1.045   4.207
 1266SOL    HW2 4698   0.142   0.890   4.229
 1267SOL     OW 4699   5.621   1.197   0.816
 1267SOL    HW1 4700   5.570   1.168   0.897
 1267SOL    HW2 4701   5.596   1.290   0.792
 1268SOL     OW 4702   2.645   3.038   6.618
 1268SOL    HW1 4703   2.713   3.044   6.691
 1268SOL    HW2 4704   2.582   3.115   6.624
 1269SOL     OW 4705   5.870   3.400   4.550
 1269SOL    HW1 4706   5.918   3.446   4.476
 1269SOL    HW2 4707   5.805   3.334   4.511
 1270SOL     OW 4708   1.908   4.545   2.811
 1270SOL    HW1 4709   1.944   4.545   2.904
 1270SOL    HW2 4710   1.978   4.515   2.747
 1271SOL     OW 4711   3.606   1.809   2.629
 1271SOL    HW1 4712   3.649   1.780   2.544
 1271SOL    HW2 4713   3.620   1.907   2.642
 1272SOL     OW 4714   5.526   5.113   6.758
 1272SOL    HW1 4715   5.603   5.173   6.737
 1272SOL    HW2 4716   5.558   5.033   6.809
 1273SOL     OW 4717   1.161   4.094   5.784
 1273SOL    HW1 4718   1.168   4.030   5.861
 1273SOL    HW2 4719   1.106   4.173   5.811
 1274SOL     OW 4720   0.258   4.567   0.954
 1274SOL    HW1 4721   0.195   4.643   0.973
 1274SOL    HW2 4722   0.344   4.604   0.919
 1275SOL     OW 4723   3.642   1.928   3.422
 1275SOL    HW1 4724   3.667   1.833   3.435
 1275SOL    HW2 4725   3.719   1.987   3.448
 1276SOL     OW 4726   5.637   4.828   5.028
 1276SOL    HW1 4727   5.670   4.733   5.028
 1276SOL    HW2 4728   5.589   4.846   5.114
 1277SOL     OW 4729   1.989   5.195   6.136
 1277SOL    HW1 4730   2.055   5.245   6.079
 1277SOL    HW2 4731   2.038   5.153   6.213
 1278SOL     OW 4732   1.202   0.487   4.923
 1278SOL    HW1 4733   1.136   0.483   4.998
 1278SOL    HW2 4734   1.243   0.396   4.910
 1279SOL     OW 4735   2.032   4.875   6.759
 1279SOL    HW1 4736   2.122   4.868   6.803
 1279SOL    HW2 4737   2.034   4.829   6.671
 1280SOL     OW 4738   4.526   6.469   4.035
 1280SOL    HW1 4739   4.560   6.446   4.126
 1280SOL    HW2 4740   4.531   6.389   3.976
 1281SOL     OW 4741   2.800   6.037   2.987
 1281SOL    HW1 4742   2.737   5.962   3.006
 1281SOL    HW2 4743   2.857   6.056   3.067
 1282SOL     OW 4744   6.537   1.743   6.722
 1282SOL    HW1 4745   6.503   1.653   6.694
 1282SOL    HW2 4746   6.552   1.744   6.821
 1283SOL     OW 4747   6.703   2.975   5.182
 1283SOL    HW1 4748   6.787   2.951   5.134
 1283SOL    HW2 4749   6.627   2.979   5.117
 1284SOL     OW 4750   4.281   1.493   1.566
 1284SOL    HW1 4751   4.329   1.461   1.484
 1284SOL    HW2 4752   4.297   1.591   1.578
 1285SOL     OW 4753   5.208   1.424   5.555
 1285SOL    HW1 4754   5.117   1.461   5.537
 1285SOL    HW2 4755   5.242   1.461   5.642
 1286SOL     OW 4756   4.533   2.660   0.649
 1286SOL    HW1 4757   4.560   2.755   0.631
 1286SOL    HW2 4758   4.600   2.617   0.708
 1287SOL     OW 4759   5.414   4.391   5.398
 1287SOL    HW1 4760   5.322   4.424   5.417
 1287SOL    HW2 4761   5.454   4.354   5.481
 1288SOL     OW 4762   3.854   4.050   6.408
 1288SOL    HW1 4763   3.767   4.063   6.361
 1288SOL    HW2 4764   3.854   4.102   6.493
 1289SOL     OW 4765   0.684   0.415   1.203
 1289SOL    HW1 4766   0.597   0.414   1.253
 1289SOL    HW2 4767   0.696   0.504   1.160
 1290SOL     OW 4768   1.445   6.855   0.427
 1290SOL    HW1 4769   1.365   6.797   0.416
 1290SOL    HW2 4770   1.525   6.798   0.445
 1291SOL     OW 4771   0.353   4.143   3.847
 1291SOL    HW1 4772   0.435   4.159   3.792
 1291SOL    HW2 4773   0.308   4.230   3.866
 1292SOL     OW 4774   0.370   5.753   2.624
 1292SOL    HW1 4775   0.369   5.838   2.572
 1292SOL    HW2 4776   0.411   5.770   2.714
 1293SOL     OW 4777   2.317   2.383   6.515
 1293SOL    HW1 4778   2.265   2.372   6.430
 1293SOL    HW2 4779   2.253   2.389   6.592
 1294SOL     OW 4780   0.312   3.363   5.659
 1294SOL    HW1 4781   0.267   3.448   5.684
 1294SOL    HW2 4782   0.401   3.357   5.704
 1295SOL     OW 4783   0.099   3.613   1.180
 1295SOL    HW1 4784   0.120   3.711   1.183
 1295SOL    HW2 4785   0.178   3.561   1.212
 1296SOL     OW 4786   4.847   0.066   5.177
 1296SOL    HW1 4787   4.900   7.020   5.215
 1296SOL    HW2 4788   4.752   0.059   5.208
 1297SOL     OW 4789   0.945   6.517   1.458
 1297SOL    HW1 4790   0.881   6.559   1.523
 1297SOL    HW2 4791   0.949   6.572   1.375
 1298SOL     OW 4792   5.027   6.257   3.616
 1298SOL    HW1 4793   5.079   6.172   3.607
 1298SOL    HW2 4794   4.998   6.288   3.525
 1299SOL     OW 4795   2.550   2.563   3.539
 1299SOL    HW1 4796   2.516   2.554   3.632
 1299SOL    HW2 4797   2.539   2.657   3.508
 1300SOL     OW 4798   2.043   3.241   0.934
 1300SOL    HW1 4799   2.124   3.259   0.991
 1300SOL    HW2 4800   2.007   3.328   0.900
 1301SOL     OW 4801   0.558   6.657   1.941
 1301SOL    HW1 4802   0.492   6.614   1.880
 1301SOL    HW2 4803   0.647   6.614   1.932
 1302SOL     OW 4804   5.253   7.011   5.339
 1302SOL    HW1 4805   5.196   7.025   5.257
 1302SOL    HW2 4806   5.315   0.058   5.350
 1303SOL     OW 4807   4.291   1.084   1.352
 1303SOL    HW1 4808   4.341   1.006   1.315
 1303SOL    HW2 4809   4.217   1.108   1.289
 1304SOL     OW 4810   1.781   0.094   1.008
 1304SOL    HW1 4811   1.696   0.044   1.020
 1304SOL    HW2 4812   1.825   0.066   0.922
 1305SOL     OW 4813   5.879   4.232   0.457
 1305SOL    HW1 4814   5.920   4.236   0.549
 1305SOL    HW2 4815   5.909   4.311   0.404
 1306SOL     OW 4816   1.404   5.751   4.185
 1306SOL    HW1 4817   1.452   5.828   4.225
 1306SOL    HW2 4818   1.308   5.776   4.167
 1307SOL     OW 4819   2.005   4.098   4.217
 1307SOL    HW1 4820   2.080   4.042   4.254
 1307SOL    HW2 4821   2.040   4.189   4.194
 1308SOL     OW 4822   6.913   6.863   5.930
 1308SOL    HW1 4823   6.978   6.919   5.878
 1308SOL    HW2 4824   6.919   6.768   5.899
 1309SOL     OW 4825   6.039   4.680   5.922
 1309SOL    HW1 4826   6.008   4.590   5.951
 1309SOL    HW2 4827   5.975   4.717   5.854
 1310SOL     OW 4828   0.227   3.361   2.966
 1310SOL    HW1 4829   0.166   3.440   2.972
 1310SOL    HW2 4830   0.311   3.387   2.919
 1311SOL     OW 4831   0.302   6.152   5.925
 1311SOL    HW1 4832   0.236   6.166   5.998
 1311SOL    HW2 4833   0.336   6.058   5.928
 1312SOL     OW 4834   1.695   6.589   0.235
 1312SOL    HW1 4835   1.709   6.671   0.179
 1312SOL    HW2 4836   1.684   6.509   0.176
 1313SOL     OW 4837   0.083   5.227   2.761
 1313SOL    HW1 4838   0.131   5.148   2.800
 1313SOL    HW2 4839   0.149   5.287   2.715
 1314SOL     OW 4840   3.589   1.365   4.736
 1314SOL    HW1 4841   3.688   1.357   4.752
 1314SOL    HW2 4842   3.542   1.286   4.777
 1315SOL     OW 4843   6.623   1.300   3.104
 1315SOL    HW1 4844   6.554   1.261   3.165
 1315SOL    HW2 4845   6.713   1.295   3.147
 1316SOL     OW 4846   3.633   0.029   5.917
 1316SOL    HW1 4847   3.660   0.124   5.903
 1316SOL    HW2 4848   3.579   0.021   6.000
 1317SOL     OW 4849   1.528   4.097   5.784
 1317SOL    HW1 4850   1.477   4.026   5.736
 1317SOL    HW2 4851   1.494   4.104   5.878
 1318SOL     OW 4852   1.078   2.715   0.528
 1318SOL    HW1 4853   1.153   2.781   0.522
 1318SOL    HW2 4854   1.086   2.650   0.452
 1319SOL     OW 4855   0.143   5.834   0.933
 1319SOL    HW1 4856   0.115   5.920   0.891
 1319SOL    HW2 4857   0.074   5.764   0.914
 1320SOL     OW 4858   3.619   3.944   6.956
 1320SOL    HW1 4859   3.715   3.965   6.978
 1320SOL    HW2 4860   3.559   3.998   7.014
 1321SOL     OW 4861   5.069   3.148   6.348
 1321SOL    HW1 4862   5.081   3.051   6.367
 1321SOL    HW2 4863   4.981   3.162   6.302
 1322SOL     OW 4864   3.588   1.835   4.762
 1322SOL    HW1 4865   3.568   1.833   4.664
 1322SOL    HW2 4866   3.595   1.930   4.792
 1323SOL     OW 4867   3.503   0.053   6.449
 1323SOL    HW1 4868   3.408   0.054   6.418
 1323SOL    HW2 4869   3.506   0.067   6.548
 1324SOL     OW 4870   0.295   2.827   6.463
 1324SOL    HW1 4871   0.292   2.856   6.559
 1324SOL    HW2 4872   0.318   2.906   6.406
 1325SOL     OW 4873   3.680   6.229   5.220
 1325SOL    HW1 4874   3.699   6.310   5.165
 1325SOL    HW2 4875   3.735   6.232   5.303
 1326SOL     OW 4876   4.809   3.668   5.424
 1326SOL    HW1 4877   4.908   3.653   5.424
 1326SOL    HW2 4878   4.774   3.660   5.330
 1327SOL     OW 4879   1.463   6.156   0.818
 1327SOL    HW1 4880   1.525   6.227   0.851
 1327SOL    HW2 4881   1.369   6.181   0.840
 1328SOL     OW 4882   2.223   3.316   0.107
 1328SOL    HW1 4883   2.255   3.404   0.139
 1328SOL    HW2 4884   2.289   3.245   0.133
 1329SOL     OW 4885   0.483   2.455   2.775
 1329SOL    HW1 4886   0.490   2.355   2.777
 1329SOL    HW2 4887   0.434   2.483   2.693
 1330SOL     OW 4888   1.894   1.800   1.217
 1330SOL    HW1 4889   1.917   1.766   1.308
 1330SOL    HW2 4890   1.794   1.806   1.208
 1331SOL     OW 4891   4.726   2.907   3.416
 1331SOL    HW1 4892   4.678   2.820   3.414
 1331SOL    HW2 4893   4.745   2.938   3.322
 1332SOL     OW 4894   2.867   0.051   0.784
 1332SOL    HW1 4895   2.917   0.109   0.718
 1332SOL    HW2 4896   2.773   0.083   0.791
 1333SOL     OW 4897   2.878   3.655   2.959
 1333SOL    HW1 4898   2.817   3.602   2.901
 1333SOL    HW2 4899   2.943   3.705   2.903
 1334SOL     OW 4900   6.723   1.374   3.963
 1334SOL    HW1 4901   6.820   1.353   3.977
 1334SOL    HW2 4902   6.714   1.466   3.925
 1335SOL     OW 4903   2.366   2.036   2.256
 1335SOL    HW1 4904   2.269   2.020   2.240
 1335SOL    HW2 4905   2.383   2.046   2.354
 1336SOL     OW 4906   2.741   1.723   4.797
 1336SOL    HW1 4907   2.822   1.709   4.854
 1336SOL    HW2 4908   2.753   1.677   4.709
 1337SOL     OW 4909   1.075   1.839   2.910
 1337SOL    HW1 4910   1.048   1.919   2.964
 1337SOL    HW2 4911   1.086   1.761   2.970
 1338SOL     OW 4912   6.732   2.950   4.628
 1338SOL    HW1 4913   6.696   3.013   4.697
 1338SOL    HW2 4914   6.700   2.978   4.538
 1339SOL     OW 4915   6.236   2.254   0.028
 1339SOL    HW1 4916   6.307   2.183   0.028
 1339SOL    HW2 4917   6.150   2.215   7.025
 1340SOL     OW 4918   5.359   1.401   2.614
 1340SOL    HW1 4919   5.312   1.485   2.584
 1340SOL    HW2 4920   5.359   1.397   2.714
 1341SOL     OW 4921   4.601   6.907   6.819
 1341SOL    HW1 4922   4.675   6.966   6.785
 1341SOL    HW2 4923   4.619   6.812   6.791
 1342SOL     OW 4924   2.820   5.332   6.572
 1342SOL    HW1 4925   2.814   5.428   6.599
 1342SOL    HW2 4926   2.860   5.326   6.480
 1343SOL     OW 4927   5.562   5.515   2.724
 1343SOL    HW1 4928   5.630   5.462   2.774
 1343SOL    HW2 4929   5.476   5.464   2.720
 1344SOL     OW 4930   0.437   6.011   4.284
 1344SOL    HW1 4931   0.350   6.009   4.333
 1344SOL    HW2 4932   0.508   6.049   4.344
 1345SOL     OW 4933   0.666   5.568   2.751
 1345SOL    HW1 4934   0.631   5.596   2.841
 1345SOL    HW2 4935   0.765   5.558   2.756
 1346SOL     OW 4936   1.935   5.355   5.102
 1346SOL    HW1 4937   1.854   5.365   5.159
 1346SOL    HW2 4938   1.945   5.435   5.043
 1347SOL     OW 4939   0.060   7.006   5.788
 1347SOL    HW1 4940   0.117   6.940   5.739
 1347SOL    HW2 4941   0.113   0.059   5.805
 1348SOL     OW 4942   6.984   6.094   4.606
 1348SOL    HW1 4943   7.009   6.150   4.528
 1348SOL    HW2 4944   7.026   6.003   4.597
 1349SOL     OW 4945   5.567   2.950   5.295
 1349SOL    HW1 4946   5.502   2.970   5.222
 1349SOL    HW2 4947   5.594   2.854   5.291
 1350SOL     OW 4948   5.529   4.908   5.301
 1350SOL    HW1 4949   5.521   4.833   5.367
 1350SOL    HW2 4950   5.439   4.927   5.261
 1351SOL     OW 4951   5.572   2.110   3.563
 1351SOL    HW1 4952   5.604   2.071   3.649
 1351SOL    HW2 4953   5.553   2.207   3.575
 1352SOL     OW 4954   6.260   5.875   4.089
 1352SOL    HW1 4955   6.255   5.847   4.185
 1352SOL    HW2 4956   6.197   5.818   4.035
 1353SOL     OW 4957   0.748   2.475   0.228
 1353SOL    HW1 4958   0.765   2.526   0.312
 1353SOL    HW2 4959   0.833   2.432   0.198
 1354SOL     OW 4960   0.241   4.434   1.729
 1354SOL    HW1 4961   0.315   4.496   1.701
 1354SOL    HW2 4962   0.209   4.460   1.820
 1355SOL     OW 4963   5.972   3.828   4.230
 1355SOL    HW1 4964   5.956   3.784   4.319
 1355SOL    HW2 4965   6.057   3.794   4.190
 1356SOL     OW 4966   3.765   2.920   2.079
 1356SOL    HW1 4967   3.708   2.888   2.155
 1356SOL    HW2 4968   3.847   2.964   2.115
 1357SOL     OW 4969   0.219   4.200   6.412
 1357SOL    HW1 4970   0.151   4.194   6.485
 1357SOL    HW2 4971   0.270   4.285   6.421
 1358SOL     OW 4972   6.120   6.324   6.736
 1358SOL    HW1 4973   6.115   6.343   6.638
 1358SOL    HW2 4974   6.192   6.381   6.777
 1359SOL     OW 4975   5.882   4.860   2.493
 1359SOL    HW1 4976   5.884   4.778   2.551
 1359SOL    HW2 4977   5.795   4.907   2.505
 1360SOL     OW 4978   2.645   3.884   0.536
 1360SOL    HW1 4979   2.600   3.802   0.570
 1360SOL    HW2 4980   2.734   3.860   0.498
 1361SOL     OW 4981   6.237   4.629   5.277
 1361SOL    HW1 4982   6.192   4.653   5.364
 1361SOL    HW2 4983   6.332   4.604   5.295
 1362SOL     OW 4984   4.080   3.827   3.471
 1362SOL    HW1 4985   4.165   3.808   3.521
 1362SOL    HW2 4986   4.084   3.784   3.381
 1363SOL     OW 4987   0.205   4.883   4.559
 1363SOL    HW1 4988   0.173   4.805   4.504
 1363SOL    HW2 4989   0.291   4.917   4.521
 1364SOL     OW 4990   5.345   4.459   0.508
 1364SOL    HW1 4991   5.305   4.543   0.470
 1364SOL    HW2 4992   5.444   4.467   0.508
 1365SOL     OW 4993   0.406   4.526   6.173
 1365SOL    HW1 4994   0.349   4.554   6.096
 1365SOL    HW2 4995   0.496   4.568   6.164
 1366SOL     OW 4996   1.620   6.317   6.306
 1366SOL    HW1 4997   1.642   6.414   6.318
 1366SOL    HW2 4998   1.689   6.275   6.247
 1367SOL     OW 4999   2.403   6.797   2.771
 1367SOL    HW1 5000   2.462   6.774   2.848
 1367SOL    HW2 5001   2.310   6.811   2.804
 1368SOL     OW 5002   5.457   6.936   3.972
 1368SOL    HW1 5003   5.421   6.843   3.960
 1368SOL    HW2 5004   5.557   6.934   3.965
 1369SOL     OW 5005   1.913   6.691   3.036
 1369SOL    HW1 5006   1.937   6.769   2.977
 1369SOL    HW2 5007   1.995   6.637   3.054
 1370SOL     OW 5008   3.488   1.074   1.601
 1370SOL    HW1 5009   3.390   1.057   1.593
 1370SOL    HW2 5010   3.503   1.155   1.658
 1371SOL     OW 5011   5.287   1.418   4.174
 1371SOL    HW1 5012   5.303   1.448   4.268
 1371SOL    HW2 5013   5.199   1.370   4.170
 1372SOL     OW 5014   1.446   2.796   0.339
 1372SOL    HW1 5015   1.391   2.852   0.401
 1372SOL    HW2 5016   1.450   2.839   0.249
 1373SOL     OW 5017   6.238   4.503   0.303
 1373SOL    HW1 5018   6.263   4.467   0.213
 1373SOL    HW2 5019   6.198   4.594   0.292
 1374SOL     OW 5020   3.804   2.118   0.557
 1374SOL    HW1 5021   3.821   2.214   0.579
 1374SOL    HW2 5022   3.722   2.087   0.606
 1375SOL     OW 5023   0.188   4.643   6.036
 1375SOL    HW1 5024   0.127   4.568   6.060
 1375SOL    HW2 5025   0.175   4.669   5.940
 1376SOL     OW 5026   4.972   3.500   3.937
 1376SOL    HW1 5027   5.067   3.523   3.957
 1376SOL    HW2 5028   4.967   3.456   3.847
 1377SOL     OW 5029   6.660   3.741   5.075
 1377SOL    HW1 5030   6.664   3.805   5.152
 1377SOL    HW2 5031   6.729   3.767   5.007
 1378SOL     OW 5032   5.835   2.117   4.976
 1378SOL    HW1 5033   5.874   2.091   5.064
 1378SOL    HW2 5034   5.765   2.050   4.950
 1379SOL     OW 5035   3.332   6.947   2.277
 1379SOL    HW1 5036   3.275   7.017   2.320
 1379SOL    HW2 5037   3.274   6.888   2.219
 1380SOL     OW 5038   0.043   0.124   2.109
 1380SOL    HW1 5039   0.089   0.208   2.078
 1380SOL    HW2 5040   0.019   0.134   2.205
 1381SOL     OW 5041   5.230   3.080   0.182
 1381SOL    HW1 5042   5.239   3.027   0.097
 1381SOL    HW2 5043   5.248   3.020   0.260
 1382SOL     OW 5044   5.547   4.544   6.863
 1382SOL    HW1 5045   5.458   4.560   6.906
 1382SOL    HW2 5046   5.594   4.470   6.911
 1383SOL     OW 5047   1.730   1.324   0.493
 1383SOL    HW1 5048   1.680   1.409   0.475
 1383SOL    HW2 5049   1.735   1.270   0.409
 1384SOL     OW 5050   4.093   1.208   2.800
 1384SOL    HW1 5051   4.092   1.129   2.861
 1384SOL    HW2 5052   4.183   1.252   2.803
 1385SOL     OW 5053   0.532   2.805   2.910
 1385SOL    HW1 5054   0.456   2.768   2.857
 1385SOL    HW2 5055   0.611   2.819   2.851
 1386SOL     OW 5056   2.140   1.786   4.471
 1386SOL    HW1 5057   2.148   1.865   4.411
 1386SOL    HW2 5058   2.046   1.751   4.467
 1387SOL     OW 5059   3.739   0.521   3.612
 1387SOL    HW1 5060   3.788   0.554   3.693
 1387SOL    HW2 5061   3.661   0.580   3.594
 1388SOL     OW 5062   6.689   6.422   4.006
 1388SOL    HW1 5063   6.596   6.386   3.995
 1388SOL    HW2 5064   6.718   6.467   3.921
 1389SOL     OW 5065   0.385   1.097   3.625
 1389SOL    HW1 5066   0.334   1.022   3.582
 1389SOL    HW2 5067   0.324   1.150   3.684
 1390SOL     OW 5068   4.592   1.846   6.351
 1390SOL    HW1 5069   4.559   1.834   6.445
 1390SOL    HW2 5070   4.578   1.941   6.323
 1391SOL     OW 5071   6.035   1.671   5.891
 1391SOL    HW1 5072   5.992   1.613   5.821
 1391SOL    HW2 5073   5.995   1.651   5.980
 1392SOL     OW 5074   5.037   5.984   6.019
 1392SOL    HW1 5075   5.094   5.992   5.937
 1392SOL    HW2 5076   4.953   6.037   6.006
 1393SOL     OW 5077   5.997   3.033   6.830
 1393SOL    HW1 5078   6.003   2.963   6.901
 1393SOL    HW2 5079   5.902   3.044   6.801
 1394SOL     OW 5080   3.858   6.565   4.094
 1394SOL    HW1 5081   3.934   6.505   4.071
 1394SOL    HW2 5082   3.850   6.573   4.193
 1395SOL     OW 5083   0.345   4.109   2.651
 1395SOL    HW1 5084   0.421   4.054   2.687
 1395SOL    HW2 5085   0.358   4.126   2.554
 1396SOL     OW 5086   2.041   6.827   4.354
 1396SOL    HW1 5087   1.958   6.872   4.320
 1396SOL    HW2 5088   2.046   6.734   4.318
 1397SOL     OW 5089   0.462   5.873   5.123
 1397SOL    HW1 5090   0.378   5.868   5.070
 1397SOL    HW2 5091   0.528   5.806   5.089
 1398SOL     OW 5092   1.971   0.998   1.261
 1398SOL    HW1 5093   1.962   0.932   1.336
 1398SOL    HW2 5094   2.035   0.962   1.193
 1399SOL     OW 5095   4.499   0.563   1.043
 1399SOL    HW1 5096   4.530   0.633   1.106
 1399SOL    HW2 5097   4.506   0.597   0.949
 1400SOL     OW 5098   6.538   0.855   4.503
 1400SOL    HW1 5099   6.619   0.826   4.553
 1400SOL    HW2 5100   6.557   0.856   4.405
 1401SOL     OW 5101   5.915   0.173   4.136
 1401SOL    HW1 5102   5.827   0.126   4.146
 1401SOL    HW2 5103   5.966   0.165   4.222
 1402SOL     OW 5104   6.063   4.208   0.001
 1402SOL    HW1 5105   6.147   4.252   0.033
 1402SOL    HW2 5106   5.989   4.275   7.029
 1403SOL     OW 5107   3.121   3.334   0.462
 1403SOL    HW1 5108   3.047   3.397   0.485
 1403SOL    HW2 5109   3.103   3.244   0.502
 1404SOL     OW 5110   4.962   0.461   1.005
 1404SOL    HW1 5111   4.904   0.392   0.961
 1404SOL    HW2 5112   4.920   0.551   0.995
 1405SOL     OW 5113   1.575   3.881   1.228
 1405SOL    HW1 5114   1.555   3.914   1.136
 1405SOL    HW2 5115   1.567   3.781   1.230
 1406SOL     OW 5116   2.340   4.034   1.853
 1406SOL    HW1 5117   2.411   4.100   1.877
 1406SOL    HW2 5118   2.285   4.013   1.934
 1407SOL     OW 5119   0.670   3.245   2.037
 1407SOL    HW1 5120   0.770   3.235   2.040
 1407SOL    HW2 5121   0.630   3.167   1.991
 1408SOL     OW 5122   6.345   6.338   0.001
 1408SOL    HW1 5123   6.261   6.382   0.033
 1408SOL    HW2 5124   6.413   6.341   0.074
 1409SOL     OW 5125   6.684   1.279   5.644
 1409SOL    HW1 5126   6.662   1.188   5.609
 1409SOL    HW2 5127   6.733   1.331   5.574
 1410SOL     OW 5128   2.216   3.399   6.536
 1410SOL    HW1 5129   2.196   3.493   6.565
 1410SOL    HW2 5130   2.133   3.344   6.544
 1411SOL     OW 5131   3.588   6.431   6.886
 1411SOL    HW1 5132   3.601   6.341   6.929
 1411SOL    HW2 5133   3.575   6.419   6.788
 1412SOL     OW 5134   0.348   3.473   1.245
 1412SOL    HW1 5135   0.397   3.440   1.325
 1412SOL    HW2 5136   0.412   3.486   1.169
 1413SOL     OW 5137   1.616   2.012   4.773
 1413SOL    HW1 5138   1.694   2.031   4.832
 1413SOL    HW2 5139   1.590   1.916   4.782
 1414SOL     OW 5140   0.944   3.161   1.963
 1414SOL    HW1 5141   0.985   3.250   1.985
 1414SOL    HW2 5142   1.016   3.092   1.955
 1415SOL     OW 5143   2.289   1.571   4.643
 1415SOL    HW1 5144   2.329   1.493   4.595
 1415SOL    HW2 5145   2.257   1.638   4.576
 1416SOL     OW 5146   3.757   0.775   5.053
 1416SOL    HW1 5147   3.820   0.837   5.100
 1416SOL    HW2 5148   3.700   0.728   5.121
 1417SOL     OW 5149   2.971   3.407   5.998
 1417SOL    HW1 5150   2.975   3.314   6.034
 1417SOL    HW2 5151   2.971   3.404   5.898
 1418SOL     OW 5152   3.470   4.075   0.475
 1418SOL    HW1 5153   3.411   3.995   0.479
 1418SOL    HW2 5154   3.482   4.112   0.568
 1419SOL     OW 5155   1.526   4.549   3.987
 1419SOL    HW1 5156   1.432   4.568   3.960
 1419SOL    HW2 5157   1.526   4.500   4.074
 1420SOL     OW 5158   4.229   5.246   2.837
 1420SOL    HW1 5159   4.296   5.252   2.911
 1420SOL    HW2 5160   4.227   5.332   2.786
 1421SOL     OW 5161   0.736   4.645   4.216
 1421SOL    HW1 5162   0.813   4.666   4.277
 1421SOL    HW2 5163   0.664   4.599   4.267
 1422SOL     OW 5164   2.639   4.137   5.505
 1422SOL    HW1 5165   2.591   4.119   5.591
 1422SOL    HW2 5166   2.622   4.231   5.476
 1423SOL     OW 5167   4.148   1.882   4.595
 1423SOL    HW1 5168   4.117   1.866   4.689
 1423SOL    HW2 5169   4.076   1.854   4.531
 1424SOL     OW 5170   6.461   4.038   6.440
 1424SOL    HW1 5171   6.462   4.096   6.360
 1424SOL    HW2 5172   6.367   4.024   6.470
 1425SOL     OW 5173   3.276   6.369   5.123
 1425SOL    HW1 5174   3.224   6.407   5.047
 1425SOL    HW2 5175   3.325   6.443   5.170
 1426SOL     OW 5176   2.485   1.516   6.884
 1426SOL    HW1 5177   2.521   1.450   6.820
 1426SOL    HW2 5178   2.507   1.489   6.977
 1427SOL     OW 5179   1.240   0.409   3.450
 1427SOL    HW1 5180   1.331   0.431   3.485
 1427SOL    HW2 5181   1.209   0.482   3.389
 1428SOL     OW 5182   0.032   2.725   1.969
 1428SOL    HW1 5183   0.097   2.649   1.971
 1428SOL    HW2 5184   0.047   2.784   2.048
 1429SOL     OW 5185   6.089   1.118   6.529
 1429SOL    HW1 5186   6.070   1.213   6.502
 1429SOL    HW2 5187   6.064   1.105   6.625
 1430SOL     OW 5188   2.825   4.810   4.349
 1430SOL    HW1 5189   2.755   4.741   4.330
 1430SOL    HW2 5190   2.845   4.811   4.447
 1431SOL     OW 5191   2.696   1.636   5.507
 1431SOL    HW1 5192   2.659   1.713   5.558
 1431SOL    HW2 5193   2.627   1.603   5.442
 1432SOL     OW 5194   2.413   1.428   0.844
 1432SOL    HW1 5195   2.410   1.337   0.885
 1432SOL    HW2 5196   2.486   1.432   0.776
 1433SOL     OW 5197   3.541   0.438   3.181
 1433SOL    HW1 5198   3.460   0.379   3.189
 1433SOL    HW2 5199   3.623   0.381   3.173
 1434SOL     OW 5200   0.234   2.094   0.004
 1434SOL    HW1 5201   0.306   2.074   6.969
 1434SOL    HW2 5202   0.268   2.076   0.097
 1435SOL     OW 5203   1.023   0.183   3.894
 1435SOL    HW1 5204   0.939   0.206   3.844
 1435SOL    HW2 5205   1.004   0.180   3.992
 1436SOL     OW 5206   5.717   3.822   0.813
 1436SOL    HW1 5207   5.638   3.809   0.753
 1436SOL    HW2 5208   5.700   3.776   0.901
 1437SOL     OW 5209   4.108   1.452   6.149
 1437SOL    HW1 5210   4.056   1.487   6.071
 1437SOL    HW2 5211   4.171   1.523   6.181
 1438SOL     OW 5212   2.990   1.057   1.688
 1438SOL    HW1 5213   2.897   1.021   1.689
 1438SOL    HW2 5214   2.988   1.156   1.697
 1439SOL     OW 5215   0.348   6.038   0.145
 1439SOL    HW1 5216   0.404   5.965   0.183
 1439SOL    HW2 5217   0.401   6.088   0.076
 1440SOL     OW 5218   3.276   3.679   3.737
 1440SOL    HW1 5219   3.271   3.580   3.734
 1440SOL    HW2 5220   3.275   3.710   3.832
 1441SOL     OW 5221   6.622   3.324   3.345
 1441SOL    HW1 5222   6.701   3.342   3.403
 1441SOL    HW2 5223   6.583   3.411   3.314
 1442SOL     OW 5224   5.426   4.726   1.202
 1442SOL    HW1 5225   5.474   4.811   1.224
 1442SOL    HW2 5226   5.365   4.741   1.124
 1443SOL     OW 5227   1.121   0.514   3.669
 1443SOL    HW1 5228   1.122   0.471   3.578
 1443SOL    HW2 5229   1.181   0.462   3.730
 1444SOL     OW 5230   4.231   6.216   3.391
 1444SOL    HW1 5231   4.218   6.301   3.339
 1444SOL    HW2 5232   4.277   6.237   3.478
 1445SOL     OW 5233   0.093   3.003   1.779
 1445SOL    HW1 5234   0.065   3.059   1.701
 1445SOL    HW2 5235   0.084   2.906   1.755
 1446SOL     OW 5236   4.810   2.757   0.005
 1446SOL    HW1 5237   4.909   2.752   0.012
 1446SOL    HW2 5238   4.768   2.708   0.081
 1447SOL     OW 5239   6.578   0.848   5.107
 1447SOL    HW1 5240   6.574   0.932   5.053
 1447SOL    HW2 5241   6.649   0.855   5.177
 1448SOL     OW 5242   6.215   1.591   0.992
 1448SOL    HW1 5243   6.150   1.619   1.062
 1448SOL    HW2 5244   6.308   1.611   1.022
 1449SOL     OW 5245   6.428   6.479   0.852
 1449SOL    HW1 5246   6.381   6.401   0.812
 1449SOL    HW2 5247   6.402   6.489   0.948
 1450SOL     OW 5248   6.502   2.552   2.450
 1450SOL    HW1 5249   6.513   2.502   2.536
 1450SOL    HW2 5250   6.478   2.647   2.470
 1451SOL     OW 5251   2.884   0.120   2.942
 1451SOL    HW1 5252   2.905   0.195   2.879
 1451SOL    HW2 5253   2.785   0.111   2.951
 1452SOL     OW 5254   5.331   0.727   4.650
 1452SOL    HW1 5255   5.257   0.685   4.702
 1452SOL    HW2 5256   5.395   0.772   4.712
 1453SOL     OW 5257   5.490   3.569   4.815
 1453SOL    HW1 5258   5.408   3.624   4.799
 1453SOL    HW2 5259   5.550   3.574   4.735
 1454SOL     OW 5260   5.367   2.502   1.912
 1454SOL    HW1 5261   5.375   2.485   2.011
 1454SOL    HW2 5262   5.329   2.422   1.867
 1455SOL     OW 5263   1.186   0.663   1.755
 1455SOL    HW1 5264   1.166   0.568   1.780
 1455SOL    HW2 5265   1.104   0.718   1.770
 1456SOL     OW 5266   0.083   6.401   5.284
 1456SOL    HW1 5267   0.049   6.337   5.353
 1456SOL    HW2 5268   0.006   6.440   5.233
 1457SOL     OW 5269   1.383   6.712   3.017
 1457SOL    HW1 5270   1.424   6.623   2.995
 1457SOL    HW2 5271   1.283   6.704   3.013
 1458SOL     OW 5272   5.113   6.582   5.076
 1458SOL    HW1 5273   5.077   6.497   5.038
 1458SOL    HW2 5274   5.207   6.568   5.106
 1459SOL     OW 5275   2.968   5.321   6.856
 1459SOL    HW1 5276   2.874   5.328   6.823
 1459SOL    HW2 5277   3.030   5.367   6.792
 1460SOL     OW 5278   0.184   6.227   6.217
 1460SOL    HW1 5279   0.238   6.292   6.270
 1460SOL    HW2 5280   0.151   6.154   6.278
 1461SOL     OW 5281   6.315   4.123   3.803
 1461SOL    HW1 5282   6.237   4.148   3.745
 1461SOL    HW2 5283   6.400   4.141   3.754
 1462SOL     OW 5284   6.584   1.921   0.171
 1462SOL    HW1 5285   6.612   1.952   0.261
 1462SOL    HW2 5286   6.641   1.844   0.142
 1463SOL     OW 5287   0.404   0.416   5.379
 1463SOL    HW1 5288   0.349   0.450   5.456
 1463SOL    HW2 5289   0.480   0.362   5.413
 1464SOL     OW 5290   0.614   6.553   0.461
 1464SOL    HW1 5291   0.518   6.573   0.445
 1464SOL    HW2 5292   0.622   6.477   0.525
 1465SOL     OW 5293   0.779   1.438   3.105
 1465SOL    HW1 5294   0.712   1.467   3.036
 1465SOL    HW2 5295   0.732   1.391   3.179
 1466SOL     OW 5296   0.002   6.336   2.365
 1466SOL    HW1 5297   0.069   6.382   2.308
 1466SOL    HW2 5298   0.025   6.349   2.461
 1467SOL     OW 5299   1.372   0.573   2.544
 1467SOL    HW1 5300   1.324   0.660   2.537
 1467SOL    HW2 5301   1.464   0.588   2.579
 1468SOL     OW 5302   5.515   5.671   2.979
 1468SOL    HW1 5303   5.502   5.610   2.901
 1468SOL    HW2 5304   5.520   5.766   2.947
 1469SOL     OW 5305   0.633   0.648   3.102
 1469SOL    HW1 5306   0.629   0.681   3.008
 1469SOL    HW2 5307   0.647   0.549   3.102
 1470SOL     OW 5308   0.971   0.957   2.295
 1470SOL    HW1 5309   0.961   0.976   2.198
 1470SOL    HW2 5310   1.068   0.960   2.320
 1471SOL     OW 5311   6.644   0.792   6.403
 1471SOL    HW1 5312   6.687   0.769   6.316
 1471SOL    HW2 5313   6.711   0.783   6.477
 1472SOL     OW 5314   4.741   6.103   4.651
 1472SOL    HW1 5315   4.757   6.024   4.710
 1472SOL    HW2 5316   4.683   6.169   4.698
 1473SOL     OW 5317   5.973   5.323   3.192
 1473SOL    HW1 5318   6.056   5.311   3.247
 1473SOL    HW2 5319   5.976   5.260   3.114
 1474SOL     OW 5320   6.266   5.882   3.734
 1474SOL    HW1 5321   6.280   5.866   3.637
 1474SOL    HW2 5322   6.174   5.919   3.748
 1475SOL     OW 5323   0.163   0.316   1.814
 1475SOL    HW1 5324   0.184   0.242   1.751
 1475SOL    HW2 5325   0.065   0.321   1.829
 1476SOL     OW 5326   1.398   1.028   1.371
 1476SOL    HW1 5327   1.489   1.013   1.331
 1476SOL    HW2 5328   1.335   0.958   1.339
 1477SOL     OW 5329   2.605   0.228   6.070
 1477SOL    HW1 5330   2.622   0.132   6.090
 1477SOL    HW2 5331   2.568   0.236   5.977
 1478SOL     OW 5332   5.990   4.865   0.975
 1478SOL    HW1 5333   6.071   4.807   0.963
 1478SOL    HW2 5334   5.988   4.899   1.069
 1479SOL     OW 5335   1.402   4.442   0.219
 1479SOL    HW1 5336   1.380   4.415   0.125
 1479SOL    HW2 5337   1.487   4.494   0.220
 1480SOL     OW 5338   2.365   0.706   0.012
 1480SOL    HW1 5339   2.382   0.649   6.962
 1480SOL    HW2 5340   2.373   0.802   7.018
 1481SOL     OW 5341   5.342   1.715   5.429
 1481SOL    HW1 5342   5.408   1.776   5.473
 1481SOL    HW2 5343   5.357   1.622   5.461
 1482SOL     OW 5344   5.824   1.613   0.802
 1482SOL    HW1 5345   5.888   1.645   0.733
 1482SOL    HW2 5346   5.871   1.554   0.867
 1483SOL     OW 5347   6.997   3.316   6.971
 1483SOL    HW1 5348   6.914   3.279   6.930
 1483SOL    HW2 5349   6.989   3.415   6.980
 1484SOL     OW 5350   6.101   4.266   3.704
 1484SOL    HW1 5351   6.078   4.282   3.609
 1484SOL    HW2 5352   6.066   4.341   3.760
 1485SOL     OW 5353   4.671   2.491   2.028
 1485SOL    HW1 5354   4.572   2.488   2.041
 1485SOL    HW2 5355   4.714   2.527   2.111
 1486SOL     OW 5356   4.609   2.264   3.499
 1486SOL    HW1 5357   4.629   2.169   3.476
 1486SOL    HW2 5358   4.693   2.312   3.523
 1487SOL     OW 5359   6.727   1.522   6.450
 1487SOL    HW1 5360   6.680   1.566   6.373
 1487SOL    HW2 5361   6.780   1.590   6.499
 1488SOL     OW 5362   5.255   2.280   2.899
 1488SOL    HW1 5363   5.166   2.276   2.945
 1488SOL    HW2 5364   5.300   2.191   2.905
 1489SOL     OW 5365   3.729   5.178   4.388
 1489SOL    HW1 5366   3.796   5.227   4.443
 1489SOL    HW2 5367   3.744   5.080   4.397
 1490SOL     OW 5368   1.233   2.049   0.261
 1490SOL    HW1 5369   1.151   2.033   0.316
 1490SOL    HW2 5370   1.213   2.028   0.165
 1491SOL     OW 5371   6.311   3.587   3.417
 1491SOL    HW1 5372   6.397   3.597   3.366
 1491SOL    HW2 5373   6.305   3.495   3.454
 1492SOL     OW 5374   4.839   1.998   1.960
 1492SOL    HW1 5375   4.761   2.054   1.989
 1492SOL    HW2 5376   4.837   1.988   1.861
 1493SOL     OW 5377   4.822   0.290   4.547
 1493SOL    HW1 5378   4.900   0.232   4.571
 1493SOL    HW2 5379   4.852   0.364   4.486
 1494SOL     OW 5380   4.090   2.762   5.610
 1494SOL    HW1 5381   4.060   2.783   5.517
 1494SOL    HW2 5382   4.013   2.724   5.662
 1495SOL     OW 5383   0.299   3.577   3.203
 1495SOL    HW1 5384   0.349   3.553   3.120
 1495SOL    HW2 5385   0.363   3.606   3.274
 1496SOL     OW 5386   0.350   0.527   1.749
 1496SOL    HW1 5387   0.277   0.460   1.750
 1496SOL    HW2 5388   0.312   0.618   1.733
 1497SOL     OW 5389   0.343   4.531   3.630
 1497SOL    HW1 5390   0.284   4.523   3.550
 1497SOL    HW2 5391   0.400   4.612   3.621
 1498SOL     OW 5392   2.096   4.756   6.524
 1498SOL    HW1 5393   2.191   4.780   6.544
 1498SOL    HW2 5394   2.077   4.769   6.427
 1499SOL     OW 5395   1.058   4.098   5.062
 1499SOL    HW1 5396   0.979   4.159   5.049
 1499SOL    HW2 5397   1.131   4.125   4.998
 1500SOL     OW 5398   5.696   6.930   0.745
 1500SOL    HW1 5399   5.635   6.916   0.823
 1500SOL    HW2 5400   5.694   7.026   0.718
 1501SOL     OW 5401   3.946   0.366   6.613
 1501SOL    HW1 5402   3.941   0.288   6.551
 1501SOL    HW2 5403   4.041   0.394   6.626
 1502SOL     OW 5404   6.560   6.863   0.116
 1502SOL    HW1 5405   6.587   6.924   0.041
 1502SOL    HW2 5406   6.557   6.769   0.083
 1503SOL     OW 5407   1.975   2.850   1.116
 1503SOL    HW1 5408   1.956   2.923   1.181
 1503SOL    HW2 5409   1.996   2.766   1.166
 1504SOL     OW 5410   2.801   0.135   4.852
 1504SOL    HW1 5411   2.746   0.170   4.928
 1504SOL    HW2 5412   2.741   0.096   4.783
 1505SOL     OW 5413   5.247   6.970   6.283
 1505SOL    HW1 5414   5.190   6.959   6.202
 1505SOL    HW2 5415   5.266   6.881   6.323
 1506SOL     OW 5416   1.140   5.039   3.341
 1506SOL    HW1 5417   1.163   4.978   3.417
 1506SOL    HW2 5418   1.058   5.091   3.364
 1507SOL     OW 5419   1.589   1.569   4.728
 1507SOL    HW1 5420   1.592   1.624   4.645
 1507SOL    HW2 5421   1.653   1.606   4.795
 1508SOL     OW 5422   4.643   6.868   0.806
 1508SOL    HW1 5423   4.702   6.808   0.862
 1508SOL    HW2 5424   4.592   6.929   0.867
 1509SOL     OW 5425   4.387   3.084   6.369
 1509SOL    HW1 5426   4.417   3.082   6.274
 1509SOL    HW2 5427   4.345   3.172   6.389
 1510SOL     OW 5428   5.655   2.347   4.075
 1510SOL    HW1 5429   5.645   2.447   4.075
 1510SOL    HW2 5430   5.646   2.314   4.169
 1511SOL     OW 5431   2.276   1.667   6.844
 1511SOL    HW1 5432   2.354   1.605   6.846
 1511SOL    HW2 5433   2.216   1.642   6.768
 1512SOL     OW 5434   6.556   6.509   1.531
 1512SOL    HW1 5435   6.466   6.508   1.487
 1512SOL    HW2 5436   6.553   6.568   1.611
 1513SOL     OW 5437   4.243   0.818   3.841
 1513SOL    HW1 5438   4.149   0.851   3.833
 1513SOL    HW2 5439   4.273   0.827   3.936
 1514SOL     OW 5440   5.480   1.734   4.858
 1514SOL    HW1 5441   5.519   1.723   4.767
 1514SOL    HW2 5442   5.386   1.700   4.858
 1515SOL     OW 5443   0.422   3.244   5.455
 1515SOL    HW1 5444   0.364   3.279   5.528
 1515SOL    HW2 5445   0.370   3.179   5.399
 1516SOL     OW 5446   0.645   1.077   1.042
 1516SOL    HW1 5447   0.708   1.083   0.965
 1516SOL    HW2 5448   0.697   1.080   1.128
 1517SOL     OW 5449   4.203   5.032   4.108
 1517SOL    HW1 5450   4.134   4.965   4.135
 1517SOL    HW2 5451   4.233   5.083   4.188
 1518SOL     OW 5452   6.915   4.053   6.879
 1518SOL    HW1 5453   6.829   4.009   6.904
 1518SOL    HW2 5454   6.910   4.151   6.899
 1519SOL     OW 5455   0.135   4.176   1.292
 1519SOL    HW1 5456   0.225   4.206   1.259
 1519SOL    HW2 5457   0.146   4.127   1.378
 1520SOL     OW 5458   1.774   3.395   2.250
 1520SOL    HW1 5459   1.860   3.352   2.222
 1520SOL    HW2 5460   1.731   3.339   2.322
 1521SOL     OW 5461   1.725   3.141   0.297
 1521SOL    HW1 5462   1.800   3.206   0.307
 1521SOL    HW2 5463   1.762   3.050   0.276
 1522SOL     OW 5464   0.002   1.753   5.864
 1522SOL    HW1 5465   0.082   1.785   5.813
 1522SOL    HW2 5466   6.991   1.830   5.912
 1523SOL     OW 5467   5.266   3.819   6.447
 1523SOL    HW1 5468   5.270   3.918   6.434
 1523SOL    HW2 5469   5.202   3.798   6.522
 1524SOL     OW 5470   0.909   1.816   1.674
 1524SOL    HW1 5471   1.005   1.836   1.693
 1524SOL    HW2 5472   0.900   1.778   1.582
 1525SOL     OW 5473   4.668   1.999   5.399
 1525SOL    HW1 5474   4.642   1.980   5.494
 1525SOL    HW2 5475   4.765   1.981   5.386
 1526SOL     OW 5476   0.188   0.641   1.047
 1526SOL    HW1 5477   0.274   0.602   1.014
 1526SOL    HW2 5478   0.175   0.731   1.004
 1527SOL     OW 5479   3.310   1.563   5.005
 1527SOL    HW1 5480   3.407   1.586   4.995
 1527SOL    HW2 5481   3.255   1.639   4.971
 1528SOL     OW 5482   5.227   5.955   2.737
 1528SOL    HW1 5483   5.327   5.959   2.736
 1528SOL    HW2 5484   5.193   5.954   2.643
 1529SOL     OW 5485   4.899   1.142   5.976
 1529SOL    HW1 5486   4.976   1.173   6.031
 1529SOL    HW2 5487   4.924   1.060   5.926
 1530SOL     OW 5488   3.201   0.095   1.134
 1530SOL    HW1 5489   3.172   0.156   1.060
 1530SOL    HW2 5490   3.208   0.002   1.099
 1531SOL     OW 5491   5.870   1.048   5.246
 1531SOL    HW1 5492   5.846   1.145   5.252
 1531SOL    HW2 5493   5.794   0.997   5.206
 1532SOL     OW 5494   2.735   2.385   4.855
 1532SOL    HW1 5495   2.818   2.328   4.848
 1532SOL    HW2 5496   2.706   2.389   4.950
 1533SOL     OW 5497   0.101   3.567   6.736
 1533SOL    HW1 5498   0.104   3.486   6.677
 1533SOL    HW2 5499   0.195   3.596   6.757
 1534SOL     OW 5500   1.659   5.114   0.620
 1534SOL    HW1 5501   1.609   5.131   0.705
 1534SOL    HW2 5502   1.664   5.199   0.567
 1535SOL     OW 5503   5.584   5.406   4.374
 1535SOL    HW1 5504   5.612   5.360   4.458
 1535SOL    HW2 5505   5.648   5.382   4.301
 1536SOL     OW 5506   3.300   5.410   4.170
 1536SOL    HW1 5507   3.351   5.423   4.255
 1536SOL    HW2 5508   3.202   5.414   4.190
 1537SOL     OW 5509   3.681   5.572   3.605
 1537SOL    HW1 5510   3.776   5.574   3.574
 1537SOL    HW2 5511   3.660   5.482   3.643
 1538SOL     OW 5512   3.591   4.788   6.530
 1538SOL    HW1 5513   3.526   4.747   6.594
 1538SOL    HW2 5514   3.623   4.718   6.466
 1539SOL     OW 5515   4.222   4.355   1.345
 1539SOL    HW1 5516   4.233   4.449   1.377
 1539SOL    HW2 5517   4.157   4.353   1.268
 1540SOL     OW 5518   1.035   0.227   4.706
 1540SOL    HW1 5519   0.981   0.280   4.772
 1540SOL    HW2 5520   1.029   0.130   4.728
 1541SOL     OW 5521   3.837   2.566   1.259
 1541SOL    HW1 5522   3.788   2.613   1.333
 1541SOL    HW2 5523   3.852   2.471   1.286
 1542SOL     OW 5524   6.586   6.082   1.830
 1542SOL    HW1 5525   6.560   6.153   1.765
 1542SOL    HW2 5526   6.527   6.002   1.818
 1543SOL     OW 5527   3.003   3.424   3.284
 1543SOL    HW1 5528   3.076   3.435   3.352
 1543SOL    HW2 5529   2.974   3.328   3.282
 1544SOL     OW 5530   3.005   3.938   2.244
 1544SOL    HW1 5531   3.007   4.035   2.220
 1544SOL    HW2 5532   3.085   3.916   2.301
 1545SOL     OW 5533   5.319   0.558   5.310
 1545SOL    HW1 5534   5.324   0.471   5.358
 1545SOL    HW2 5535   5.326   0.633   5.375
 1546SOL     OW 5536   5.543   0.210   6.071
 1546SOL    HW1 5537   5.482   0.289   6.076
 1546SOL    HW2 5538   5.636   0.238   6.091
 1547SOL     OW 5539   2.322   4.217   2.374
 1547SOL    HW1 5540   2.260   4.295   2.368
 1547SOL    HW2 5541   2.327   4.186   2.469
 1548SOL     OW 5542   4.226   4.157   5.852
 1548SOL    HW1 5543   4.192   4.142   5.945
 1548SOL    HW2 5544   4.211   4.075   5.797
 1549SOL     OW 5545   6.414   1.219   2.116
 1549SOL    HW1 5546   6.490   1.191   2.174
 1549SOL    HW2 5547   6.355   1.283   2.166
 1550SOL     OW 5548   3.123   6.787   5.950
 1550SOL    HW1 5549   3.173   6.874   5.956
 1550SOL    HW2 5550   3.187   6.711   5.963
 1551SOL     OW 5551   1.592   3.175   1.341
 1551SOL    HW1 5552   1.539   3.185   1.257
 1551SOL    HW2 5553   1.669   3.113   1.324
 1552SOL     OW 5554   1.153   0.043   1.229
 1552SOL    HW1 5555   1.114   0.105   1.161
 1552SOL    HW2 5556   1.181   0.095   1.310
 1553SOL     OW 5557   6.048   1.835   6.398
 1553SOL    HW1 5558   5.979   1.908   6.400
 1553SOL    HW2 5559   6.129   1.867   6.349
 1554SOL     OW 5560   4.345   2.273   3.297
 1554SOL    HW1 5561   4.416   2.340   3.276
 1554SOL    HW2 5562   4.259   2.301   3.255
 1555SOL     OW 5563   4.673   2.499   5.500
 1555SOL    HW1 5564   4.751   2.535   5.448
 1555SOL    HW2 5565   4.691   2.404   5.526
 1556SOL     OW 5566   3.431   0.496   0.595
 1556SOL    HW1 5567   3.412   0.534   0.505
 1556SOL    HW2 5568   3.344   0.474   0.641
 1557SOL     OW 5569   2.407   2.713   1.074
 1557SOL    HW1 5570   2.354   2.762   1.005
 1557SOL    HW2 5571   2.393   2.615   1.063
 1558SOL     OW 5572   5.704   2.302   5.359
 1558SOL    HW1 5573   5.732   2.237   5.430
 1558SOL    HW2 5574   5.732   2.268   5.270
 1559SOL     OW 5575   0.319   3.643   1.773
 1559SOL    HW1 5576   0.251   3.712   1.749
 1559SOL    HW2 5577   0.285   3.587   1.849
 1560SOL     OW 5578   3.181   1.327   6.827
 1560SOL    HW1 5579   3.228   1.328   6.916
 1560SOL    HW2 5580   3.198   1.239   6.782
 1561SOL     OW 5581   5.537   5.892   2.699
 1561SOL    HW1 5582   5.577   5.957   2.764
 1561SOL    HW2 5583   5.610   5.847   2.648
 1562SOL     OW 5584   3.080   6.499   2.140
 1562SOL    HW1 5585   3.067   6.413   2.090
 1562SOL    HW2 5586   3.170   6.537   2.118
 1563SOL     OW 5587   2.909   2.203   5.092
 1563SOL    HW1 5588   2.865   2.244   5.172
 1563SOL    HW2 5589   3.007   2.223   5.094
 1564SOL     OW 5590   1.092   1.385   2.342
 1564SOL    HW1 5591   1.099   1.424   2.433
 1564SOL    HW2 5592   0.996   1.383   2.313
 1565SOL     OW 5593   4.294   5.517   5.046
 1565SOL    HW1 5594   4.264   5.436   4.997
 1565SOL    HW2 5595   4.231   5.536   5.121
 1566SOL     OW 5596   5.848   4.754   3.992
 1566SOL    HW1 5597   5.809   4.820   4.056
 1566SOL    HW2 5598   5.885   4.676   4.043
 1567SOL     OW 5599   5.983   5.355   6.329
 1567SOL    HW1 5600   6.013   5.423   6.395
 1567SOL    HW2 5601   5.957   5.271   6.377
 1568SOL     OW 5602   2.326   6.139   3.498
 1568SOL    HW1 5603   2.402   6.081   3.468
 1568SOL    HW2 5604   2.324   6.221   3.442
 1569SOL     OW 5605   3.772   0.307   3.160
 1569SOL    HW1 5606   3.779   0.210   3.140
 1569SOL    HW2 5607   3.829   0.359   3.096
 1570SOL     OW 5608   2.524   6.706   6.450
 1570SOL    HW1 5609   2.475   6.693   6.364
 1570SOL    HW2 5610   2.459   6.707   6.526
 1571SOL     OW 5611   1.050   2.937   3.258
 1571SOL    HW1 5612   1.046   2.959   3.355
 1571SOL    HW2 5613   1.041   2.838   3.245
 1572SOL     OW 5614   1.654   5.556   1.656
 1572SOL    HW1 5615   1.696   5.600   1.577
 1572SOL    HW2 5616   1.723   5.506   1.708
 1573SOL     OW 5617   5.252   5.209   1.992
 1573SOL    HW1 5618   5.267   5.297   1.947
 1573SOL    HW2 5619   5.334   5.153   1.984
 1574SOL     OW 5620   6.175   3.068   2.264
 1574SOL    HW1 5621   6.122   3.017   2.332
 1574SOL    HW2 5622   6.193   3.009   2.185
 1575SOL     OW 5623   2.270   0.791   1.924
 1575SOL    HW1 5624   2.298   0.715   1.865
 1575SOL    HW2 5625   2.203   0.847   1.875
 1576SOL     OW 5626   0.938   6.460   2.373
 1576SOL    HW1 5627   0.906   6.553   2.353
 1576SOL    HW2 5628   0.876   6.394   2.330
 1577SOL     OW 5629   2.708   0.606   6.447
 1577SOL    HW1 5630   2.647   0.528   6.437
 1577SOL    HW2 5631   2.711   0.658   6.361
 1578SOL     OW 5632   4.527   1.144   6.442
 1578SOL    HW1 5633   4.593   1.073   6.467
 1578SOL    HW2 5634   4.473   1.170   6.522
 1579SOL     OW 5635   0.211   2.731   1.534
 1579SOL    HW1 5636   0.147   2.736   1.458
 1579SOL    HW2 5637   0.258   2.819   1.545
 1580SOL     OW 5638   3.326   4.103   3.251
 1580SOL    HW1 5639   3.407   4.138   3.298
 1580SOL    HW2 5640   3.337   4.116   3.153
 1581SOL     OW 5641   6.727   4.701   5.346
 1581SOL    HW1 5642   6.686   4.671   5.432
 1581SOL    HW2 5643   6.825   4.716   5.360
 1582SOL     OW 5644   4.002   5.670   5.326
 1582SOL    HW1 5645   3.952   5.709   5.249
 1582SOL    HW2 5646   4.040   5.582   5.300
 1583SOL     OW 5647   0.658   6.032   4.455
 1583SOL    HW1 5648   0.634   5.949   4.505
 1583SOL    HW2 5649   0.699   6.098   4.518
 1584SOL     OW 5650   2.019   4.518   6.871
 1584SOL    HW1 5651   1.999   4.553   6.780
 1584SOL    HW2 5652   2.112   4.481   6.874
 1585SOL     OW 5653   4.326   1.684   2.899
 1585SOL    HW1 5654   4.255   1.754   2.895
 1585SOL    HW2 5655   4.355   1.671   2.993
 1586SOL     OW 5656   2.975   4.839   2.859
 1586SOL    HW1 5657   3.037   4.844   2.936
 1586SOL    HW2 5658   3.024   4.862   2.775
 1587SOL     OW 5659   1.593   5.370   5.495
 1587SOL    HW1 5660   1.686   5.379   5.531
 1587SOL    HW2 5661   1.550   5.289   5.533
 1588SOL     OW 5662   4.575   0.386   2.200
 1588SOL    HW1 5663   4.649   0.428   2.251
 1588SOL    HW2 5664   4.560   0.437   2.115
 1589SOL     OW 5665   6.839   3.228   3.068
 1589SOL    HW1 5666   6.840   3.231   2.968
 1589SOL    HW2 5667   6.750   3.196   3.100
 1590SOL     OW 5668   5.543   1.308   3.531
 1590SOL    HW1 5669   5.491   1.393   3.541
 1590SOL    HW2 5670   5.482   1.230   3.543
 1591SOL     OW 5671   6.576   5.608   1.474
 1591SOL    HW1 5672   6.558   5.607   1.573
 1591SOL    HW2 5673   6.646   5.678   1.454
 1592SOL     OW 5674   1.783   4.235   6.942
 1592SOL    HW1 5675   1.689   4.199   6.940
 1592SOL    HW2 5676   1.795   4.300   6.867
 1593SOL     OW 5677   0.831   6.935   6.259
 1593SOL    HW1 5678   0.853   6.869   6.187
 1593SOL    HW2 5679   0.741   6.914   6.297
 1594SOL     OW 5680   6.905   6.703   1.380
 1594SOL    HW1 5681   6.952   6.615   1.388
 1594SOL    HW2 5682   6.969   6.776   1.406
 1595SOL     OW 5683   1.145   4.233   0.879
 1595SOL    HW1 5684   1.174   4.263   0.788
 1595SOL    HW2 5685   1.186   4.145   0.900
 1596SOL     OW 5686   6.382   3.149   2.703
 1596SOL    HW1 5687   6.464   3.145   2.760
 1596SOL    HW2 5688   6.308   3.099   2.749
 1597SOL     OW 5689   3.032   6.026   1.615
 1597SOL    HW1 5690   3.125   5.990   1.617
 1597SOL    HW2 5691   3.026   6.099   1.546
 1598SOL     OW 5692   1.163   5.502   6.287
 1598SOL    HW1 5693   1.252   5.529   6.323
 1598SOL    HW2 5694   1.091   5.531   6.350
 1599SOL     OW 5695   4.411   4.682   5.225
 1599SOL    HW1 5696   4.447   4.614   5.290
 1599SOL    HW2 5697   4.390   4.637   5.138
 1600SOL     OW 5698   2.880   0.543   1.925
 1600SOL    HW1 5699   2.822   0.610   1.971
 1600SOL    HW2 5700   2.911   0.580   1.838
 1601SOL     OW 5701   0.211   6.684   4.123
 1601SOL    HW1 5702   0.251   6.635   4.046
 1601SOL    HW2 5703   0.111   6.682   4.115
 1602SOL     OW 5704   4.832   5.676   3.924
 1602SOL    HW1 5705   4.918   5.657   3.972
 1602SOL    HW2 5706   4.821   5.613   3.847
 1603SOL     OW 5707   2.809   5.416   4.405
 1603SOL    HW1 5708   2.807   5.317   4.393
 1603SOL    HW2 5709   2.736   5.459   4.351
 1604SOL     OW 5710   3.846   5.112   1.460
 1604SOL    HW1 5711   3.772   5.089   1.524
 1604SOL    HW2 5712   3.863   5.210   1.465
 1605SOL     OW 5713   6.279   5.561   1.110
 1605SOL    HW1 5714   6.330   5.615   1.043
 1605SOL    HW2 5715   6.322   5.472   1.121
 1606SOL     OW 5716   4.201   5.357   5.527
 1606SOL    HW1 5717   4.287   5.384   5.570
 1606SOL    HW2 5718   4.202   5.385   5.431
 1607SOL     OW 5719   4.343   0.227   1.366
 1607SOL    HW1 5720   4.361   0.248   1.270
 1607SOL    HW2 5721   4.257   0.176   1.374
 1608SOL     OW 5722   6.992   0.625   2.979
 1608SOL    HW1 5723   0.019   0.640   3.059
 1608SOL    HW2 5724   7.023   0.685   2.905
 1609SOL     OW 5725   3.236   7.000   0.806
 1609SOL    HW1 5726   3.251   6.950   0.891
 1609SOL    HW2 5727   3.323   7.029   0.768
 1610SOL     OW 5728   4.849   6.591   0.753
 1610SOL    HW1 5729   4.839   6.626   0.846
 1610SOL    HW2 5730   4.764   6.548   0.724
 1611SOL     OW 5731   1.840   3.444   1.096
 1611SOL    HW1 5732   1.913   3.505   1.068
 1611SOL    HW2 5733   1.804   3.473   1.185
 1612SOL     OW 5734   3.291   6.476   1.281
 1612SOL    HW1 5735   3.209   6.485   1.223
 1612SOL    HW2 5736   3.264   6.477   1.377
 1613SOL     OW 5737   0.371   5.767   2.201
 1613SOL    HW1 5738   0.367   5.789   2.103
 1613SOL    HW2 5739   0.304   5.696   2.222
 1614SOL     OW 5740   5.501   1.913   6.151
 1614SOL    HW1 5741   5.514   2.001   6.195
 1614SOL    HW2 5742   5.584   1.858   6.161
 1615SOL     OW 5743   6.799   5.401   6.162
 1615SOL    HW1 5744   6.782   5.377   6.258
 1615SOL    HW2 5745   6.853   5.329   6.119
 1616SOL     OW 5746   3.939   0.655   4.241
 1616SOL    HW1 5747   3.914   0.558   4.249
 1616SOL    HW2 5748   3.862   0.711   4.271
 1617SOL     OW 5749   5.097   6.414   2.934
 1617SOL    HW1 5750   5.007   6.419   2.978
 1617SOL    HW2 5751   5.092   6.351   2.856
 1618SOL     OW 5752   1.212   5.953   2.312
 1618SOL    HW1 5753   1.273   5.955   2.392
 1618SOL    HW2 5754   1.209   5.860   2.276
 1619SOL     OW 5755   0.473   5.370   0.161
 1619SOL    HW1 5756   0.400   5.437   0.146
 1619SOL    HW2 5757   0.477   5.307   0.083
 1620SOL     OW 5758   2.967   4.886   1.538
 1620SOL    HW1 5759   3.066   4.895   1.525
 1620SOL    HW2 5760   2.948   4.866   1.634
 1621SOL     OW 5761   6.116   0.300   0.908
 1621SOL    HW1 5762   6.086   0.375   0.850
 1621SOL    HW2 5763   6.045   0.279   0.974
 1622SOL     OW 5764   0.394   3.891   5.655
 1622SOL    HW1 5765   0.423   3.947   5.578
 1622SOL    HW2 5766   0.353   3.949   5.725
 1623SOL     OW 5767   0.082   1.954   4.298
 1623SOL    HW1 5768   0.151   2.023   4.320
 1623SOL    HW2 5769   0.114   1.898   4.222
 1624SOL     OW 5770   4.364   1.792   6.853
 1624SOL    HW1 5771   4.307   1.867   6.887
 1624SOL    HW2 5772   4.437   1.774   6.919
 1625SOL     OW 5773   1.499   5.090   6.603
 1625SOL    HW1 5774   1.428   5.095   6.673
 1625SOL    HW2 5775   1.477   5.154   6.529
 1626SOL     OW 5776   3.197   1.553   1.917
 1626SOL    HW1 5777   3.098   1.545   1.901
 1626SOL    HW2 5778   3.245   1.533   1.832
 1627SOL     OW 5779   5.799   2.434   3.429
 1627SOL    HW1 5780   5.879   2.423   3.371
 1627SOL    HW2 5781   5.788   2.529   3.455
 1628SOL     OW 5782   4.254   5.589   6.611
 1628SOL    HW1 5783   4.302   5.662   6.660
 1628SOL    HW2 5784   4.321   5.537   6.557
 1629SOL     OW 5785   2.742   1.211   3.511
 1629SOL    HW1 5786   2.643   1.221   3.500
 1629SOL    HW2 5787   2.763   1.116   3.534
 1630SOL     OW 5788   0.137   4.336   5.651
 1630SOL    HW1 5789   0.095   4.398   5.585
 1630SOL    HW2 5790   0.075   4.259   5.668
 1631SOL     OW 5791   0.200   3.444   0.808
 1631SOL    HW1 5792   0.173   3.427   0.713
 1631SOL    HW2 5793   0.203   3.357   0.857
 1632SOL     OW 5794   4.667   4.200   2.624
 1632SOL    HW1 5795   4.568   4.202   2.639
 1632SOL    HW2 5796   4.696   4.287   2.583
 1633SOL     OW 5797   5.286   4.351   5.004
 1633SOL    HW1 5798   5.255   4.422   4.941
 1633SOL    HW2 5799   5.263   4.377   5.097
 1634SOL     OW 5800   4.531   1.237   4.045
 1634SOL    HW1 5801   4.474   1.289   4.109
 1634SOL    HW2 5802   4.620   1.281   4.035
 1635SOL     OW 5803   1.749   5.467   6.640
 1635SOL    HW1 5804   1.699   5.510   6.716
 1635SOL    HW2 5805   1.753   5.368   6.655
 1636SOL     OW 5806   3.441   5.541   1.289
 1636SOL    HW1 5807   3.371   5.551   1.359
 1636SOL    HW2 5808   3.497   5.460   1.309
 1637SOL     OW 5809   6.561   0.307   3.690
 1637SOL    HW1 5810   6.567   0.397   3.647
 1637SOL    HW2 5811   6.651   0.279   3.723
 1638SOL     OW 5812   0.248   3.152   1.955
 1638SOL    HW1 5813   0.148   3.153   1.952
 1638SOL    HW2 5814   0.284   3.151   1.862
 1639SOL     OW 5815   6.608   4.711   2.229
 1639SOL    HW1 5816   6.529   4.651   2.220
 1639SOL    HW2 5817   6.578   4.806   2.235
 1640SOL     OW 5818   6.759   0.123   0.452
 1640SOL    HW1 5819   6.859   0.117   0.449
 1640SOL    HW2 5820   6.731   0.216   0.428
 1641SOL     OW 5821   6.982   2.707   4.252
 1641SOL    HW1 5822   7.030   2.713   4.165
 1641SOL    HW2 5823   7.002   2.618   4.295
 1642SOL     OW 5824   7.010   2.795   6.509
 1642SOL    HW1 5825   6.961   2.713   6.536
 1642SOL    HW2 5826   0.071   2.795   6.550
 1643SOL     OW 5827   2.721   4.762   2.902
 1643SOL    HW1 5828   2.692   4.842   2.955
 1643SOL    HW2 5829   2.820   4.767   2.886
 1644SOL     OW 5830   5.743   3.096   6.785
 1644SOL    HW1 5831   5.648   3.066   6.797
 1644SOL    HW2 5832   5.759   3.180   6.838
 1645SOL     OW 5833   2.917   6.454   6.267
 1645SOL    HW1 5834   2.959   6.485   6.353
 1645SOL    HW2 5835   2.904   6.533   6.207
 1646SOL     OW 5836   1.774   6.097   0.388
 1646SOL    HW1 5837   1.865   6.134   0.405
 1646SOL    HW2 5838   1.713   6.122   0.463
 1647SOL     OW 5839   5.469   2.411   4.291
 1647SOL    HW1 5840   5.555   2.383   4.334
 1647SOL    HW2 5841   5.406   2.334   4.289
 1648SOL     OW 5842   5.514   6.282   0.187
 1648SOL    HW1 5843   5.585   6.311   0.123
 1648SOL    HW2 5844   5.425   6.318   0.157
 1649SOL     OW 5845   3.580   1.509   4.201
 1649SOL    HW1 5846   3.653   1.574   4.181
 1649SOL    HW2 5847   3.588   1.479   4.297
 1650SOL     OW 5848   1.083   5.500   5.437
 1650SOL    HW1 5849   1.084   5.532   5.343
 1650SOL    HW2 5850   0.988   5.491   5.467
 1651SOL     OW 5851   0.136   2.192   2.922
 1651SOL    HW1 5852   0.076   2.115   2.902
 1651SOL    HW2 5853   0.231   2.162   2.923
 1652SOL     OW 5854   1.072   3.728   2.298
 1652SOL    HW1 5855   1.128   3.646   2.308
 1652SOL    HW2 5856   1.118   3.806   2.341
 1653SOL     OW 5857   0.004   5.482   1.622
 1653SOL    HW1 5858   0.013   5.582   1.629
 1653SOL    HW2 5859   7.024   5.444   1.714
 1654SOL     OW 5860   0.004   3.375   1.277
 1654SOL    HW1 5861   6.999   3.303   1.216
 1654SOL    HW2 5862   0.032   3.454   1.222
 1655SOL     OW 5863   6.511   1.240   4.410
 1655SOL    HW1 5864   6.517   1.183   4.328
 1655SOL    HW2 5865   6.582   1.212   4.475
 1656SOL     OW 5866   2.556   5.400   3.042
 1656SOL    HW1 5867   2.551   5.491   3.000
 1656SOL    HW2 5868   2.469   5.380   3.087
 1657SOL     OW 5869   6.650   0.166   4.981
 1657SOL    HW1 5870   6.598   0.252   4.981
 1657SOL    HW2 5871   6.748   0.187   4.982
 1658SOL     OW 5872   6.804   0.363   0.693
 1658SOL    HW1 5873   6.796   0.385   0.596
 1658SOL    HW2 5874   6.864   0.284   0.704
 1659SOL     OW 5875   3.397   0.401   6.759
 1659SOL    HW1 5876   3.367   0.423   6.666
 1659SOL    HW2 5877   3.317   0.387   6.818
 1660SOL     OW 5878   1.603   6.903   2.864
 1660SOL    HW1 5879   1.550   6.983   2.891
 1660SOL    HW2 5880   1.542   6.826   2.848
 1661SOL     OW 5881   2.920   5.787   2.236
 1661SOL    HW1 5882   2.829   5.755   2.262
 1661SOL    HW2 5883   2.943   5.869   2.289
 1662SOL     OW 5884   6.292   0.081   5.142
 1662SOL    HW1 5885   6.253   0.078   5.050
 1662SOL    HW2 5886   6.222   0.053   5.208
 1663SOL     OW 5887   5.169   5.280   2.651
 1663SOL    HW1 5888   5.101   5.207   2.647
 1663SOL    HW2 5889   5.256   5.246   2.617
 1664SOL     OW 5890   2.278   6.307   5.400
 1664SOL    HW1 5891   2.270   6.208   5.414
 1664SOL    HW2 5892   2.343   6.325   5.327
 1665SOL     OW 5893   6.769   3.652   1.868
 1665SOL    HW1 5894   6.766   3.620   1.963
 1665SOL    HW2 5895   6.684   3.625   1.822
 1666SOL     OW 5896   5.779   0.240   0.314
 1666SOL    HW1 5897   5.818   0.258   0.404
 1666SOL    HW2 5898   5.679   0.240   0.320
 1667SOL     OW 5899   6.497   5.949   1.588
 1667SOL    HW1 5900   6.483   6.048   1.581
 1667SOL    HW2 5901   6.582   5.924   1.542
 1668SOL     OW 5902   5.013   4.618   3.210
 1668SOL    HW1 5903   5.077   4.560   3.160
 1668SOL    HW2 5904   4.951   4.662   3.146
 1669SOL     OW 5905   6.893   4.363   5.475
 1669SOL    HW1 5906   6.964   4.372   5.405
 1669SOL    HW2 5907   6.838   4.282   5.457
 1670SOL     OW 5908   0.503   4.493   4.874
 1670SOL    HW1 5909   0.427   4.530   4.929
 1670SOL    HW2 5910   0.497   4.393   4.872
 1671SOL     OW 5911   5.863   1.318   3.192
 1671SOL    HW1 5912   5.808   1.235   3.193
 1671SOL    HW2 5913   5.864   1.356   3.100
 1672SOL     OW 5914   1.926   4.319   6.341
 1672SOL    HW1 5915   1.879   4.243   6.385
 1672SOL    HW2 5916   1.974   4.286   6.259
 1673SOL     OW 5917   1.633   1.535   5.129
 1673SOL    HW1 5918   1.628   1.467   5.202
 1673SOL    HW2 5919   1.700   1.507   5.061
 1674SOL     OW 5920   6.871   2.538   2.343
 1674SOL    HW1 5921   6.940   2.592   2.391
 1674SOL    HW2 5922   6.808   2.599   2.295
 1675SOL     OW 5923   4.961   0.636   0.102
 1675SOL    HW1 5924   5.035   0.591   0.052
 1675SOL    HW2 5925   4.929   0.716   0.052
 1676SOL     OW 5926   2.561   2.470   2.289
 1676SOL    HW1 5927   2.605   2.386   2.255
 1676SOL    HW2 5928   2.630   2.541   2.300
 1677SOL     OW 5929   3.866   3.641   3.636
 1677SOL    HW1 5930   3.889   3.652   3.540
 1677SOL    HW2 5931   3.946   3.608   3.687
 1678SOL     OW 5932   0.232   5.956   1.684
 1678SOL    HW1 5933   0.238   5.967   1.585
 1678SOL    HW2 5934   0.235   6.045   1.728
 1679SOL     OW 5935   1.645   1.298   4.750
 1679SOL    HW1 5936   1.619   1.394   4.760
 1679SOL    HW2 5937   1.681   1.282   4.658
 1680SOL     OW 5938   6.025   3.623   5.718
 1680SOL    HW1 5939   5.933   3.647   5.689
 1680SOL    HW2 5940   6.029   3.524   5.738
 1681SOL     OW 5941   1.771   6.191   5.522
 1681SOL    HW1 5942   1.810   6.221   5.435
 1681SOL    HW2 5943   1.790   6.093   5.535
 1682SOL     OW 5944   1.982   0.988   5.914
 1682SOL    HW1 5945   2.030   0.946   5.836
 1682SOL    HW2 5946   2.022   1.077   5.934
 1683SOL     OW 5947   5.916   5.686   2.929
 1683SOL    HW1 5948   5.941   5.782   2.936
 1683SOL    HW2 5949   5.923   5.643   3.020
 1684SOL     OW 5950   0.202   5.526   2.180
 1684SOL    HW1 5951   0.256   5.497   2.101
 1684SOL    HW2 5952   0.144   5.450   2.210
 1685SOL     OW 5953   2.108   1.819   5.843
 1685SOL    HW1 5954   2.200   1.855   5.860
 1685SOL    HW2 5955   2.113   1.748   5.773
 1686SOL     OW 5956   3.510   6.127   4.135
 1686SOL    HW1 5957   3.413   6.113   4.113
 1686SOL    HW2 5958   3.560   6.151   4.052
 1687SOL     OW 5959   0.138   3.851   1.811
 1687SOL    HW1 5960   0.039   3.838   1.809
 1687SOL    HW2 5961   0.159   3.936   1.860
 1688SOL     OW 5962   1.757   1.779   3.813
 1688SOL    HW1 5963   1.690   1.782   3.887
 1688SOL    HW2 5964   1.757   1.867   3.765
 1689SOL     OW 5965   6.148   0.854   2.348
 1689SOL    HW1 5966   6.190   0.866   2.438
 1689SOL    HW2 5967   6.149   0.757   2.324
 1690SOL     OW 5968   0.734   3.504   4.507
 1690SOL    HW1 5969   0.787   3.587   4.524
 1690SOL    HW2 5970   0.787   3.441   4.450
 1691SOL     OW 5971   5.021   2.956   4.130
 1691SOL    HW1 5972   5.028   3.030   4.063
 1691SOL    HW2 5973   5.075   2.979   4.211
 1692SOL     OW 5974   4.957   5.772   1.566
 1692SOL    HW1 5975   4.980   5.830   1.644
 1692SOL    HW2 5976   5.038   5.722   1.536
 1693SOL     OW 5977   6.847   1.899   4.388
 1693SOL    HW1 5978   6.947   1.893   4.380
 1693SOL    HW2 5979   6.822   1.987   4.429
 1694SOL     OW 5980   6.301   0.716   4.192
 1694SOL    HW1 5981   6.335   0.754   4.106
 1694SOL    HW2 5982   6.363   0.740   4.266
 1695SOL     OW 5983   3.604   0.535   6.889
 1695SOL    HW1 5984   3.570   0.581   6.971
 1695SOL    HW2 5985   3.527   0.498   6.838
 1696SOL     OW 5986   3.649   6.473   0.715
 1696SOL    HW1 5987   3.725   6.504   0.773
 1696SOL    HW2 5988   3.676   6.478   0.619
 1697SOL     OW 5989   6.029   2.321   1.181
 1697SOL    HW1 5990   6.059   2.226   1.175
 1697SOL    HW2 5991   6.071   2.374   1.106
 1698SOL     OW 5992   3.722   1.130   1.436
 1698SOL    HW1 5993   3.637   1.096   1.477
 1698SOL    HW2 5994   3.782   1.166   1.508
 1699SOL     OW 5995   2.338   1.963   5.766
 1699SOL    HW1 5996   2.417   1.933   5.819
 1699SOL    HW2 5997   2.315   2.057   5.789
 1700SOL     OW 5998   6.021   3.774   3.407
 1700SOL    HW1 5999   6.086   3.787   3.482
 1700SOL    HW2 6000   6.056   3.817   3.324
 1701SOL     OW 6001   6.087   5.435   5.288
 1701SOL    HW1 6002   6.012   5.472   5.343
 1701SOL    HW2 6003   6.155   5.394   5.348
 1702SOL     OW 6004   0.787   1.084   0.754
 1702SOL    HW1 6005   0.703   1.042   0.719
 1702SOL    HW2 6006   0.866   1.032   0.721
 1703SOL     OW 6007   4.036   1.803   6.561
 1703SOL    HW1 6008   3.999   1.868   6.627
 1703SOL    HW2 6009   3.975   1.723   6.557
 1704SOL     OW 6010   1.663   2.066   6.976
 1704SOL    HW1 6011   1.671   2.163   6.997
 1704SOL    HW2 6012   1.723   2.014   0.006
 1705SOL     OW 6013   3.655   2.250   1.397
 1705SOL    HW1 6014   3.738   2.304   1.403
 1705SOL    HW2 6015   3.654   2.181   1.470
 1706SOL     OW 6016   4.164   1.895   1.582
 1706SOL    HW1 6017   4.199   1.901   1.675
 1706SOL    HW2 6018   4.081   1.838   1.581
 1707SOL     OW 6019   4.678   2.637   2.581
 1707SOL    HW1 6020   4.608   2.566   2.584
 1707SOL    HW2 6021   4.673   2.684   2.493
 1708SOL     OW 6022   4.106   5.254   1.594
 1708SOL    HW1 6023   4.144   5.163   1.612
 1708SOL    HW2 6024   4.027   5.270   1.653
 1709SOL     OW 6025   3.884   6.985   1.173
 1709SOL    HW1 6026   3.828   6.941   1.243
 1709SOL    HW2 6027   3.828   0.016   1.118
 1710SOL     OW 6028   3.842   5.047   3.755
 1710SOL    HW1 6029   3.848   5.019   3.659
 1710SOL    HW2 6030   3.917   5.006   3.807
 1711SOL     OW 6031   2.202   5.012   5.367
 1711SOL    HW1 6032   2.194   5.070   5.448
 1711SOL    HW2 6033   2.180   4.917   5.391
 1712SOL     OW 6034   6.907   1.794   4.819
 1712SOL    HW1 6035   6.957   1.851   4.753
 1712SOL    HW2 6036   6.857   1.723   4.770
 1713SOL     OW 6037   3.983   1.347   3.089
 1713SOL    HW1 6038   3.929   1.279   3.138
 1713SOL    HW2 6039   4.033   1.303   3.015
 1714SOL     OW 6040   4.199   1.654   0.058
 1714SOL    HW1 6041   4.117   1.636   0.113
 1714SOL    HW2 6042   4.192   1.605   7.002
 1715SOL     OW 6043   2.739   5.733   3.008
 1715SOL    HW1 6044   2.837   5.730   2.989
 1715SOL    HW2 6045   2.690   5.686   2.934
 1716SOL     OW 6046   4.436   0.434   3.606
 1716SOL    HW1 6047   4.399   0.342   3.600
 1716SOL    HW2 6048   4.379   0.490   3.666
 1717SOL     OW 6049   3.700   5.507   5.137
 1717SOL    HW1 6050   3.633   5.458   5.081
 1717SOL    HW2 6051   3.705   5.465   5.228
 1718SOL     OW 6052   2.733   1.853   2.556
 1718SOL    HW1 6053   2.727   1.814   2.648
 1718SOL    HW2 6054   2.780   1.789   2.495
 1719SOL     OW 6055   2.345   3.968   1.072
 1719SOL    HW1 6056   2.300   3.900   1.015
 1719SOL    HW2 6057   2.420   4.011   1.022
 1720SOL     OW 6058   6.824   2.524   5.319
 1720SOL    HW1 6059   6.920   2.553   5.322
 1720SOL    HW2 6060   6.776   2.577   5.249
 1721SOL     OW 6061   1.389   0.368   1.503
 1721SOL    HW1 6062   1.471   0.338   1.552
 1721SOL    HW2 6063   1.325   0.410   1.567
 1722SOL     OW 6064   4.180   1.327   3.324
 1722SOL    HW1 6065   4.173   1.422   3.355
 1722SOL    HW2 6066   4.092   1.298   3.286
 1723SOL     OW 6067   4.448   2.140   6.732
 1723SOL    HW1 6068   4.540   2.108   6.753
 1723SOL    HW2 6069   4.392   2.135   6.815
 1724SOL     OW 6070   6.466   2.406   2.022
 1724SOL    HW1 6071   6.436   2.410   2.118
 1724SOL    HW2 6072   6.386   2.407   1.962
 1725SOL     OW 6073   2.030   5.156   6.600
 1725SOL    HW1 6074   2.054   5.063   6.628
 1725SOL    HW2 6075   1.931   5.164   6.593
 1726SOL     OW 6076   5.364   4.262   4.445
 1726SOL    HW1 6077   5.434   4.325   4.479
 1726SOL    HW2 6078   5.311   4.227   4.522
 1727SOL     OW 6079   4.094   3.688   3.193
 1727SOL    HW1 6080   4.099   3.744   3.110
 1727SOL    HW2 6081   4.128   3.596   3.174
 1728SOL     OW 6082   5.087   4.725   5.498
 1728SOL    HW1 6083   5.023   4.727   5.575
 1728SOL    HW2 6084   5.036   4.722   5.412
 1729SOL     OW 6085   1.160   4.221   2.993
 1729SOL    HW1 6086   1.077   4.276   3.001
 1729SOL    HW2 6087   1.198   4.205   3.084
 1730SOL     OW 6088   2.864   6.891   5.249
 1730SOL    HW1 6089   2.784   6.890   5.188
 1730SOL    HW2 6090   2.925   6.966   5.223
 1731SOL     OW 6091   6.258   4.813   3.685
 1731SOL    HW1 6092   6.336   4.836   3.742
 1731SOL    HW2 6093   6.220   4.896   3.645
 1732SOL     OW 6094   1.777   4.165   6.504
 1732SOL    HW1 6095   1.862   4.114   6.516
 1732SOL    HW2 6096   1.759   4.221   6.584
 1733SOL     OW 6097   2.510   3.904   1.672
 1733SOL    HW1 6098   2.434   3.954   1.712
 1733SOL    HW2 6099   2.593   3.961   1.676
 1734SOL     OW 6100   5.684   2.956   1.334
 1734SOL    HW1 6101   5.667   2.869   1.287
 1734SOL    HW2 6102   5.782   2.972   1.342
 1735SOL     OW 6103   4.447   5.349   5.729
 1735SOL    HW1 6104   4.436   5.448   5.715
 1735SOL    HW2 6105   4.540   5.322   5.703
 1736SOL     OW 6106   3.734   3.952   0.625
 1736SOL    HW1 6107   3.676   3.963   0.544
 1736SOL    HW2 6108   3.688   3.892   0.691
 1737SOL     OW 6109   5.317   0.090   4.511
 1737SOL    HW1 6110   5.321   0.164   4.444
 1737SOL    HW2 6111   5.393   0.098   4.575
 1738SOL     OW 6112   1.659   3.742   4.079
 1738SOL    HW1 6113   1.600   3.663   4.061
 1738SOL    HW2 6114   1.748   3.709   4.113
 1739SOL     OW 6115   6.434   0.269   4.203
 1739SOL    HW1 6116   6.503   0.240   4.270
 1739SOL    HW2 6117   6.391   0.189   4.162
 1740SOL     OW 6118   6.596   1.483   5.373
 1740SOL    HW1 6119   6.679   1.480   5.428
 1740SOL    HW2 6120   6.572   1.578   5.355
 1741SOL     OW 6121   2.595   1.456   4.352
 1741SOL    HW1 6122   2.529   1.389   4.385
 1741SOL    HW2 6123   2.651   1.415   4.281
 1742SOL     OW 6124   5.742   0.914   6.220
 1742SOL    HW1 6125   5.673   0.935   6.290
 1742SOL    HW2 6126   5.827   0.961   6.241
 1743SOL     OW 6127   1.220   1.083   2.592
 1743SOL    HW1 6128   1.189   1.009   2.533
 1743SOL    HW2 6129   1.278   1.146   2.540
 1744SOL     OW 6130   5.365   2.548   2.972
 1744SOL    HW1 6131   5.348   2.453   2.945
 1744SOL    HW2 6132   5.315   2.609   2.911
 1745SOL     OW 6133   5.733   6.374   1.713
 1745SOL    HW1 6134   5.827   6.353   1.688
 1745SOL    HW2 6135   5.673   6.358   1.636
 1746SOL     OW 6136   2.215   3.910   4.042
 1746SOL    HW1 6137   2.187   3.824   3.999
 1746SOL    HW2 6138   2.234   3.895   4.138
 1747SOL     OW 6139   3.918   1.732   2.142
 1747SOL    HW1 6140   3.935   1.636   2.166
 1747SOL    HW2 6141   3.824   1.742   2.110
 1748SOL     OW 6142   6.279   1.587   4.179
 1748SOL    HW1 6143   6.289   1.518   4.107
 1748SOL    HW2 6144   6.292   1.544   4.268
 1749SOL     OW 6145   3.151   6.652   6.674
 1749SOL    HW1 6146   3.076   6.603   6.718
 1749SOL    HW2 6147   3.155   6.746   6.709
 1750SOL     OW 6148   4.646   0.628   4.218
 1750SOL    HW1 6149   4.579   0.636   4.144
 1750SOL    HW2 6150   4.637   0.705   4.280
 1751SOL     OW 6151   5.536   2.254   4.784
 1751SOL    HW1 6152   5.571   2.285   4.696
 1751SOL    HW2 6153   5.582   2.304   4.858
 1752SOL     OW 6154   5.858   0.292   1.349
 1752SOL    HW1 6155   5.790   0.335   1.408
 1752SOL    HW2 6156   5.949   0.327   1.371
 1753SOL     OW 6157   6.826   1.529   1.872
 1753SOL    HW1 6158   6.900   1.589   1.903
 1753SOL    HW2 6159   6.769   1.577   1.806
 1754SOL     OW 6160   1.793   5.846   6.412
 1754SOL    HW1 6161   1.852   5.767   6.430
 1754SOL    HW2 6162   1.705   5.833   6.456
 1755SOL     OW 6163   0.063   6.409   6.062
 1755SOL    HW1 6164   0.083   6.326   6.114
 1755SOL    HW2 6165   0.148   6.443   6.021
 1756SOL     OW 6166   3.861   6.589   6.403
 1756SOL    HW1 6167   3.957   6.596   6.377
 1756SOL    HW2 6168   3.849   6.509   6.462
 1757SOL     OW 6169   3.363   5.036   4.776
 1757SOL    HW1 6170   3.285   5.019   4.836
 1757SOL    HW2 6171   3.336   5.016   4.681
 1758SOL     OW 6172   1.505   0.053   4.732
 1758SOL    HW1 6173   1.592   0.095   4.760
 1758SOL    HW2 6174   1.516   0.013   4.641
 1759SOL     OW 6175   1.228   6.898   5.371
 1759SOL    HW1 6176   1.309   6.901   5.312
 1759SOL    HW2 6177   1.160   6.962   5.336
 1760SOL     OW 6178   6.292   0.763   4.587
 1760SOL    HW1 6179   6.258   0.850   4.621
 1760SOL    HW2 6180   6.380   0.777   4.541
 1761SOL     OW 6181   6.991   0.536   0.838
 1761SOL    HW1 6182   6.944   0.620   0.865
 1761SOL    HW2 6183   6.930   0.479   0.783
 1762SOL     OW 6184   0.084   1.406   5.115
 1762SOL    HW1 6185   0.001   1.435   5.162
 1762SOL    HW2 6186   0.073   1.421   5.016
 1763SOL     OW 6187   1.047   4.521   5.064
 1763SOL    HW1 6188   1.078   4.493   5.155
 1763SOL    HW2 6189   1.111   4.587   5.026
 1764SOL     OW 6190   0.607   3.504   1.944
 1764SOL    HW1 6191   0.658   3.565   1.884
 1764SOL    HW2 6192   0.663   3.423   1.965
 1765SOL     OW 6193   3.965   2.524   1.694
 1765SOL    HW1 6194   3.999   2.617   1.680
 1765SOL    HW2 6195   3.867   2.528   1.717
 1766SOL     OW 6196   5.339   4.741   4.358
 1766SOL    HW1 6197   5.384   4.725   4.270
 1766SOL    HW2 6198   5.361   4.833   4.391
 1767SOL     OW 6199   1.090   4.665   2.596
 1767SOL    HW1 6200   1.058   4.633   2.686
 1767SOL    HW2 6201   1.036   4.623   2.524
 1768SOL     OW 6202   4.372   0.560   0.373
 1768SOL    HW1 6203   4.374   0.654   0.339
 1768SOL    HW2 6204   4.409   0.498   0.303
 1769SOL     OW 6205   6.038   1.105   0.522
 1769SOL    HW1 6206   6.003   1.131   0.432
 1769SOL    HW2 6207   6.132   1.137   0.532
 1770SOL     OW 6208   0.421   3.853   5.278
 1770SOL    HW1 6209   0.453   3.909   5.354
 1770SOL    HW2 6210   0.338   3.894   5.238
 1771SOL     OW 6211   1.802   4.888   6.891
 1771SOL    HW1 6212   1.885   4.883   6.835
 1771SOL    HW2 6213   1.724   4.852   6.840
 1772SOL     OW 6214   4.100   5.500   4.352
 1772SOL    HW1 6215   4.118   5.571   4.420
 1772SOL    HW2 6216   4.176   5.495   4.288
 1773SOL     OW 6217   0.554   1.458   5.145
 1773SOL    HW1 6218   0.646   1.421   5.160
 1773SOL    HW2 6219   0.545   1.487   5.049
 1774SOL     OW 6220   5.624   6.688   2.325
 1774SOL    HW1 6221   5.609   6.707   2.228
 1774SOL    HW2 6222   5.540   6.707   2.376
 1775SOL     OW 6223   1.923   5.587   6.460
 1775SOL    HW1 6224   2.022   5.582   6.474
 1775SOL    HW2 6225   1.876   5.543   6.537
 1776SOL     OW 6226   5.057   0.705   5.558
 1776SOL    HW1 6227   5.157   0.707   5.561
 1776SOL    HW2 6228   5.022   0.643   5.629
 1777SOL     OW 6229   4.106   6.776   6.576
 1777SOL    HW1 6230   4.142   6.816   6.661
 1777SOL    HW2 6231   4.063   6.848   6.522
 1778SOL     OW 6232   4.929   1.193   4.571
 1778SOL    HW1 6233   5.001   1.135   4.610
 1778SOL    HW2 6234   4.893   1.149   4.488
 1779SOL     OW 6235   5.234   6.552   5.377
 1779SOL    HW1 6236   5.262   6.596   5.462
 1779SOL    HW2 6237   5.303   6.568   5.306
 1780SOL     OW 6238   1.454   4.537   4.839
 1780SOL    HW1 6239   1.382   4.482   4.880
 1780SOL    HW2 6240   1.509   4.480   4.778
 1781SOL     OW 6241   5.151   6.962   4.738
 1781SOL    HW1 6242   5.146   6.869   4.774
 1781SOL    HW2 6243   5.225   7.012   4.784
 1782SOL     OW 6244   1.910   1.679   2.723
 1782SOL    HW1 6245   1.866   1.590   2.735
 1782SOL    HW2 6246   1.966   1.700   2.803
 1783SOL     OW 6247   1.975   3.457   6.079
 1783SOL    HW1 6248   1.983   3.527   6.009
 1783SOL    HW2 6249   1.895   3.400   6.060
 1784SOL     OW 6250   2.479   1.177   1.906
 1784SOL    HW1 6251   2.400   1.171   1.967
 1784SOL    HW2 6252   2.451   1.219   1.819
 1785SOL     OW 6253   6.744   6.260   4.228
 1785SOL    HW1 6254   6.838   6.228   4.245
 1785SOL    HW2 6255   6.745   6.323   4.150
 1786SOL     OW 6256   1.844   5.372   0.832
 1786SOL    HW1 6257   1.933   5.329   0.817
 1786SOL    HW2 6258   1.801   5.391   0.744
 1787SOL     OW 6259   1.785   2.566   5.290
 1787SOL    HW1 6260   1.719   2.527   5.354
 1787SOL    HW2 6261   1.852   2.497   5.264
 1788SOL     OW 6262   4.677   3.931   0.230
 1788SOL    HW1 6263   4.690   3.842   0.274
 1788SOL    HW2 6264   4.600   3.925   0.166
 1789SOL     OW 6265   6.267   3.316   2.149
 1789SOL    HW1 6266   6.209   3.239   2.172
 1789SOL    HW2 6267   6.211   3.397   2.131
 1790SOL     OW 6268   3.121   1.330   4.584
 1790SOL    HW1 6269   3.214   1.306   4.609
 1790SOL    HW2 6270   3.085   1.398   4.648
 1791SOL     OW 6271   6.037   0.807   3.452
 1791SOL    HW1 6272   6.096   0.766   3.522
 1791SOL    HW2 6273   5.968   0.864   3.495
 1792SOL     OW 6274   6.477   1.500   4.871
 1792SOL    HW1 6275   6.480   1.529   4.775
 1792SOL    HW2 6276   6.463   1.579   4.930
 1793SOL     OW 6277   6.278   1.422   5.300
 1793SOL    HW1 6278   6.306   1.458   5.389
 1793SOL    HW2 6279   6.359   1.398   5.246
 1794SOL     OW 6280   6.447   0.150   6.488
 1794SOL    HW1 6281   6.348   0.147   6.495
 1794SOL    HW2 6282   6.481   0.059   6.464
 1795SOL     OW 6283   5.659   5.049   0.952
 1795SOL    HW1 6284   5.602   4.986   0.899
 1795SOL    HW2 6285   5.669   5.014   1.045
 1796SOL     OW 6286   1.783   0.848   5.695
 1796SOL    HW1 6287   1.705   0.909   5.703
 1796SOL    HW2 6288   1.851   0.889   5.635
 1797SOL     OW 6289   1.458   6.861   4.879
 1797SOL    HW1 6290   1.469   6.934   4.811
 1797SOL    HW2 6291   1.539   6.802   4.879
 1798SOL     OW 6292   3.840   2.962   4.391
 1798SOL    HW1 6293   3.774   2.925   4.457
 1798SOL    HW2 6294   3.810   2.941   4.299
 1799SOL     OW 6295   3.972   2.004   6.741
 1799SOL    HW1 6296   3.946   1.956   6.824
 1799SOL    HW2 6297   3.890   2.036   6.693
 1800SOL     OW 6298   5.331   4.477   3.930
 1800SOL    HW1 6299   5.407   4.534   3.958
 1800SOL    HW2 6300   5.319   4.484   3.831
 1801SOL     OW 6301   0.744   1.999   1.862
 1801SOL    HW1 6302   0.731   2.085   1.812
 1801SOL    HW2 6303   0.761   1.925   1.798
 1802SOL     OW 6304   6.086   5.447   3.651
 1802SOL    HW1 6305   6.146   5.383   3.699
 1802SOL    HW2 6306   6.118   5.459   3.557
 1803SOL     OW 6307   0.057   6.426   2.614
 1803SOL    HW1 6308   0.101   6.515   2.622
 1803SOL    HW2 6309   0.109   6.358   2.666
 1804SOL     OW 6310   3.357   3.599   5.716
 1804SOL    HW1 6311   3.267   3.579   5.677
 1804SOL    HW2 6312   3.425   3.540   5.673
 1805SOL     OW 6313   1.231   6.182   5.752
 1805SOL    HW1 6314   1.235   6.094   5.800
 1805SOL    HW2 6315   1.157   6.180   5.684
 1806SOL     OW 6316   6.477   2.055   2.179
 1806SOL    HW1 6317   6.514   2.144   2.153
 1806SOL    HW2 6318   6.472   1.996   2.098
 1807SOL     OW 6319   6.321   3.674   0.576
 1807SOL    HW1 6320   6.311   3.581   0.612
 1807SOL    HW2 6321   6.267   3.682   0.492
 1808SOL     OW 6322   5.358   2.984   5.110
 1808SOL    HW1 6323   5.406   2.983   5.022
 1808SOL    HW2 6324   5.290   3.058   5.110
 1809SOL     OW 6325   2.656   1.934   5.253
 1809SOL    HW1 6326   2.567   1.917   5.295
 1809SOL    HW2 6327   2.709   1.996   5.310
 1810SOL     OW 6328   0.382   0.545   4.476
 1810SOL    HW1 6329   0.475   0.548   4.513
 1810SOL    HW2 6330   0.321   0.499   4.542
 1811SOL     OW 6331   4.552   4.703   1.579
 1811SOL    HW1 6332   4.623   4.633   1.589
 1811SOL    HW2 6333   4.563   4.772   1.650
 1812SOL     OW 6334   4.505   0.159   5.850
 1812SOL    HW1 6335   4.435   0.169   5.778
 1812SOL    HW2 6336   4.461   0.132   5.935
 1813SOL     OW 6337   4.715   4.322   2.214
 1813SOL    HW1 6338   4.625   4.303   2.176
 1813SOL    HW2 6339   4.777   4.350   2.140
 1814SOL     OW 6340   6.701   6.866   0.527
 1814SOL    HW1 6341   6.751   6.869   0.614
 1814SOL    HW2 6342   6.710   6.954   0.481
 1815SOL     OW 6343   5.709   5.695   2.562
 1815SOL    HW1 6344   5.672   5.686   2.469
 1815SOL    HW2 6345   5.658   5.635   2.624
 1816SOL     OW 6346   4.076   6.185   5.590
 1816SOL    HW1 6347   4.174   6.181   5.609
 1816SOL    HW2 6348   4.046   6.096   5.555
 1817SOL     OW 6349   2.788   1.809   2.928
 1817SOL    HW1 6350   2.776   1.874   3.003
 1817SOL    HW2 6351   2.881   1.817   2.892
 1818SOL     OW 6352   2.107   6.531   0.341
 1818SOL    HW1 6353   2.150   6.615   0.373
 1818SOL    HW2 6354   2.049   6.494   0.414
 1819SOL     OW 6355   1.253   5.154   2.170
 1819SOL    HW1 6356   1.323   5.119   2.107
 1819SOL    HW2 6357   1.256   5.101   2.255
 1820SOL     OW 6358   3.944   0.279   2.523
 1820SOL    HW1 6359   3.963   0.313   2.431
 1820SOL    HW2 6360   4.030   0.249   2.566
 1821SOL     OW 6361   3.257   1.072   1.864
 1821SOL    HW1 6362   3.236   1.034   1.774
 1821SOL    HW2 6363   3.298   1.163   1.853
 1822SOL     OW 6364   0.722   3.157   1.720
 1822SOL    HW1 6365   0.758   3.215   1.647
 1822SOL    HW2 6366   0.777   3.170   1.803
 1823SOL     OW 6367   3.635   6.209   2.696
 1823SOL    HW1 6368   3.605   6.282   2.634
 1823SOL    HW2 6369   3.725   6.176   2.668
 1824SOL     OW 6370   4.031   4.359   0.729
 1824SOL    HW1 6371   4.109   4.333   0.672
 1824SOL    HW2 6372   3.946   4.335   0.683
 1825SOL     OW 6373   0.366   2.799   4.883
 1825SOL    HW1 6374   0.294   2.751   4.933
 1825SOL    HW2 6375   0.325   2.857   4.813
 1826SOL     OW 6376   3.738   1.740   0.940
 1826SOL    HW1 6377   3.667   1.769   1.004
 1826SOL    HW2 6378   3.763   1.817   0.881
 1827SOL     OW 6379   5.015   5.322   0.953
 1827SOL    HW1 6380   5.093   5.383   0.941
 1827SOL    HW2 6381   5.039   5.231   0.919
 1828SOL     OW 6382   1.309   3.608   6.156
 1828SOL    HW1 6383   1.358   3.676   6.102
 1828SOL    HW2 6384   1.354   3.520   6.148
 1829SOL     OW 6385   3.539   0.879   3.083
 1829SOL    HW1 6386   3.488   0.807   3.130
 1829SOL    HW2 6387   3.563   0.849   2.991
 1830SOL     OW 6388   6.113   6.521   5.102
 1830SOL    HW1 6389   6.154   6.573   5.177
 1830SOL    HW2 6390   6.182   6.461   5.061
 1831SOL     OW 6391   5.081   5.842   2.922
 1831SOL    HW1 6392   5.123   5.884   2.842
 1831SOL    HW2 6393   5.132   5.867   3.004
 1832SOL     OW 6394   2.694   4.108   0.731
 1832SOL    HW1 6395   2.664   4.053   0.653
 1832SOL    HW2 6396   2.733   4.194   0.697
 1833SOL     OW 6397   4.988   6.819   1.429
 1833SOL    HW1 6398   4.946   6.873   1.355
 1833SOL    HW2 6399   4.958   6.856   1.517
 1834SOL     OW 6400   3.222   2.610   1.094
 1834SOL    HW1 6401   3.128   2.641   1.081
 1834SOL    HW2 6402   3.242   2.608   1.192
 1835SOL     OW 6403   1.237   5.541   0.892
 1835SOL    HW1 6404   1.264   5.626   0.936
 1835SOL    HW2 6405   1.311   5.475   0.898
 1836SOL     OW 6406   5.197   1.586   2.269
 1836SOL    HW1 6407   5.170   1.594   2.173
 1836SOL    HW2 6408   5.164   1.498   2.305
 1837SOL     OW 6409   1.794   1.147   5.497
 1837SOL    HW1 6410   1.823   1.214   5.429
 1837SOL    HW2 6411   1.736   1.191   5.565
 1838SOL     OW 6412   6.400   0.781   6.679
 1838SOL    HW1 6413   6.389   0.686   6.709
 1838SOL    HW2 6414   6.362   0.791   6.587
 1839SOL     OW 6415   6.296   1.444   6.526
 1839SOL    HW1 6416   6.286   1.534   6.569
 1839SOL    HW2 6417   6.206   1.411   6.497
 1840SOL     OW 6418   4.172   0.196   3.184
 1840SOL    HW1 6419   4.093   0.221   3.130
 1840SOL    HW2 6420   4.176   0.253   3.267
 1841SOL     OW 6421   2.441   0.309   2.412
 1841SOL    HW1 6422   2.475   0.351   2.496
 1841SOL    HW2 6423   2.469   0.365   2.334
 1842SOL     OW 6424   1.747   5.127   0.993
 1842SOL    HW1 6425   1.790   5.217   1.000
 1842SOL    HW2 6426   1.813   5.061   0.957
 1843SOL     OW 6427   3.958   1.187   4.573
 1843SOL    HW1 6428   3.935   1.247   4.496
 1843SOL    HW2 6429   3.916   1.222   4.657
 1844SOL     OW 6430   4.685   1.894   5.693
 1844SOL    HW1 6431   4.706   1.845   5.778
 1844SOL    HW2 6432   4.630   1.975   5.714
 1845SOL     OW 6433   3.077   0.804   3.707
 1845SOL    HW1 6434   2.997   0.810   3.766
 1845SOL    HW2 6435   3.079   0.883   3.645
 1846SOL     OW 6436   4.380   0.912   2.971
 1846SOL    HW1 6437   4.449   0.945   3.035
 1846SOL    HW2 6438   4.423   0.876   2.889
 1847SOL     OW 6439   1.884   0.731   4.918
 1847SOL    HW1 6440   1.786   0.741   4.904
 1847SOL    HW2 6441   1.927   0.700   4.834
 1848SOL     OW 6442   2.692   5.829   4.081
 1848SOL    HW1 6443   2.654   5.746   4.040
 1848SOL    HW2 6444   2.766   5.864   4.024
 1849SOL     OW 6445   4.932   3.170   2.225
 1849SOL    HW1 6446   4.861   3.137   2.163
 1849SOL    HW2 6447   4.996   3.095   2.245
 1850SOL     OW 6448   5.035   1.801   2.394
 1850SOL    HW1 6449   5.083   1.727   2.348
 1850SOL    HW2 6450   5.092   1.835   2.469
 1851SOL     OW 6451   0.301   3.048   6.278
 1851SOL    HW1 6452   0.369   3.055   6.205
 1851SOL    HW2 6453   0.258   3.137   6.292
 1852SOL     OW 6454   0.448   4.806   1.579
 1852SOL    HW1 6455   0.483   4.717   1.607
 1852SOL    HW2 6456   0.504   4.878   1.620
 1853SOL     OW 6457   6.929   2.175   4.325
 1853SOL    HW1 6458   6.981   2.090   4.318
 1853SOL    HW2 6459   6.992   2.252   4.336
 1854SOL     OW 6460   0.965   5.846   3.259
 1854SOL    HW1 6461   1.059   5.876   3.241
 1854SOL    HW2 6462   0.901   5.906   3.211
 1855SOL     OW 6463   5.664   3.208   4.721
 1855SOL    HW1 6464   5.756   3.173   4.705
 1855SOL    HW2 6465   5.663   3.260   4.807
 1856SOL     OW 6466   4.080   3.049   6.570
 1856SOL    HW1 6467   4.012   3.023   6.639
 1856SOL    HW2 6468   4.166   3.074   6.616
 1857SOL     OW 6469   5.619   1.061   0.295
 1857SOL    HW1 6470   5.634   1.118   0.376
 1857SOL    HW2 6471   5.606   0.966   0.322
 1858SOL     OW 6472   4.850   2.279   4.134
 1858SOL    HW1 6473   4.768   2.295   4.189
 1858SOL    HW2 6474   4.891   2.367   4.110
 1859SOL     OW 6475   5.237   1.998   4.687
 1859SOL    HW1 6476   5.262   1.920   4.629
 1859SOL    HW2 6477   5.299   2.002   4.766
 1860SOL     OW 6478   0.780   2.008   4.775
 1860SOL    HW1 6479   0.764   1.916   4.740
 1860SOL    HW2 6480   0.742   2.075   4.712
 1861SOL     OW 6481   6.003   0.186   3.080
 1861SOL    HW1 6482   5.968   0.233   2.998
 1861SOL    HW2 6483   5.930   0.180   3.148
 1862SOL     OW 6484   1.764   0.017   6.775
 1862SOL    HW1 6485   1.827   0.021   6.853
 1862SOL    HW2 6486   1.683   6.995   6.800
 1863SOL     OW 6487   0.199   3.054   1.340
 1863SOL    HW1 6488   0.280   3.028   1.391
 1863SOL    HW2 6489   0.225   3.115   1.265
 1864SOL     OW 6490   2.962   5.711   4.334
 1864SOL    HW1 6491   2.867   5.697   4.307
 1864SOL    HW2 6492   3.016   5.631   4.309
 1865SOL     OW 6493   4.164   1.417   1.198
 1865SOL    HW1 6494   4.237   1.408   1.266
 1865SOL    HW2 6495   4.194   1.481   1.127
 1866SOL     OW 6496   6.429   3.784   4.489
 1866SOL    HW1 6497   6.485   3.794   4.572
 1866SOL    HW2 6498   6.343   3.740   4.512
 1867SOL     OW 6499   2.491   2.804   1.742
 1867SOL    HW1 6500   2.555   2.728   1.730
 1867SOL    HW2 6501   2.407   2.772   1.786
 1868SOL     OW 6502   4.886   4.068   5.100
 1868SOL    HW1 6503   4.921   3.975   5.109
 1868SOL    HW2 6504   4.903   4.101   5.008
 1869SOL     OW 6505   4.900   2.537   4.017
 1869SOL    HW1 6506   4.839   2.604   3.974
 1869SOL    HW2 6507   4.992   2.548   3.980
 1870SOL     OW 6508   0.837   3.422   4.069
 1870SOL    HW1 6509   0.890   3.339   4.052
 1870SOL    HW2 6510   0.749   3.415   4.022
 1871SOL     OW 6511   6.921   6.418   0.321
 1871SOL    HW1 6512   6.958   6.327   0.343
 1871SOL    HW2 6513   6.844   6.407   0.257
 1872SOL     OW 6514   3.128   2.590   0.658
 1872SOL    HW1 6515   3.076   2.522   0.607
 1872SOL    HW2 6516   3.218   2.553   0.680
 1873SOL     OW 6517   6.015   1.145   6.823
 1873SOL    HW1 6518   5.918   1.160   6.845
 1873SOL    HW2 6519   6.071   1.174   6.901
 1874SOL     OW 6520   0.734   0.591   6.602
 1874SOL    HW1 6521   0.669   0.527   6.563
 1874SOL    HW2 6522   0.755   0.565   6.696
 1875SOL     OW 6523   6.105   6.380   0.474
 1875SOL    HW1 6524   6.167   6.381   0.552
 1875SOL    HW2 6525   6.035   6.451   0.487
 1876SOL     OW 6526   5.794   6.274   5.981
 1876SOL    HW1 6527   5.817   6.267   5.884
 1876SOL    HW2 6528   5.807   6.368   6.012
 1877SOL     OW 6529   0.182   0.898   2.332
 1877SOL    HW1 6530   0.264   0.888   2.388
 1877SOL    HW2 6531   0.102   0.868   2.383
 1878SOL     OW 6532   6.953   4.091   3.476
 1878SOL    HW1 6533   0.019   4.069   3.493
 1878SOL    HW2 6534   6.914   4.022   3.416
 1879SOL     OW 6535   2.503   5.037   4.811
 1879SOL    HW1 6536   2.547   5.041   4.721
 1879SOL    HW2 6537   2.475   5.130   4.837
 1880SOL     OW 6538   6.818   2.103   3.261
 1880SOL    HW1 6539   6.836   2.005   3.272
 1880SOL    HW2 6540   6.904   2.150   3.241
 1881SOL     OW 6541   0.791   2.298   3.154
 1881SOL    HW1 6542   0.827   2.289   3.061
 1881SOL    HW2 6543   0.738   2.216   3.176
 1882SOL     OW 6544   1.424   5.884   0.192
 1882SOL    HW1 6545   1.336   5.879   0.239
 1882SOL    HW2 6546   1.410   5.874   0.093
 1883SOL     OW 6547   1.419   3.565   2.832
 1883SOL    HW1 6548   1.445   3.657   2.861
 1883SOL    HW2 6549   1.374   3.518   2.908
 1884SOL     OW 6550   4.304   1.222   1.016
 1884SOL    HW1 6551   4.378   1.258   0.960
 1884SOL    HW2 6552   4.296   1.123   1.001
 1885SOL     OW 6553   6.652   2.075   0.873
 1885SOL    HW1 6554   6.692   2.045   0.786
 1885SOL    HW2 6555   6.572   2.132   0.855
 1886SOL     OW 6556   1.627   1.648   6.999
 1886SOL    HW1 6557   1.657   1.588   0.042
 1886SOL    HW2 6558   1.666   1.739   7.013
 1887SOL     OW 6559   0.536   4.615   5.733
 1887SOL    HW1 6560   0.499   4.673   5.660
 1887SOL    HW2 6561   0.501   4.522   5.723
 1888SOL     OW 6562   1.839   1.616   5.504
 1888SOL    HW1 6563   1.903   1.604   5.579
 1888SOL    HW2 6564   1.867   1.693   5.447
 1889SOL     OW 6565   4.575   3.579   0.053
 1889SOL    HW1 6566   4.639   3.504   0.042
 1889SOL    HW2 6567   4.579   3.614   0.147
 1890SOL     OW 6568   1.415   5.865   6.172
 1890SOL    HW1 6569   1.377   5.781   6.134
 1890SOL    HW2 6570   1.436   5.852   6.269
 1891SOL     OW 6571   6.000   3.380   5.839
 1891SOL    HW1 6572   6.043   3.409   5.924
 1891SOL    HW2 6573   6.009   3.281   5.829
 1892SOL     OW 6574   4.112   6.455   1.645
 1892SOL    HW1 6575   4.100   6.553   1.629
 1892SOL    HW2 6576   4.159   6.414   1.567
 1893SOL     OW 6577   3.282   2.127   4.822
 1893SOL    HW1 6578   3.251   2.144   4.729
 1893SOL    HW2 6579   3.217   2.167   4.887
 1894SOL     OW 6580   4.245   3.703   1.705
 1894SOL    HW1 6581   4.158   3.654   1.712
 1894SOL    HW2 6582   4.234   3.795   1.743
 1895SOL     OW 6583   6.182   0.928   1.913
 1895SOL    HW1 6584   6.196   1.014   1.865
 1895SOL    HW2 6585   6.166   0.855   1.846
 1896SOL     OW 6586   6.585   1.171   4.115
 1896SOL    HW1 6587   6.502   1.139   4.069
 1896SOL    HW2 6588   6.624   1.247   4.062
 1897SOL     OW 6589   6.765   5.673   3.076
 1897SOL    HW1 6590   6.826   5.747   3.048
 1897SOL    HW2 6591   6.688   5.711   3.127
 1898SOL     OW 6592   4.590   5.962   1.544
 1898SOL    HW1 6593   4.638   6.041   1.506
 1898SOL    HW2 6594   4.649   5.881   1.540
 1899SOL     OW 6595   0.339   3.837   2.940
 1899SOL    HW1 6596   0.377   3.905   2.877
 1899SOL    HW2 6597   0.302   3.884   3.020
 1900SOL     OW 6598   1.037   0.073   6.436
 1900SOL    HW1 6599   0.996   0.119   6.357
 1900SOL    HW2 6600   0.998   0.110   6.521
 1901SOL     OW 6601   2.502   1.357   0.398
 1901SOL    HW1 6602   2.425   1.385   0.340
 1901SOL    HW2 6603   2.586   1.353   0.343
 1902SOL     OW 6604   1.202   2.291   4.969
 1902SOL    HW1 6605   1.196   2.378   5.019
 1902SOL    HW2 6606   1.173   2.305   4.874
 1903SOL     OW 6607   6.816   4.197   3.149
 1903SOL    HW1 6608   6.795   4.227   3.056
 1903SOL    HW2 6609   6.769   4.256   3.214
 1904SOL     OW 6610   0.242   6.618   4.496
 1904SOL    HW1 6611   0.154   6.649   4.461
 1904SOL    HW2 6612   0.248   6.635   4.594
 1905SOL     OW 6613   0.005   2.586   3.941
 1905SOL    HW1 6614   0.062   2.603   3.861
 1905SOL    HW2 6615   6.941   2.573   3.913
 1906SOL     OW 6616   2.712   0.107   5.792
 1906SOL    HW1 6617   2.713   0.010   5.817
 1906SOL    HW2 6618   2.620   0.133   5.761
 1907SOL     OW 6619   3.086   0.137   3.561
 1907SOL    HW1 6620   3.030   0.176   3.634
 1907SOL    HW2 6621   3.151   0.072   3.600
 1908SOL     OW 6622   4.316   1.621   5.912
 1908SOL    HW1 6623   4.380   1.563   5.961
 1908SOL    HW2 6624   4.350   1.640   5.820
 1909SOL     OW 6625   2.101   4.570   4.718
 1909SOL    HW1 6626   2.116   4.500   4.788
 1909SOL    HW2 6627   2.087   4.526   4.629
 1910SOL     OW 6628   5.423   2.710   6.757
 1910SOL    HW1 6629   5.348   2.678   6.816
 1910SOL    HW2 6630   5.414   2.667   6.667
 1911SOL     OW 6631   6.579   2.006   5.376
 1911SOL    HW1 6632   6.655   1.962   5.425
 1911SOL    HW2 6633   6.500   2.013   5.437
 1912SOL     OW 6634   3.507   6.554   2.534
 1912SOL    HW1 6635   3.411   6.534   2.515
 1912SOL    HW2 6636   3.518   6.652   2.548
 1913SOL     OW 6637   1.769   6.658   5.189
 1913SOL    HW1 6638   1.692   6.717   5.215
 1913SOL    HW2 6639   1.848   6.681   5.246
 1914SOL     OW 6640   2.216   2.878   6.500
 1914SOL    HW1 6641   2.158   2.899   6.422
 1914SOL    HW2 6642   2.186   2.792   6.542
 1915SOL     OW 6643   3.997   1.230   6.028
 1915SOL    HW1 6644   4.011   1.228   5.929
 1915SOL    HW2 6645   4.055   1.301   6.069
 1916SOL     OW 6646   4.313   5.677   0.979
 1916SOL    HW1 6647   4.413   5.671   0.986
 1916SOL    HW2 6648   4.285   5.662   0.884
 1917SOL     OW 6649   3.773   3.300   4.396
 1917SOL    HW1 6650   3.757   3.372   4.328
 1917SOL    HW2 6651   3.736   3.329   4.484
 1918SOL     OW 6652   6.386   6.787   5.936
 1918SOL    HW1 6653   6.337   6.873   5.949
 1918SOL    HW2 6654   6.386   6.735   6.022
 1919SOL     OW 6655   1.510   6.117   2.065
 1919SOL    HW1 6656   1.461   6.118   1.979
 1919SOL    HW2 6657   1.463   6.176   2.132
 1920SOL     OW 6658   0.576   4.154   3.729
 1920SOL    HW1 6659   0.582   4.076   3.666
 1920SOL    HW2 6660   0.631   4.136   3.810
 1921SOL     OW 6661   0.267   5.542   0.057
 1921SOL    HW1 6662   0.182   5.508   0.097
 1921SOL    HW2 6663   0.253   5.559   6.990
 1922SOL     OW 6664   4.411   3.228   1.320
 1922SOL    HW1 6665   4.313   3.209   1.329
 1922SOL    HW2 6666   4.452   3.234   1.411
 1923SOL     OW 6667   3.307   1.169   0.433
 1923SOL    HW1 6668   3.314   1.224   0.350
 1923SOL    HW2 6669   3.263   1.082   0.412
 1924SOL     OW 6670   6.202   4.329   1.902
 1924SOL    HW1 6671   6.297   4.356   1.889
 1924SOL    HW2 6672   6.193   4.282   1.990
 1925SOL     OW 6673   3.027   3.551   1.934
 1925SOL    HW1 6674   3.020   3.651   1.925
 1925SOL    HW2 6675   3.022   3.526   2.030
 1926SOL     OW 6676   1.312   0.487   4.618
 1926SOL    HW1 6677   1.255   0.512   4.696
 1926SOL    HW2 6678   1.259   0.496   4.534
 1927SOL     OW 6679   3.228   4.186   6.483
 1927SOL    HW1 6680   3.159   4.191   6.410
 1927SOL    HW2 6681   3.280   4.272   6.485
 1928SOL     OW 6682   6.540   3.490   6.109
 1928SOL    HW1 6683   6.574   3.581   6.084
 1928SOL    HW2 6684   6.565   3.425   6.038
 1929SOL     OW 6685   1.017   5.561   1.596
 1929SOL    HW1 6686   1.039   5.499   1.670
 1929SOL    HW2 6687   0.937   5.616   1.621
 1930SOL     OW 6688   5.950   4.428   0.126
 1930SOL    HW1 6689   5.970   4.454   0.221
 1930SOL    HW2 6690   6.014   4.473   0.065
 1931SOL     OW 6691   0.111   3.602   2.916
 1931SOL    HW1 6692   0.041   3.651   2.864
 1931SOL    HW2 6693   0.181   3.666   2.946
 1932SOL     OW 6694   5.286   3.747   2.718
 1932SOL    HW1 6695   5.257   3.670   2.774
 1932SOL    HW2 6696   5.206   3.797   2.685
 1933SOL     OW 6697   2.462   5.471   0.911
 1933SOL    HW1 6698   2.449   5.371   0.914
 1933SOL    HW2 6699   2.559   5.492   0.924
 1934SOL     OW 6700   1.279   0.267   5.203
 1934SOL    HW1 6701   1.342   0.214   5.147
 1934SOL    HW2 6702   1.329   0.310   5.278
 1935SOL     OW 6703   3.061   0.021   4.814
 1935SOL    HW1 6704   3.116   0.057   4.739
 1935SOL    HW2 6705   2.988   0.086   4.837
 1936SOL     OW 6706   6.017   5.588   4.834
 1936SOL    HW1 6707   6.102   5.634   4.858
 1936SOL    HW2 6708   5.977   5.546   4.915
 1937SOL     OW 6709   4.083   6.827   2.186
 1937SOL    HW1 6710   4.077   6.855   2.091
 1937SOL    HW2 6711   4.178   6.806   2.209
 1938SOL     OW 6712   4.268   1.549   3.562
 1938SOL    HW1 6713   4.323   1.604   3.624
 1938SOL    HW2 6714   4.230   1.608   3.491
 1939SOL     OW 6715   1.393   0.353   4.034
 1939SOL    HW1 6716   1.455   0.315   4.102
 1939SOL    HW2 6717   1.437   0.351   3.944
 1940SOL     OW 6718   5.269   5.326   6.483
 1940SOL    HW1 6719   5.215   5.400   6.443
 1940SOL    HW2 6720   5.358   5.321   6.436
 1941SOL     OW 6721   6.617   3.982   2.959
 1941SOL    HW1 6722   6.564   4.043   3.017
 1941SOL    HW2 6723   6.713   4.008   2.962
 1942SOL     OW 6724   6.317   6.392   2.723
 1942SOL    HW1 6725   6.261   6.456   2.775
 1942SOL    HW2 6726   6.325   6.424   2.629
 1943SOL     OW 6727   3.172   6.113   1.893
 1943SOL    HW1 6728   3.208   6.024   1.864
 1943SOL    HW2 6729   3.245   6.181   1.888
 1944SOL     OW 6730   5.174   2.150   6.339
 1944SOL    HW1 6731   5.221   2.159   6.427
 1944SOL    HW2 6732   5.087   2.101   6.353
 1945SOL     OW 6733   4.536   5.396   3.532
 1945SOL    HW1 6734   4.531   5.302   3.565
 1945SOL    HW2 6735   4.626   5.434   3.553
 1946SOL     OW 6736   0.509   0.912   0.669
 1946SOL    HW1 6737   0.449   0.836   0.696
 1946SOL    HW2 6738   0.468   0.998   0.700
 1947SOL     OW 6739   5.376   6.532   4.299
 1947SOL    HW1 6740   5.324   6.505   4.380
 1947SOL    HW2 6741   5.349   6.473   4.222
 1948SOL     OW 6742   6.573   5.572   3.643
 1948SOL    HW1 6743   6.475   5.587   3.651
 1948SOL    HW2 6744   6.603   5.510   3.716
 1949SOL     OW 6745   3.788   4.174   5.894
 1949SOL    HW1 6746   3.772   4.229   5.976
 1949SOL    HW2 6747   3.700   4.145   5.856
 1950SOL     OW 6748   3.917   3.854   0.900
 1950SOL    HW1 6749   3.942   3.949   0.919
 1950SOL    HW2 6750   3.904   3.805   0.986
 1951SOL     OW 6751   6.740   2.831   0.442
 1951SOL    HW1 6752   6.715   2.822   0.346
 1951SOL    HW2 6753   6.761   2.926   0.463
 1952SOL     OW 6754   3.394   2.392   0.011
 1952SOL    HW1 6755   3.350   2.395   6.952
 1952SOL    HW2 6756   3.461   2.465   0.018
 1953SOL     OW 6757   6.244   2.062   6.536
 1953SOL    HW1 6758   6.242   2.070   6.436
 1953SOL    HW2 6759   6.222   2.151   6.577
 1954SOL     OW 6760   5.672   1.335   4.293
 1954SOL    HW1 6761   5.613   1.289   4.227
 1954SOL    HW2 6762   5.757   1.284   4.303
 1955SOL     OW 6763   1.592   0.084   2.210
 1955SOL    HW1 6764   1.600   0.011   2.142
 1955SOL    HW2 6765   1.502   0.080   2.253
 1956SOL     OW 6766   5.991   6.509   2.659
 1956SOL    HW1 6767   5.931   6.431   2.645
 1956SOL    HW2 6768   6.020   6.546   2.571
 1957SOL     OW 6769   6.380   5.085   5.151
 1957SOL    HW1 6770   6.446   5.035   5.095
 1957SOL    HW2 6771   6.390   5.058   5.246
 1958SOL     OW 6772   6.061   2.891   3.879
 1958SOL    HW1 6773   5.985   2.835   3.847
 1958SOL    HW2 6774   6.145   2.864   3.833
 1959SOL     OW 6775   0.541   2.296   6.197
 1959SOL    HW1 6776   0.566   2.331   6.288
 1959SOL    HW2 6777   0.595   2.343   6.127
 1960SOL     OW 6778   6.623   4.771   1.193
 1960SOL    HW1 6779   6.574   4.698   1.241
 1960SOL    HW2 6780   6.679   4.822   1.258
 1961SOL     OW 6781   5.651   4.464   4.728
 1961SOL    HW1 6782   5.602   4.453   4.814
 1961SOL    HW2 6783   5.622   4.394   4.663
 1962SOL     OW 6784   1.538   6.122   3.354
 1962SOL    HW1 6785   1.573   6.095   3.443
 1962SOL    HW2 6786   1.442   6.151   3.362
 1963SOL     OW 6787   0.528   0.706   1.905
 1963SOL    HW1 6788   0.472   0.624   1.894
 1963SOL    HW2 6789   0.491   0.761   1.980
 1964SOL     OW 6790   4.428   2.719   1.343
 1964SOL    HW1 6791   4.522   2.693   1.363
 1964SOL    HW2 6792   4.378   2.730   1.429
 1965SOL     OW 6793   0.717   3.356   2.634
 1965SOL    HW1 6794   0.723   3.359   2.534
 1965SOL    HW2 6795   0.771   3.279   2.668
 1966SOL     OW 6796   0.116   5.257   5.113
 1966SOL    HW1 6797   0.069   5.300   5.190
 1966SOL    HW2 6798   0.051   5.200   5.062
 1967SOL     OW 6799   4.454   2.036   5.687
 1967SOL    HW1 6800   4.390   2.078   5.622
 1967SOL    HW2 6801   4.424   2.055   5.780
 1968SOL     OW 6802   3.057   6.050   0.134
 1968SOL    HW1 6803   3.055   6.073   0.232
 1968SOL    HW2 6804   3.152   6.034   0.106
 1969SOL     OW 6805   0.392   1.121   1.632
 1969SOL    HW1 6806   0.430   1.156   1.546
 1969SOL    HW2 6807   0.455   1.142   1.707
 1970SOL     OW 6808   2.121   1.219   5.945
 1970SOL    HW1 6809   2.145   1.289   6.012
 1970SOL    HW2 6810   2.088   1.263   5.862
 1971SOL     OW 6811   6.417   6.581   6.099
 1971SOL    HW1 6812   6.440   6.614   6.190
 1971SOL    HW2 6813   6.411   6.481   6.100
 1972SOL     OW 6814   0.060   2.742   3.081
 1972SOL    HW1 6815   7.022   2.760   3.151
 1972SOL    HW2 6816   0.085   2.645   3.083
 1973SOL     OW 6817   2.885   3.587   1.585
 1973SOL    HW1 6818   2.849   3.547   1.670
 1973SOL    HW2 6819   2.813   3.640   1.540
 1974SOL     OW 6820   6.095   6.288   3.815
 1974SOL    HW1 6821   6.011   6.315   3.863
 1974SOL    HW2 6822   6.167   6.269   3.881
 1975SOL     OW 6823   2.848   1.417   3.374
 1975SOL    HW1 6824   2.834   1.346   3.443
 1975SOL    HW2 6825   2.887   1.376   3.291
 1976SOL     OW 6826   1.005   5.543   0.065
 1976SOL    HW1 6827   0.931   5.554   0.131
 1976SOL    HW2 6828   0.968   5.543   7.003
 1977SOL     OW 6829   1.315   2.365   3.345
 1977SOL    HW1 6830   1.327   2.282   3.290
 1977SOL    HW2 6831   1.362   2.441   3.299
 1978SOL     OW 6832   1.773   0.488   4.150
 1978SOL    HW1 6833   1.682   0.529   4.162
 1978SOL    HW2 6834   1.765   0.388   4.151
 1979SOL     OW 6835   6.346   4.009   4.919
 1979SOL    HW1 6836   6.314   4.035   5.010
 1979SOL    HW2 6837   6.268   3.992   4.859
 1980SOL     OW 6838   3.182   0.968   0.307
 1980SOL    HW1 6839   3.217   0.919   0.227
 1980SOL    HW2 6840   3.106   0.916   0.347
 1981SOL     OW 6841   5.478   2.129   2.242
 1981SOL    HW1 6842   5.519   2.151   2.331
 1981SOL    HW2 6843   5.396   2.074   2.256
 1982SOL     OW 6844   5.964   4.131   5.754
 1982SOL    HW1 6845   5.891   4.081   5.800
 1982SOL    HW2 6846   5.925   4.184   5.679
 1983SOL     OW 6847   0.663   2.335   2.342
 1983SOL    HW1 6848   0.752   2.376   2.363
 1983SOL    HW2 6849   0.591   2.399   2.367
 1984SOL     OW 6850   5.642   0.739   5.463
 1984SOL    HW1 6851   5.640   0.797   5.544
 1984SOL    HW2 6852   5.580   0.777   5.394
 1985SOL     OW 6853   1.366   0.665   2.044
 1985SOL    HW1 6854   1.345   0.674   1.947
 1985SOL    HW2 6855   1.449   0.610   2.055
 1986SOL     OW 6856   1.068   0.952   0.359
 1986SOL    HW1 6857   1.125   0.967   0.440
 1986SOL    HW2 6858   1.017   1.036   0.339
 1987SOL     OW 6859   1.679   3.220   2.029
 1987SOL    HW1 6860   1.762   3.164   2.030
 1987SOL    HW2 6861   1.698   3.307   1.984
 1988SOL     OW 6862   4.729   4.389   0.560
 1988SOL    HW1 6863   4.794   4.377   0.635
 1988SOL    HW2 6864   4.638   4.364   0.590
 1989SOL     OW 6865   2.604   0.219   5.036
 1989SOL    HW1 6866   2.518   0.168   5.044
 1989SOL    HW2 6867   2.587   0.303   4.983
 1990SOL     OW 6868   3.567   0.313   1.147
 1990SOL    HW1 6869   3.476   0.292   1.183
 1990SOL    HW2 6870   3.635   0.257   1.194
 1991SOL     OW 6871   3.883   5.025   6.274
 1991SOL    HW1 6872   3.958   5.011   6.209
 1991SOL    HW2 6873   3.818   5.091   6.237
 1992SOL     OW 6874   1.908   6.746   6.766
 1992SOL    HW1 6875   1.862   6.770   6.851
 1992SOL    HW2 6876   1.862   6.668   6.723
 1993SOL     OW 6877   4.062   3.387   5.323
 1993SOL    HW1 6878   4.153   3.421   5.348
 1993SOL    HW2 6879   3.999   3.464   5.315
 1994SOL     OW 6880   1.618   2.607   1.521
 1994SOL    HW1 6881   1.626   2.696   1.475
 1994SOL    HW2 6882   1.560   2.617   1.602
 1995SOL     OW 6883   6.327   2.587   1.752
 1995SOL    HW1 6884   6.420   2.558   1.774
 1995SOL    HW2 6885   6.326   2.686   1.735
 1996SOL     OW 6886   2.813   3.815   0.845
 1996SOL    HW1 6887   2.785   3.824   0.750
 1996SOL    HW2 6888   2.739   3.845   0.905
 1997SOL     OW 6889   5.105   0.291   5.711
 1997SOL    HW1 6890   5.054   0.205   5.719
 1997SOL    HW2 6891   5.043   0.367   5.730
 1998SOL     OW 6892   3.056   3.617   5.664
 1998SOL    HW1 6893   3.064   3.521   5.691
 1998SOL    HW2 6894   2.964   3.634   5.629
 1999SOL     OW 6895   3.013   0.058   2.047
 1999SOL    HW1 6896   2.943   0.015   2.104
 1999SOL    HW2 6897   2.974   0.138   2.002
 2000SOL     OW 6898   3.919   1.962   5.709
 2000SOL    HW1 6899   3.937   1.914   5.623
 2000SOL    HW2 6900   4.003   1.966   5.764
 2001SOL     OW 6901   3.433   2.231   1.754
 2001SOL    HW1 6902   3.525   2.242   1.793
 2001SOL    HW2 6903   3.421   2.297   1.680
 2002SOL     OW 6904   0.739   5.529   6.172
 2002SOL    HW1 6905   0.676   5.605   6.153
 2002SOL    HW2 6906   0.769   5.534   6.267
 2003SOL     OW 6907   4.958   6.820   3.332
 2003SOL    HW1 6908   4.978   6.865   3.245
 2003SOL    HW2 6909   4.970   6.885   3.407
 2004SOL     OW 6910   4.944   0.981   4.982
 2004SOL    HW1 6911   5.007   0.905   4.996
 2004SOL    HW2 6912   4.896   1.001   5.067
 2005SOL     OW 6913   1.169   5.357   0.150
 2005SOL    HW1 6914   1.088   5.416   0.145
 2005SOL    HW2 6915   1.251   5.413   0.141
 2006SOL     OW 6916   5.111   4.046   3.977
 2006SOL    HW1 6917   5.159   4.001   4.052
 2006SOL    HW2 6918   5.013   4.024   3.982
 2007SOL     OW 6919   4.592   5.947   0.673
 2007SOL    HW1 6920   4.651   5.996   0.737
 2007SOL    HW2 6921   4.640   5.868   0.637
 2008SOL     OW 6922   0.861   5.184   3.506
 2008SOL    HW1 6923   0.763   5.176   3.486
 2008SOL    HW2 6924   0.891   5.278   3.489
 2009SOL     OW 6925   6.829   0.259   1.229
 2009SOL    HW1 6926   6.735   0.278   1.203
 2009SOL    HW2 6927   6.890   0.326   1.188
 2010SOL     OW 6928   1.451   1.461   1.052
 2010SOL    HW1 6929   1.522   1.399   1.019
 2010SOL    HW2 6930   1.365   1.441   1.005
 2011SOL     OW 6931   6.489   1.763   4.985
 2011SOL    HW1 6932   6.478   1.752   5.084
 2011SOL    HW2 6933   6.558   1.833   4.967
 2012SOL     OW 6934   0.951   3.581   1.344
 2012SOL    HW1 6935   0.974   3.503   1.286
 2012SOL    HW2 6936   0.987   3.665   1.301
 2013SOL     OW 6937   5.493   0.478   3.104
 2013SOL    HW1 6938   5.548   0.431   3.173
 2013SOL    HW2 6939   5.427   0.539   3.150
 2014SOL     OW 6940   1.224   5.118   3.065
 2014SOL    HW1 6941   1.133   5.111   3.023
 2014SOL    HW2 6942   1.221   5.079   3.158
 2015SOL     OW 6943   2.558   1.381   6.599
 2015SOL    HW1 6944   2.477   1.404   6.545
 2015SOL    HW2 6945   2.640   1.412   6.552
 2016SOL     OW 6946   0.584   5.590   5.697
 2016SOL    HW1 6947   0.625   5.502   5.722
 2016SOL    HW2 6948   0.614   5.661   5.761
 2017SOL     OW 6949   3.274   6.357   4.405
 2017SOL    HW1 6950   3.220   6.441   4.414
 2017SOL    HW2 6951   3.214   6.278   4.416
 2018SOL     OW 6952   6.207   5.843   6.267
 2018SOL    HW1 6953   6.277   5.854   6.197
 2018SOL    HW2 6954   6.238   5.778   6.336
 2019SOL     OW 6955   4.758   2.846   2.259
 2019SOL    HW1 6956   4.746   2.897   2.173
 2019SOL    HW2 6957   4.795   2.755   2.239
 2020SOL     OW 6958   1.223   4.712   4.973
 2020SOL    HW1 6959   1.313   4.692   4.935
 2020SOL    HW2 6960   1.233   4.770   5.054
 2021SOL     OW 6961   2.242   6.720   3.193
 2021SOL    HW1 6962   2.307   6.677   3.255
 2021SOL    HW2 6963   2.199   6.650   3.136
 2022SOL     OW 6964   1.821   3.585   2.458
 2022SOL    HW1 6965   1.851   3.674   2.426
 2022SOL    HW2 6966   1.847   3.514   2.392
 2023SOL     OW 6967   0.266   1.452   0.379
 2023SOL    HW1 6968   0.250   1.354   0.369
 2023SOL    HW2 6969   0.182   1.496   0.410
 2024SOL     OW 6970   0.317   0.474   2.646
 2024SOL    HW1 6971   0.234   0.481   2.701
 2024SOL    HW2 6972   0.294   0.483   2.549
 2025SOL     OW 6973   1.429   2.639   2.170
 2025SOL    HW1 6974   1.439   2.738   2.182
 2025SOL    HW2 6975   1.513   2.602   2.131
 2026SOL     OW 6976   1.503   2.313   6.054
 2026SOL    HW1 6977   1.420   2.322   5.999
 2026SOL    HW2 6978   1.494   2.370   6.136
 2027SOL     OW 6979   1.851   1.413   1.369
 2027SOL    HW1 6980   1.905   1.497   1.379
 2027SOL    HW2 6981   1.875   1.349   1.442
 2028SOL     OW 6982   3.411   1.109   6.344
 2028SOL    HW1 6983   3.444   1.155   6.262
 2028SOL    HW2 6984   3.488   1.089   6.404
 2029SOL     OW 6985   0.130   0.469   0.446
 2029SOL    HW1 6986   0.229   0.461   0.457
 2029SOL    HW2 6987   0.085   0.391   0.490
 2030SOL     OW 6988   2.245   1.350   3.600
 2030SOL    HW1 6989   2.220   1.447   3.609
 2030SOL    HW2 6990   2.202   1.297   3.673
 2031SOL     OW 6991   5.063   6.125   2.013
 2031SOL    HW1 6992   5.023   6.214   1.990
 2031SOL    HW2 6993   5.140   6.139   2.075
 2032SOL     OW 6994   4.746   6.189   1.430
 2032SOL    HW1 6995   4.720   6.191   1.333
 2032SOL    HW2 6996   4.712   6.271   1.476
 2033SOL     OW 6997   3.473   4.978   6.775
 2033SOL    HW1 6998   3.473   5.010   6.870
 2033SOL    HW2 6999   3.415   5.037   6.720
 2034SOL     OW 7000   2.907   0.113   4.467
 2034SOL    HW1 7001   2.821   0.091   4.421
 2034SOL    HW2 7002   2.976   0.045   4.443
 2035SOL     OW 7003   0.518   0.738   2.338
 2035SOL    HW1 7004   0.467   0.824   2.342
 2035SOL    HW2 7005   0.472   0.674   2.276
 2036SOL     OW 7006   0.707   6.069   3.364
 2036SOL    HW1 7007   0.631   6.123   3.400
 2036SOL    HW2 7008   0.746   6.115   3.285
 2037SOL     OW 7009   7.025   2.166   6.077
 2037SOL    HW1 7010   0.014   2.108   5.998
 2037SOL    HW2 7011   0.079   2.202   6.114
 2038SOL     OW 7012   1.033   0.945   6.514
 2038SOL    HW1 7013   1.075   1.014   6.456
 2038SOL    HW2 7014   1.089   0.861   6.511
 2039SOL     OW 7015   0.339   4.890   2.498
 2039SOL    HW1 7016   0.411   4.888   2.428
 2039SOL    HW2 7017   0.281   4.970   2.484
 2040SOL     OW 7018   3.023   3.064   5.218
 2040SOL    HW1 7019   3.118   3.064   5.249
 2040SOL    HW2 7020   3.018   3.029   5.125
 2041SOL     OW 7021   6.463   5.856   6.155
 2041SOL    HW1 7022   6.515   5.901   6.228
 2041SOL    HW2 7023   6.490   5.895   6.066
 2042SOL     OW 7024   5.925   5.666   0.012
 2042SOL    HW1 7025   5.871   5.723   0.075
 2042SOL    HW2 7026   6.004   5.629   0.061
 2043SOL     OW 7027   6.649   4.100   2.375
 2043SOL    HW1 7028   6.620   4.012   2.412
 2043SOL    HW2 7029   6.742   4.092   2.339
 2044SOL     OW 7030   4.855   0.409   2.057
 2044SOL    HW1 7031   4.855   0.421   2.156
 2044SOL    HW2 7032   4.797   0.330   2.034
 2045SOL     OW 7033   2.069   4.405   4.950
 2045SOL    HW1 7034   2.010   4.354   4.887
 2045SOL    HW2 7035   2.155   4.355   4.963
 2046SOL     OW 7036   6.735   0.340   4.495
 2046SOL    HW1 7037   6.716   0.254   4.448
 2046SOL    HW2 7038   6.831   0.341   4.523
 2047SOL     OW 7039   4.264   2.153   6.949
 2047SOL    HW1 7040   4.271   2.221   7.022
 2047SOL    HW2 7041   4.227   2.067   6.987
 2048SOL     OW 7042   2.948   5.787   0.053
 2048SOL    HW1 7043   2.942   5.709   0.115
 2048SOL    HW2 7044   2.958   5.871   0.106
 2049SOL     OW 7045   4.169   1.944   6.333
 2049SOL    HW1 7046   4.135   1.889   6.409
 2049SOL    HW2 7047   4.236   2.011   6.367
 2050SOL     OW 7048   6.245   2.259   3.754
 2050SOL    HW1 7049   6.179   2.218   3.817
 2050SOL    HW2 7050   6.214   2.245   3.659
 2051SOL     OW 7051   7.000   4.987   0.145
 2051SOL    HW1 7052   0.054   4.948   0.108
 2051SOL    HW2 7053   6.981   4.948   0.234
 2052SOL     OW 7054   0.440   4.393   0.398
 2052SOL    HW1 7055   0.430   4.471   0.459
 2052SOL    HW2 7056   0.374   4.400   0.323
 2053SOL     OW 7057   6.406   0.757   0.344
 2053SOL    HW1 7058   6.359   0.811   0.275
 2053SOL    HW2 7059   6.500   0.740   0.315
 2054SOL     OW 7060   4.654   2.735   1.857
 2054SOL    HW1 7061   4.721   2.719   1.929
 2054SOL    HW2 7062   4.652   2.832   1.834
 2055SOL     OW 7063   5.992   2.555   2.768
 2055SOL    HW1 7064   5.935   2.614   2.825
 2055SOL    HW2 7065   5.936   2.515   2.696
 2056SOL     OW 7066   2.811   1.093   3.215
 2056SOL    HW1 7067   2.739   1.157   3.244
 2056SOL    HW2 7068   2.899   1.123   3.253
 2057SOL     OW 7069   5.509   2.185   3.922
 2057SOL    HW1 7070   5.575   2.128   3.873
 2057SOL    HW2 7071   5.557   2.251   3.979
 2058SOL     OW 7072   1.207   1.809   3.202
 2058SOL    HW1 7073   1.188   1.857   3.288
 2058SOL    HW2 7074   1.138   1.738   3.188
 2059SOL     OW 7075   2.884   6.169   6.201
 2059SOL    HW1 7076   2.794   6.204   6.173
 2059SOL    HW2 7077   2.928   6.236   6.261
 2060SOL     OW 7078   0.057   4.018   0.928
 2060SOL    HW1 7079   0.059   4.023   1.028
 2060SOL    HW2 7080   0.138   3.969   0.895
 2061SOL     OW 7081   0.656   1.895   2.995
 2061SOL    HW1 7082   0.619   1.835   3.065
 2061SOL    HW2 7083   0.619   1.869   2.906
 2062SOL     OW 7084   5.510   0.206   3.338
 2062SOL    HW1 7085   5.573   0.129   3.334
 2062SOL    HW2 7086   5.556   0.285   3.379
 2063SOL     OW 7087   1.179   0.793   6.262
 2063SOL    HW1 7088   1.251   0.766   6.327
 2063SOL    HW2 7089   1.216   0.864   6.201
 2064SOL     OW 7090   0.941   1.301   5.501
 2064SOL    HW1 7091   0.901   1.236   5.437
 2064SOL    HW2 7092   0.898   1.391   5.488
 2065SOL     OW 7093   6.578   3.716   3.036
 2065SOL    HW1 7094   6.597   3.808   3.001
 2065SOL    HW2 7095   6.480   3.699   3.033
 2066SOL     OW 7096   0.430   6.128   4.028
 2066SOL    HW1 7097   0.510   6.170   3.984
 2066SOL    HW2 7098   0.451   6.110   4.124
 2067SOL     OW 7099   6.678   6.235   0.488
 2067SOL    HW1 7100   6.598   6.179   0.509
 2067SOL    HW2 7101   6.648   6.327   0.463
 2068SOL     OW 7102   0.909   1.234   5.761
 2068SOL    HW1 7103   0.924   1.253   5.664
 2068SOL    HW2 7104   0.997   1.234   5.809
 2069SOL     OW 7105   0.905   2.727   3.471
 2069SOL    HW1 7106   0.946   2.817   3.482
 2069SOL    HW2 7107   0.925   2.691   3.380
 2070SOL     OW 7108   1.838   0.763   2.545
 2070SOL    HW1 7109   1.836   0.674   2.499
 2070SOL    HW2 7110   1.932   0.793   2.557
 2071SOL     OW 7111   6.762   5.673   5.328
 2071SOL    HW1 7112   6.688   5.625   5.376
 2071SOL    HW2 7113   6.763   5.644   5.232
 2072SOL     OW 7114   4.644   6.418   1.526
 2072SOL    HW1 7115   4.673   6.512   1.545
 2072SOL    HW2 7116   4.596   6.381   1.606
 2073SOL     OW 7117   3.586   0.260   4.634
 2073SOL    HW1 7118   3.500   0.214   4.613
 2073SOL    HW2 7119   3.566   0.346   4.682
 2074SOL     OW 7120   0.701   3.300   0.648
 2074SOL    HW1 7121   0.647   3.216   0.647
 2074SOL    HW2 7122   0.640   3.379   0.661
 2075SOL     OW 7123   5.404   3.013   1.726
 2075SOL    HW1 7124   5.389   2.915   1.742
 2075SOL    HW2 7125   5.414   3.030   1.628
 2076SOL     OW 7126   5.237   7.001   6.680
 2076SOL    HW1 7127   5.240   0.059   6.634
 2076SOL    HW2 7128   5.275   7.010   6.772
 2077SOL     OW 7129   4.553   2.245   2.421
 2077SOL    HW1 7130   4.489   2.316   2.451
 2077SOL    HW2 7131   4.503   2.160   2.405
 2078SOL     OW 7132   1.421   6.529   6.445
 2078SOL    HW1 7133   1.426   6.627   6.424
 2078SOL    HW2 7134   1.457   6.476   6.368
 2079SOL     OW 7135   5.812   1.249   3.575
 2079SOL    HW1 7136   5.838   1.208   3.663
 2079SOL    HW2 7137   5.715   1.274   3.578
 2080SOL     OW 7138   1.446   0.883   4.743
 2080SOL    HW1 7139   1.356   0.837   4.742
 2080SOL    HW2 7140   1.474   0.902   4.649
 2081SOL     OW 7141   1.983   5.459   4.841
 2081SOL    HW1 7142   1.999   5.555   4.866
 2081SOL    HW2 7143   2.068   5.407   4.851
 2082SOL     OW 7144   6.970   0.575   2.659
 2082SOL    HW1 7145   6.875   0.566   2.628
 2082SOL    HW2 7146   7.029   0.519   2.601
 2083SOL     OW 7147   4.625   4.689   6.734
 2083SOL    HW1 7148   4.658   4.595   6.740
 2083SOL    HW2 7149   4.525   4.689   6.726
 2084SOL     OW 7150   6.623   3.983   3.496
 2084SOL    HW1 7151   6.684   3.957   3.421
 2084SOL    HW2 7152   6.663   3.954   3.583
 2085SOL     OW 7153   4.673   1.204   6.750
 2085SOL    HW1 7154   4.632   1.295   6.742
 2085SOL    HW2 7155   4.772   1.212   6.750
 2086SOL     OW 7156   3.062   6.696   5.340
 2086SOL    HW1 7157   3.002   6.775   5.333
 2086SOL    HW2 7158   3.155   6.726   5.358
 2087SOL     OW 7159   5.160   0.042   2.215
 2087SOL    HW1 7160   5.198   7.018   2.290
 2087SOL    HW2 7161   5.090   7.019   2.167
 2088SOL     OW 7162   2.903   6.382   0.457
 2088SOL    HW1 7163   2.822   6.357   0.404
 2088SOL    HW2 7164   2.902   6.334   0.545
 2089SOL     OW 7165   5.282   2.111   6.582
 2089SOL    HW1 7166   5.244   2.022   6.605
 2089SOL    HW2 7167   5.381   2.109   6.595
 2090SOL     OW 7168   3.658   3.922   5.412
 2090SOL    HW1 7169   3.708   3.945   5.329
 2090SOL    HW2 7170   3.617   3.831   5.403
 2091SOL     OW 7171   6.701   5.533   6.767
 2091SOL    HW1 7172   6.728   5.457   6.826
 2091SOL    HW2 7173   6.783   5.572   6.724
 2092SOL     OW 7174   4.148   5.154   6.982
 2092SOL    HW1 7175   4.229   5.163   6.925
 2092SOL    HW2 7176   4.148   5.226   0.021
 2093SOL     OW 7177   2.188   2.474   1.467
 2093SOL    HW1 7178   2.239   2.408   1.412
 2093SOL    HW2 7179   2.240   2.560   1.471
 2094SOL     OW 7180   5.902   1.795   1.188
 2094SOL    HW1 7181   5.924   1.892   1.200
 2094SOL    HW2 7182   5.912   1.771   1.091
 2095SOL     OW 7183   5.390   0.039   4.864
 2095SOL    HW1 7184   5.449   0.113   4.831
 2095SOL    HW2 7185   5.445   7.002   4.913
 2096SOL     OW 7186   4.437   4.600   2.541
 2096SOL    HW1 7187   4.339   4.620   2.537
 2096SOL    HW2 7188   4.472   4.624   2.631
 2097SOL     OW 7189   1.526   2.999   0.153
 2097SOL    HW1 7190   1.546   3.033   0.061
 2097SOL    HW2 7191   1.499   3.076   0.211
 2098SOL     OW 7192   4.285   5.078   3.262
 2098SOL    HW1 7193   4.306   5.019   3.341
 2098SOL    HW2 7194   4.324   5.169   3.277
 2099SOL     OW 7195   2.633   3.107   5.313
 2099SOL    HW1 7196   2.670   3.168   5.243
 2099SOL    HW2 7197   2.594   3.026   5.270
 2100SOL     OW 7198   3.847   3.553   5.261
 2100SOL    HW1 7199   3.759   3.518   5.227
 2100SOL    HW2 7200   3.844   3.559   5.361
 2101SOL     OW 7201   1.577   6.492   3.067
 2101SOL    HW1 7202   1.618   6.409   3.104
 2101SOL    HW2 7203   1.616   6.510   2.976
 2102SOL     OW 7204   6.790   5.023   2.329
 2102SOL    HW1 7205   6.790   5.123   2.325
 2102SOL    HW2 7206   6.731   4.987   2.258
 2103SOL     OW 7207   2.935   3.584   6.363
 2103SOL    HW1 7208   2.981   3.632   6.438
 2103SOL    HW2 7209   2.904   3.495   6.394
 2104SOL     OW 7210   0.969   3.359   7.028
 2104SOL    HW1 7211   0.957   3.297   0.075
 2104SOL    HW2 7212   0.899   3.430   0.001
 2105SOL     OW 7213   4.987   5.603   4.486
 2105SOL    HW1 7214   4.992   5.688   4.539
 2105SOL    HW2 7215   5.076   5.584   4.444
 2106SOL     OW 7216   5.220   4.211   0.569
 2106SOL    HW1 7217   5.244   4.306   0.549
 2106SOL    HW2 7218   5.295   4.151   0.540
 2107SOL     OW 7219   4.818   2.982   5.527
 2107SOL    HW1 7220   4.870   2.902   5.498
 2107SOL    HW2 7221   4.845   3.061   5.473
 2108SOL     OW 7222   6.874   6.230   5.758
 2108SOL    HW1 7223   6.786   6.277   5.749
 2108SOL    HW2 7224   6.948   6.293   5.737
 2109SOL     OW 7225   4.869   6.405   3.060
 2109SOL    HW1 7226   4.841   6.464   3.135
 2109SOL    HW2 7227   4.818   6.318   3.066
 2110SOL     OW 7228   2.324   2.383   6.028
 2110SOL    HW1 7229   2.267   2.456   6.067
 2110SOL    HW2 7230   2.417   2.416   6.015
 2111SOL     OW 7231   1.382   2.067   6.888
 2111SOL    HW1 7232   1.479   2.071   6.911
 2111SOL    HW2 7233   1.367   1.994   6.821
 2112SOL     OW 7234   5.399   2.473   0.735
 2112SOL    HW1 7235   5.433   2.397   0.790
 2112SOL    HW2 7236   5.329   2.523   0.787
 2113SOL     OW 7237   0.967   0.432   5.160
 2113SOL    HW1 7238   0.889   0.411   5.218
 2113SOL    HW2 7239   1.032   0.488   5.211
 2114SOL     OW 7240   1.563   2.876   1.015
 2114SOL    HW1 7241   1.606   2.947   0.959
 2114SOL    HW2 7242   1.586   2.786   0.978
 2115SOL     OW 7243   2.050   3.570   2.977
 2115SOL    HW1 7244   2.106   3.646   3.009
 2115SOL    HW2 7245   2.061   3.560   2.878
 2116SOL     OW 7246   0.353   5.063   3.406
 2116SOL    HW1 7247   0.296   5.066   3.488
 2116SOL    HW2 7248   0.312   5.001   3.339
 2117SOL     OW 7249   6.982   4.206   1.551
 2117SOL    HW1 7250   6.963   4.293   1.506
 2117SOL    HW2 7251   6.903   4.177   1.604
 2118SOL     OW 7252   6.562   3.516   1.737
 2118SOL    HW1 7253   6.565   3.433   1.682
 2118SOL    HW2 7254   6.491   3.507   1.807
 2119SOL     OW 7255   2.713   5.656   1.375
 2119SOL    HW1 7256   2.629   5.612   1.343
 2119SOL    HW2 7257   2.714   5.656   1.475
 2120SOL     OW 7258   0.548   5.058   4.193
 2120SOL    HW1 7259   0.604   4.993   4.142
 2120SOL    HW2 7260   0.459   5.068   4.148
 2121SOL     OW 7261   0.580   4.147   5.227
 2121SOL    HW1 7262   0.560   4.179   5.134
 2121SOL    HW2 7263   0.658   4.085   5.224
 2122SOL     OW 7264   5.658   4.259   6.319
 2122SOL    HW1 7265   5.709   4.297   6.242
 2122SOL    HW2 7266   5.691   4.167   6.339
 2123SOL     OW 7267   6.748   5.316   1.743
 2123SOL    HW1 7268   6.659   5.357   1.726
 2123SOL    HW2 7269   6.770   5.252   1.670
 2124SOL     OW 7270   2.740   1.747   1.767
 2124SOL    HW1 7271   2.689   1.797   1.837
 2124SOL    HW2 7272   2.818   1.801   1.737
 2125SOL     OW 7273   2.099   0.504   1.023
 2125SOL    HW1 7274   2.182   0.502   1.080
 2125SOL    HW2 7275   2.033   0.439   1.060
 2126SOL     OW 7276   4.001   0.919   0.153
 2126SOL    HW1 7277   3.948   0.988   0.103
 2126SOL    HW2 7278   3.955   0.899   0.240
 2127SOL     OW 7279   6.641   3.028   4.381
 2127SOL    HW1 7280   6.715   3.015   4.316
 2127SOL    HW2 7281   6.556   3.047   4.331
 2128SOL     OW 7282   6.221   3.423   4.017
 2128SOL    HW1 7283   6.278   3.502   4.039
 2128SOL    HW2 7284   6.270   3.339   4.041
 2129SOL     OW 7285   4.469   3.326   5.649
 2129SOL    HW1 7286   4.544   3.379   5.687
 2129SOL    HW2 7287   4.497   3.284   5.564
 2130SOL     OW 7288   3.198   0.692   1.962
 2130SOL    HW1 7289   3.262   0.675   2.037
 2130SOL    HW2 7290   3.157   0.782   1.973
 2131SOL     OW 7291   6.501   0.012   0.310
 2131SOL    HW1 7292   6.496   6.974   0.237
 2131SOL    HW2 7293   6.593   0.010   0.350
 2132SOL     OW 7294   4.085   2.111   1.374
 2132SOL    HW1 7295   4.085   2.028   1.428
 2132SOL    HW2 7296   4.070   2.088   1.277
 2133SOL     OW 7297   2.653   2.970   6.316
 2133SOL    HW1 7298   2.719   2.986   6.390
 2133SOL    HW2 7299   2.561   2.991   6.348
 2134SOL     OW 7300   0.659   2.836   6.897
 2134SOL    HW1 7301   0.568   2.876   6.900
 2134SOL    HW2 7302   0.677   2.802   6.804
 2135SOL     OW 7303   0.336   3.782   4.469
 2135SOL    HW1 7304   0.355   3.684   4.469
 2135SOL    HW2 7305   0.242   3.798   4.440
 2136SOL     OW 7306   1.945   4.041   2.823
 2136SOL    HW1 7307   1.871   4.098   2.859
 2136SOL    HW2 7308   1.924   4.014   2.729
 2137SOL     OW 7309   2.667   5.518   5.345
 2137SOL    HW1 7310   2.624   5.571   5.418
 2137SOL    HW2 7311   2.717   5.579   5.284
 2138SOL     OW 7312   6.518   6.427   3.238
 2138SOL    HW1 7313   6.425   6.423   3.201
 2138SOL    HW2 7314   6.575   6.358   3.193
 2139SOL     OW 7315   4.422   0.923   3.631
 2139SOL    HW1 7316   4.498   0.865   3.602
 2139SOL    HW2 7317   4.373   0.879   3.706
 2140SOL     OW 7318   3.246   0.482   4.236
 2140SOL    HW1 7319   3.272   0.576   4.215
 2140SOL    HW2 7320   3.248   0.427   4.152
 2141SOL     OW 7321   6.485   3.053   2.384
 2141SOL    HW1 7322   6.498   3.069   2.287
 2141SOL    HW2 7323   6.388   3.038   2.403
 2142SOL     OW 7324   1.476   1.313   3.278
 2142SOL    HW1 7325   1.501   1.313   3.374
 2142SOL    HW2 7326   1.509   1.397   3.235
 2143SOL     OW 7327   2.858   5.048   1.240
 2143SOL    HW1 7328   2.958   5.057   1.244
 2143SOL    HW2 7329   2.823   5.095   1.159
 2144SOL     OW 7330   0.580   5.611   4.369
 2144SOL    HW1 7331   0.572   5.643   4.463
 2144SOL    HW2 7332   0.554   5.514   4.365
 2145SOL     OW 7333   3.964   6.403   4.339
 2145SOL    HW1 7334   3.965   6.316   4.388
 2145SOL    HW2 7335   3.905   6.467   4.388
 2146SOL     OW 7336   2.262   3.274   1.108
 2146SOL    HW1 7337   2.348   3.321   1.088
 2146SOL    HW2 7338   2.281   3.182   1.143
 2147SOL     OW 7339   5.886   1.593   6.464
 2147SOL    HW1 7340   5.880   1.572   6.561
 2147SOL    HW2 7341   5.941   1.675   6.451
 2148SOL     OW 7342   6.138   3.390   6.091
 2148SOL    HW1 7343   6.172   3.310   6.141
 2148SOL    HW2 7344   6.193   3.470   6.115
 2149SOL     OW 7345   2.609   1.812   0.876
 2149SOL    HW1 7346   2.551   1.765   0.810
 2149SOL    HW2 7347   2.596   1.911   0.868
 2150SOL     OW 7348   2.296   2.447   2.449
 2150SOL    HW1 7349   2.369   2.436   2.383
 2150SOL    HW2 7350   2.326   2.510   2.521
 2151SOL     OW 7351   2.099   6.738   6.539
 2151SOL    HW1 7352   2.030   6.716   6.607
 2151SOL    HW2 7353   2.071   6.819   6.488
 2152SOL     OW 7354   3.861   4.845   2.245
 2152SOL    HW1 7355   3.826   4.814   2.333
 2152SOL    HW2 7356   3.804   4.806   2.172
 2153SOL     OW 7357   4.268   1.518   2.694
 2153SOL    HW1 7358   4.277   1.599   2.752
 2153SOL    HW2 7359   4.173   1.510   2.664
 2154SOL     OW 7360   4.576   0.337   4.660
 2154SOL    HW1 7361   4.563   0.362   4.757
 2154SOL    HW2 7362   4.673   0.338   4.639
 2155SOL     OW 7363   4.134   0.216   0.918
 2155SOL    HW1 7364   4.083   0.131   0.904
 2155SOL    HW2 7365   4.072   0.294   0.908
 2156SOL     OW 7366   0.157   0.887   5.026
 2156SOL    HW1 7367   0.241   0.896   5.078
 2156SOL    HW2 7368   0.171   0.823   4.951
 2157SOL     OW 7369   5.840   6.504   3.092
 2157SOL    HW1 7370   5.842   6.492   3.191
 2157SOL    HW2 7371   5.871   6.421   3.047
 2158SOL     OW 7372   3.749   5.929   1.039
 2158SOL    HW1 7373   3.712   6.013   1.078
 2158SOL    HW2 7374   3.681   5.855   1.048
 2159SOL     OW 7375   1.527   1.104   4.897
 2159SOL    HW1 7376   1.504   1.035   4.828
 2159SOL    HW2 7377   1.560   1.186   4.851
 2160SOL     OW 7378   4.761   4.374   0.012
 2160SOL    HW1 7379   4.803   4.463   7.027
 2160SOL    HW2 7380   4.770   4.318   6.960
 2161SOL     OW 7381   5.980   4.899   2.031
 2161SOL    HW1 7382   5.981   4.937   2.124
 2161SOL    HW2 7383   5.901   4.839   2.020
 2162SOL     OW 7384   3.381   0.150   1.978
 2162SOL    HW1 7385   3.356   0.214   2.051
 2162SOL    HW2 7386   3.311   0.078   1.971
 2163SOL     OW 7387   1.576   4.665   0.605
 2163SOL    HW1 7388   1.668   4.675   0.567
 2163SOL    HW2 7389   1.558   4.568   0.623
 2164SOL     OW 7390   2.107   2.088   6.369
 2164SOL    HW1 7391   2.176   2.095   6.297
 2164SOL    HW2 7392   2.020   2.123   6.334
 2165SOL     OW 7393   6.981   2.279   3.465
 2165SOL    HW1 7394   0.040   2.267   3.423
 2165SOL    HW2 7395   6.976   2.226   3.550
 2166SOL     OW 7396   1.303   3.434   4.175
 2166SOL    HW1 7397   1.295   3.393   4.265
 2166SOL    HW2 7398   1.232   3.504   4.164
 2167SOL     OW 7399   1.418   2.445   3.866
 2167SOL    HW1 7400   1.383   2.399   3.784
 2167SOL    HW2 7401   1.442   2.539   3.845
 2168SOL     OW 7402   0.904   1.961   3.136
 2168SOL    HW1 7403   0.822   1.920   3.096
 2168SOL    HW2 7404   0.899   2.061   3.129
 2169SOL     OW 7405   5.634   1.477   0.378
 2169SOL    HW1 7406   5.642   1.568   0.338
 2169SOL    HW2 7407   5.611   1.411   0.305
 2170SOL     OW 7408   6.618   4.103   4.969
 2170SOL    HW1 7409   6.677   4.024   4.951
 2170SOL    HW2 7410   6.523   4.077   4.951
 2171SOL     OW 7411   0.430   5.720   1.431
 2171SOL    HW1 7412   0.519   5.763   1.415
 2171SOL    HW2 7413   0.426   5.634   1.380
 2172SOL     OW 7414   1.957   1.853   6.572
 2172SOL    HW1 7415   1.925   1.817   6.484
 2172SOL    HW2 7416   1.882   1.851   6.638
 2173SOL     OW 7417   4.687   0.492   5.339
 2173SOL    HW1 7418   4.590   0.489   5.313
 2173SOL    HW2 7419   4.738   0.544   5.270
 2174SOL     OW 7420   6.682   5.531   4.879
 2174SOL    HW1 7421   6.644   5.521   4.971
 2174SOL    HW2 7422   6.615   5.501   4.812
 2175SOL     OW 7423   1.629   3.087   3.899
 2175SOL    HW1 7424   1.698   3.015   3.907
 2175SOL    HW2 7425   1.539   3.048   3.914
 2176SOL     OW 7426   5.820   2.080   0.794
 2176SOL    HW1 7427   5.740   2.021   0.798
 2176SOL    HW2 7428   5.903   2.024   0.789
 2177SOL     OW 7429   0.098   1.101   2.698
 2177SOL    HW1 7430   0.160   1.151   2.757
 2177SOL    HW2 7431   0.019   1.069   2.751
 2178SOL     OW 7432   1.323   1.566   2.634
 2178SOL    HW1 7433   1.310   1.584   2.732
 2178SOL    HW2 7434   1.298   1.647   2.581
 2179SOL     OW 7435   1.734   4.727   5.990
 2179SOL    HW1 7436   1.730   4.644   6.046
 2179SOL    HW2 7437   1.758   4.805   6.048
 2180SOL     OW 7438   1.409   2.839   2.407
 2180SOL    HW1 7439   1.505   2.845   2.434
 2180SOL    HW2 7440   1.391   2.750   2.366
 2181SOL     OW 7441   4.508   4.794   4.511
 2181SOL    HW1 7442   4.566   4.821   4.434
 2181SOL    HW2 7443   4.556   4.812   4.597
 2182SOL     OW 7444   1.942   4.387   3.408
 2182SOL    HW1 7445   1.953   4.353   3.315
 2182SOL    HW2 7446   1.879   4.328   3.459
 2183SOL     OW 7447   2.275   4.014   0.034
 2183SOL    HW1 7448   2.366   3.998   7.028
 2183SOL    HW2 7449   2.235   4.095   7.021
 2184SOL     OW 7450   4.362   0.651   5.838
 2184SOL    HW1 7451   4.328   0.743   5.823
 2184SOL    HW2 7452   4.314   0.587   5.777
 2185SOL     OW 7453   0.694   0.564   0.499
 2185SOL    HW1 7454   0.770   0.535   0.557
 2185SOL    HW2 7455   0.711   0.534   0.405
 2186SOL     OW 7456   6.451   5.462   6.842
 2186SOL    HW1 7457   6.540   5.501   6.817
 2186SOL    HW2 7458   6.388   5.536   6.866
 2187SOL     OW 7459   6.978   6.056   2.395
 2187SOL    HW1 7460   6.975   6.151   2.364
 2187SOL    HW2 7461   0.021   6.045   2.462
 2188SOL     OW 7462   0.544   5.641   4.998
 2188SOL    HW1 7463   0.606   5.616   4.924
 2188SOL    HW2 7464   0.525   5.560   5.054
 2189SOL     OW 7465   2.107   6.899   1.699
 2189SOL    HW1 7466   2.198   6.876   1.665
 2189SOL    HW2 7467   2.115   6.937   1.791
 2190SOL     OW 7468   6.319   3.675   1.900
 2190SOL    HW1 7469   6.348   3.603   1.963
 2190SOL    HW2 7470   6.262   3.637   1.828
 2191SOL     OW 7471   2.315   2.219   5.825
 2191SOL    HW1 7472   2.375   2.272   5.764
 2191SOL    HW2 7473   2.297   2.273   5.907
 2192SOL     OW 7474   5.211   1.145   2.646
 2192SOL    HW1 7475   5.225   1.231   2.597
 2192SOL    HW2 7476   5.298   1.096   2.653
 2193SOL     OW 7477   6.311   7.013   6.778
 2193SOL    HW1 7478   6.342   0.060   6.832
 2193SOL    HW2 7479   6.385   6.946   6.771
 2194SOL     OW 7480   2.018   4.080   6.563
 2194SOL    HW1 7481   2.106   4.033   6.559
 2194SOL    HW2 7482   1.975   4.061   6.652
 2195SOL     OW 7483   6.776   6.860   5.526
 2195SOL    HW1 7484   6.755   6.840   5.621
 2195SOL    HW2 7485   6.692   6.885   5.477
 2196SOL     OW 7486   3.298   0.304   4.845
 2196SOL    HW1 7487   3.208   0.307   4.890
 2196SOL    HW2 7488   3.360   0.246   4.898
 2197SOL     OW 7489   2.530   3.584   6.546
 2197SOL    HW1 7490   2.612   3.625   6.506
 2197SOL    HW2 7491   2.448   3.621   6.503
 2198SOL     OW 7492   5.544   0.355   1.274
 2198SOL    HW1 7493   5.448   0.375   1.257
 2198SOL    HW2 7494   5.575   0.406   1.354
 2199SOL     OW 7495   5.201   6.412   3.784
 2199SOL    HW1 7496   5.167   6.504   3.798
 2199SOL    HW2 7497   5.133   6.358   3.733
 2200SOL     OW 7498   1.860   1.832   4.307
 2200SOL    HW1 7499   1.918   1.770   4.254
 2200SOL    HW2 7500   1.889   1.926   4.293
 2201SOL     OW 7501   6.185   2.792   3.487
 2201SOL    HW1 7502   6.284   2.805   3.484
 2201SOL    HW2 7503   6.154   2.754   3.399
 2202SOL     OW 7504   3.761   5.840   2.176
 2202SOL    HW1 7505   3.772   5.922   2.118
 2202SOL    HW2 7506   3.851   5.802   2.196
 2203SOL     OW 7507   2.165   3.505   1.232
 2203SOL    HW1 7508   2.170   3.405   1.237
 2203SOL    HW2 7509   2.216   3.538   1.153
 2204SOL     OW 7510   4.819   1.804   1.116
 2204SOL    HW1 7511   4.743   1.740   1.102
 2204SOL    HW2 7512   4.848   1.800   1.211
 2205SOL     OW 7513   0.792   6.538   6.501
 2205SOL    HW1 7514   0.864   6.539   6.432
 2205SOL    HW2 7515   0.794   6.624   6.552
 2206SOL     OW 7516   3.361   5.272   5.684
 2206SOL    HW1 7517   3.450   5.276   5.730
 2206SOL    HW2 7518   3.299   5.215   5.737
 2207SOL     OW 7519   2.650   5.043   6.426
 2207SOL    HW1 7520   2.653   5.125   6.368
 2207SOL    HW2 7521   2.737   4.994   6.420
 2208SOL     OW 7522   1.605   5.352   3.226
 2208SOL    HW1 7523   1.644   5.277   3.280
 2208SOL    HW2 7524   1.511   5.370   3.258
 2209SOL     OW 7525   1.475   0.264   5.462
 2209SOL    HW1 7526   1.468   0.168   5.490
 2209SOL    HW2 7527   1.569   0.285   5.437
 2210SOL     OW 7528   0.317   4.100   4.265
 2210SOL    HW1 7529   0.326   4.192   4.228
 2210SOL    HW2 7530   0.385   4.040   4.223
 2211SOL     OW 7531   6.472   0.365   0.433
 2211SOL    HW1 7532   6.546   0.431   0.447
 2211SOL    HW2 7533   6.433   0.379   0.342
 2212SOL     OW 7534   2.685   6.087   0.777
 2212SOL    HW1 7535   2.640   6.160   0.727
 2212SOL    HW2 7536   2.665   5.999   0.732
 2213SOL     OW 7537   3.315   1.426   5.240
 2213SOL    HW1 7538   3.327   1.490   5.164
 2213SOL    HW2 7539   3.222   1.434   5.276
 2214SOL     OW 7540   3.013   3.881   4.825
 2214SOL    HW1 7541   3.030   3.787   4.795
 2214SOL    HW2 7542   2.914   3.898   4.827
 2215SOL     OW 7543   5.573   1.337   0.145
 2215SOL    HW1 7544   5.630   1.406   0.101
 2215SOL    HW2 7545   5.597   1.246   0.110
 2216SOL     OW 7546   1.383   0.763   6.978
 2216SOL    HW1 7547   1.297   0.787   7.024
 2216SOL    HW2 7548   1.460   0.783   0.008
 2217SOL     OW 7549   3.709   6.810   2.456
 2217SOL    HW1 7550   3.735   6.853   2.543
 2217SOL    HW2 7551   3.769   6.731   2.439
 2218SOL     OW 7552   6.860   5.227   0.122
 2218SOL    HW1 7553   6.796   5.248   0.196
 2218SOL    HW2 7554   6.900   5.137   0.138
 2219SOL     OW 7555   5.609   1.446   0.640
 2219SOL    HW1 7556   5.622   1.467   0.543
 2219SOL    HW2 7557   5.669   1.503   0.695
 2220SOL     OW 7558   2.287   5.982   5.345
 2220SOL    HW1 7559   2.277   5.960   5.248
 2220SOL    HW2 7560   2.339   5.909   5.390
 2221SOL     OW 7561   5.949   1.500   5.663
 2221SOL    HW1 7562   5.884   1.567   5.627
 2221SOL    HW2 7563   5.961   1.426   5.596
 2222SOL     OW 7564   5.632   0.401   1.026
 2222SOL    HW1 7565   5.594   0.372   1.114
 2222SOL    HW2 7566   5.617   0.499   1.014
 2223SOL     OW 7567   5.683   1.242   5.873
 2223SOL    HW1 7568   5.724   1.207   5.789
 2223SOL    HW2 7569   5.745   1.309   5.914
 2224SOL     OW 7570   6.384   3.942   0.560
 2224SOL    HW1 7571   6.370   3.844   0.548
 2224SOL    HW2 7572   6.417   3.960   0.653
 2225SOL     OW 7573   6.162   6.848   4.174
 2225SOL    HW1 7574   6.227   6.799   4.115
 2225SOL    HW2 7575   6.201   6.936   4.201
 2226SOL     OW 7576   3.661   5.904   0.590
 2226SOL    HW1 7577   3.751   5.882   0.552
 2226SOL    HW2 7578   3.662   5.995   0.631
 2227SOL     OW 7579   5.762   2.711   0.296
 2227SOL    HW1 7580   5.846   2.759   0.323
 2227SOL    HW2 7581   5.684   2.752   0.343
 2228SOL     OW 7582   4.502   5.309   1.331
 2228SOL    HW1 7583   4.441   5.380   1.367
 2228SOL    HW2 7584   4.516   5.323   1.233
 2229SOL     OW 7585   4.279   2.567   5.521
 2229SOL    HW1 7586   4.292   2.510   5.602
 2229SOL    HW2 7587   4.223   2.646   5.545
 2230SOL     OW 7588   6.060   6.122   0.473
 2230SOL    HW1 7589   6.069   6.221   0.469
 2230SOL    HW2 7590   5.998   6.091   0.401
 2231SOL     OW 7591   0.190   0.693   1.498
 2231SOL    HW1 7592   0.271   0.749   1.487
 2231SOL    HW2 7593   0.111   0.752   1.514
 2232SOL     OW 7594   0.664   1.781   4.656
 2232SOL    HW1 7595   0.661   1.711   4.585
 2232SOL    HW2 7596   0.593   1.849   4.640
 2233SOL     OW 7597   2.118   3.039   0.761
 2233SOL    HW1 7598   2.092   3.117   0.818
 2233SOL    HW2 7599   2.035   2.990   0.732
 2234SOL     OW 7600   4.091   1.613   0.991
 2234SOL    HW1 7601   4.054   1.607   1.084
 2234SOL    HW2 7602   4.139   1.700   0.980
 2235SOL     OW 7603   3.181   0.577   1.547
 2235SOL    HW1 7604   3.117   0.654   1.534
 2235SOL    HW2 7605   3.182   0.552   1.644
 2236SOL     OW 7606   2.164   3.870   6.227
 2236SOL    HW1 7607   2.175   3.962   6.188
 2236SOL    HW2 7608   2.067   3.844   6.221
 2237SOL     OW 7609   5.858   4.376   4.012
 2237SOL    HW1 7610   5.829   4.424   4.095
 2237SOL    HW2 7611   5.929   4.429   3.966
 2238SOL     OW 7612   4.385   5.355   1.659
 2238SOL    HW1 7613   4.294   5.330   1.626
 2238SOL    HW2 7614   4.440   5.272   1.671
 2239SOL     OW 7615   3.771   4.898   4.327
 2239SOL    HW1 7616   3.714   4.892   4.245
 2239SOL    HW2 7617   3.712   4.897   4.408
 2240SOL     OW 7618   3.498   5.570   3.356
 2240SOL    HW1 7619   3.477   5.660   3.318
 2240SOL    HW2 7620   3.423   5.540   3.415
 2241SOL     OW 7621   0.393   5.622   3.181
 2241SOL    HW1 7622   0.404   5.563   3.261
 2241SOL    HW2 7623   0.295   5.643   3.169
 2242SOL     OW 7624   5.408   3.372   2.708
 2242SOL    HW1 7625   5.316   3.411   2.700
 2242SOL    HW2 7626   5.466   3.409   2.635
 2243SOL     OW 7627   1.687   6.804   5.796
 2243SOL    HW1 7628   1.672   6.778   5.700
 2243SOL    HW2 7629   1.779   6.776   5.824
 2244SOL     OW 7630   2.590   6.478   1.635
 2244SOL    HW1 7631   2.626   6.539   1.566
 2244SOL    HW2 7632   2.528   6.411   1.593
 2245SOL     OW 7633   0.442   1.738   1.633
 2245SOL    HW1 7634   0.363   1.682   1.655
 2245SOL    HW2 7635   0.518   1.679   1.605
 2246SOL     OW 7636   1.897   0.745   4.151
 2246SOL    HW1 7637   1.899   0.650   4.183
 2246SOL    HW2 7638   1.988   0.784   4.159
 2247SOL     OW 7639   3.412   2.960   3.363
 2247SOL    HW1 7640   3.505   2.939   3.391
 2247SOL    HW2 7641   3.410   2.975   3.264
 2248SOL     OW 7642   6.392   3.787   5.353
 2248SOL    HW1 7643   6.407   3.701   5.304
 2248SOL    HW2 7644   6.342   3.768   5.438
 2249SOL     OW 7645   5.615   6.363   3.751
 2249SOL    HW1 7646   5.540   6.315   3.706
 2249SOL    HW2 7647   5.583   6.453   3.782
 2250SOL     OW 7648   3.335   3.459   5.400
 2250SOL    HW1 7649   3.415   3.403   5.378
 2250SOL    HW2 7650   3.270   3.404   5.453
 2251SOL     OW 7651   5.130   0.309   6.696
 2251SOL    HW1 7652   5.212   0.359   6.671
 2251SOL    HW2 7653   5.049   0.358   6.663
 2252SOL     OW 7654   4.229   2.289   2.557
 2252SOL    HW1 7655   4.174   2.219   2.602
 2252SOL    HW2 7656   4.250   2.258   2.464
 2253SOL     OW 7657   0.130   4.111   6.999
 2253SOL    HW1 7658   0.055   4.074   6.945
 2253SOL    HW2 7659   0.216   4.097   6.952
 2254SOL     OW 7660   3.463   2.862   4.784
 2254SOL    HW1 7661   3.531   2.931   4.810
 2254SOL    HW2 7662   3.439   2.873   4.688
 2255SOL     OW 7663   4.063   3.301   5.697
 2255SOL    HW1 7664   3.983   3.350   5.733
 2255SOL    HW2 7665   4.035   3.244   5.620
 2256SOL     OW 7666   4.772   6.286   2.480
 2256SOL    HW1 7667   4.786   6.355   2.409
 2256SOL    HW2 7668   4.780   6.329   2.570
 2257SOL     OW 7669   0.259   1.832   4.057
 2257SOL    HW1 7670   0.296   1.748   4.017
 2257SOL    HW2 7671   0.186   1.867   3.998
 2258SOL     OW 7672   1.582   5.156   4.342
 2258SOL    HW1 7673   1.572   5.227   4.412
 2258SOL    HW2 7674   1.674   5.161   4.303
 2259SOL     OW 7675   4.998   3.491   5.953
 2259SOL    HW1 7676   5.097   3.503   5.956
 2259SOL    HW2 7677   4.953   3.581   5.949
 2260SOL     OW 7678   0.556   4.628   1.156
 2260SOL    HW1 7679   0.462   4.602   1.175
 2260SOL    HW2 7680   0.617   4.586   1.224
 2261SOL     OW 7681   5.408   4.971   0.087
 2261SOL    HW1 7682   5.350   5.033   0.033
 2261SOL    HW2 7683   5.433   5.016   0.173
 2262SOL     OW 7684   5.885   0.832   3.711
 2262SOL    HW1 7685   5.873   0.774   3.792
 2262SOL    HW2 7686   5.899   0.926   3.740
 2263SOL     OW 7687   3.244   5.905   6.797
 2263SOL    HW1 7688   3.163   5.847   6.805
 2263SOL    HW2 7689   3.265   5.944   6.887
 2264SOL     OW 7690   2.954   5.075   6.975
 2264SOL    HW1 7691   2.854   5.080   6.979
 2264SOL    HW2 7692   2.990   5.163   6.945
 2265SOL     OW 7693   1.571   1.009   3.879
 2265SOL    HW1 7694   1.512   0.929   3.872
 2265SOL    HW2 7695   1.621   1.006   3.965
 2266SOL     OW 7696   5.170   1.952   7.009
 2266SOL    HW1 7697   5.089   2.000   6.974
 2266SOL    HW2 7698   5.158   1.933   0.075
 2267SOL     OW 7699   4.695   2.300   4.865
 2267SOL    HW1 7700   4.637   2.369   4.910
 2267SOL    HW2 7701   4.753   2.345   4.798
 2268SOL     OW 7702   6.302   4.348   0.063
 2268SOL    HW1 7703   6.271   4.437   0.029
 2268SOL    HW2 7704   6.395   4.331   0.029
 2269SOL     OW 7705   6.990   4.770   5.435
 2269SOL    HW1 7706   6.989   4.865   5.402
 2269SOL    HW2 7707   0.004   4.767   5.524
 2270SOL     OW 7708   2.782   2.677   5.689
 2270SOL    HW1 7709   2.719   2.751   5.711
 2270SOL    HW2 7710   2.840   2.657   5.768
 2271SOL     OW 7711   5.448   4.207   0.216
 2271SOL    HW1 7712   5.525   4.146   0.196
 2271SOL    HW2 7713   5.480   4.284   0.272
 2272SOL     OW 7714   6.337   2.468   6.401
 2272SOL    HW1 7715   6.280   2.450   6.321
 2272SOL    HW2 7716   6.429   2.493   6.372
 2273SOL     OW 7717   1.632   1.740   1.946
 2273SOL    HW1 7718   1.649   1.820   2.003
 2273SOL    HW2 7719   1.579   1.672   1.997
 2274SOL     OW 7720   0.913   1.990   6.033
 2274SOL    HW1 7721   0.823   1.966   5.998
 2274SOL    HW2 7722   0.908   2.073   6.088
 2275SOL     OW 7723   6.413   6.426   4.504
 2275SOL    HW1 7724   6.487   6.364   4.530
 2275SOL    HW2 7725   6.442   6.485   4.429
 2276SOL     OW 7726   2.477   5.700   1.775
 2276SOL    HW1 7727   2.556   5.744   1.817
 2276SOL    HW2 7728   2.506   5.650   1.693
 2277SOL     OW 7729   4.021   3.704   4.405
 2277SOL    HW1 7730   3.997   3.752   4.490
 2277SOL    HW2 7731   4.070   3.619   4.428
 2278SOL     OW 7732   6.523   4.783   4.638
 2278SOL    HW1 7733   6.480   4.783   4.729
 2278SOL    HW2 7734   6.547   4.689   4.613
 2279SOL     OW 7735   5.632   6.646   5.672
 2279SOL    HW1 7736   5.653   6.740   5.699
 2279SOL    HW2 7737   5.633   6.639   5.572
 2280SOL     OW 7738   7.007   6.761   4.401
 2280SOL    HW1 7739   6.914   6.725   4.399
 2280SOL    HW2 7740   7.009   6.846   4.453
 2281SOL     OW 7741   3.426   1.279   1.811
 2281SOL    HW1 7742   3.444   1.347   1.740
 2281SOL    HW2 7743   3.469   1.307   1.897
 2282SOL     OW 7744   5.843   7.007   5.487
 2282SOL    HW1 7745   5.885   0.055   5.532
 2282SOL    HW2 7746   5.773   0.008   5.423
 2283SOL     OW 7747   0.949   5.328   1.156
 2283SOL    HW1 7748   0.980   5.385   1.233
 2283SOL    HW2 7749   0.893   5.383   1.094
 2284SOL     OW 7750   1.648   2.739   0.095
 2284SOL    HW1 7751   1.680   2.688   0.175
 2284SOL    HW2 7752   1.604   2.824   0.125
 2285SOL     OW 7753   1.987   2.596   1.231
 2285SOL    HW1 7754   2.047   2.532   1.183
 2285SOL    HW2 7755   1.939   2.548   1.304
 2286SOL     OW 7756   5.951   7.027   3.682
 2286SOL    HW1 7757   6.014   6.964   3.728
 2286SOL    HW2 7758   5.981   0.009   3.588
 2287SOL     OW 7759   2.201   0.060   3.409
 2287SOL    HW1 7760   2.155   0.047   3.496
 2287SOL    HW2 7761   2.254   7.009   3.386
 2288SOL     OW 7762   5.963   4.997   4.428
 2288SOL    HW1 7763   6.027   5.072   4.412
 2288SOL    HW2 7764   5.979   4.958   4.518
 2289SOL     OW 7765   0.948   4.720   1.300
 2289SOL    HW1 7766   0.867   4.668   1.328
 2289SOL    HW2 7767   0.918   4.799   1.246
 2290SOL     OW 7768   0.874   3.870   0.633
 2290SOL    HW1 7769   0.933   3.923   0.573
 2290SOL    HW2 7770   0.778   3.886   0.609
 2291SOL     OW 7771   2.176   2.710   5.720
 2291SOL    HW1 7772   2.165   2.660   5.634
 2291SOL    HW2 7773   2.257   2.770   5.714
 2292SOL     OW 7774   0.253   2.388   4.648
 2292SOL    HW1 7775   0.291   2.459   4.588
 2292SOL    HW2 7776   0.169   2.421   4.690
 2293SOL     OW 7777   4.711   5.863   1.857
 2293SOL    HW1 7778   4.689   5.906   1.945
 2293SOL    HW2 7779   4.806   5.881   1.834
 2294SOL     OW 7780   3.212   0.332   6.965
 2294SOL    HW1 7781   3.118   0.320   6.998
 2294SOL    HW2 7782   3.263   0.247   6.978
 2295SOL     OW 7783   0.588   2.107   3.174
 2295SOL    HW1 7784   0.562   2.039   3.242
 2295SOL    HW2 7785   0.583   2.067   3.083
 2296SOL     OW 7786   4.637   5.290   0.788
 2296SOL    HW1 7787   4.721   5.342   0.769
 2296SOL    HW2 7788   4.647   5.197   0.754
 2297SOL     OW 7789   4.030   4.362   5.339
 2297SOL    HW1 7790   4.077   4.287   5.385
 2297SOL    HW2 7791   4.082   4.389   5.259
 2298SOL     OW 7792   4.003   2.866   1.362
 2298SOL    HW1 7793   3.991   2.779   1.314
 2298SOL    HW2 7794   3.927   2.927   1.339
 2299SOL     OW 7795   4.971   6.150   5.345
 2299SOL    HW1 7796   4.912   6.070   5.347
 2299SOL    HW2 7797   4.915   6.233   5.347
 2300SOL     OW 7798   2.433   5.610   2.424
 2300SOL    HW1 7799   2.407   5.544   2.354
 2300SOL    HW2 7800   2.357   5.672   2.442
 2301SOL     OW 7801   3.137   3.002   3.026
 2301SOL    HW1 7802   3.134   3.052   2.940
 2301SOL    HW2 7803   3.067   2.929   3.024
 2302SOL     OW 7804   3.676   0.509   0.732
 2302SOL    HW1 7805   3.621   0.521   0.649
 2302SOL    HW2 7806   3.624   0.456   0.799
 2303SOL     OW 7807   2.123   3.028   6.016
 2303SOL    HW1 7808   2.077   2.949   5.975
 2303SOL    HW2 7809   2.201   3.054   5.959
 2304SOL     OW 7810   4.555   7.005   3.845
 2304SOL    HW1 7811   4.580   0.005   3.753
 2304SOL    HW2 7812   4.555   6.905   3.847
 2305SOL     OW 7813   2.720   6.622   3.220
 2305SOL    HW1 7814   2.722   6.555   3.146
 2305SOL    HW2 7815   2.644   6.686   3.206
 2306SOL     OW 7816   2.995   5.182   2.596
 2306SOL    HW1 7817   2.934   5.105   2.577
 2306SOL    HW2 7818   2.995   5.200   2.695
 2307SOL     OW 7819   7.000   4.442   2.548
 2307SOL    HW1 7820   7.003   4.538   2.521
 2307SOL    HW2 7821   6.976   4.386   2.469
 2308SOL     OW 7822   1.313   6.207   0.510
 2308SOL    HW1 7823   1.225   6.161   0.521
 2308SOL    HW2 7824   1.383   6.140   0.487
 2309SOL     OW 7825   1.515   0.202   6.432
 2309SOL    HW1 7826   1.491   0.143   6.355
 2309SOL    HW2 7827   1.433   0.224   6.484
 2310SOL     OW 7828   5.051   6.320   1.096
 2310SOL    HW1 7829   5.070   6.367   1.010
 2310SOL    HW2 7830   5.123   6.341   1.162
 2311SOL     OW 7831   2.164   6.204   2.034
 2311SOL    HW1 7832   2.207   6.205   2.125
 2311SOL    HW2 7833   2.088   6.138   2.035
 2312SOL     OW 7834   3.787   6.647   4.360
 2312SOL    HW1 7835   3.802   6.618   4.455
 2312SOL    HW2 7836   3.692   6.676   4.349
 2313SOL     OW 7837   4.995   5.447   1.702
 2313SOL    HW1 7838   5.003   5.515   1.629
 2313SOL    HW2 7839   5.078   5.391   1.705
 2314SOL     OW 7840   5.639   0.139   5.112
 2314SOL    HW1 7841   5.690   0.072   5.057
 2314SOL    HW2 7842   5.592   0.203   5.052
 2315SOL     OW 7843   4.533   3.220   5.400
 2315SOL    HW1 7844   4.477   3.138   5.408
 2315SOL    HW2 7845   4.624   3.194   5.368
 2316SOL     OW 7846   3.031   0.832   4.337
 2316SOL    HW1 7847   2.997   0.758   4.278
 2316SOL    HW2 7848   3.107   0.878   4.291
 2317SOL     OW 7849   0.286   6.444   3.293
 2317SOL    HW1 7850   0.234   6.527   3.273
 2317SOL    HW2 7851   0.246   6.366   3.244
 2318SOL     OW 7852   2.279   2.982   4.509
 2318SOL    HW1 7853   2.318   2.890   4.501
 2318SOL    HW2 7854   2.294   3.017   4.601
 2319SOL     OW 7855   2.271   5.314   4.217
 2319SOL    HW1 7856   2.339   5.378   4.253
 2319SOL    HW2 7857   2.316   5.250   4.154
 2320SOL     OW 7858   0.503   3.078   4.874
 2320SOL    HW1 7859   0.576   3.012   4.889
 2320SOL    HW2 7860   0.445   3.047   4.799
 2321SOL     OW 7861   2.090   6.440   6.882
 2321SOL    HW1 7862   2.058   6.353   6.847
 2321SOL    HW2 7863   2.060   6.452   6.976
 2322SOL     OW 7864   1.336   3.012   4.045
 2322SOL    HW1 7865   1.323   3.027   3.947
 2322SOL    HW2 7866   1.247   2.995   4.087
 2323SOL     OW 7867   3.581   5.414   1.656
 2323SOL    HW1 7868   3.680   5.405   1.643
 2323SOL    HW2 7869   3.547   5.493   1.605
 2324SOL     OW 7870   7.023   6.051   0.820
 2324SOL    HW1 7871   7.000   6.101   0.737
 2324SOL    HW2 7872   6.939   6.026   0.869
 2325SOL     OW 7873   1.003   4.881   1.548
 2325SOL    HW1 7874   0.960   4.904   1.635
 2325SOL    HW2 7875   0.936   4.837   1.488
 2326SOL     OW 7876   3.830   5.248   6.114
 2326SOL    HW1 7877   3.773   5.239   6.033
 2326SOL    HW2 7878   3.807   5.333   6.161
 2327SOL     OW 7879   6.472   2.179   4.162
 2327SOL    HW1 7880   6.430   2.172   4.253
 2327SOL    HW2 7881   6.558   2.230   4.170
 2328SOL     OW 7882   2.145   2.055   3.125
 2328SOL    HW1 7883   2.093   2.052   3.211
 2328SOL    HW2 7884   2.087   2.021   3.051
 2329SOL     OW 7885   1.145   4.382   4.568
 2329SOL    HW1 7886   1.194   4.466   4.544
 2329SOL    HW2 7887   1.210   4.313   4.598
 2330SOL     OW 7888   1.193   3.701   1.538
 2330SOL    HW1 7889   1.147   3.790   1.530
 2330SOL    HW2 7890   1.131   3.635   1.580
 2331SOL     OW 7891   3.964   5.669   6.717
 2331SOL    HW1 7892   4.031   5.717   6.660
 2331SOL    HW2 7893   4.006   5.642   6.803
 2332SOL     OW 7894   5.393   1.577   5.735
 2332SOL    HW1 7895   5.422   1.555   5.828
 2332SOL    HW2 7896   5.330   1.655   5.736
 2333SOL     OW 7897   0.137   4.797   3.048
 2333SOL    HW1 7898   0.170   4.845   2.966
 2333SOL    HW2 7899   0.111   4.703   3.024
 2334SOL     OW 7900   2.101   0.473   0.416
 2334SOL    HW1 7901   2.152   0.436   0.339
 2334SOL    HW2 7902   2.127   0.569   0.431
 2335SOL     OW 7903   6.714   0.600   2.963
 2335SOL    HW1 7904   6.660   0.631   3.041
 2335SOL    HW2 7905   6.811   0.603   2.986
 2336SOL     OW 7906   4.554   2.629   4.921
 2336SOL    HW1 7907   4.507   2.698   4.865
 2336SOL    HW2 7908   4.497   2.548   4.929
 2337SOL     OW 7909   4.675   1.228   2.084
 2337SOL    HW1 7910   4.618   1.254   2.162
 2337SOL    HW2 7911   4.770   1.219   2.113
 2338SOL     OW 7912   1.098   2.353   5.449
 2338SOL    HW1 7913   1.193   2.324   5.441
 2338SOL    HW2 7914   1.038   2.274   5.433
 2339SOL     OW 7915   3.315   3.735   4.501
 2339SOL    HW1 7916   3.240   3.798   4.480
 2339SOL    HW2 7917   3.400   3.786   4.512
 2340SOL     OW 7918   6.279   4.409   0.572
 2340SOL    HW1 7919   6.272   4.433   0.476
 2340SOL    HW2 7920   6.222   4.328   0.590
 2341SOL     OW 7921   4.304   4.613   1.493
 2341SOL    HW1 7922   4.308   4.697   1.439
 2341SOL    HW2 7923   4.384   4.609   1.554
 2342SOL     OW 7924   0.092   0.122   5.280
 2342SOL    HW1 7925   0.015   0.167   5.235
 2342SOL    HW2 7926   0.097   0.027   5.250
 2343SOL     OW 7927   2.328   5.844   2.775
 2343SOL    HW1 7928   2.302   5.829   2.870
 2343SOL    HW2 7929   2.290   5.931   2.743
 2344SOL     OW 7930   1.991   6.446   0.108
 2344SOL    HW1 7931   1.908   6.393   0.127
 2344SOL    HW2 7932   2.035   6.469   0.195
 2345SOL     OW 7933   3.693   5.543   4.557
 2345SOL    HW1 7934   3.714   5.640   4.555
 2345SOL    HW2 7935   3.629   5.525   4.632
 2346SOL     OW 7936   4.382   2.986   5.393
 2346SOL    HW1 7937   4.450   2.940   5.337
 2346SOL    HW2 7938   4.411   2.986   5.489
 2347SOL     OW 7939   2.650   3.001   1.635
 2347SOL    HW1 7940   2.718   3.033   1.702
 2347SOL    HW2 7941   2.587   2.938   1.680
 2348SOL     OW 7942   2.693   6.991   3.809
 2348SOL    HW1 7943   2.787   6.959   3.799
 2348SOL    HW2 7944   2.645   6.980   3.722
 2349SOL     OW 7945   0.671   4.060   6.300
 2349SOL    HW1 7946   0.574   4.064   6.278
 2349SOL    HW2 7947   0.695   3.969   6.333
 2350SOL     OW 7948   4.456   6.843   6.433
 2350SOL    HW1 7949   4.542   6.853   6.382
 2350SOL    HW2 7950   4.419   6.751   6.418
 2351SOL     OW 7951   2.785   5.207   3.859
 2351SOL    HW1 7952   2.754   5.136   3.922
 2351SOL    HW2 7953   2.883   5.195   3.841
 2352SOL     OW 7954   0.824   5.664   1.954
 2352SOL    HW1 7955   0.912   5.665   2.001
 2352SOL    HW2 7956   0.755   5.709   2.010
 2353SOL     OW 7957   2.845   4.532   5.885
 2353SOL    HW1 7958   2.862   4.435   5.905
 2353SOL    HW2 7959   2.791   4.540   5.801
 2354SOL     OW 7960   3.027   1.491   5.858
 2354SOL    HW1 7961   3.028   1.549   5.776
 2354SOL    HW2 7962   2.932   1.467   5.880
 2355SOL     OW 7963   2.582   5.527   0.400
 2355SOL    HW1 7964   2.645   5.450   0.390
 2355SOL    HW2 7965   2.556   5.536   0.496
 2356SOL     OW 7966   1.455   3.771   0.055
 2356SOL    HW1 7967   1.413   3.689   0.093
 2356SOL    HW2 7968   1.444   3.772   6.986
 2357SOL     OW 7969   4.589   6.623   3.058
 2357SOL    HW1 7970   4.644   6.695   3.100
 2357SOL    HW2 7971   4.540   6.659   2.979
 2358SOL     OW 7972   4.089   5.116   5.265
 2358SOL    HW1 7973   4.123   5.023   5.251
 2358SOL    HW2 7974   4.009   5.132   5.207
 2359SOL     OW 7975   6.590   0.875   6.068
 2359SOL    HW1 7976   6.668   0.816   6.088
 2359SOL    HW2 7977   6.535   0.833   5.996
 2360SOL     OW 7978   5.773   4.692   0.030
 2360SOL    HW1 7979   5.856   4.712   7.009
 2360SOL    HW2 7980   5.726   4.615   7.018
 2361SOL     OW 7981   2.299   0.598   4.680
 2361SOL    HW1 7982   2.230   0.605   4.608
 2361SOL    HW2 7983   2.318   0.689   4.717
 2362SOL     OW 7984   2.277   0.249   5.103
 2362SOL    HW1 7985   2.188   0.294   5.097
 2362SOL    HW2 7986   2.337   0.303   5.163
 2363SOL     OW 7987   4.300   2.222   5.253
 2363SOL    HW1 7988   4.218   2.198   5.202
 2363SOL    HW2 7989   4.376   2.164   5.223
 2364SOL     OW 7990   0.979   1.820   2.266
 2364SOL    HW1 7991   1.079   1.813   2.269
 2364SOL    HW2 7992   0.953   1.901   2.213
 2365SOL     OW 7993   6.509   3.039   6.453
 2365SOL    HW1 7994   6.480   2.947   6.479
 2365SOL    HW2 7995   6.469   3.106   6.515
 2366SOL     OW 7996   1.060   5.285   6.139
 2366SOL    HW1 7997   1.096   5.367   6.184
 2366SOL    HW2 7998   1.075   5.292   6.040
 2367SOL     OW 7999   3.269   4.801   0.683
 2367SOL    HW1 8000   3.274   4.821   0.780
 2367SOL    HW2 8001   3.361   4.794   0.644
 2368SOL     OW 8002   4.616   0.334   2.927
 2368SOL    HW1 8003   4.651   0.290   3.010
 2368SOL    HW2 8004   4.683   0.325   2.853
 2369SOL     OW 8005   0.923   2.409   5.832
 2369SOL    HW1 8006   0.906   2.444   5.740
 2369SOL    HW2 8007   1.016   2.375   5.839
 2370SOL     OW 8008   5.077   3.555   7.026
 2370SOL    HW1 8009   5.093   3.615   0.074
 2370SOL    HW2 8010   5.006   3.594   6.968
 2371SOL     OW 8011   0.447   6.866   2.090
 2371SOL    HW1 8012   0.476   6.800   2.022
 2371SOL    HW2 8013   0.474   6.835   2.181
 2372SOL     OW 8014   6.700   2.462   1.923
 2372SOL    HW1 8015   6.756   2.380   1.910
 2372SOL    HW2 8016   6.629   2.444   1.991
 2373SOL     OW 8017   0.568   1.234   0.241
 2373SOL    HW1 8018   0.537   1.228   0.146
 2373SOL    HW2 8019   0.521   1.164   0.296
 2374SOL     OW 8020   6.214   1.090   3.632
 2374SOL    HW1 8021   6.234   1.180   3.594
 2374SOL    HW2 8022   6.294   1.031   3.622
 2375SOL     OW 8023   2.588   7.005   4.706
 2375SOL    HW1 8024   2.670   6.957   4.738
 2375SOL    HW2 8025   2.532   6.943   4.651
 2376SOL     OW 8026   6.189   2.463   4.271
 2376SOL    HW1 8027   6.229   2.398   4.336
 2376SOL    HW2 8028   6.191   2.423   4.179
 2377SOL     OW 8029   3.574   3.977   3.060
 2377SOL    HW1 8030   3.607   4.025   3.142
 2377SOL    HW2 8031   3.488   4.018   3.031
 2378SOL     OW 8032   5.227   2.618   6.980
 2378SOL    HW1 8033   5.149   2.675   6.954
 2378SOL    HW2 8034   5.250   2.634   0.045
 2379SOL     OW 8035   5.581   2.500   6.875
 2379SOL    HW1 8036   5.512   2.435   6.843
 2379SOL    HW2 8037   5.546   2.593   6.863
 2380SOL     OW 8038   0.565   0.294   5.045
 2380SOL    HW1 8039   0.476   0.277   5.087
 2380SOL    HW2 8040   0.551   0.339   4.956
 2381SOL     OW 8041   1.906   3.659   4.198
 2381SOL    HW1 8042   1.908   3.565   4.232
 2381SOL    HW2 8043   1.979   3.712   4.241
 2382SOL     OW 8044   2.356   4.398   3.858
 2382SOL    HW1 8045   2.360   4.315   3.802
 2382SOL    HW2 8046   2.302   4.381   3.940
 2383SOL     OW 8047   6.074   6.615   0.813
 2383SOL    HW1 8048   6.164   6.574   0.798
 2383SOL    HW2 8049   6.081   6.715   0.808
 2384SOL     OW 8050   6.567   6.855   2.377
 2384SOL    HW1 8051   6.526   6.781   2.323
 2384SOL    HW2 8052   6.603   6.818   2.463
 2385SOL     OW 8053   0.676   6.516   1.072
 2385SOL    HW1 8054   0.679   6.566   1.158
 2385SOL    HW2 8055   0.584   6.478   1.059
 2386SOL     OW 8056   5.104   5.321   4.125
 2386SOL    HW1 8057   5.193   5.343   4.165
 2386SOL    HW2 8058   5.088   5.379   4.046
 2387SOL     OW 8059   1.180   1.266   3.571
 2387SOL    HW1 8060   1.125   1.254   3.654
 2387SOL    HW2 8061   1.189   1.364   3.552
 2388SOL     OW 8062   1.719   2.194   3.504
 2388SOL    HW1 8063   1.683   2.287   3.520
 2388SOL    HW2 8064   1.682   2.159   3.418
 2389SOL     OW 8065   4.887   3.874   2.856
 2389SOL    HW1 8066   4.873   3.812   2.933
 2389SOL    HW2 8067   4.825   3.952   2.865
 2390SOL     OW 8068   3.847   3.927   3.379
 2390SOL    HW1 8069   3.931   3.903   3.427
 2390SOL    HW2 8070   3.785   3.849   3.379
 2391SOL     OW 8071   4.966   4.660   5.745
 2391SOL    HW1 8072   4.947   4.705   5.833
 2391SOL    HW2 8073   4.936   4.565   5.749
 2392SOL     OW 8074   3.626   6.750   5.424
 2392SOL    HW1 8075   3.680   6.711   5.499
 2392SOL    HW2 8076   3.674   6.829   5.386
 2393SOL     OW 8077   4.831   4.374   6.196
 2393SOL    HW1 8078   4.790   4.387   6.286
 2393SOL    HW2 8079   4.890   4.294   6.197
 2394SOL     OW 8080   1.877   3.322   4.238
 2394SOL    HW1 8081   1.843   3.232   4.213
 2394SOL    HW2 8082   1.977   3.322   4.240
 2395SOL     OW 8083   6.571   2.722   6.955
 2395SOL    HW1 8084   6.654   2.674   6.926
 2395SOL    HW2 8085   6.497   2.657   6.969
 2396SOL     OW 8086   4.145   5.355   1.324
 2396SOL    HW1 8087   4.239   5.389   1.325
 2396SOL    HW2 8088   4.124   5.314   1.413
 2397SOL     OW 8089   0.607   4.239   6.955
 2397SOL    HW1 8090   0.680   4.253   6.888
 2397SOL    HW2 8091   0.641   4.261   0.015
 2398SOL     OW 8092   3.068   3.725   6.567
 2398SOL    HW1 8093   3.168   3.725   6.573
 2398SOL    HW2 8094   3.034   3.819   6.567
 2399SOL     OW 8095   5.034   1.390   2.408
 2399SOL    HW1 8096   4.953   1.447   2.393
 2399SOL    HW2 8097   5.046   1.376   2.506
 2400SOL     OW 8098   3.550   4.769   0.200
 2400SOL    HW1 8099   3.588   4.788   0.291
 2400SOL    HW2 8100   3.560   4.671   0.180
 2401SOL     OW 8101   3.862   6.660   6.768
 2401SOL    HW1 8102   3.841   6.726   6.840
 2401SOL    HW2 8103   3.953   6.679   6.732
 2402SOL     OW 8104   0.365   0.662   3.835
 2402SOL    HW1 8105   0.420   0.681   3.753
 2402SOL    HW2 8106   0.304   0.739   3.853
 2403SOL     OW 8107   2.362   2.475   0.924
 2403SOL    HW1 8108   2.319   2.505   0.839
 2403SOL    HW2 8109   2.449   2.431   0.904
 2404SOL     OW 8110   4.846   1.318   1.096
 2404SOL    HW1 8111   4.917   1.321   1.026
 2404SOL    HW2 8112   4.866   1.243   1.159
 2405SOL     OW 8113   3.678   3.568   2.793
 2405SOL    HW1 8114   3.729   3.492   2.754
 2405SOL    HW2 8115   3.726   3.654   2.773
 2406SOL     OW 8116   2.525   6.342   3.299
 2406SOL    HW1 8117   2.602   6.330   3.236
 2406SOL    HW2 8118   2.459   6.268   3.286
 2407SOL     OW 8119   5.102   2.194   2.546
 2407SOL    HW1 8120   5.119   2.261   2.619
 2407SOL    HW2 8121   5.033   2.229   2.484
 2408SOL     OW 8122   4.350   4.671   3.883
 2408SOL    HW1 8123   4.410   4.746   3.912
 2408SOL    HW2 8124   4.407   4.595   3.851
 2409SOL     OW 8125   1.085   3.390   1.946
 2409SOL    HW1 8126   1.051   3.482   1.927
 2409SOL    HW2 8127   1.169   3.374   1.893
 2410SOL     OW 8128   5.100   2.607   6.304
 2410SOL    HW1 8129   5.055   2.602   6.215
 2410SOL    HW2 8130   5.191   2.565   6.298
 2411SOL     OW 8131   4.047   5.246   5.731
 2411SOL    HW1 8132   4.116   5.293   5.676
 2411SOL    HW2 8133   4.062   5.266   5.828
 2412SOL     OW 8134   4.284   4.817   0.965
 2412SOL    HW1 8135   4.318   4.781   0.878
 2412SOL    HW2 8136   4.340   4.895   0.992
 2413SOL     OW 8137   6.372   2.334   0.554
 2413SOL    HW1 8138   6.363   2.408   0.621
 2413SOL    HW2 8139   6.314   2.257   0.581
 2414SOL     OW 8140   4.836   3.823   2.313
 2414SOL    HW1 8141   4.819   3.866   2.401
 2414SOL    HW2 8142   4.774   3.862   2.244
 2415SOL     OW 8143   6.942   6.929   1.722
 2415SOL    HW1 8144   6.855   6.953   1.679
 2415SOL    HW2 8145   6.930   6.925   1.821
 2416SOL     OW 8146   4.024   2.030   5.292
 2416SOL    HW1 8147   3.977   2.117   5.307
 2416SOL    HW2 8148   3.985   1.960   5.352
 2417SOL     OW 8149   4.001   3.737   6.095
 2417SOL    HW1 8150   3.937   3.781   6.032
 2417SOL    HW2 8151   3.967   3.748   6.189
 2418SOL     OW 8152   3.320   4.127   3.780
 2418SOL    HW1 8153   3.238   4.176   3.808
 2418SOL    HW2 8154   3.353   4.072   3.857
 2419SOL     OW 8155   1.158   6.123   4.585
 2419SOL    HW1 8156   1.201   6.059   4.522
 2419SOL    HW2 8157   1.095   6.182   4.534
 2420SOL     OW 8158   3.334   1.639   1.647
 2420SOL    HW1 8159   3.428   1.606   1.640
 2420SOL    HW2 8160   3.278   1.596   1.576
 2421SOL     OW 8161   3.053   1.355   5.338
 2421SOL    HW1 8162   3.020   1.432   5.283
 2421SOL    HW2 8163   2.976   1.311   5.385
 2422SOL     OW 8164   5.874   0.243   1.654
 2422SOL    HW1 8165   5.907   0.155   1.620
 2422SOL    HW2 8166   5.887   0.247   1.753
 2423SOL     OW 8167   1.527   6.602   3.713
 2423SOL    HW1 8168   1.477   6.571   3.794
 2423SOL    HW2 8169   1.583   6.682   3.737
 2424SOL     OW 8170   6.185   6.463   6.440
 2424SOL    HW1 8171   6.120   6.420   6.377
 2424SOL    HW2 8172   6.149   6.552   6.469
 2425SOL     OW 8173   6.575   0.425   4.026
 2425SOL    HW1 8174   6.526   0.378   4.099
 2425SOL    HW2 8175   6.659   0.374   4.004
 2426SOL     OW 8176   1.312   5.622   4.421
 2426SOL    HW1 8177   1.357   5.655   4.339
 2426SOL    HW2 8178   1.306   5.522   4.417
 2427SOL     OW 8179   5.750   5.147   6.074
 2427SOL    HW1 8180   5.656   5.150   6.041
 2427SOL    HW2 8181   5.782   5.241   6.092
 2428SOL     OW 8182   6.192   0.254   3.438
 2428SOL    HW1 8183   6.261   0.227   3.371
 2428SOL    HW2 8184   6.227   0.238   3.531
 2429SOL     OW 8185   5.903   5.140   4.015
 2429SOL    HW1 8186   5.872   5.100   3.929
 2429SOL    HW2 8187   5.986   5.194   4.000
 2430SOL     OW 8188   6.233   1.628   1.287
 2430SOL    HW1 8189   6.241   1.541   1.336
 2430SOL    HW2 8190   6.316   1.644   1.233
 2431SOL     OW 8191   4.244   0.814   2.169
 2431SOL    HW1 8192   4.196   0.744   2.222
 2431SOL    HW2 8193   4.262   0.893   2.228
 2432SOL     OW 8194   3.415   6.755   3.120
 2432SOL    HW1 8195   3.461   6.825   3.175
 2432SOL    HW2 8196   3.410   6.670   3.172
 2433SOL     OW 8197   3.485   0.565   1.502
 2433SOL    HW1 8198   3.401   0.597   1.546
 2433SOL    HW2 8199   3.546   0.527   1.571
 2434SOL     OW 8200   4.218   0.804   5.076
 2434SOL    HW1 8201   4.194   0.708   5.089
 2434SOL    HW2 8202   4.262   0.816   4.986
 2435SOL     OW 8203   4.059   4.534   6.124
 2435SOL    HW1 8204   4.118   4.587   6.185
 2435SOL    HW2 8205   4.087   4.548   6.029
 2436SOL     OW 8206   1.827   6.378   1.518
 2436SOL    HW1 8207   1.815   6.461   1.465
 2436SOL    HW2 8208   1.895   6.393   1.589
 2437SOL     OW 8209   4.643   6.007   0.378
 2437SOL    HW1 8210   4.563   5.955   0.408
 2437SOL    HW2 8211   4.718   5.993   0.442
 2438SOL     OW 8212   3.728   1.091   6.044
 2438SOL    HW1 8213   3.783   1.145   5.979
 2438SOL    HW2 8214   3.789   1.039   6.104
 2439SOL     OW 8215   0.838   4.440   6.234
 2439SOL    HW1 8216   0.762   4.376   6.239
 2439SOL    HW2 8217   0.917   4.394   6.193
 2440SOL     OW 8218   5.677   5.842   5.971
 2440SOL    HW1 8219   5.750   5.902   5.940
 2440SOL    HW2 8220   5.628   5.885   6.047
 2441SOL     OW 8221   0.382   0.273   0.329
 2441SOL    HW1 8222   0.479   0.248   0.326
 2441SOL    HW2 8223   0.337   0.241   0.245
 2442SOL     OW 8224   6.587   4.516   4.589
 2442SOL    HW1 8225   6.642   4.475   4.516
 2442SOL    HW2 8226   6.522   4.448   4.624
 2443SOL     OW 8227   4.319   6.106   5.918
 2443SOL    HW1 8228   4.404   6.154   5.938
 2443SOL    HW2 8229   4.316   6.083   5.821
 2444SOL     OW 8230   3.390   4.109   6.049
 2444SOL    HW1 8231   3.399   4.095   5.950
 2444SOL    HW2 8232   3.419   4.026   6.097
 2445SOL     OW 8233   0.181   0.487   2.023
 2445SOL    HW1 8234   0.173   0.438   1.937
 2445SOL    HW2 8235   0.163   0.584   2.009
 2446SOL     OW 8236   0.601   4.413   3.688
 2446SOL    HW1 8237   0.518   4.445   3.642
 2446SOL    HW2 8238   0.583   4.324   3.730
 2447SOL     OW 8239   2.920   2.291   0.772
 2447SOL    HW1 8240   2.956   2.315   0.862
 2447SOL    HW2 8241   2.854   2.360   0.743
 2448SOL     OW 8242   0.073   0.621   4.914
 2448SOL    HW1 8243   7.024   0.572   4.878
 2448SOL    HW2 8244   0.135   0.645   4.838
 2449SOL     OW 8245   0.483   5.015   1.055
 2449SOL    HW1 8246   0.387   4.988   1.061
 2449SOL    HW2 8247   0.535   4.968   1.126
 2450SOL     OW 8248   2.686   4.683   3.379
 2450SOL    HW1 8249   2.636   4.607   3.338
 2450SOL    HW2 8250   2.756   4.715   3.316
 2451SOL     OW 8251   0.610   6.883   3.623
 2451SOL    HW1 8252   0.563   6.813   3.677
 2451SOL    HW2 8253   0.603   6.971   3.669
 2452SOL     OW 8254   1.523   3.178   2.779
 2452SOL    HW1 8255   1.613   3.221   2.769
 2452SOL    HW2 8256   1.480   3.210   2.864
 2453SOL     OW 8257   5.926   3.925   0.622
 2453SOL    HW1 8258   6.009   3.892   0.666
 2453SOL    HW2 8259   5.851   3.925   0.688
 2454SOL     OW 8260   3.204   1.063   0.794
 2454SOL    HW1 8261   3.239   1.153   0.768
 2454SOL    HW2 8262   3.113   1.072   0.835
 2455SOL     OW 8263   5.361   6.276   0.711
 2455SOL    HW1 8264   5.403   6.226   0.635
 2455SOL    HW2 8265   5.268   6.302   0.686
 2456SOL     OW 8266   5.731   6.700   0.601
 2456SOL    HW1 8267   5.637   6.691   0.567
 2456SOL    HW2 8268   5.739   6.782   0.657
 2457SOL     OW 8269   6.937   6.245   0.653
 2457SOL    HW1 8270   6.934   6.333   0.701
 2457SOL    HW2 8271   6.848   6.226   0.613
 2458SOL     OW 8272   2.720   5.975   3.372
 2458SOL    HW1 8273   2.800   5.922   3.345
 2458SOL    HW2 8274   2.639   5.916   3.375
 2459SOL     OW 8275   2.793   6.822   0.409
 2459SOL    HW1 8276   2.738   6.788   0.485
 2459SOL    HW2 8277   2.842   6.904   0.438
 2460SOL     OW 8278   2.109   0.470   1.404
 2460SOL    HW1 8279   2.186   0.407   1.390
 2460SOL    HW2 8280   2.025   0.417   1.416
 2461SOL     OW 8281   4.661   0.670   2.924
 2461SOL    HW1 8282   4.700   0.604   2.861
 2461SOL    HW2 8283   4.590   0.723   2.878
 2462SOL     OW 8284   2.317   5.529   6.981
 2462SOL    HW1 8285   2.351   5.491   0.036
 2462SOL    HW2 8286   2.391   5.533   6.913
 2463SOL     OW 8287   5.853   2.800   4.393
 2463SOL    HW1 8288   5.869   2.814   4.295
 2463SOL    HW2 8289   5.933   2.755   4.433
 2464SOL     OW 8290   1.219   5.028   1.610
 2464SOL    HW1 8291   1.142   4.965   1.607
 2464SOL    HW2 8292   1.252   5.046   1.517
 2465SOL     OW 8293   0.043   5.266   1.181
 2465SOL    HW1 8294   0.138   5.244   1.160
 2465SOL    HW2 8295   0.033   5.279   1.280
 2466SOL     OW 8296   3.396   0.804   1.796
 2466SOL    HW1 8297   3.354   0.885   1.756
 2466SOL    HW2 8298   3.325   0.741   1.826
 2467SOL     OW 8299   5.831   1.034   5.644
 2467SOL    HW1 8300   5.884   1.081   5.714
 2467SOL    HW2 8301   5.888   0.966   5.598
 2468SOL     OW 8302   6.257   6.067   1.871
 2468SOL    HW1 8303   6.286   6.159   1.844
 2468SOL    HW2 8304   6.187   6.073   1.941
 2469SOL     OW 8305   3.682   4.804   5.300
 2469SOL    HW1 8306   3.615   4.733   5.277
 2469SOL    HW2 8307   3.660   4.842   5.389
 2470SOL     OW 8308   2.922   3.948   6.536
 2470SOL    HW1 8309   2.957   3.978   6.447
 2470SOL    HW2 8310   2.923   4.024   6.600
 2471SOL     OW 8311   2.058   6.721   1.468
 2471SOL    HW1 8312   2.119   6.649   1.501
 2471SOL    HW2 8313   2.096   6.810   1.491
 2472SOL     OW 8314   5.835   1.629   4.634
 2472SOL    HW1 8315   5.743   1.621   4.596
 2472SOL    HW2 8316   5.849   1.559   4.704
 2473SOL     OW 8317   2.295   4.142   4.571
 2473SOL    HW1 8318   2.310   4.225   4.518
 2473SOL    HW2 8319   2.307   4.162   4.668
 2474SOL     OW 8320   6.674   5.344   0.297
 2474SOL    HW1 8321   6.725   5.310   0.377
 2474SOL    HW2 8322   6.627   5.428   0.322
 2475SOL     OW 8323   4.742   1.810   0.775
 2475SOL    HW1 8324   4.715   1.739   0.840
 2475SOL    HW2 8325   4.796   1.879   0.823
 2476SOL     OW 8326   0.158   2.559   3.355
 2476SOL    HW1 8327   0.231   2.609   3.308
 2476SOL    HW2 8328   0.098   2.624   3.401
 2477SOL     OW 8329   6.107   0.055   2.027
 2477SOL    HW1 8330   6.103   0.067   2.126
 2477SOL    HW2 8331   6.200   0.031   1.999
 2478SOL     OW 8332   5.303   6.572   2.962
 2478SOL    HW1 8333   5.228   6.509   2.942
 2478SOL    HW2 8334   5.366   6.529   3.026
 2479SOL     OW 8335   0.541   3.385   1.424
 2479SOL    HW1 8336   0.604   3.308   1.410
 2479SOL    HW2 8337   0.497   3.375   1.513
 2480SOL     OW 8338   6.698   2.644   0.861
 2480SOL    HW1 8339   6.724   2.612   0.952
 2480SOL    HW2 8340   6.659   2.568   0.810
 2481SOL     OW 8341   3.412   6.042   0.331
 2481SOL    HW1 8342   3.493   5.988   0.306
 2481SOL    HW2 8343   3.387   6.022   0.425
 2482SOL     OW 8344   4.512   2.911   5.621
 2482SOL    HW1 8345   4.522   2.818   5.656
 2482SOL    HW2 8346   4.601   2.955   5.617
 2483SOL     OW 8347   2.180   1.378   0.670
 2483SOL    HW1 8348   2.101   1.437   0.687
 2483SOL    HW2 8349   2.252   1.398   0.737
 2484SOL     OW 8350   1.960   0.854   0.667
 2484SOL    HW1 8351   2.019   0.792   0.615
 2484SOL    HW2 8352   1.882   0.880   0.611
 2485SOL     OW 8353   4.865   5.027   3.117
 2485SOL    HW1 8354   4.870   4.933   3.083
 2485SOL    HW2 8355   4.920   5.086   3.058
 2486SOL     OW 8356   2.326   5.959   2.276
 2486SOL    HW1 8357   2.346   6.049   2.316
 2486SOL    HW2 8358   2.272   5.905   2.341
 2487SOL     OW 8359   3.983   6.142   0.708
 2487SOL    HW1 8360   4.046   6.065   0.719
 2487SOL    HW2 8361   4.010   6.215   0.770
 2488SOL     OW 8362   2.727   4.060   1.649
 2488SOL    HW1 8363   2.813   4.011   1.636
 2488SOL    HW2 8364   2.745   4.153   1.678
 2489SOL     OW 8365   2.522   4.922   4.162
 2489SOL    HW1 8366   2.465   4.998   4.130
 2489SOL    HW2 8367   2.618   4.950   4.163
 2490SOL     OW 8368   6.237   4.926   1.174
 2490SOL    HW1 8369   6.192   4.837   1.162
 2490SOL    HW2 8370   6.320   4.914   1.229
 2491SOL     OW 8371   2.973   5.928   3.218
 2491SOL    HW1 8372   3.018   5.964   3.300
 2491SOL    HW2 8373   3.040   5.922   3.143
 2492SOL     OW 8374   3.755   3.277   6.438
 2492SOL    HW1 8375   3.700   3.352   6.474
 2492SOL    HW2 8376   3.848   3.282   6.475
 2493SOL     OW 8377   6.204   0.084   2.934
 2493SOL    HW1 8378   6.136   0.118   2.998
 2493SOL    HW2 8379   6.295   0.096   2.973
 2494SOL     OW 8380   4.879   3.247   2.696
 2494SOL    HW1 8381   4.969   3.204   2.703
 2494SOL    HW2 8382   4.870   3.292   2.608
 2495SOL     OW 8383   5.432   0.938   5.314
 2495SOL    HW1 8384   5.412   0.870   5.244
 2495SOL    HW2 8385   5.464   1.022   5.270
 2496SOL     OW 8386   0.939   4.996   0.355
 2496SOL    HW1 8387   0.903   5.028   0.442
 2496SOL    HW2 8388   0.877   4.927   0.317
 2497SOL     OW 8389   0.339   1.539   0.032
 2497SOL    HW1 8390   0.273   1.474   7.024
 2497SOL    HW2 8391   0.383   1.499   0.112
 2498SOL     OW 8392   2.352   2.789   3.384
 2498SOL    HW1 8393   2.294   2.770   3.305
 2498SOL    HW2 8394   2.338   2.719   3.453
 2499SOL     OW 8395   5.476   0.940   4.753
 2499SOL    HW1 8396   5.469   0.989   4.666
 2499SOL    HW2 8397   5.565   0.893   4.758
 2500SOL     OW 8398   4.665   3.941   5.597
 2500SOL    HW1 8399   4.717   3.961   5.514
 2500SOL    HW2 8400   4.617   3.854   5.586
 2501SOL     OW 8401   6.350   4.842   6.848
 2501SOL    HW1 8402   6.340   4.926   6.795
 2501SOL    HW2 8403   6.402   4.775   6.795
 2502SOL     OW 8404   2.889   6.437   3.896
 2502SOL    HW1 8405   2.968   6.388   3.933
 2502SOL    HW2 8406   2.881   6.526   3.940
 2503SOL     OW 8407   3.787   5.886   5.814
 2503SOL    HW1 8408   3.728   5.922   5.886
 2503SOL    HW2 8409   3.870   5.942   5.808
 2504SOL     OW 8410   2.624   5.032   5.113
 2504SOL    HW1 8411   2.624   4.954   5.174
 2504SOL    HW2 8412   2.646   5.003   5.020
 2505SOL     OW 8413   3.788   5.884   4.692
 2505SOL    HW1 8414   3.742   5.858   4.608
 2505SOL    HW2 8415   3.792   5.984   4.699
 2506SOL     OW 8416   6.892   3.213   6.341
 2506SOL    HW1 8417   6.888   3.144   6.413
 2506SOL    HW2 8418   6.799   3.247   6.323
 2507SOL     OW 8419   5.749   5.022   0.480
 2507SOL    HW1 8420   5.676   5.087   0.458
 2507SOL    HW2 8421   5.751   5.006   0.578
 2508SOL     OW 8422   2.701   2.172   1.923
 2508SOL    HW1 8423   2.766   2.227   1.975
 2508SOL    HW2 8424   2.718   2.184   1.825
 2509SOL     OW 8425   5.508   1.710   2.252
 2509SOL    HW1 8426   5.464   1.621   2.263
 2509SOL    HW2 8427   5.483   1.769   2.328
 2510SOL     OW 8428   2.486   4.550   0.426
 2510SOL    HW1 8429   2.469   4.512   0.517
 2510SOL    HW2 8430   2.550   4.626   0.434
 2511SOL     OW 8431   1.390   1.552   4.946
 2511SOL    HW1 8432   1.472   1.582   4.995
 2511SOL    HW2 8433   1.404   1.561   4.848
 2512SOL     OW 8434   5.367   4.547   4.546
 2512SOL    HW1 8435   5.336   4.584   4.633
 2512SOL    HW2 8436   5.362   4.618   4.475
 2513SOL     OW 8437   0.729   2.427   6.017
 2513SOL    HW1 8438   0.761   2.499   6.078
 2513SOL    HW2 8439   0.787   2.424   5.935
 2514SOL     OW 8440   0.305   2.137   4.283
 2514SOL    HW1 8441   0.391   2.124   4.333
 2514SOL    HW2 8442   0.321   2.194   4.203
 2515SOL     OW 8443   1.266   6.842   0.793
 2515SOL    HW1 8444   1.207   6.873   0.719
 2515SOL    HW2 8445   1.215   6.842   0.879
 2516SOL     OW 8446   5.911   5.145   2.977
 2516SOL    HW1 8447   5.977   5.098   2.917
 2516SOL    HW2 8448   5.845   5.079   3.011
 2517SOL     OW 8449   2.182   4.509   6.337
 2517SOL    HW1 8450   2.084   4.531   6.336
 2517SOL    HW2 8451   2.194   4.410   6.329
 2518SOL     OW 8452   1.975   2.877   0.086
 2518SOL    HW1 8453   1.936   2.822   0.011
 2518SOL    HW2 8454   2.005   2.965   0.050
 2519SOL     OW 8455   4.442   5.153   4.263
 2519SOL    HW1 8456   4.498   5.135   4.182
 2519SOL    HW2 8457   4.474   5.096   4.338
 2520SOL     OW 8458   1.400   2.651   0.749
 2520SOL    HW1 8459   1.361   2.742   0.755
 2520SOL    HW2 8460   1.498   2.656   0.766
 2521SOL     OW 8461   0.944   0.243   5.847
 2521SOL    HW1 8462   0.881   0.168   5.868
 2521SOL    HW2 8463   0.893   0.319   5.806
 2522SOL     OW 8464   1.339   2.702   4.549
 2522SOL    HW1 8465   1.336   2.625   4.486
 2522SOL    HW2 8466   1.434   2.734   4.558
 2523SOL     OW 8467   6.950   3.186   1.114
 2523SOL    HW1 8468   6.909   3.097   1.136
 2523SOL    HW2 8469   6.952   3.198   1.015
 2524SOL     OW 8470   0.411   6.429   4.153
 2524SOL    HW1 8471   0.511   6.434   4.154
 2524SOL    HW2 8472   0.379   6.381   4.234
 2525SOL     OW 8473   1.165   4.061   4.317
 2525SOL    HW1 8474   1.199   3.981   4.266
 2525SOL    HW2 8475   1.067   4.051   4.332
 2526SOL     OW 8476   0.773   3.121   5.225
 2526SOL    HW1 8477   0.827   3.162   5.299
 2526SOL    HW2 8478   0.740   3.032   5.254
 2527SOL     OW 8479   6.182   6.640   5.489
 2527SOL    HW1 8480   6.086   6.667   5.497
 2527SOL    HW2 8481   6.188   6.551   5.444
 2528SOL     OW 8482   5.459   4.913   0.782
 2528SOL    HW1 8483   5.453   4.816   0.806
 2528SOL    HW2 8484   5.444   4.924   0.684
 2529SOL     OW 8485   4.594   4.920   5.868
 2529SOL    HW1 8486   4.566   4.832   5.907
 2529SOL    HW2 8487   4.513   4.975   5.847
 2530SOL     OW 8488   1.020   6.500   3.883
 2530SOL    HW1 8489   1.095   6.441   3.853
 2530SOL    HW2 8490   1.053   6.565   3.951
 2531SOL     OW 8491   5.611   6.661   4.971
 2531SOL    HW1 8492   5.579   6.604   4.896
 2531SOL    HW2 8493   5.699   6.626   5.005
 2532SOL     OW 8494   0.604   5.814   0.837
 2532SOL    HW1 8495   0.626   5.803   0.741
 2532SOL    HW2 8496   0.555   5.734   0.870
 2533SOL     OW 8497   5.189   6.458   4.529
 2533SOL    HW1 8498   5.171   6.361   4.549
 2533SOL    HW2 8499   5.105   6.500   4.493
 2534SOL     OW 8500   2.521   0.694   3.122
 2534SOL    HW1 8501   2.445   0.708   3.185
 2534SOL    HW2 8502   2.584   0.627   3.160
 2535SOL     OW 8503   1.934   1.902   5.632
 2535SOL    HW1 8504   1.977   1.923   5.721
 2535SOL    HW2 8505   1.836   1.917   5.639
 2536SOL     OW 8506   6.668   1.918   3.837
 2536SOL    HW1 8507   6.693   1.926   3.933
 2536SOL    HW2 8508   6.614   1.998   3.810
 2537SOL     OW 8509   5.088   6.714   0.701
 2537SOL    HW1 8510   5.063   6.800   0.657
 2537SOL    HW2 8511   5.005   6.661   0.719
 2538SOL     OW 8512   1.520   4.797   4.886
 2538SOL    HW1 8513   1.505   4.698   4.877
 2538SOL    HW2 8514   1.593   4.814   4.951
 2539SOL     OW 8515   4.584   0.040   5.292
 2539SOL    HW1 8516   4.548   6.978   5.303
 2539SOL    HW2 8517   4.622   0.072   5.379
 2540SOL     OW 8518   5.621   0.957   1.180
 2540SOL    HW1 8519   5.681   0.976   1.258
 2540SOL    HW2 8520   5.552   1.030   1.173
 2541SOL     OW 8521   1.487   0.553   5.370
 2541SOL    HW1 8522   1.586   0.568   5.376
 2541SOL    HW2 8523   1.451   0.602   5.290
 2542SOL     OW 8524   4.351   2.051   4.554
 2542SOL    HW1 8525   4.355   2.080   4.458
 2542SOL    HW2 8526   4.266   2.002   4.571
 2543SOL     OW 8527   1.360   0.381   3.015
 2543SOL    HW1 8528   1.382   0.458   3.074
 2543SOL    HW2 8529   1.343   0.413   2.922
 2544SOL     OW 8530   0.280   5.019   1.895
 2544SOL    HW1 8531   0.371   5.060   1.902
 2544SOL    HW2 8532   0.270   4.975   1.806
 2545SOL     OW 8533   2.029   2.066   1.023
 2545SOL    HW1 8534   2.031   1.975   1.064
 2545SOL    HW2 8535   1.936   2.103   1.027
 2546SOL     OW 8536   0.089   3.474   1.582
 2546SOL    HW1 8537   0.061   3.408   1.513
 2546SOL    HW2 8538   0.118   3.559   1.538
 2547SOL     OW 8539   5.455   5.229   0.839
 2547SOL    HW1 8540   5.427   5.303   0.900
 2547SOL    HW2 8541   5.507   5.161   0.891
 2548SOL     OW 8542   1.678   0.241   4.844
 2548SOL    HW1 8543   1.630   0.306   4.904
 2548SOL    HW2 8544   1.765   0.281   4.816
 2549SOL     OW 8545   1.906   2.685   1.621
 2549SOL    HW1 8546   1.960   2.607   1.651
 2549SOL    HW2 8547   1.814   2.654   1.595
 2550SOL     OW 8548   5.912   0.129   6.694
 2550SOL    HW1 8549   5.840   0.096   6.754
 2550SOL    HW2 8550   5.957   0.051   6.650
 2551SOL     OW 8551   3.541   4.497   0.125
 2551SOL    HW1 8552   3.510   4.410   0.163
 2551SOL    HW2 8553   3.589   4.481   0.039
 2552SOL     OW 8554   2.335   5.245   6.503
 2552SOL    HW1 8555   2.267   5.206   6.441
 2552SOL    HW2 8556   2.396   5.173   6.535
 2553SOL     OW 8557   3.780   2.483   6.174
 2553SOL    HW1 8558   3.879   2.490   6.188
 2553SOL    HW2 8559   3.760   2.404   6.117
 2554SOL     OW 8560   2.450   5.971   6.963
 2554SOL    HW1 8561   2.432   5.879   6.928
 2554SOL    HW2 8562   2.432   6.037   6.890
 2555SOL     OW 8563   6.571   6.201   6.621
 2555SOL    HW1 8564   6.597   6.111   6.586
 2555SOL    HW2 8565   6.490   6.234   6.573
 2556SOL     OW 8566   3.928   0.393   0.769
 2556SOL    HW1 8567   3.836   0.430   0.776
 2556SOL    HW2 8568   3.938   0.344   0.683
 2557SOL     OW 8569   3.035   1.145   7.023
 2557SOL    HW1 8570   3.096   1.128   0.069
 2557SOL    HW2 8571   3.029   1.243   7.005
 2558SOL     OW 8572   4.985   4.150   6.154
 2558SOL    HW1 8573   4.922   4.076   6.180
 2558SOL    HW2 8574   4.994   4.153   6.054
 2559SOL     OW 8575   6.863   3.404   3.447
 2559SOL    HW1 8576   6.833   3.499   3.458
 2559SOL    HW2 8577   6.935   3.400   3.378
 2560SOL     OW 8578   4.930   3.664   3.587
 2560SOL    HW1 8579   4.932   3.564   3.591
 2560SOL    HW2 8580   4.896   3.701   3.673
 2561SOL     OW 8581   3.860   1.218   3.320
 2561SOL    HW1 8582   3.841   1.307   3.362
 2561SOL    HW2 8583   3.775   1.169   3.304
 2562SOL     OW 8584   3.264   6.323   3.285
 2562SOL    HW1 8585   3.208   6.326   3.367
 2562SOL    HW2 8586   3.206   6.314   3.204
 2563SOL     OW 8587   3.397   1.655   6.575
 2563SOL    HW1 8588   3.385   1.754   6.587
 2563SOL    HW2 8589   3.415   1.636   6.478
 2564SOL     OW 8590   2.214   6.945   0.712
 2564SOL    HW1 8591   2.203   6.845   0.712
 2564SOL    HW2 8592   2.285   6.970   0.646
 2565SOL     OW 8593   0.444   1.210   6.307
 2565SOL    HW1 8594   0.362   1.264   6.285
 2565SOL    HW2 8595   0.464   1.218   6.404
 2566SOL     OW 8596   2.705   6.421   1.368
 2566SOL    HW1 8597   2.735   6.353   1.435
 2566SOL    HW2 8598   2.645   6.378   1.301
 2567SOL     OW 8599   2.125   1.117   0.875
 2567SOL    HW1 8600   2.102   1.195   0.817
 2567SOL    HW2 8601   2.056   1.046   0.864
 2568SOL     OW 8602   2.960   6.889   0.973
 2568SOL    HW1 8603   2.888   6.820   0.967
 2568SOL    HW2 8604   2.930   6.972   0.926
 2569SOL     OW 8605   3.108   1.879   1.447
 2569SOL    HW1 8606   3.128   1.784   1.471
 2569SOL    HW2 8607   3.090   1.931   1.531
 2570SOL     OW 8608   5.624   5.574   5.954
 2570SOL    HW1 8609   5.616   5.529   6.043
 2570SOL    HW2 8610   5.649   5.670   5.968
 2571SOL     OW 8611   3.643   3.064   4.793
 2571SOL    HW1 8612   3.727   3.083   4.743
 2571SOL    HW2 8613   3.663   3.052   4.890
 2572SOL     OW 8614   2.742   5.952   1.650
 2572SOL    HW1 8615   2.746   5.852   1.655
 2572SOL    HW2 8616   2.835   5.989   1.653
 2573SOL     OW 8617   6.499   2.108   3.763
 2573SOL    HW1 8618   6.563   2.177   3.731
 2573SOL    HW2 8619   6.407   2.148   3.768
 2574SOL     OW 8620   6.320   3.053   0.817
 2574SOL    HW1 8621   6.393   3.109   0.855
 2574SOL    HW2 8622   6.337   2.956   0.838
 2575SOL     OW 8623   5.320   3.796   1.156
 2575SOL    HW1 8624   5.251   3.803   1.228
 2575SOL    HW2 8625   5.346   3.700   1.144
 2576SOL     OW 8626   3.739   6.810   3.475
 2576SOL    HW1 8627   3.705   6.735   3.418
 2576SOL    HW2 8628   3.838   6.815   3.467
 2577SOL     OW 8629   4.215   0.628   4.114
 2577SOL    HW1 8630   4.140   0.649   4.176
 2577SOL    HW2 8631   4.216   0.530   4.095
 2578SOL     OW 8632   5.070   3.122   5.397
 2578SOL    HW1 8633   5.015   3.091   5.319
 2578SOL    HW2 8634   5.108   3.043   5.445
 2579SOL     OW 8635   1.095   1.468   5.672
 2579SOL    HW1 8636   1.055   1.509   5.590
 2579SOL    HW2 8637   1.156   1.535   5.715
 2580SOL     OW 8638   1.683   2.963   5.552
 2580SOL    HW1 8639   1.664   2.993   5.458
 2580SOL    HW2 8640   1.774   2.995   5.579
 2581SOL     OW 8641   5.537   4.776   1.696
 2581SOL    HW1 8642   5.635   4.791   1.681
 2581SOL    HW2 8643   5.522   4.679   1.717
 2582SOL     OW 8644   2.340   4.944   3.025
 2582SOL    HW1 8645   2.308   4.852   3.005
 2582SOL    HW2 8646   2.262   5.002   3.052
 2583SOL     OW 8647   1.234   0.836   1.247
 2583SOL    HW1 8648   1.303   0.772   1.211
 2583SOL    HW2 8649   1.205   0.805   1.337
 2584SOL     OW 8650   3.887   6.603   0.749
 2584SOL    HW1 8651   3.969   6.609   0.692
 2584SOL    HW2 8652   3.885   6.681   0.813
 2585SOL     OW 8653   3.254   0.636   0.833
 2585SOL    HW1 8654   3.248   0.704   0.760
 2585SOL    HW2 8655   3.278   0.681   0.919
 2586SOL     OW 8656   5.704   1.578   5.347
 2586SOL    HW1 8657   5.629   1.525   5.387
 2586SOL    HW2 8658   5.685   1.596   5.251
 2587SOL     OW 8659   6.961   0.183   4.359
 2587SOL    HW1 8660   7.005   0.113   4.415
 2587SOL    HW2 8661   7.006   0.188   4.270
 2588SOL     OW 8662   5.268   0.180   0.866
 2588SOL    HW1 8663   5.364   0.160   0.885
 2588SOL    HW2 8664   5.256   0.280   0.858
 2589SOL     OW 8665   0.040   6.886   5.157
 2589SOL    HW1 8666   0.114   6.893   5.089
 2589SOL    HW2 8667   6.983   6.901   5.111
 2590SOL     OW 8668   3.795   0.166   2.762
 2590SOL    HW1 8669   3.705   0.204   2.784
 2590SOL    HW2 8670   3.837   0.222   2.690
 2591SOL     OW 8671   5.900   6.032   1.279
 2591SOL    HW1 8672   5.997   6.013   1.292
 2591SOL    HW2 8673   5.852   5.948   1.253
 2592SOL     OW 8674   2.972   6.426   1.824
 2592SOL    HW1 8675   3.066   6.449   1.800
 2592SOL    HW2 8676   2.966   6.330   1.850
 2593SOL     OW 8677   3.978   7.006   2.330
 2593SOL    HW1 8678   4.013   6.939   2.265
 2593SOL    HW2 8679   4.028   6.999   2.416
 2594SOL     OW 8680   0.572   6.515   5.837
 2594SOL    HW1 8681   0.475   6.529   5.858
 2594SOL    HW2 8682   0.599   6.575   5.762
 2595SOL     OW 8683   0.326   2.361   5.399
 2595SOL    HW1 8684   0.235   2.359   5.440
 2595SOL    HW2 8685   0.388   2.303   5.452
 2596SOL     OW 8686   3.686   2.573   1.740
 2596SOL    HW1 8687   3.682   2.480   1.778
 2596SOL    HW2 8688   3.638   2.636   1.801
 2597SOL     OW 8689   1.876   4.164   0.997
 2597SOL    HW1 8690   1.961   4.196   0.956
 2597SOL    HW2 8691   1.896   4.123   1.086
 2598SOL     OW 8692   5.862   3.002   4.602
 2598SOL    HW1 8693   5.800   2.931   4.569
 2598SOL    HW2 8694   5.913   3.040   4.524
 2599SOL     OW 8695   3.938   6.017   6.656
 2599SOL    HW1 8696   3.992   5.952   6.602
 2599SOL    HW2 8697   3.841   5.997   6.644
 2600SOL     OW 8698   4.978   3.653   4.215
 2600SOL    HW1 8699   5.066   3.698   4.230
 2600SOL    HW2 8700   4.988   3.582   4.145
 2601SOL     OW 8701   3.552   2.473   6.691
 2601SOL    HW1 8702   3.458   2.459   6.722
 2601SOL    HW2 8703   3.612   2.409   6.738
 2602SOL     OW 8704   6.806   4.490   3.423
 2602SOL    HW1 8705   6.873   4.441   3.478
 2602SOL    HW2 8706   6.809   4.588   3.445
 2603SOL     OW 8707   2.254   2.227   1.271
 2603SOL    HW1 8708   2.208   2.272   1.194
 2603SOL    HW2 8709   2.190   2.166   1.317
 2604SOL     OW 8710   4.901   1.071   1.220
 2604SOL    HW1 8711   4.852   1.063   1.307
 2604SOL    HW2 8712   4.889   0.987   1.167
 2605SOL     OW 8713   4.083   4.840   3.309
 2605SOL    HW1 8714   4.063   4.820   3.405
 2605SOL    HW2 8715   4.169   4.890   3.303
 2606SOL     OW 8716   6.926   4.938   0.403
 2606SOL    HW1 8717   6.904   4.850   0.445
 2606SOL    HW2 8718   6.842   4.988   0.385
 2607SOL     OW 8719   0.910   1.634   5.205
 2607SOL    HW1 8720   0.876   1.635   5.111
 2607SOL    HW2 8721   0.998   1.682   5.210
 2608SOL     OW 8722   4.737   6.387   2.735
 2608SOL    HW1 8723   4.647   6.388   2.777
 2608SOL    HW2 8724   4.796   6.453   2.781
 2609SOL     OW 8725   0.934   2.358   1.582
 2609SOL    HW1 8726   1.016   2.348   1.639
 2609SOL    HW2 8727   0.860   2.302   1.619
 2610SOL     OW 8728   6.855   5.173   4.494
 2610SOL    HW1 8729   6.772   5.209   4.536
 2610SOL    HW2 8730   6.882   5.088   4.540
 2611SOL     OW 8731   6.201   6.779   1.186
 2611SOL    HW1 8732   6.283   6.736   1.150
 2611SOL    HW2 8733   6.145   6.813   1.110
 2612SOL     OW 8734   6.540   6.276   5.426
 2612SOL    HW1 8735   6.481   6.284   5.346
 2612SOL    HW2 8736   6.626   6.232   5.400
 2613SOL     OW 8737   3.088   6.174   2.618
 2613SOL    HW1 8738   3.054   6.159   2.711
 2613SOL    HW2 8739   3.187   6.158   2.615
 2614SOL     OW 8740   6.160   6.174   5.905
 2614SOL    HW1 8741   6.092   6.160   5.977
 2614SOL    HW2 8742   6.178   6.087   5.858
 2615SOL     OW 8743   6.038   4.923   3.299
 2615SOL    HW1 8744   6.115   4.946   3.240
 2615SOL    HW2 8745   5.973   4.865   3.249
 2616SOL     OW 8746   3.857   3.123   4.038
 2616SOL    HW1 8747   3.916   3.156   4.112
 2616SOL    HW2 8748   3.803   3.046   4.070
 2617SOL     OW 8749   3.010   5.895   1.294
 2617SOL    HW1 8750   3.056   5.949   1.224
 2617SOL    HW2 8751   2.915   5.880   1.267
 2618SOL     OW 8752   0.498   6.668   3.754
 2618SOL    HW1 8753   0.540   6.668   3.845
 2618SOL    HW2 8754   0.531   6.589   3.702
 2619SOL     OW 8755   3.412   1.247   2.396
 2619SOL    HW1 8756   3.329   1.217   2.445
 2619SOL    HW2 8757   3.459   1.316   2.451
 2620SOL     OW 8758   1.153   5.862   3.594
 2620SOL    HW1 8759   1.105   5.788   3.640
 2620SOL    HW2 8760   1.233   5.826   3.546
 2621SOL     OW 8761   1.586   5.797   3.496
 2621SOL    HW1 8762   1.594   5.889   3.535
 2621SOL    HW2 8763   1.661   5.781   3.432
 2622SOL     OW 8764   2.084   2.697   6.716
 2622SOL    HW1 8765   2.010   2.664   6.657
 2622SOL    HW2 8766   2.124   2.620   6.765
 2623SOL     OW 8767   4.014   1.582   4.895
 2623SOL    HW1 8768   4.113   1.594   4.905
 2623SOL    HW2 8769   3.976   1.661   4.846
 2624SOL     OW 8770   6.684   3.063   4.006
 2624SOL    HW1 8771   6.597   3.019   4.027
 2624SOL    HW2 8772   6.756   3.024   4.063
 2625SOL     OW 8773   2.033   2.890   5.212
 2625SOL    HW1 8774   2.067   2.970   5.162
 2625SOL    HW2 8775   2.050   2.903   5.310
 2626SOL     OW 8776   0.615   6.435   3.663
 2626SOL    HW1 8777   0.570   6.347   3.677
 2626SOL    HW2 8778   0.712   6.428   3.688
 2627SOL     OW 8779   0.195   0.799   4.371
 2627SOL    HW1 8780   0.232   0.885   4.405
 2627SOL    HW2 8781   0.267   0.730   4.368
 2628SOL     OW 8782   3.693   5.714   6.689
 2628SOL    HW1 8783   3.640   5.676   6.765
 2628SOL    HW2 8784   3.790   5.702   6.706
 2629SOL     OW 8785   3.678   4.010   2.073
 2629SOL    HW1 8786   3.616   3.935   2.052
 2629SOL    HW2 8787   3.720   3.995   2.162
 2630SOL     OW 8788   3.758   2.094   2.433
 2630SOL    HW1 8789   3.717   2.099   2.342
 2630SOL    HW2 8790   3.833   2.027   2.432
 2631SOL     OW 8791   4.407   6.774   3.655
 2631SOL    HW1 8792   4.347   6.854   3.665
 2631SOL    HW2 8793   4.474   6.775   3.729
 2632SOL     OW 8794   2.885   1.911   5.931
 2632SOL    HW1 8795   2.788   1.921   5.953
 2632SOL    HW2 8796   2.897   1.910   5.832
 2633SOL     OW 8797   6.705   2.396   5.974
 2633SOL    HW1 8798   6.756   2.417   6.058
 2633SOL    HW2 8799   6.717   2.300   5.951
 2634SOL     OW 8800   2.072   4.152   3.673
 2634SOL    HW1 8801   2.103   4.246   3.667
 2634SOL    HW2 8802   2.147   4.093   3.703
 2635SOL     OW 8803   5.241   5.752   3.966
 2635SOL    HW1 8804   5.298   5.773   4.046
 2635SOL    HW2 8805   5.188   5.669   3.984
 2636SOL     OW 8806   5.331   0.388   6.118
 2636SOL    HW1 8807   5.393   0.465   6.134
 2636SOL    HW2 8808   5.322   0.334   6.202
 2637SOL     OW 8809   6.146   0.687   3.680
 2637SOL    HW1 8810   6.243   0.687   3.707
 2637SOL    HW2 8811   6.097   0.754   3.736
 2638SOL     OW 8812   6.533   6.831   2.924
 2638SOL    HW1 8813   6.614   6.775   2.908
 2638SOL    HW2 8814   6.462   6.776   2.969
 2639SOL     OW 8815   6.832   6.500   1.721
 2639SOL    HW1 8816   6.819   6.448   1.636
 2639SOL    HW2 8817   6.913   6.558   1.711
 2640SOL     OW 8818   6.616   6.343   5.726
 2640SOL    HW1 8819   6.603   6.401   5.807
 2640SOL    HW2 8820   6.568   6.384   5.648
 2641SOL     OW 8821   5.959   3.035   1.420
 2641SOL    HW1 8822   5.981   3.116   1.366
 2641SOL    HW2 8823   6.033   2.969   1.411
 2642SOL     OW 8824   5.212   0.340   4.685
 2642SOL    HW1 8825   5.303   0.349   4.644
 2642SOL    HW2 8826   5.169   0.256   4.650
 2643SOL     OW 8827   0.903   4.842   3.177
 2643SOL    HW1 8828   0.866   4.763   3.129
 2643SOL    HW2 8829   0.902   4.825   3.276
 2644SOL     OW 8830   0.390   4.382   5.218
 2644SOL    HW1 8831   0.363   4.442   5.293
 2644SOL    HW2 8832   0.377   4.286   5.245
 2645SOL     OW 8833   4.674   6.811   5.505
 2645SOL    HW1 8834   4.618   6.741   5.550
 2645SOL    HW2 8835   4.696   6.781   5.412
 2646SOL     OW 8836   6.402   6.666   6.583
 2646SOL    HW1 8837   6.443   6.718   6.658
 2646SOL    HW2 8838   6.343   6.594   6.621
 2647SOL     OW 8839   5.576   0.709   0.863
 2647SOL    HW1 8840   5.496   0.766   0.846
 2647SOL    HW2 8841   5.593   0.703   0.961
 2648SOL     OW 8842   6.773   6.521   3.746
 2648SOL    HW1 8843   6.833   6.447   3.715
 2648SOL    HW2 8844   6.759   6.585   3.671
 2649SOL     OW 8845   3.968   1.863   6.179
 2649SOL    HW1 8846   4.005   1.850   6.086
 2649SOL    HW2 8847   4.041   1.892   6.240
 2650SOL     OW 8848   0.770   4.033   3.886
 2650SOL    HW1 8849   0.780   3.933   3.887
 2650SOL    HW2 8850   0.821   4.070   3.808
 2651SOL     OW 8851   1.541   1.545   0.656
 2651SOL    HW1 8852   1.484   1.465   0.639
 2651SOL    HW2 8853   1.483   1.624   0.675
 2652SOL     OW 8854   2.972   3.773   3.469
 2652SOL    HW1 8855   2.955   3.720   3.386
 2652SOL    HW2 8856   2.943   3.868   3.455
 2653SOL     OW 8857   5.016   6.881   5.094
 2653SOL    HW1 8858   5.042   6.784   5.095
 2653SOL    HW2 8859   5.094   6.936   5.064
 2654SOL     OW 8860   4.388   3.210   0.064
 2654SOL    HW1 8861   4.433   3.238   0.149
 2654SOL    HW2 8862   4.290   3.198   0.080
 2655SOL     OW 8863   4.752   4.595   4.436
 2655SOL    HW1 8864   4.701   4.647   4.368
 2655SOL    HW2 8865   4.848   4.589   4.409
 2656SOL     OW 8866   4.253   4.842   4.387
 2656SOL    HW1 8867   4.254   4.774   4.313
 2656SOL    HW2 8868   4.335   4.833   4.442
 2657SOL     OW 8869   2.556   4.417   6.284
 2657SOL    HW1 8870   2.566   4.512   6.252
 2657SOL    HW2 8871   2.570   4.354   6.208
 2658SOL     OW 8872   5.420   4.348   6.703
 2658SOL    HW1 8873   5.335   4.301   6.728
 2658SOL    HW2 8874   5.455   4.398   6.783
 2659SOL     OW 8875   6.059   2.615   4.455
 2659SOL    HW1 8876   6.121   2.581   4.385
 2659SOL    HW2 8877   6.098   2.599   4.545
 2660SOL     OW 8878   0.848   1.719   0.708
 2660SOL    HW1 8879   0.822   1.768   0.625
 2660SOL    HW2 8880   0.802   1.761   0.787
 2661SOL     OW 8881   2.466   6.657   2.058
 2661SOL    HW1 8882   2.390   6.719   2.080
 2661SOL    HW2 8883   2.477   6.653   1.959
 2662SOL     OW 8884   4.529   0.092   4.562
 2662SOL    HW1 8885   4.552   0.183   4.598
 2662SOL    HW2 8886   4.592   0.024   4.600
 2663SOL     OW 8887   2.470   5.195   0.986
 2663SOL    HW1 8888   2.447   5.146   1.070
 2663SOL    HW2 8889   2.435   5.144   0.907
 2664SOL     OW 8890   3.909   3.605   3.377
 2664SOL    HW1 8891   3.959   3.619   3.292
 2664SOL    HW2 8892   3.819   3.649   3.371
 2665SOL     OW 8893   3.383   1.893   5.062
 2665SOL    HW1 8894   3.448   1.869   4.990
 2665SOL    HW2 8895   3.291   1.899   5.023
 2666SOL     OW 8896   4.860   3.390   1.228
 2666SOL    HW1 8897   4.823   3.475   1.188
 2666SOL    HW2 8898   4.812   3.370   1.313
 2667SOL     OW 8899   1.700   5.882   4.771
 2667SOL    HW1 8900   1.602   5.901   4.763
 2667SOL    HW2 8901   1.738   5.865   4.681
 2668SOL     OW 8902   6.361   3.301   3.500
 2668SOL    HW1 8903   6.418   3.281   3.420
 2668SOL    HW2 8904   6.324   3.216   3.537
 2669SOL     OW 8905   3.104   4.587   5.636
 2669SOL    HW1 8906   3.177   4.654   5.619
 2669SOL    HW2 8907   3.124   4.503   5.586
 2670SOL     OW 8908   5.985   1.321   6.181
 2670SOL    HW1 8909   5.935   1.336   6.096
 2670SOL    HW2 8910   5.999   1.223   6.195
 2671SOL     OW 8911   3.001   4.739   0.284
 2671SOL    HW1 8912   2.958   4.829   0.287
 2671SOL    HW2 8913   3.069   4.737   0.210
 2672SOL     OW 8914   0.746   5.514   6.622
 2672SOL    HW1 8915   0.696   5.462   6.553
 2672SOL    HW2 8916   0.696   5.597   6.645
 2673SOL     OW 8917   5.152   2.726   4.060
 2673SOL    HW1 8918   5.088   2.798   4.088
 2673SOL    HW2 8919   5.208   2.700   4.138
 2674SOL     OW 8920   2.343   4.395   4.427
 2674SOL    HW1 8921   2.379   4.395   4.334
 2674SOL    HW2 8922   2.359   4.484   4.470
 2675SOL     OW 8923   0.851   4.353   5.352
 2675SOL    HW1 8924   0.925   4.417   5.332
 2675SOL    HW2 8925   0.886   4.260   5.349
 2676SOL     OW 8926   4.153   0.907   2.806
 2676SOL    HW1 8927   4.153   0.944   2.713
 2676SOL    HW2 8928   4.226   0.950   2.859
 2677SOL     OW 8929   3.541   5.117   1.288
 2677SOL    HW1 8930   3.577   5.054   1.357
 2677SOL    HW2 8931   3.601   5.196   1.280
 2678SOL     OW 8932   0.150   4.435   0.730
 2678SOL    HW1 8933   0.058   4.473   0.719
 2678SOL    HW2 8934   0.187   4.462   0.819
 2679SOL     OW 8935   4.566   5.286   1.036
 2679SOL    HW1 8936   4.655   5.254   1.067
 2679SOL    HW2 8937   4.564   5.287   0.936
 2680SOL     OW 8938   1.542   1.437   1.319
 2680SOL    HW1 8939   1.517   1.448   1.222
 2680SOL    HW2 8940   1.640   1.417   1.326
 2681SOL     OW 8941   1.258   2.488   4.376
 2681SOL    HW1 8942   1.187   2.469   4.444
 2681SOL    HW2 8943   1.279   2.404   4.326
 2682SOL     OW 8944   5.390   3.142   2.431
 2682SOL    HW1 8945   5.324   3.067   2.424
 2682SOL    HW2 8946   5.343   3.229   2.417
 2683SOL     OW 8947   1.640   3.675   0.774
 2683SOL    HW1 8948   1.567   3.658   0.840
 2683SOL    HW2 8949   1.668   3.589   0.732
 2684SOL     OW 8950   3.988   5.113   2.844
 2684SOL    HW1 8951   4.079   5.152   2.856
 2684SOL    HW2 8952   3.958   5.071   2.930
 2685SOL     OW 8953   6.895   6.491   5.153
 2685SOL    HW1 8954   6.903   6.576   5.204
 2685SOL    HW2 8955   6.883   6.512   5.056
 2686SOL     OW 8956   1.511   2.365   4.991
 2686SOL    HW1 8957   1.413   2.346   4.989
 2686SOL    HW2 8958   1.527   2.457   4.955
 2687SOL     OW 8959   4.496   4.631   2.808
 2687SOL    HW1 8960   4.474   4.616   2.904
 2687SOL    HW2 8961   4.574   4.574   2.782
 2688SOL     OW 8962   4.533   5.805   6.314
 2688SOL    HW1 8963   4.480   5.885   6.341
 2688SOL    HW2 8964   4.478   5.746   6.256
 2689SOL     OW 8965   2.374   2.081   3.495
 2689SOL    HW1 8966   2.376   2.016   3.419
 2689SOL    HW2 8967   2.361   2.174   3.460
 2690SOL     OW 8968   3.176   3.009   3.756
 2690SOL    HW1 8969   3.133   3.099   3.760
 2690SOL    HW2 8970   3.173   2.967   3.847
 2691SOL     OW 8971   1.707   5.372   2.564
 2691SOL    HW1 8972   1.633   5.305   2.561
 2691SOL    HW2 8973   1.699   5.435   2.487
 2692SOL     OW 8974   5.346   5.815   4.217
 2692SOL    HW1 8975   5.300   5.903   4.208
 2692SOL    HW2 8976   5.427   5.826   4.274
 2693SOL     OW 8977   2.137   4.258   2.850
 2693SOL    HW1 8978   2.118   4.323   2.924
 2693SOL    HW2 8979   2.088   4.173   2.867
 2694SOL     OW 8980   3.421   0.699   2.710
 2694SOL    HW1 8981   3.355   0.625   2.694
 2694SOL    HW2 8982   3.491   0.668   2.774
 2695SOL     OW 8983   5.443   1.889   2.462
 2695SOL    HW1 8984   5.485   1.979   2.472
 2695SOL    HW2 8985   5.344   1.897   2.468
 2696SOL     OW 8986   3.285   2.740   5.222
 2696SOL    HW1 8987   3.318   2.664   5.278
 2696SOL    HW2 8988   3.359   2.804   5.205
 2697SOL     OW 8989   4.903   1.927   3.906
 2697SOL    HW1 8990   4.955   1.886   3.832
 2697SOL    HW2 8991   4.933   1.888   3.993
 2698SOL     OW 8992   2.127   5.357   0.751
 2698SOL    HW1 8993   2.132   5.346   0.851
 2698SOL    HW2 8994   2.164   5.446   0.726
 2699SOL     OW 8995   3.542   5.546   0.401
 2699SOL    HW1 8996   3.497   5.483   0.337
 2699SOL    HW2 8997   3.582   5.493   0.476
 2700SOL     OW 8998   2.047   3.296   2.157
 2700SOL    HW1 8999   2.109   3.362   2.115
 2700SOL    HW2 9000   2.092   3.252   2.235
 2701SOL     OW 9001   4.092   0.166   6.457
 2701SOL    HW1 9002   4.137   0.255   6.451
 2701SOL    HW2 9003   4.158   0.094   6.433
 2702SOL     OW 9004   0.012   1.427   3.754
 2702SOL    HW1 9005   0.020   1.521   3.723
 2702SOL    HW2 9006   6.992   1.374   3.686
 2703SOL     OW 9007   2.076   0.914   2.568
 2703SOL    HW1 9008   2.056   0.975   2.491
 2703SOL    HW2 9009   2.128   0.964   2.637
 2704SOL     OW 9010   0.918   5.264   0.585
 2704SOL    HW1 9011   0.980   5.318   0.528
 2704SOL    HW2 9012   0.926   5.292   0.680
 2705SOL     OW 9013   0.979   5.313   4.103
 2705SOL    HW1 9014   0.938   5.252   4.171
 2705SOL    HW2 9015   1.005   5.399   4.147
 2706SOL     OW 9016   0.007   0.489   1.499
 2706SOL    HW1 9017   0.089   0.546   1.498
 2706SOL    HW2 9018   6.957   0.548   1.508
 2707SOL     OW 9019   2.401   0.923   5.688
 2707SOL    HW1 9020   2.379   0.833   5.650
 2707SOL    HW2 9021   2.438   0.913   5.780
 2708SOL     OW 9022   1.621   3.007   1.665
 2708SOL    HW1 9023   1.677   3.089   1.674
 2708SOL    HW2 9024   1.632   2.950   1.747
 2709SOL     OW 9025   5.515   6.353   0.951
 2709SOL    HW1 9026   5.478   6.346   0.858
 2709SOL    HW2 9027   5.442   6.335   1.017
 2710SOL     OW 9028   6.598   3.191   2.851
 2710SOL    HW1 9029   6.688   3.234   2.837
 2710SOL    HW2 9030   6.607   3.092   2.845
 2711SOL     OW 9031   2.934   0.284   2.733
 2711SOL    HW1 9032   2.886   0.231   2.664
 2711SOL    HW2 9033   2.993   0.352   2.688
 2712SOL     OW 9034   4.058   5.310   0.657
 2712SOL    HW1 9035   4.153   5.331   0.676
 2712SOL    HW2 9036   4.000   5.348   0.730
 2713SOL     OW 9037   1.578   2.806   4.446
 2713SOL    HW1 9038   1.594   2.845   4.537
 2713SOL    HW2 9039   1.553   2.879   4.383
 2714SOL     OW 9040   4.792   2.385   0.091
 2714SOL    HW1 9041   4.840   2.451   0.148
 2714SOL    HW2 9042   4.712   2.429   0.050
 2715SOL     OW 9043   5.953   0.179   0.130
 2715SOL    HW1 9044   6.039   0.154   0.175
 2715SOL    HW2 9045   5.887   0.208   0.199
 2716SOL     OW 9046   6.233   5.175   1.945
 2716SOL    HW1 9047   6.295   5.240   1.989
 2716SOL    HW2 9048   6.205   5.211   1.856
 2717SOL     OW 9049   1.320   5.635   1.943
 2717SOL    HW1 9050   1.282   5.658   2.033
 2717SOL    HW2 9051   1.388   5.703   1.917
 2718SOL     OW 9052   2.176   3.646   3.934
 2718SOL    HW1 9053   2.201   3.551   3.913
 2718SOL    HW2 9054   2.092   3.647   3.987
 2719SOL     OW 9055   5.023   4.930   1.526
 2719SOL    HW1 9056   5.048   4.924   1.429
 2719SOL    HW2 9057   5.065   4.854   1.576
 2720SOL     OW 9058   2.108   5.977   3.276
 2720SOL    HW1 9059   2.109   6.065   3.324
 2720SOL    HW2 9060   2.085   5.904   3.341
 2721SOL     OW 9061   2.937   0.128   5.482
 2721SOL    HW1 9062   2.880   0.072   5.542
 2721SOL    HW2 9063   2.884   0.157   5.403
 2722SOL     OW 9064   6.079   5.338   2.775
 2722SOL    HW1 9065   6.137   5.402   2.725
 2722SOL    HW2 9066   6.135   5.276   2.829
 2723SOL     OW 9067   1.787   0.143   6.233
 2723SOL    HW1 9068   1.810   0.093   6.150
 2723SOL    HW2 9069   1.823   0.094   6.313
 2724SOL     OW 9070   3.409   6.806   6.104
 2724SOL    HW1 9071   3.459   6.829   6.188
 2724SOL    HW2 9072   3.374   6.890   6.062
 2725SOL     OW 9073   6.220   5.009   3.100
 2725SOL    HW1 9074   6.263   5.095   3.070
 2725SOL    HW2 9075   6.180   4.963   3.021
 2726SOL     OW 9076   6.253   4.339   0.969
 2726SOL    HW1 9077   6.285   4.267   0.908
 2726SOL    HW2 9078   6.163   4.370   0.940
 2727SOL     OW 9079   0.140   4.775   2.724
 2727SOL    HW1 9080   0.237   4.798   2.729
 2727SOL    HW2 9081   0.090   4.850   2.683
 2728SOL     OW 9082   3.075   0.352   5.393
 2728SOL    HW1 9083   3.020   0.287   5.446
 2728SOL    HW2 9084   3.017   0.428   5.363
 2729SOL     OW 9085   0.032   5.761   1.676
 2729SOL    HW1 9086   0.019   5.780   1.579
 2729SOL    HW2 9087   0.107   5.817   1.711
 2730SOL     OW 9088   1.690   6.322   0.883
 2730SOL    HW1 9089   1.635   6.404   0.895
 2730SOL    HW2 9090   1.734   6.299   0.970
 2731SOL     OW 9091   3.582   3.743   1.295
 2731SOL    HW1 9092   3.488   3.763   1.268
 2731SOL    HW2 9093   3.607   3.799   1.375
 2732SOL     OW 9094   6.296   3.289   2.458
 2732SOL    HW1 9095   6.312   3.226   2.533
 2732SOL    HW2 9096   6.280   3.237   2.374
 2733SOL     OW 9097   0.153   6.931   4.902
 2733SOL    HW1 9098   0.215   6.883   4.964
 2733SOL    HW2 9099   0.204   6.963   4.822
 2734SOL     OW 9100   2.194   5.131   2.572
 2734SOL    HW1 9101   2.230   5.224   2.571
 2734SOL    HW2 9102   2.097   5.132   2.545
 2735SOL     OW 9103   0.909   3.587   2.690
 2735SOL    HW1 9104   0.870   3.504   2.730
 2735SOL    HW2 9105   0.900   3.582   2.590
 2736SOL     OW 9106   5.084   0.675   3.942
 2736SOL    HW1 9107   5.151   0.601   3.936
 2736SOL    HW2 9108   5.040   0.673   4.031
 2737SOL     OW 9109   3.196   3.273   5.601
 2737SOL    HW1 9110   3.124   3.209   5.575
 2737SOL    HW2 9111   3.283   3.224   5.608
 2738SOL     OW 9112   5.367   5.441   4.661
 2738SOL    HW1 9113   5.281   5.404   4.696
 2738SOL    HW2 9114   5.368   5.541   4.673
 2739SOL     OW 9115   6.378   4.783   0.203
 2739SOL    HW1 9116   6.279   4.771   0.210
 2739SOL    HW2 9117   6.401   4.879   0.222
 2740SOL     OW 9118   5.403   2.391   2.180
 2740SOL    HW1 9119   5.437   2.308   2.223
 2740SOL    HW2 9120   5.336   2.435   2.240
 2741SOL     OW 9121   6.856   1.739   6.555
 2741SOL    HW1 9122   6.951   1.728   6.526
 2741SOL    HW2 9123   6.825   1.832   6.533
 2742SOL     OW 9124   1.527   5.335   6.068
 2742SOL    HW1 9125   1.618   5.339   6.111
 2742SOL    HW2 9126   1.507   5.423   6.026
 2743SOL     OW 9127   6.167   5.335   1.667
 2743SOL    HW1 9128   6.125   5.425   1.680
 2743SOL    HW2 9129   6.167   5.311   1.570
 2744SOL     OW 9130   3.684   2.956   6.690
 2744SOL    HW1 9131   3.645   2.928   6.603
 2744SOL    HW2 9132   3.612   2.960   6.759
 2745SOL     OW 9133   1.763   6.849   6.986
 2745SOL    HW1 9134   1.684   6.878   0.010
 2745SOL    HW2 9135   1.846   6.855   0.010
 2746SOL     OW 9136   2.010   2.806   4.543
 2746SOL    HW1 9137   2.026   2.708   4.549
 2746SOL    HW2 9138   2.097   2.853   4.529
 2747SOL     OW 9139   5.577   3.986   5.400
 2747SOL    HW1 9140   5.507   4.029   5.344
 2747SOL    HW2 9141   5.649   3.949   5.342
 2748SOL     OW 9142   3.544   1.440   1.634
 2748SOL    HW1 9143   3.545   1.435   1.534
 2748SOL    HW2 9144   3.637   1.431   1.669
 2749SOL     OW 9145   5.386   4.850   4.091
 2749SOL    HW1 9146   5.417   4.944   4.099
 2749SOL    HW2 9147   5.288   4.848   4.071
 2750SOL     OW 9148   0.530   5.619   1.659
 2750SOL    HW1 9149   0.475   5.623   1.576
 2750SOL    HW2 9150   0.497   5.688   1.724
 2751SOL     OW 9151   1.878   0.077   0.402
 2751SOL    HW1 9152   1.948   0.046   0.338
 2751SOL    HW2 9153   1.842   7.030   0.452
 2752SOL     OW 9154   5.616   5.693   5.239
 2752SOL    HW1 9155   5.551   5.741   5.299
 2752SOL    HW2 9156   5.566   5.652   5.163
 2753SOL     OW 9157   1.972   6.918   6.034
 2753SOL    HW1 9158   2.030   6.994   6.064
 2753SOL    HW2 9159   1.882   6.953   6.008
 2754SOL     OW 9160   6.540   0.551   4.434
 2754SOL    HW1 9161   6.603   0.474   4.441
 2754SOL    HW2 9162   6.447   0.520   4.454
 2755SOL     OW 9163   2.847   6.598   2.903
 2755SOL    HW1 9164   2.807   6.579   2.814
 2755SOL    HW2 9165   2.947   6.594   2.896
 2756SOL     OW 9166   5.830   3.958   4.037
 2756SOL    HW1 9167   5.897   4.022   3.998
 2756SOL    HW2 9168   5.877   3.896   4.100
 2757SOL     OW 9169   2.875   1.770   6.845
 2757SOL    HW1 9170   2.899   1.704   6.773
 2757SOL    HW2 9171   2.809   1.835   6.809
 2758SOL     OW 9172   5.200   6.026   3.596
 2758SOL    HW1 9173   5.231   5.954   3.659
 2758SOL    HW2 9174   5.175   5.985   3.508
 2759SOL     OW 9175   3.463   5.135   5.081
 2759SOL    HW1 9176   3.384   5.086   5.121
 2759SOL    HW2 9177   3.544   5.076   5.086
 2760SOL     OW 9178   6.286   5.228   2.947
 2760SOL    HW1 9179   6.340   5.206   2.866
 2760SOL    HW2 9180   6.328   5.305   2.995
 2761SOL     OW 9181   1.625   3.933   3.626
 2761SOL    HW1 9182   1.627   3.834   3.633
 2761SOL    HW2 9183   1.667   3.973   3.708
 2762SOL     OW 9184   1.294   2.444   6.401
 2762SOL    HW1 9185   1.254   2.535   6.410
 2762SOL    HW2 9186   1.259   2.384   6.472
 2763SOL     OW 9187   5.434   2.003   5.892
 2763SOL    HW1 9188   5.441   1.966   5.985
 2763SOL    HW2 9189   5.368   1.950   5.840
 2764SOL     OW 9190   0.272   5.016   2.865
 2764SOL    HW1 9191   0.340   4.990   2.797
 2764SOL    HW2 9192   0.318   5.040   2.951
 2765SOL     OW 9193   0.422   0.491   1.014
 2765SOL    HW1 9194   0.510   0.517   0.974
 2765SOL    HW2 9195   0.403   0.395   0.992
 2766SOL     OW 9196   4.233   1.017   0.059
 2766SOL    HW1 9197   4.152   0.969   0.093
 2766SOL    HW2 9198   4.218   1.044   6.995
 2767SOL     OW 9199   6.015   5.898   6.825
 2767SOL    HW1 9200   6.022   5.890   6.924
 2767SOL    HW2 9201   6.012   5.994   6.799
 2768SOL     OW 9202   4.338   1.280   0.223
 2768SOL    HW1 9203   4.262   1.222   0.192
 2768SOL    HW2 9204   4.419   1.260   0.168
 2769SOL     OW 9205   2.201   4.129   6.096
 2769SOL    HW1 9206   2.253   4.161   6.176
 2769SOL    HW2 9207   2.154   4.207   6.054
 2770SOL     OW 9208   3.753   6.107   6.414
 2770SOL    HW1 9209   3.818   6.161   6.468
 2770SOL    HW2 9210   3.705   6.167   6.349
 2771SOL     OW 9211   5.475   6.844   4.591
 2771SOL    HW1 9212   5.515   6.935   4.582
 2771SOL    HW2 9213   5.381   6.852   4.624
 2772SOL     OW 9214   3.468   0.949   2.333
 2772SOL    HW1 9215   3.525   1.032   2.338
 2772SOL    HW2 9216   3.468   0.915   2.239
 2773SOL     OW 9217   0.173   2.880   3.864
 2773SOL    HW1 9218   0.188   2.924   3.776
 2773SOL    HW2 9219   0.114   2.938   3.921
 2774SOL     OW 9220   5.158   3.183   2.683
 2774SOL    HW1 9221   5.163   3.187   2.783
 2774SOL    HW2 9222   5.251   3.182   2.646
 2775SOL     OW 9223   6.842   3.585   3.829
 2775SOL    HW1 9224   6.895   3.627   3.755
 2775SOL    HW2 9225   6.754   3.632   3.838
 2776SOL     OW 9226   5.185   5.238   6.217
 2776SOL    HW1 9227   5.250   5.193   6.278
 2776SOL    HW2 9228   5.092   5.211   6.242
 2777SOL     OW 9229   2.233   1.830   6.550
 2777SOL    HW1 9230   2.133   1.842   6.546
 2777SOL    HW2 9231   2.254   1.756   6.613
 2778SOL     OW 9232   2.022   5.923   6.617
 2778SOL    HW1 9233   1.977   5.913   6.528
 2778SOL    HW2 9234   1.966   5.881   6.688
 2779SOL     OW 9235   5.730   6.412   2.314
 2779SOL    HW1 9236   5.674   6.496   2.314
 2779SOL    HW2 9237   5.778   6.404   2.227
 2780SOL     OW 9238   6.764   0.078   5.925
 2780SOL    HW1 9239   6.817   7.025   5.912
 2780SOL    HW2 9240   6.760   0.129   5.840
 2781SOL     OW 9241   5.801   0.531   2.849
 2781SOL    HW1 9242   5.842   0.440   2.847
 2781SOL    HW2 9243   5.705   0.524   2.877
 2782SOL     OW 9244   4.573   1.209   5.588
 2782SOL    HW1 9245   4.509   1.174   5.520
 2782SOL    HW2 9246   4.604   1.134   5.647
 2783SOL     OW 9247   6.179   3.517   1.363
 2783SOL    HW1 9248   6.175   3.459   1.445
 2783SOL    HW2 9249   6.134   3.604   1.383
 2784SOL     OW 9250   2.968   1.755   2.414
 2784SOL    HW1 9251   3.061   1.762   2.450
 2784SOL    HW2 9252   2.970   1.756   2.314
 2785SOL     OW 9253   5.059   2.173   1.092
 2785SOL    HW1 9254   5.030   2.144   1.183
 2785SOL    HW2 9255   5.142   2.229   1.099
 2786SOL     OW 9256   6.582   5.731   1.209
 2786SOL    HW1 9257   6.525   5.670   1.264
 2786SOL    HW2 9258   6.536   5.750   1.122
 2787SOL     OW 9259   6.447   5.916   5.566
 2787SOL    HW1 9260   6.401   5.997   5.531
 2787SOL    HW2 9261   6.502   5.940   5.645
 2788SOL     OW 9262   3.304   6.131   6.370
 2788SOL    HW1 9263   3.346   6.203   6.425
 2788SOL    HW2 9264   3.266   6.060   6.430
 2789SOL     OW 9265   1.390   2.382   3.599
 2789SOL    HW1 9266   1.456   2.442   3.553
 2789SOL    HW2 9267   1.335   2.333   3.531
 2790SOL     OW 9268   3.142   5.023   0.599
 2790SOL    HW1 9269   3.175   5.100   0.652
 2790SOL    HW2 9270   3.216   4.957   0.584
 2791SOL     OW 9271   0.206   4.399   2.252
 2791SOL    HW1 9272   0.218   4.467   2.325
 2791SOL    HW2 9273   0.111   4.371   2.248
 2792SOL     OW 9274   3.249   0.941   4.237
 2792SOL    HW1 9275   3.328   0.945   4.176
 2792SOL    HW2 9276   3.196   1.025   4.228
 2793SOL     OW 9277   5.024   3.855   1.763
 2793SOL    HW1 9278   5.031   3.779   1.698
 2793SOL    HW2 9279   5.100   3.851   1.827
 2794SOL     OW 9280   0.098   1.506   6.011
 2794SOL    HW1 9281   0.053   1.569   5.947
 2794SOL    HW2 9282   0.043   1.496   6.093
 2795SOL     OW 9283   0.646   5.096   0.852
 2795SOL    HW1 9284   0.743   5.110   0.871
 2795SOL    HW2 9285   0.598   5.078   0.938
 2796SOL     OW 9286   0.537   5.250   4.631
 2796SOL    HW1 9287   0.614   5.269   4.691
 2796SOL    HW2 9288   0.549   5.160   4.589
 2797SOL     OW 9289   5.387   5.192   5.622
 2797SOL    HW1 9290   5.344   5.248   5.694
 2797SOL    HW2 9291   5.474   5.234   5.596
 2798SOL     OW 9292   6.680   5.983   2.566
 2798SOL    HW1 9293   6.673   6.079   2.542
 2798SOL    HW2 9294   6.717   5.931   2.489
 2799SOL     OW 9295   5.229   5.495   5.528
 2799SOL    HW1 9296   5.279   5.466   5.610
 2799SOL    HW2 9297   5.165   5.424   5.501
 2800SOL     OW 9298   5.906   0.789   6.592
 2800SOL    HW1 9299   5.923   0.751   6.683
 2800SOL    HW2 9300   5.994   0.807   6.547
 2801SOL     OW 9301   1.622   5.600   5.973
 2801SOL    HW1 9302   1.584   5.662   5.904
 2801SOL    HW2 9303   1.680   5.651   6.036
 2802SOL     OW 9304   6.930   6.254   5.480
 2802SOL    HW1 9305   6.843   6.267   5.433
 2802SOL    HW2 9306   6.918   6.194   5.559
 2803SOL     OW 9307   3.335   4.208   5.750
 2803SOL    HW1 9308   3.426   4.241   5.726
 2803SOL    HW2 9309   3.324   4.114   5.718
 2804SOL     OW 9310   0.221   3.354   3.916
 2804SOL    HW1 9311   0.220   3.436   3.973
 2804SOL    HW2 9312   0.288   3.289   3.952
 2805SOL     OW 9313   5.798   3.588   2.031
 2805SOL    HW1 9314   5.798   3.580   1.931
 2805SOL    HW2 9315   5.750   3.671   2.058
 2806SOL     OW 9316   1.914   4.551   6.548
 2806SOL    HW1 9317   1.928   4.476   6.483
 2806SOL    HW2 9318   1.983   4.621   6.534
 2807SOL     OW 9319   3.482   0.451   2.924
 2807SOL    HW1 9320   3.417   0.376   2.935
 2807SOL    HW2 9321   3.495   0.498   3.011
 2808SOL     OW 9322   5.671   6.045   1.051
 2808SOL    HW1 9323   5.610   6.068   0.975
 2808SOL    HW2 9324   5.730   6.123   1.071
 2809SOL     OW 9325   5.660   3.089   1.797
 2809SOL    HW1 9326   5.564   3.074   1.771
 2809SOL    HW2 9327   5.670   3.074   1.896
 2810SOL     OW 9328   2.381   5.563   2.729
 2810SOL    HW1 9329   2.470   5.537   2.766
 2810SOL    HW2 9330   2.362   5.658   2.751
 2811SOL     OW 9331   1.001   1.053   2.741
 2811SOL    HW1 9332   1.097   1.061   2.717
 2811SOL    HW2 9333   0.973   0.957   2.734
 2812SOL     OW 9334   6.793   3.112   0.488
 2812SOL    HW1 9335   6.889   3.124   0.464
 2812SOL    HW2 9336   6.737   3.178   0.437
 2813SOL     OW 9337   0.532   1.498   0.967
 2813SOL    HW1 9338   0.615   1.456   0.931
 2813SOL    HW2 9339   0.553   1.546   1.053
 2814SOL     OW 9340   3.142   3.865   6.246
 2814SOL    HW1 9341   3.178   3.772   6.255
 2814SOL    HW2 9342   3.129   3.887   6.149
 2815SOL     OW 9343   0.711   6.277   5.737
 2815SOL    HW1 9344   0.798   6.303   5.696
 2815SOL    HW2 9345   0.659   6.360   5.758
 2816SOL     OW 9346   0.235   5.879   4.942
 2816SOL    HW1 9347   0.199   5.796   4.984
 2816SOL    HW2 9348   0.187   5.958   4.978
 2817SOL     OW 9349   3.854   1.247   1.904
 2817SOL    HW1 9350   3.811   1.319   1.850
 2817SOL    HW2 9351   3.787   1.208   1.967
 2818SOL     OW 9352   0.380   1.152   1.075
 2818SOL    HW1 9353   0.479   1.160   1.073
 2818SOL    HW2 9354   0.340   1.244   1.078
 2819SOL     OW 9355   1.260   0.489   1.090
 2819SOL    HW1 9356   1.189   0.435   1.136
 2819SOL    HW2 9357   1.348   0.472   1.136
 2820SOL     OW 9358   1.268   1.815   2.228
 2820SOL    HW1 9359   1.366   1.822   2.246
 2820SOL    HW2 9360   1.252   1.829   2.130
 2821SOL     OW 9361   3.266   5.204   5.963
 2821SOL    HW1 9362   3.200   5.278   5.948
 2821SOL    HW2 9363   3.326   5.228   6.040
 2822SOL     OW 9364   3.670   2.578   0.238
 2822SOL    HW1 9365   3.636   2.598   0.146
 2822SOL    HW2 9366   3.738   2.505   0.234
 2823SOL     OW 9367   5.121   1.043   0.193
 2823SOL    HW1 9368   5.149   1.091   0.276
 2823SOL    HW2 9369   5.200   1.032   0.133
 2824SOL     OW 9370   1.371   3.433   4.989
 2824SOL    HW1 9371   1.316   3.350   4.977
 2824SOL    HW2 9372   1.373   3.457   5.086
 2825SOL     OW 9373   5.384   0.543   6.671
 2825SOL    HW1 9374   5.308   0.593   6.630
 2825SOL    HW2 9375   5.470   0.575   6.631
 2826SOL     OW 9376   1.577   3.308   6.399
 2826SOL    HW1 9377   1.671   3.278   6.413
 2826SOL    HW2 9378   1.559   3.389   6.455
 2827SOL     OW 9379   0.529   0.453   6.320
 2827SOL    HW1 9380   0.550   0.477   6.225
 2827SOL    HW2 9381   0.471   0.524   6.360
 2828SOL     OW 9382   1.562   3.605   1.255
 2828SOL    HW1 9383   1.627   3.611   1.331
 2828SOL    HW2 9384   1.475   3.570   1.289
 2829SOL     OW 9385   3.456   3.733   2.955
 2829SOL    HW1 9386   3.531   3.678   2.921
 2829SOL    HW2 9387   3.492   3.806   3.014
 2830SOL     OW 9388   3.571   4.300   5.371
 2830SOL    HW1 9389   3.657   4.298   5.320
 2830SOL    HW2 9390   3.512   4.226   5.338
 2831SOL     OW 9391   6.951   1.840   2.555
 2831SOL    HW1 9392   0.007   1.791   2.543
 2831SOL    HW2 9393   6.876   1.773   2.561
 2832SOL     OW 9394   0.741   3.169   1.368
 2832SOL    HW1 9395   0.841   3.159   1.374
 2832SOL    HW2 9396   0.697   3.102   1.427
 2833SOL     OW 9397   2.292   1.191   2.371
 2833SOL    HW1 9398   2.370   1.223   2.425
 2833SOL    HW2 9399   2.312   1.099   2.336
 2834SOL     OW 9400   4.840   5.997   5.057
 2834SOL    HW1 9401   4.849   5.953   4.968
 2834SOL    HW2 9402   4.792   6.084   5.047
 2835SOL     OW 9403   1.145   6.378   0.085
 2835SOL    HW1 9404   1.160   6.332   7.028
 2835SOL    HW2 9405   1.224   6.436   0.107
 2836SOL     OW 9406   3.716   6.235   3.167
 2836SOL    HW1 9407   3.803   6.195   3.198
 2836SOL    HW2 9408   3.655   6.244   3.245
 2837SOL     OW 9409   5.723   4.182   2.233
 2837SOL    HW1 9410   5.807   4.229   2.204
 2837SOL    HW2 9411   5.743   4.123   2.311
 2838SOL     OW 9412   5.022   4.082   6.705
 2838SOL    HW1 9413   5.086   4.102   6.632
 2838SOL    HW2 9414   5.070   4.038   6.781
 2839SOL     OW 9415   6.857   2.404   3.153
 2839SOL    HW1 9416   6.838   2.419   3.250
 2839SOL    HW2 9417   6.928   2.335   3.143
 2840SOL     OW 9418   1.558   5.350   2.938
 2840SOL    HW1 9419   1.550   5.351   3.038
 2840SOL    HW2 9420   1.653   5.370   2.913
 2841SOL     OW 9421   6.317   2.474   0.813
 2841SOL    HW1 9422   6.355   2.557   0.774
 2841SOL    HW2 9423   6.238   2.497   0.870
 2842SOL     OW 9424   1.499   5.596   5.050
 2842SOL    HW1 9425   1.527   5.681   5.094
 2842SOL    HW2 9426   1.579   5.551   5.010
 2843SOL     OW 9427   2.571   2.515   2.709
 2843SOL    HW1 9428   2.661   2.559   2.715
 2843SOL    HW2 9429   2.582   2.421   2.677
 2844SOL     OW 9430   5.024   4.463   1.626
 2844SOL    HW1 9431   5.084   4.384   1.633
 2844SOL    HW2 9432   5.021   4.494   1.530
 2845SOL     OW 9433   5.112   2.569   3.786
 2845SOL    HW1 9434   5.129   2.667   3.799
 2845SOL    HW2 9435   5.129   2.545   3.690
 2846SOL     OW 9436   3.538   0.911   0.221
 2846SOL    HW1 9437   3.621   0.915   0.278
 2846SOL    HW2 9438   3.549   0.972   0.142
 2847SOL     OW 9439   4.845   4.237   1.964
 2847SOL    HW1 9440   4.748   4.223   1.982
 2847SOL    HW2 9441   4.871   4.186   1.882
 2848SOL     OW 9442   1.361   2.335   5.462
 2848SOL    HW1 9443   1.441   2.300   5.412
 2848SOL    HW2 9444   1.325   2.415   5.414
 2849SOL     OW 9445   3.732   0.997   1.777
 2849SOL    HW1 9446   3.724   0.898   1.761
 2849SOL    HW2 9447   3.641   1.039   1.769
 2850SOL     OW 9448   1.951   6.736   3.769
 2850SOL    HW1 9449   1.985   6.669   3.704
 2850SOL    HW2 9450   1.993   6.825   3.751
 2851SOL     OW 9451   3.980   3.464   6.656
 2851SOL    HW1 9452   4.009   3.394   6.591
 2851SOL    HW2 9453   3.992   3.430   6.749
 2852SOL     OW 9454   6.479   4.586   7.030
 2852SOL    HW1 9455   6.432   4.666   0.036
 2852SOL    HW2 9456   6.510   4.606   6.937
 2853SOL     OW 9457   0.272   3.133   6.594
 2853SOL    HW1 9458   0.308   3.217   6.553
 2853SOL    HW2 9459   0.207   3.156   6.666
 2854SOL     OW 9460   3.597   1.022   6.501
 2854SOL    HW1 9461   3.667   0.952   6.513
 2854SOL    HW2 9462   3.583   1.072   6.586
 2855SOL     OW 9463   0.914   2.365   4.310
 2855SOL    HW1 9464   0.938   2.458   4.282
 2855SOL    HW2 9465   0.941   2.300   4.239
 2856SOL     OW 9466   1.602   2.690   2.895
 2856SOL    HW1 9467   1.618   2.758   2.823
 2856SOL    HW2 9468   1.569   2.605   2.853
 2857SOL     OW 9469   0.501   3.532   0.757
 2857SOL    HW1 9470   0.585   3.522   0.810
 2857SOL    HW2 9471   0.422   3.518   0.818
 2858SOL     OW 9472   5.885   6.109   2.728
 2858SOL    HW1 9473   5.929   6.174   2.666
 2858SOL    HW2 9474   5.921   6.017   2.709
 2859SOL     OW 9475   5.055   5.481   0.384
 2859SOL    HW1 9476   5.066   5.569   0.337
 2859SOL    HW2 9477   5.139   5.460   0.434
 2860SOL     OW 9478   1.867   6.522   1.842
 2860SOL    HW1 9479   1.842   6.429   1.815
 2860SOL    HW2 9480   1.965   6.525   1.862
 2861SOL     OW 9481   2.851   5.237   5.690
 2861SOL    HW1 9482   2.814   5.301   5.623
 2861SOL    HW2 9483   2.781   5.171   5.717
 2862SOL     OW 9484   4.594   2.545   1.663
 2862SOL    HW1 9485   4.503   2.504   1.672
 2862SOL    HW2 9486   4.612   2.604   1.742
 2863SOL     OW 9487   5.233   0.920   6.218
 2863SOL    HW1 9488   5.232   0.908   6.118
 2863SOL    HW2 9489   5.167   0.858   6.260
 2864SOL     OW 9490   4.431   2.907   1.124
 2864SOL    HW1 9491   4.347   2.899   1.070
 2864SOL    HW2 9492   4.432   2.835   1.195
 2865SOL     OW 9493   4.554   6.442   4.317
 2865SOL    HW1 9494   4.471   6.496   4.321
 2865SOL    HW2 9495   4.539   6.353   4.362
 2866SOL     OW 9496   5.684   4.040   0.139
 2866SOL    HW1 9497   5.758   3.974   0.131
 2866SOL    HW2 9498   5.658   4.073   0.049
 2867SOL     OW 9499   6.242   6.551   2.133
 2867SOL    HW1 9500   6.214   6.474   2.191
 2867SOL    HW2 9501   6.166   6.616   2.125
 2868SOL     OW 9502   0.964   0.951   5.830
 2868SOL    HW1 9503   0.950   0.976   5.925
 2868SOL    HW2 9504   1.061   0.957   5.808
 2869SOL     OW 9505   6.331   0.056   4.051
 2869SOL    HW1 9506   6.244   0.071   4.004
 2869SOL    HW2 9507   6.404   0.051   3.983
 2870SOL     OW 9508   0.743   1.741   0.191
 2870SOL    HW1 9509   0.836   1.759   0.158
 2870SOL    HW2 9510   0.748   1.683   0.273
 2871SOL     OW 9511   6.646   0.849   0.691
 2871SOL    HW1 9512   6.708   0.883   0.621
 2871SOL    HW2 9513   6.551   0.863   0.662
 2872SOL     OW 9514   2.670   1.587   1.300
 2872SOL    HW1 9515   2.571   1.597   1.308
 2872SOL    HW2 9516   2.710   1.579   1.391
 2873SOL     OW 9517   0.270   5.534   1.788
 2873SOL    HW1 9518   0.345   5.496   1.733
 2873SOL    HW2 9519   0.195   5.468   1.791
 2874SOL     OW 9520   3.986   0.214   2.971
 2874SOL    HW1 9521   3.938   0.170   2.895
 2874SOL    HW2 9522   4.052   0.280   2.934
 2875SOL     OW 9523   3.437   6.763   2.720
 2875SOL    HW1 9524   3.437   6.809   2.632
 2875SOL    HW2 9525   3.358   6.793   2.773
 2876SOL     OW 9526   1.162   6.441   1.860
 2876SOL    HW1 9527   1.145   6.479   1.951
 2876SOL    HW2 9528   1.197   6.348   1.869
 2877SOL     OW 9529   2.202   1.559   6.611
 2877SOL    HW1 9530   2.127   1.565   6.546
 2877SOL    HW2 9531   2.216   1.464   6.639
 2878SOL     OW 9532   2.975   3.213   4.486
 2878SOL    HW1 9533   2.954   3.232   4.582
 2878SOL    HW2 9534   3.026   3.127   4.480
 2879SOL     OW 9535   4.550   5.295   5.990
 2879SOL    HW1 9536   4.474   5.288   6.053
 2879SOL    HW2 9537   4.515   5.303   5.896
 2880SOL     OW 9538   1.049   1.645   3.879
 2880SOL    HW1 9539   1.140   1.611   3.856
 2880SOL    HW2 9540   1.022   1.611   3.969
 2881SOL     OW 9541   3.134   5.242   0.263
 2881SOL    HW1 9542   3.159   5.295   0.344
 2881SOL    HW2 9543   3.129   5.302   0.183
 2882SOL     OW 9544   5.791   6.306   1.022
 2882SOL    HW1 9545   5.859   6.379   1.032
 2882SOL    HW2 9546   5.699   6.345   1.028
 2883SOL     OW 9547   6.462   6.619   3.435
 2883SOL    HW1 9548   6.532   6.613   3.365
 2883SOL    HW2 9549   6.495   6.576   3.519
 2884SOL     OW 9550   6.787   5.162   2.026
 2884SOL    HW1 9551   6.781   5.212   1.940
 2884SOL    HW2 9552   6.869   5.105   2.026
 2885SOL     OW 9553   1.438   2.123   4.573
 2885SOL    HW1 9554   1.496   2.203   4.560
 2885SOL    HW2 9555   1.472   2.068   4.649
 2886SOL     OW 9556   2.900   4.326   0.238
 2886SOL    HW1 9557   2.845   4.357   0.161
 2886SOL    HW2 9558   2.900   4.396   0.310
 2887SOL     OW 9559   0.069   6.396   3.834
 2887SOL    HW1 9560   0.051   6.354   3.923
 2887SOL    HW2 9561   0.157   6.442   3.836
 2888SOL     OW 9562   0.004   5.387   0.007
 2888SOL    HW1 9563   6.967   5.325   0.047
 2888SOL    HW2 9564   0.063   5.337   6.975
 2889SOL     OW 9565   3.105   6.333   3.063
 2889SOL    HW1 9566   3.120   6.273   2.984
 2889SOL    HW2 9567   3.008   6.351   3.074
 2890SOL     OW 9568   2.410   6.116   1.035
 2890SOL    HW1 9569   2.333   6.158   0.988
 2890SOL    HW2 9570   2.431   6.028   0.994
 2891SOL     OW 9571   0.975   3.646   3.063
 2891SOL    HW1 9572   0.904   3.690   3.008
 2891SOL    HW2 9573   0.988   3.552   3.032
 2892SOL     OW 9574   6.407   3.124   1.164
 2892SOL    HW1 9575   6.320   3.166   1.189
 2892SOL    HW2 9576   6.400   3.025   1.172
 2893SOL     OW 9577   1.811   5.768   4.558
 2893SOL    HW1 9578   1.819   5.839   4.488
 2893SOL    HW2 9579   1.900   5.725   4.573
 2894SOL     OW 9580   2.121   4.589   1.967
 2894SOL    HW1 9581   2.211   4.592   1.923
 2894SOL    HW2 9582   2.057   4.648   1.916
 2895SOL     OW 9583   3.277   0.768   6.194
 2895SOL    HW1 9584   3.370   0.787   6.163
 2895SOL    HW2 9585   3.213   0.776   6.117
 2896SOL     OW 9586   5.802   0.283   6.114
 2896SOL    HW1 9587   5.809   0.369   6.163
 2896SOL    HW2 9588   5.857   0.213   6.159
 2897SOL     OW 9589   3.961   4.816   2.747
 2897SOL    HW1 9590   3.979   4.895   2.807
 2897SOL    HW2 9591   4.047   4.769   2.727
 2898SOL     OW 9592   5.624   4.155   3.699
 2898SOL    HW1 9593   5.623   4.067   3.747
 2898SOL    HW2 9594   5.647   4.227   3.764
 2899SOL     OW 9595   6.531   2.115   1.686
 2899SOL    HW1 9596   6.539   2.118   1.586
 2899SOL    HW2 9597   6.446   2.158   1.714
 2900SOL     OW 9598   3.879   4.944   0.266
 2900SOL    HW1 9599   3.860   4.894   0.181
 2900SOL    HW2 9600   3.964   4.911   0.306
 2901SOL     OW 9601   1.402   4.857   3.796
 2901SOL    HW1 9602   1.405   4.924   3.870
 2901SOL    HW2 9603   1.494   4.844   3.759
 2902SOL     OW 9604   0.145   6.090   3.774
 2902SOL    HW1 9605   0.062   6.045   3.744
 2902SOL    HW2 9606   0.214   6.085   3.702
 2903SOL     OW 9607   4.324   6.052   0.729
 2903SOL    HW1 9608   4.303   6.068   0.826
 2903SOL    HW2 9609   4.418   6.019   0.721
 2904SOL     OW 9610   3.002   4.819   5.229
 2904SOL    HW1 9611   2.968   4.731   5.195
 2904SOL    HW2 9612   3.097   4.810   5.257
 2905SOL     OW 9613   1.315   3.973   3.453
 2905SOL    HW1 9614   1.321   3.876   3.431
 2905SOL    HW2 9615   1.326   3.985   3.552
 2906SOL     OW 9616   5.186   6.322   2.505
 2906SOL    HW1 9617   5.276   6.278   2.508
 2906SOL    HW2 9618   5.134   6.297   2.587
 2907SOL     OW 9619   0.911   1.204   3.927
 2907SOL    HW1 9620   0.847   1.251   3.866
 2907SOL    HW2 9621   0.867   1.122   3.964
 2908SOL     OW 9622   5.242   0.092   3.870
 2908SOL    HW1 9623   5.307   0.139   3.811
 2908SOL    HW2 9624   5.287   0.015   3.916
 2909SOL     OW 9625   1.185   6.506   2.793
 2909SOL    HW1 9626   1.165   6.553   2.879
 2909SOL    HW2 9627   1.100   6.466   2.757
 2910SOL     OW 9628   6.626   0.960   3.872
 2910SOL    HW1 9629   6.619   1.053   3.836
 2910SOL    HW2 9630   6.701   0.955   3.938
 2911SOL     OW 9631   1.251   4.567   3.974
 2911SOL    HW1 9632   1.175   4.626   3.945
 2911SOL    HW2 9633   1.239   4.541   4.069
 2912SOL     OW 9634   0.180   6.564   6.976
 2912SOL    HW1 9635   0.112   6.575   0.018
 2912SOL    HW2 9636   0.268   6.601   7.006
 2913SOL     OW 9637   2.480   4.499   2.465
 2913SOL    HW1 9638   2.491   4.436   2.388
 2913SOL    HW2 9639   2.464   4.592   2.430
 2914SOL     OW 9640   5.218   5.154   1.174
 2914SOL    HW1 9641   5.291   5.119   1.233
 2914SOL    HW2 9642   5.140   5.181   1.230
 2915SOL     OW 9643   3.154   2.166   3.382
 2915SOL    HW1 9644   3.143   2.113   3.298
 2915SOL    HW2 9645   3.249   2.159   3.413
 2916SOL     OW 9646   1.722   5.402   0.202
 2916SOL    HW1 9647   1.673   5.333   0.257
 2916SOL    HW2 9648   1.759   5.359   0.120
 2917SOL     OW 9649   3.082   0.513   3.763
 2917SOL    HW1 9650   3.024   0.431   3.766
 2917SOL    HW2 9651   3.032   0.591   3.801
 2918SOL     OW 9652   6.224   3.402   0.534
 2918SOL    HW1 9653   6.161   3.451   0.475
 2918SOL    HW2 9654   6.230   3.307   0.505
 2919SOL     OW 9655   6.537   6.267   3.543
 2919SOL    HW1 9656   6.469   6.293   3.474
 2919SOL    HW2 9657   6.627   6.298   3.514
 2920SOL     OW 9658   2.496   0.907   2.024
 2920SOL    HW1 9659   2.410   0.861   2.005
 2920SOL    HW2 9660   2.509   0.983   1.961
 2921SOL     OW 9661   0.046   0.380   5.402
 2921SOL    HW1 9662   6.981   0.409   5.407
 2921SOL    HW2 9663   0.052   0.281   5.411
 2922SOL     OW 9664   4.143   0.093   2.060
 2922SOL    HW1 9665   4.072   0.153   2.098
 2922SOL    HW2 9666   4.099   0.015   2.014
 2923SOL     OW 9667   6.872   5.096   4.233
 2923SOL    HW1 9668   6.960   5.128   4.198
 2923SOL    HW2 9669   6.862   5.124   4.329
 2924SOL     OW 9670   6.606   1.262   5.234
 2924SOL    HW1 9671   6.593   1.341   5.295
 2924SOL    HW2 9672   6.537   1.265   5.161
 2925SOL     OW 9673   5.419   1.378   6.838
 2925SOL    HW1 9674   5.466   1.466   6.848
 2925SOL    HW2 9675   5.339   1.389   6.779
 2926SOL     OW 9676   6.601   2.272   5.275
 2926SOL    HW1 9677   6.692   2.313   5.284
 2926SOL    HW2 9678   6.592   2.197   5.340
 2927SOL     OW 9679   2.017   3.526   0.864
 2927SOL    HW1 9680   2.104   3.528   0.914
 2927SOL    HW2 9681   1.980   3.619   0.859
 2928SOL     OW 9682   6.427   1.730   0.291
 2928SOL    HW1 9683   6.457   1.805   0.232
 2928SOL    HW2 9684   6.467   1.741   0.382
 2929SOL     OW 9685   1.472   2.665   4.943
 2929SOL    HW1 9686   1.473   2.728   5.021
 2929SOL    HW2 9687   1.507   2.712   4.862
 2930SOL     OW 9688   6.096   5.885   5.352
 2930SOL    HW1 9689   6.184   5.885   5.305
 2930SOL    HW2 9690   6.109   5.858   5.447
 2931SOL     OW 9691   4.509   4.997   0.525
 2931SOL    HW1 9692   4.428   5.056   0.524
 2931SOL    HW2 9693   4.523   4.958   0.434
 2932SOL     OW 9694   6.618   5.247   2.213
 2932SOL    HW1 9695   6.688   5.226   2.145
 2932SOL    HW2 9696   6.619   5.345   2.233
 2933SOL     OW 9697   0.456   0.222   1.868
 2933SOL    HW1 9698   0.418   0.158   1.934
 2933SOL    HW2 9699   0.438   0.316   1.898
 2934SOL     OW 9700   4.719   2.812   1.528
 2934SOL    HW1 9701   4.679   2.720   1.529
 2934SOL    HW2 9702   4.748   2.834   1.435
 2935SOL     OW 9703   1.004   2.531   6.451
 2935SOL    HW1 9704   1.063   2.609   6.471
 2935SOL    HW2 9705   0.926   2.531   6.513
 2936SOL     OW 9706   4.365   6.967   0.538
 2936SOL    HW1 9707   4.429   6.897   0.507
 2936SOL    HW2 9708   4.396   0.026   0.508
 2937SOL     OW 9709   4.527   4.759   1.292
 2937SOL    HW1 9710   4.453   4.826   1.288
 2937SOL    HW2 9711   4.558   4.749   1.386
 2938SOL     OW 9712   6.198   5.524   7.005
 2938SOL    HW1 9713   6.259   5.527   0.053
 2938SOL    HW2 9714   6.199   5.613   6.959
 2939SOL     OW 9715   0.603   6.916   1.601
 2939SOL    HW1 9716   0.505   6.920   1.620
 2939SOL    HW2 9717   0.621   6.957   1.512
 2940SOL     OW 9718   5.821   5.721   4.255
 2940SOL    HW1 9719   5.852   5.708   4.161
 2940SOL    HW2 9720   5.897   5.754   4.311
 2941SOL     OW 9721   2.478   2.446   2.972
 2941SOL    HW1 9722   2.564   2.447   3.023
 2941SOL    HW2 9723   2.496   2.455   2.874
 2942SOL     OW 9724   3.440   2.634   0.369
 2942SOL    HW1 9725   3.372   2.566   0.343
 2942SOL    HW2 9726   3.527   2.612   0.326
 2943SOL     OW 9727   6.080   4.502   3.867
 2943SOL    HW1 9728   6.048   4.577   3.811
 2943SOL    HW2 9729   6.153   4.534   3.927
 2944SOL     OW 9730   2.720   6.292   3.722
 2944SOL    HW1 9731   2.762   6.266   3.635
 2944SOL    HW2 9732   2.779   6.358   3.770
 2945SOL     OW 9733   5.185   3.650   1.555
 2945SOL    HW1 9734   5.090   3.623   1.566
 2945SOL    HW2 9735   5.228   3.660   1.645
 2946SOL     OW 9736   1.680   4.222   5.554
 2946SOL    HW1 9737   1.649   4.153   5.620
 2946SOL    HW2 9738   1.602   4.254   5.500
 2947SOL     OW 9739   0.139   5.968   0.288
 2947SOL    HW1 9740   0.108   5.879   0.257
 2947SOL    HW2 9741   0.219   5.996   0.236
 2948SOL     OW 9742   6.332   4.680   3.450
 2948SOL    HW1 9743   6.428   4.707   3.439
 2948SOL    HW2 9744   6.287   4.742   3.514
 2949SOL     OW 9745   0.820   6.271   6.500
 2949SOL    HW1 9746   0.790   6.358   6.539
 2949SOL    HW2 9747   0.920   6.267   6.503
 2950SOL     OW 9748   5.746   4.974   3.087
 2950SOL    HW1 9749   5.778   4.885   3.121
 2950SOL    HW2 9750   5.653   4.990   3.121
 2951SOL     OW 9751   5.527   1.011   1.959
 2951SOL    HW1 9752   5.536   0.951   2.038
 2951SOL    HW2 9753   5.505   1.104   1.990
 2952SOL     OW 9754   6.282   0.119   4.853
 2952SOL    HW1 9755   6.210   0.129   4.785
 2952SOL    HW2 9756   6.323   0.208   4.872
 2953SOL     OW 9757   6.546   4.524   3.071
 2953SOL    HW1 9758   6.550   4.466   3.152
 2953SOL    HW2 9759   6.499   4.475   2.997
 2954SOL     OW 9760   0.054   4.531   6.481
 2954SOL    HW1 9761   0.153   4.538   6.488
 2954SOL    HW2 9762   0.011   4.610   6.523
 2955SOL     OW 9763   1.289   4.289   0.014
 2955SOL    HW1 9764   1.229   4.342   6.985
 2955SOL    HW2 9765   1.262   4.193   0.012
 2956SOL     OW 9766   0.254   5.535   3.958
 2956SOL    HW1 9767   0.204   5.546   3.872
 2956SOL    HW2 9768   0.208   5.589   4.030
 2957SOL     OW 9769   3.994   4.912   1.395
 2957SOL    HW1 9770   3.931   4.985   1.422
 2957SOL    HW2 9771   3.969   4.827   1.442
 2958SOL     OW 9772   2.204   5.159   3.409
 2958SOL    HW1 9773   2.130   5.096   3.387
 2958SOL    HW2 9774   2.179   5.213   3.490
 2959SOL     OW 9775   5.229   2.736   2.819
 2959SOL    HW1 9776   5.157   2.777   2.764
 2959SOL    HW2 9777   5.252   2.797   2.895
 2960SOL     OW 9778   3.149   0.616   0.007
 2960SOL    HW1 9779   3.193   0.528   7.019
 2960SOL    HW2 9780   3.080   0.605   0.079
 2961SOL     OW 9781   6.015   4.825   2.952
 2961SOL    HW1 9782   6.101   4.801   2.907
 2961SOL    HW2 9783   5.955   4.870   2.887
 2962SOL     OW 9784   5.071   6.615   3.494
 2962SOL    HW1 9785   5.075   6.520   3.463
 2962SOL    HW2 9786   5.066   6.676   3.414
 2963SOL     OW 9787   1.411   1.158   6.636
 2963SOL    HW1 9788   1.428   1.220   6.713
 2963SOL    HW2 9789   1.459   1.072   6.650
 2964SOL     OW 9790   0.680   2.688   6.409
 2964SOL    HW1 9791   0.678   2.781   6.445
 2964SOL    HW2 9792   0.669   2.623   6.484
 2965SOL     OW 9793   1.312   0.386   4.325
 2965SOL    HW1 9794   1.401   0.352   4.294
 2965SOL    HW2 9795   1.264   0.428   4.247
 2966SOL     OW 9796   4.584   5.798   3.955
 2966SOL    HW1 9797   4.676   5.761   3.964
 2966SOL    HW2 9798   4.532   5.780   4.039
 2967SOL     OW 9799   6.389   1.613   5.843
 2967SOL    HW1 9800   6.347   1.699   5.814
 2967SOL    HW2 9801   6.343   1.579   5.925
 2968SOL     OW 9802   1.844   3.032   0.961
 2968SOL    HW1 9803   1.878   2.951   1.009
 2968SOL    HW2 9804   1.909   3.107   0.974
 2969SOL     OW 9805   4.894   3.941   4.642
 2969SOL    HW1 9806   4.816   3.986   4.686
 2969SOL    HW2 9807   4.922   3.863   4.697
 2970SOL     OW 9808   2.773   2.811   5.439
 2970SOL    HW1 9809   2.781   2.760   5.524
 2970SOL    HW2 9810   2.863   2.818   5.395
 2971SOL     OW 9811   6.028   4.089   0.258
 2971SOL    HW1 9812   5.942   4.121   0.297
 2971SOL    HW2 9813   6.035   4.119   0.164
 2972SOL     OW 9814   5.706   5.230   0.095
 2972SOL    HW1 9815   5.709   5.141   0.049
 2972SOL    HW2 9816   5.631   5.285   0.057
 2973SOL     OW 9817   4.856   6.631   2.561
 2973SOL    HW1 9818   4.887   6.707   2.505
 2973SOL    HW2 9819   4.816   6.666   2.645
 2974SOL     OW 9820   5.960   4.419   3.101
 2974SOL    HW1 9821   6.008   4.472   3.172
 2974SOL    HW2 9822   5.908   4.346   3.145
 2975SOL     OW 9823   4.896   4.615   4.025
 2975SOL    HW1 9824   4.963   4.604   4.098
 2975SOL    HW2 9825   4.873   4.712   4.016
 2976SOL     OW 9826   4.990   1.922   3.186
 2976SOL    HW1 9827   5.066   1.915   3.122
 2976SOL    HW2 9828   4.911   1.873   3.149
 2977SOL     OW 9829   1.103   0.731   2.062
 2977SOL    HW1 9830   1.200   0.712   2.070
 2977SOL    HW2 9831   1.050   0.660   2.109
 2978SOL     OW 9832   4.063   4.284   6.838
 2978SOL    HW1 9833   3.975   4.273   6.884
 2978SOL    HW2 9834   4.137   4.266   6.903
 2979SOL     OW 9835   3.045   1.356   4.332
 2979SOL    HW1 9836   3.038   1.449   4.368
 2979SOL    HW2 9837   3.069   1.293   4.407
 2980SOL     OW 9838   2.323   4.659   6.181
 2980SOL    HW1 9839   2.278   4.619   6.260
 2980SOL    HW2 9840   2.378   4.590   6.135
 2981SOL     OW 9841   2.333   1.822   0.035
 2981SOL    HW1 9842   2.416   1.872   0.008
 2981SOL    HW2 9843   2.318   1.746   7.002
 2982SOL     OW 9844   2.227   6.568   2.434
 2982SOL    HW1 9845   2.162   6.553   2.359
 2982SOL    HW2 9846   2.241   6.666   2.447
 2983SOL     OW 9847   0.089   2.402   0.544
 2983SOL    HW1 9848   0.115   2.307   0.561
 2983SOL    HW2 9849   7.026   2.417   0.575
 2984SOL     OW 9850   6.240   4.992   6.304
 2984SOL    HW1 9851   6.166   5.021   6.242
 2984SOL    HW2 9852   6.261   5.066   6.368
 2985SOL     OW 9853   0.690   1.156   4.335
 2985SOL    HW1 9854   0.738   1.071   4.354
 2985SOL    HW2 9855   0.751   1.219   4.288
 2986SOL     OW 9856   3.255   3.865   2.331
 2986SOL    HW1 9857   3.256   3.795   2.403
 2986SOL    HW2 9858   3.308   3.944   2.361
 2987SOL     OW 9859   1.701   2.030   4.469
 2987SOL    HW1 9860   1.777   2.043   4.404
 2987SOL    HW2 9861   1.734   2.046   4.562
 2988SOL     OW 9862   1.564   0.137   1.705
 2988SOL    HW1 9863   1.660   0.136   1.731
 2988SOL    HW2 9864   1.551   0.084   1.621
 2989SOL     OW 9865   5.261   3.983   5.342
 2989SOL    HW1 9866   5.297   4.069   5.306
 2989SOL    HW2 9867   5.181   4.001   5.399
 2990SOL     OW 9868   5.315   2.167   4.297
 2990SOL    HW1 9869   5.295   2.193   4.391
 2990SOL    HW2 9870   5.231   2.136   4.252
 2991SOL     OW 9871   6.426   3.550   7.016
 2991SOL    HW1 9872   6.429   3.583   0.080
 2991SOL    HW2 9873   6.377   3.616   6.960
 2992SOL     OW 9874   0.944   4.575   4.624
 2992SOL    HW1 9875   0.884   4.526   4.688
 2992SOL    HW2 9876   1.017   4.513   4.594
 2993SOL     OW 9877   0.012   5.201   0.339
 2993SOL    HW1 9878   0.025   5.109   0.302
 2993SOL    HW2 9879   0.100   5.249   0.341
 2994SOL     OW 9880   4.791   6.421   6.794
 2994SOL    HW1 9881   4.842   6.340   6.763
 2994SOL    HW2 9882   4.739   6.398   6.876
 2995SOL     OW 9883   4.522   0.404   0.196
 2995SOL    HW1 9884   4.534   0.312   0.159
 2995SOL    HW2 9885   4.560   0.471   0.132
 2996SOL     OW 9886   1.353   1.758   4.602
 2996SOL    HW1 9887   1.305   1.670   4.611
 2996SOL    HW2 9888   1.291   1.832   4.627
 2997SOL     OW 9889   4.125   0.598   3.303
 2997SOL    HW1 9890   4.044   0.625   3.356
 2997SOL    HW2 9891   4.125   0.647   3.216
 2998SOL     OW 9892   3.447   0.267   3.811
 2998SOL    HW1 9893   3.488   0.179   3.786
 2998SOL    HW2 9894   3.501   0.309   3.884
 2999SOL     OW 9895   2.644   4.691   6.196
 2999SOL    HW1 9896   2.671   4.752   6.271
 2999SOL    HW2 9897   2.724   4.639   6.165
 3000SOL     OW 9898   2.536   4.052   6.409
 3000SOL    HW1 9899   2.515   4.032   6.313
 3000SOL    HW2 9900   2.588   3.975   6.447
 3001SOL     OW 9901   6.131   2.411   0.254
 3001SOL    HW1 9902   6.038   2.441   0.237
 3001SOL    HW2 9903   6.168   2.366   0.173
 3002SOL     OW 9904   3.081   1.390   1.100
 3002SOL    HW1 9905   3.026   1.459   1.148
 3002SOL    HW2 9906   3.022   1.314   1.074
 3003SOL     OW 9907   1.274   6.642   1.136
 3003SOL    HW1 9908   1.345   6.572   1.146
 3003SOL    HW2 9909   1.184   6.601   1.148
 3004SOL     OW 9910   1.767   4.679   4.074
 3004SOL    HW1 9911   1.736   4.755   4.131
 3004SOL    HW2 9912   1.687   4.627   4.041
 3005SOL     OW 9913   1.106   3.467   5.521
 3005SOL    HW1 9914   1.187   3.484   5.578
 3005SOL    HW2 9915   1.031   3.436   5.578
 3006SOL     OW 9916   5.640   1.191   5.526
 3006SOL    HW1 9917   5.695   1.124   5.577
 3006SOL    HW2 9918   5.655   1.177   5.428
 3007SOL     OW 9919   4.558   5.603   0.214
 3007SOL    HW1 9920   4.512   5.625   0.128
 3007SOL    HW2 9921   4.539   5.675   0.281
 3008SOL     OW 9922   3.826   2.698   6.460
 3008SOL    HW1 9923   3.840   2.682   6.558
 3008SOL    HW2 9924   3.729   2.690   6.438
 3009SOL     OW 9925   0.019   2.218   3.154
 3009SOL    HW1 9926   0.067   2.221   3.067
 3009SOL    HW2 9927   0.085   2.222   3.229
 3010SOL     OW 9928   3.366   5.671   5.344
 3010SOL    HW1 9929   3.380   5.715   5.433
 3010SOL    HW2 9930   3.378   5.739   5.271
 3011SOL     OW 9931   6.572   0.289   1.720
 3011SOL    HW1 9932   6.596   0.301   1.624
 3011SOL    HW2 9933   6.655   0.267   1.773
 3012SOL     OW 9934   2.842   3.523   6.999
 3012SOL    HW1 9935   2.922   3.539   6.942
 3012SOL    HW2 9936   2.759   3.536   6.945
 3013SOL     OW 9937   6.194   5.211   3.304
 3013SOL    HW1 9938   6.166   5.133   3.247
 3013SOL    HW2 9939   6.266   5.181   3.367
 3014SOL     OW 9940   4.908   1.622   6.626
 3014SOL    HW1 9941   4.883   1.526   6.616
 3014SOL    HW2 9942   4.910   1.647   6.723
 3015SOL     OW 9943   2.604   1.435   0.640
 3015SOL    HW1 9944   2.702   1.423   0.626
 3015SOL    HW2 9945   2.554   1.388   0.567
 3016SOL     OW 9946   3.208   0.080   4.109
 3016SOL    HW1 9947   3.284   0.138   4.081
 3016SOL    HW2 9948   3.132   0.138   4.140
 3017SOL     OW 9949   6.108   4.725   2.313
 3017SOL    HW1 9950   6.111   4.821   2.341
 3017SOL    HW2 9951   6.202   4.691   2.303
 3018SOL     OW 9952   3.978   0.076   6.876
 3018SOL    HW1 9953   3.914   0.035   6.811
 3018SOL    HW2 9954   3.983   0.175   6.860
 3019SOL     OW 9955   0.995   6.907   0.363
 3019SOL    HW1 9956   0.938   6.941   0.289
 3019SOL    HW2 9957   0.942   6.848   0.422
 3020SOL     OW 9958   4.493   3.250   0.317
 3020SOL    HW1 9959   4.540   3.167   0.347
 3020SOL    HW2 9960   4.533   3.329   0.363
 3021SOL     OW 9961   2.407   6.832   4.523
 3021SOL    HW1 9962   2.393   6.849   4.426
 3021SOL    HW2 9963   2.319   6.836   4.570
 3022SOL     OW 9964   3.834   6.071   4.135
 3022SOL    HW1 9965   3.743   6.034   4.116
 3022SOL    HW2 9966   3.875   6.104   4.051
 3023SOL     OW 9967   3.827   6.929   2.672
 3023SOL    HW1 9968   3.812   7.026   2.692
 3023SOL    HW2 9969   3.849   6.881   2.757
 3024SOL     OW 9970   6.193   5.753   5.563
 3024SOL    HW1 9971   6.164   5.679   5.623
 3024SOL    HW2 9972   6.272   5.724   5.509
 3025SOL     OW 9973   3.920   6.020   1.296
 3025SOL    HW1 9974   3.919   6.031   1.197
 3025SOL    HW2 9975   3.999   5.964   1.322
 3026SOL     OW 9976   0.093   0.969   6.384
 3026SOL    HW1 9977   0.098   1.039   6.313
 3026SOL    HW2 9978   0.115   0.880   6.344
 3027SOL     OW 9979   3.983   1.467   2.094
 3027SOL    HW1 9980   3.946   1.430   2.008
 3027SOL    HW2 9981   4.082   1.477   2.086
 3028SOL     OW 9982   1.689   3.988   6.117
 3028SOL    HW1 9983   1.648   4.065   6.166
 3028SOL    HW2 9984   1.777   3.966   6.158
 3029SOL     OW 9985   0.789   2.493   3.632
 3029SOL    HW1 9986   0.853   2.485   3.709
 3029SOL    HW2 9987   0.814   2.573   3.576
 3030SOL     OW 9988   1.485   3.969   0.947
 3030SOL    HW1 9989   1.546   4.036   0.990
 3030SOL    HW2 9990   1.474   3.991   0.850
 3031SOL     OW 9991   1.255   5.040   1.333
 3031SOL    HW1 9992   1.352   5.064   1.326
 3031SOL    HW2 9993   1.212   5.046   1.243
 3032SOL     OW 9994   1.542   6.030   2.916
 3032SOL    HW1 9995   1.550   6.007   3.013
 3032SOL    HW2 9996   1.560   5.949   2.860
 3033SOL     OW 9997   6.172   1.959   3.200
 3033SOL    HW1 9998   6.163   1.868   3.239
 3033SOL    HW2 9999   6.177   1.952   3.100
 3034SOL     OW10000   1.317   6.141   3.635
 3034SOL    HW110001   1.257   6.071   3.673
 3034SOL    HW210002   1.337   6.120   3.539
 3035SOL     OW10003   0.999   3.369   6.031
 3035SOL    HW110004   0.905   3.343   6.055
 3035SOL    HW210005   1.051   3.389   6.114
 3036SOL     OW10006   1.276   1.656   5.817
 3036SOL    HW110007   1.304   1.623   5.908
 3036SOL    HW210008   1.326   1.739   5.795
 3037SOL     OW10009   6.999   5.073   5.394
 3037SOL    HW110010   0.053   5.027   5.366
 3037SOL    HW210011   6.938   5.082   5.315
 3038SOL     OW10012   5.239   4.837   6.119
 3038SOL    HW110013   5.295   4.893   6.180
 3038SOL    HW210014   5.253   4.867   6.025
 3039SOL     OW10015   0.096   3.108   6.812
 3039SOL    HW110016   0.001   3.080   6.821
 3039SOL    HW210017   0.110   3.195   6.858
 3040SOL     OW10018   3.162   4.384   5.820
 3040SOL    HW110019   3.126   4.440   5.746
 3040SOL    HW210020   3.236   4.326   5.784
 3041SOL     OW10021   1.013   4.315   5.866
 3041SOL    HW110022   1.032   4.379   5.941
 3041SOL    HW210023   0.960   4.361   5.795
 3042SOL     OW10024   6.439   5.804   2.286
 3042SOL    HW110025   6.524   5.830   2.332
 3042SOL    HW210026   6.453   5.718   2.237
 3043SOL     OW10027   3.259   3.602   0.287
 3043SOL    HW110028   3.239   3.700   0.294
 3043SOL    HW210029   3.344   3.582   0.336
 3044SOL     OW10030   2.798   4.576   5.618
 3044SOL    HW110031   2.787   4.510   5.542
 3044SOL    HW210032   2.896   4.592   5.632
 3045SOL     OW10033   4.475   0.152   3.184
 3045SOL    HW110034   4.539   0.221   3.220
 3045SOL    HW210035   4.408   0.197   3.125
 3046SOL     OW10036   4.232   6.325   6.441
 3046SOL    HW110037   4.295   6.315   6.518
 3046SOL    HW210038   4.281   6.315   6.355
 3047SOL     OW10039   6.243   6.738   0.445
 3047SOL    HW110040   6.177   6.810   0.463
 3047SOL    HW210041   6.298   6.720   0.527
 3048SOL     OW10042   4.342   2.516   1.113
 3048SOL    HW110043   4.360   2.577   1.190
 3048SOL    HW210044   4.426   2.503   1.061
 3049SOL     OW10045   1.163   0.768   4.049
 3049SOL    HW110046   1.106   0.830   4.104
 3049SOL    HW210047   1.257   0.772   4.081
 3050SOL     OW10048   1.901   2.408   1.427
 3050SOL    HW110049   1.997   2.405   1.454
 3050SOL    HW210050   1.876   2.321   1.385
 3051SOL     OW10051   2.789   6.831   6.443
 3051SOL    HW110052   2.731   6.761   6.484
 3051SOL    HW210053   2.770   6.920   6.486
 3052SOL     OW10054   5.623   6.137   2.297
 3052SOL    HW110055   5.651   6.233   2.289
 3052SOL    HW210056   5.661   6.085   2.221
 3053SOL     OW10057   1.158   4.466   1.057
 3053SOL    HW110058   1.082   4.492   1.117
 3053SOL    HW210059   1.148   4.370   1.032
 3054SOL     OW10060   5.706   1.031   3.277
 3054SOL    HW110061   5.803   1.028   3.301
 3054SOL    HW210062   5.685   0.954   3.216
 3055SOL     OW10063   5.728   6.636   5.956
 3055SOL    HW110064   5.826   6.632   5.937
 3055SOL    HW210065   5.678   6.644   5.869
 3056SOL     OW10066   6.306   1.740   6.171
 3056SOL    HW110067   6.211   1.708   6.175
 3056SOL    HW210068   6.362   1.684   6.233
 3057SOL     OW10069   5.346   5.791   3.724
 3057SOL    HW110070   5.332   5.760   3.818
 3057SOL    HW210071   5.384   5.717   3.669
 3058SOL     OW10072   6.226   3.946   1.270
 3058SOL    HW110073   6.320   3.966   1.245
 3058SOL    HW210074   6.170   4.028   1.260
 3059SOL     OW10075   2.446   1.913   4.490
 3059SOL    HW110076   2.363   1.906   4.545
 3059SOL    HW210077   2.525   1.924   4.550
 3060SOL     OW10078   2.987   5.078   6.552
 3060SOL    HW110079   2.979   5.063   6.454
 3060SOL    HW210080   2.949   5.167   6.576
 3061SOL     OW10081   6.016   5.443   5.914
 3061SOL    HW110082   6.055   5.351   5.923
 3061SOL    HW210083   5.943   5.455   5.981
 3062SOL     OW10084   3.826   5.608   1.140
 3062SOL    HW110085   3.912   5.654   1.119
 3062SOL    HW210086   3.790   5.642   1.227
 3063SOL     OW10087   1.237   4.467   0.413
 3063SOL    HW110088   1.306   4.440   0.345
 3063SOL    HW210089   1.151   4.489   0.367
 3064SOL     OW10090   4.304   2.889   0.013
 3064SOL    HW110091   4.368   2.914   6.971
 3064SOL    HW210092   4.213   2.874   7.005
 3065SOL     OW10093   1.201   1.587   6.368
 3065SOL    HW110094   1.290   1.622   6.396
 3065SOL    HW210095   1.137   1.594   6.444
 3066SOL     OW10096   4.812   5.114   6.004
 3066SOL    HW110097   4.773   5.026   5.978
 3066SOL    HW210098   4.739   5.177   6.029
 3067SOL     OW10099   2.321   2.175   0.476
 3067SOL    HW110100   2.223   2.188   0.494
 3067SOL    HW210101   2.336   2.086   0.433
 3068SOL     OW10102   0.443   1.375   1.318
 3068SOL    HW110103   0.503   1.315   1.371
 3068SOL    HW210104   0.360   1.324   1.294
 3069SOL     OW10105   6.193   6.554   3.390
 3069SOL    HW110106   6.290   6.573   3.400
 3069SOL    HW210107   6.147   6.635   3.353
 3070SOL     OW10108   2.795   1.035   6.938
 3070SOL    HW110109   2.879   1.067   6.983
 3070SOL    HW210110   2.793   1.068   6.844
 3071SOL     OW10111   6.915   4.669   3.759
 3071SOL    HW110112   6.960   4.670   3.669
 3071SOL    HW210113   6.888   4.575   3.782
 3072SOL     OW10114   1.817   5.824   0.347
 3072SOL    HW110115   1.796   5.786   0.438
 3072SOL    HW210116   1.810   5.923   0.350
 3073SOL     OW10117   0.309   4.544   1.366
 3073SOL    HW110118   0.234   4.565   1.429
 3073SOL    HW210119   0.333   4.447   1.373
 3074SOL     OW10120   1.354   4.334   1.398
 3074SOL    HW110121   1.383   4.372   1.486
 3074SOL    HW210122   1.361   4.404   1.327
 3075SOL     OW10123   2.347   5.132   4.033
 3075SOL    HW110124   2.269   5.073   4.014
 3075SOL    HW210125   2.374   5.178   3.948
 3076SOL     OW10126   6.754   1.122   4.659
 3076SOL    HW110127   6.788   1.101   4.567
 3076SOL    HW210128   6.773   1.217   4.681
 3077SOL     OW10129   5.968   3.300   1.946
 3077SOL    HW110130   6.012   3.348   1.870
 3077SOL    HW210131   5.970   3.359   2.027
 3078SOL     OW10132   6.715   2.766   2.269
 3078SOL    HW110133   6.632   2.782   2.217
 3078SOL    HW210134   6.695   2.770   2.367
 3079SOL     OW10135   2.701   2.406   4.230
 3079SOL    HW110136   2.794   2.417   4.266
 3079SOL    HW210137   2.705   2.400   4.130
 3080SOL     OW10138   4.503   3.955   1.711
 3080SOL    HW110139   4.491   3.969   1.613
 3080SOL    HW210140   4.507   4.043   1.758
 3081SOL     OW10141   0.913   4.695   0.008
 3081SOL    HW110142   0.916   4.784   6.992
 3081SOL    HW210143   0.916   4.621   6.972
 3082SOL     OW10144   3.018   5.519   4.771
 3082SOL    HW110145   3.005   5.421   4.781
 3082SOL    HW210146   2.943   5.558   4.717
 3083SOL     OW10147   3.287   5.216   2.523
 3083SOL    HW110148   3.198   5.175   2.543
 3083SOL    HW210149   3.279   5.316   2.524
 3084SOL     OW10150   0.277   4.137   2.392
 3084SOL    HW110151   0.218   4.059   2.410
 3084SOL    HW210152   0.221   4.216   2.367
 3085SOL     OW10153   5.058   4.802   0.896
 3085SOL    HW110154   5.144   4.853   0.894
 3085SOL    HW210155   5.052   4.742   0.817
 3086SOL     OW10156   4.747   1.403   6.996
 3086SOL    HW110157   4.812   1.336   6.959
 3086SOL    HW210158   4.797   1.477   0.010
 3087SOL     OW10159   2.087   6.616   2.175
 3087SOL    HW110160   2.148   6.635   2.098
 3087SOL    HW210161   2.080   6.698   2.233
 3088SOL     OW10162   1.137   3.057   5.599
 3088SOL    HW110163   1.185   3.127   5.652
 3088SOL    HW210164   1.039   3.064   5.616
 3089SOL     OW10165   4.760   1.286   5.213
 3089SOL    HW110166   4.840   1.296   5.155
 3089SOL    HW210167   4.771   1.341   5.296
 3090SOL     OW10168   1.657   1.155   2.010
 3090SOL    HW110169   1.693   1.240   2.046
 3090SOL    HW210170   1.670   1.152   1.911
 3091SOL     OW10171   1.531   1.218   0.669
 3091SOL    HW110172   1.464   1.169   0.614
 3091SOL    HW210173   1.594   1.268   0.609
 3092SOL     OW10174   5.047   6.704   1.811
 3092SOL    HW110175   5.071   6.800   1.793
 3092SOL    HW210176   5.114   6.664   1.873
 3093SOL     OW10177   5.757   6.195   5.428
 3093SOL    HW110178   5.661   6.213   5.407
 3093SOL    HW210179   5.776   6.097   5.418
 3094SOL     OW10180   3.012   0.604   4.124
 3094SOL    HW110181   2.953   0.531   4.091
 3094SOL    HW210182   3.071   0.570   4.196
 3095SOL     OW10183   2.219   3.037   5.587
 3095SOL    HW110184   2.274   2.980   5.526
 3095SOL    HW210185   2.190   3.119   5.539
 3096SOL     OW10186   0.602   4.018   4.687
 3096SOL    HW110187   0.610   4.009   4.588
 3096SOL    HW210188   0.593   3.927   4.728
 3097SOL     OW10189   5.912   2.913   0.384
 3097SOL    HW110190   5.992   2.899   0.443
 3097SOL    HW210191   5.843   2.965   0.434
 3098SOL     OW10192   1.543   2.918   2.138
 3098SOL    HW110193   1.600   2.925   2.219
 3098SOL    HW210194   1.523   3.010   2.103
 3099SOL     OW10195   0.845   6.211   3.747
 3099SOL    HW110196   0.752   6.175   3.737
 3099SOL    HW210197   0.904   6.141   3.787
 3100SOL     OW10198   7.009   6.773   2.694
 3100SOL    HW110199   6.930   6.712   2.684
 3100SOL    HW210200   0.004   6.809   2.605
 3101SOL     OW10201   4.761   6.613   6.046
 3101SOL    HW110202   4.751   6.585   6.142
 3101SOL    HW210203   4.675   6.595   5.998
 3102SOL     OW10204   6.770   5.793   0.261
 3102SOL    HW110205   6.713   5.865   0.221
 3102SOL    HW210206   6.751   5.706   0.216
 3103SOL     OW10207   4.877   0.905   0.950
 3103SOL    HW110208   4.855   0.826   0.894
 3103SOL    HW210209   4.828   0.985   0.916
 3104SOL     OW10210   4.276   0.198   6.778
 3104SOL    HW110211   4.260   0.123   6.713
 3104SOL    HW210212   4.259   0.166   6.871
 3105SOL     OW10213   4.860   3.112   1.008
 3105SOL    HW110214   4.835   3.061   0.925
 3105SOL    HW210215   4.780   3.124   1.065
 3106SOL     OW10216   5.282   6.794   5.517
 3106SOL    HW110217   5.246   6.849   5.441
 3106SOL    HW210218   5.274   6.846   5.602
 3107SOL     OW10219   4.427   1.722   4.098
 3107SOL    HW110220   4.461   1.770   4.178
 3107SOL    HW210221   4.504   1.688   4.044
 3108SOL     OW10222   2.145   4.852   4.707
 3108SOL    HW110223   2.233   4.844   4.755
 3108SOL    HW210224   2.099   4.763   4.710
 3109SOL     OW10225   6.322   0.398   4.875
 3109SOL    HW110226   6.346   0.458   4.799
 3109SOL    HW210227   6.259   0.446   4.936
 3110SOL     OW10228   2.496   4.478   3.273
 3110SOL    HW110229   2.461   4.411   3.338
 3110SOL    HW210230   2.490   4.440   3.180
 3111SOL     OW10231   6.467   4.560   3.780
 3111SOL    HW110232   6.416   4.633   3.734
 3111SOL    HW210233   6.453   4.474   3.732
 3112SOL     OW10234   3.071   3.350   6.783
 3112SOL    HW110235   3.124   3.342   6.698
 3112SOL    HW210236   2.991   3.407   6.767
 3113SOL     OW10237   3.183   5.822   2.410
 3113SOL    HW110238   3.236   5.803   2.493
 3113SOL    HW210239   3.110   5.888   2.431
 3114SOL     OW10240   4.211   1.456   0.379
 3114SOL    HW110241   4.143   1.403   0.430
 3114SOL    HW210242   4.262   1.395   0.319
 3115SOL     OW10243   3.957   4.740   5.360
 3115SOL    HW110244   3.885   4.770   5.297
 3115SOL    HW210245   3.923   4.664   5.416
 3116SOL     OW10246   0.798   1.929   0.492
 3116SOL    HW110247   0.871   1.886   0.439
 3116SOL    HW210248   0.713   1.931   0.439
 3117SOL     OW10249   4.981   2.775   5.448
 3117SOL    HW110250   4.933   2.702   5.399
 3117SOL    HW210251   5.074   2.783   5.414
 3118SOL     OW10252   1.242   0.342   2.432
 3118SOL    HW110253   1.192   0.357   2.347
 3118SOL    HW210254   1.297   0.423   2.453
 3119SOL     OW10255   2.978   2.530   5.311
 3119SOL    HW110256   3.042   2.465   5.272
 3119SOL    HW210257   3.028   2.595   5.368
 3120SOL     OW10258   3.178   0.722   5.931
 3120SOL    HW110259   3.264   0.685   5.897
 3120SOL    HW210260   3.127   0.651   5.978
 3121SOL     OW10261   5.286   1.689   4.280
 3121SOL    HW110262   5.206   1.670   4.223
 3121SOL    HW210263   5.332   1.771   4.246
 3122SOL     OW10264   4.427   4.661   4.858
 3122SOL    HW110265   4.380   4.746   4.884
 3122SOL    HW210266   4.424   4.597   4.934
 3123SOL     OW10267   1.973   0.326   3.505
 3123SOL    HW110268   1.947   0.233   3.479
 3123SOL    HW210269   1.973   0.335   3.604
 3124SOL     OW10270   5.279   6.809   4.226
 3124SOL    HW110271   5.276   6.794   4.127
 3124SOL    HW210272   5.327   6.733   4.271
 3125SOL     OW10273   0.742   2.882   5.377
 3125SOL    HW110274   0.831   2.869   5.420
 3125SOL    HW210275   0.696   2.794   5.367
 3126SOL     OW10276   5.731   4.920   6.497
 3126SOL    HW110277   5.687   4.867   6.570
 3126SOL    HW210278   5.672   4.919   6.415
 3127SOL     OW10279   1.495   2.753   5.192
 3127SOL    HW110280   1.589   2.751   5.224
 3127SOL    HW210281   1.435   2.710   5.260
 3128SOL     OW10282   3.948   0.722   0.484
 3128SOL    HW110283   4.041   0.759   0.477
 3128SOL    HW210284   3.919   0.722   0.579
 3129SOL     OW10285   4.956   3.418   0.963
 3129SOL    HW110286   4.868   3.374   0.942
 3129SOL    HW210287   4.977   3.406   1.060
 3130SOL     OW10288   1.785   4.165   1.350
 3130SOL    HW110289   1.736   4.243   1.390
 3130SOL    HW210290   1.769   4.083   1.405
 3131SOL     OW10291   6.935   3.324   2.260
 3131SOL    HW110292   6.944   3.229   2.290
 3131SOL    HW210293   7.021   3.354   2.218
 3132SOL     OW10294   4.380   5.145   6.729
 3132SOL    HW110295   4.332   5.060   6.747
 3132SOL    HW210296   4.478   5.131   6.743
 3133SOL     OW10297   3.818   1.464   3.430
 3133SOL    HW110298   3.792   1.547   3.381
 3133SOL    HW210299   3.900   1.482   3.484
 3134SOL     OW10300   3.737   5.091   1.802
 3134SOL    HW110301   3.784   5.005   1.784
 3134SOL    HW210302   3.643   5.072   1.831
 3135SOL     OW10303   5.475   6.441   6.279
 3135SOL    HW110304   5.476   6.371   6.207
 3135SOL    HW210305   5.453   6.398   6.367
 3136SOL     OW10306   5.592   0.366   1.881
 3136SOL    HW110307   5.522   0.438   1.883
 3136SOL    HW210308   5.671   0.394   1.935
 3137SOL     OW10309   6.779   6.876   2.197
 3137SOL    HW110310   6.696   6.899   2.249
 3137SOL    HW210311   6.831   6.806   2.246
 3138SOL     OW10312   6.273   5.275   3.751
 3138SOL    HW110313   6.360   5.319   3.728
 3138SOL    HW210314   6.273   5.247   3.847
 3139SOL     OW10315   3.257   4.938   1.565
 3139SOL    HW110316   3.343   4.923   1.612
 3139SOL    HW210317   3.260   5.026   1.516
 3140SOL     OW10318   0.035   5.977   5.279
 3140SOL    HW110319   0.097   5.924   5.337
 3140SOL    HW210320   0.085   6.010   5.199
 3141SOL     OW10321   6.890   0.862   6.548
 3141SOL    HW110322   6.912   0.953   6.513
 3141SOL    HW210323   6.952   0.795   6.508
 3142SOL     OW10324   3.885   1.224   2.598
 3142SOL    HW110325   3.813   1.186   2.656
 3142SOL    HW210326   3.967   1.241   2.654
 3143SOL     OW10327   6.265   1.920   6.768
 3143SOL    HW110328   6.342   1.956   6.821
 3143SOL    HW210329   6.248   1.979   6.690
 3144SOL     OW10330   4.150   3.732   6.818
 3144SOL    HW110331   4.113   3.641   6.837
 3144SOL    HW210332   4.234   3.745   6.870
 3145SOL     OW10333   1.910   6.634   2.558
 3145SOL    HW110334   1.852   6.711   2.584
 3145SOL    HW210335   1.892   6.610   2.462
 3146SOL     OW10336   0.891   1.018   5.055
 3146SOL    HW110337   0.934   0.938   5.014
 3146SOL    HW210338   0.793   1.017   5.036
 3147SOL     OW10339   3.428   5.318   6.741
 3147SOL    HW110340   3.492   5.362   6.679
 3147SOL    HW210341   3.381   5.387   6.797
 3148SOL     OW10342   0.424   0.408   3.842
 3148SOL    HW110343   0.494   0.400   3.771
 3148SOL    HW210344   0.385   0.500   3.841
 3149SOL     OW10345   3.430   1.302   6.533
 3149SOL    HW110346   3.380   1.229   6.486
 3149SOL    HW210347   3.461   1.369   6.466
 3150SOL     OW10348   6.477   5.634   5.548
 3150SOL    HW110349   6.479   5.734   5.559
 3150SOL    HW210350   6.499   5.590   5.635
 3151SOL     OW10351   0.270   1.817   5.771
 3151SOL    HW110352   0.290   1.827   5.674
 3151SOL    HW210353   0.356   1.802   5.821
 3152SOL     OW10354   1.169   4.443   6.836
 3152SOL    HW110355   1.243   4.491   6.884
 3152SOL    HW210356   1.081   4.485   6.860
 3153SOL     OW10357   6.150   5.183   0.123
 3153SOL    HW110358   6.184   5.267   0.082
 3153SOL    HW210359   6.054   5.195   0.148
 3154SOL     OW10360   5.867   0.838   0.896
 3154SOL    HW110361   5.773   0.843   0.863
 3154SOL    HW210362   5.875   0.766   0.965
 3155SOL     OW10363   6.520   4.585   0.350
 3155SOL    HW110364   6.467   4.652   0.299
 3155SOL    HW210365   6.508   4.494   0.309
 3156SOL     OW10366   3.233   4.082   2.153
 3156SOL    HW110367   3.226   3.983   2.145
 3156SOL    HW210368   3.277   4.120   2.072
 3157SOL     OW10369   1.675   1.979   5.460
 3157SOL    HW110370   1.770   1.947   5.458
 3157SOL    HW210371   1.618   1.917   5.406
 3158SOL     OW10372   2.744   1.674   5.150
 3158SOL    HW110373   2.684   1.608   5.196
 3158SOL    HW210374   2.749   1.758   5.204
 3159SOL     OW10375   5.660   0.639   6.646
 3159SOL    HW110376   5.599   0.717   6.661
 3159SOL    HW210377   5.748   0.671   6.611
 3160SOL     OW10378   1.917   0.112   5.391
 3160SOL    HW110379   1.920   0.059   5.476
 3160SOL    HW210380   1.951   0.056   5.316
 3161SOL     OW10381   2.155   2.433   2.726
 3161SOL    HW110382   2.217   2.494   2.677
 3161SOL    HW210383   2.206   2.356   2.764
 3162SOL     OW10384   1.769   5.758   0.612
 3162SOL    HW110385   1.780   5.820   0.689
 3162SOL    HW210386   1.842   5.689   0.615
 3163SOL     OW10387   3.368   3.288   0.208
 3163SOL    HW110388   3.392   3.219   0.140
 3163SOL    HW210389   3.389   3.254   0.300
 3164SOL     OW10390   3.435   5.851   2.603
 3164SOL    HW110391   3.468   5.818   2.515
 3164SOL    HW210392   3.488   5.810   2.677
 3165SOL     OW10393   0.963   5.789   1.269
 3165SOL    HW110394   0.997   5.855   1.202
 3165SOL    HW210395   1.027   5.713   1.277
 3166SOL     OW10396   4.410   1.315   4.545
 3166SOL    HW110397   4.399   1.414   4.535
 3166SOL    HW210398   4.505   1.294   4.568
 3167SOL     OW10399   5.601   4.659   0.836
 3167SOL    HW110400   5.579   4.562   0.824
 3167SOL    HW210401   5.648   4.672   0.923
 3168SOL     OW10402   5.478   2.271   0.880
 3168SOL    HW110403   5.492   2.177   0.848
 3168SOL    HW210404   5.558   2.301   0.930
 3169SOL     OW10405   1.956   4.267   3.176
 3169SOL    HW110406   1.892   4.291   3.102
 3169SOL    HW210407   1.955   4.169   3.190
 3170SOL     OW10408   4.334   6.097   2.922
 3170SOL    HW110409   4.322   5.999   2.940
 3170SOL    HW210410   4.391   6.137   2.994
 3171SOL     OW10411   5.624   2.001   1.631
 3171SOL    HW110412   5.673   2.044   1.707
 3171SOL    HW210413   5.673   2.018   1.546
 3172SOL     OW10414   0.402   5.731   0.229
 3172SOL    HW110415   0.372   5.688   0.314
 3172SOL    HW210416   0.351   5.691   0.152
 3173SOL     OW10417   3.079   2.773   6.460
 3173SOL    HW110418   3.128   2.688   6.442
 3173SOL    HW210419   2.997   2.753   6.513
 3174SOL     OW10420   2.399   2.698   6.302
 3174SOL    HW110421   2.446   2.653   6.378
 3174SOL    HW210422   2.357   2.782   6.335
 3175SOL     OW10423   5.785   0.924   1.766
 3175SOL    HW110424   5.805   0.827   1.779
 3175SOL    HW210425   5.806   0.974   1.850
 3176SOL     OW10426   0.620   3.052   5.537
 3176SOL    HW110427   0.660   2.994   5.466
 3176SOL    HW210428   0.557   3.117   5.495
 3177SOL     OW10429   5.171   4.323   4.123
 3177SOL    HW110430   5.211   4.414   4.107
 3177SOL    HW210431   5.127   4.322   4.213
 3178SOL     OW10432   6.385   2.563   0.264
 3178SOL    HW110433   6.290   2.535   0.275
 3178SOL    HW210434   6.418   2.606   0.348
 3179SOL     OW10435   1.728   1.362   1.690
 3179SOL    HW110436   1.743   1.459   1.711
 3179SOL    HW210437   1.707   1.353   1.592
 3180SOL     OW10438   5.463   6.642   0.545
 3180SOL    HW110439   5.409   6.702   0.487
 3180SOL    HW210440   5.473   6.553   0.502
 3181SOL     OW10441   6.821   1.906   4.083
 3181SOL    HW110442   6.876   1.827   4.054
 3181SOL    HW210443   6.804   1.900   4.181
 3182SOL     OW10444   2.611   0.777   6.676
 3182SOL    HW110445   2.653   0.708   6.618
 3182SOL    HW210446   2.670   0.795   6.755
 3183SOL     OW10447   4.427   4.625   2.111
 3183SOL    HW110448   4.496   4.697   2.117
 3183SOL    HW210449   4.357   4.639   2.181
 3184SOL     OW10450   0.186   1.759   2.571
 3184SOL    HW110451   0.244   1.682   2.544
 3184SOL    HW210452   0.179   1.764   2.670
 3185SOL     OW10453   5.735   6.694   6.472
 3185SOL    HW110454   5.702   6.600   6.465
 3185SOL    HW210455   5.671   6.747   6.528
 3186SOL     OW10456   2.882   1.596   0.270
 3186SOL    HW110457   2.918   1.505   0.250
 3186SOL    HW210458   2.872   1.647   0.185
 3187SOL     OW10459   3.554   5.475   2.238
 3187SOL    HW110460   3.486   5.407   2.265
 3187SOL    HW210461   3.558   5.482   2.139
 3188SOL     OW10462   2.220   5.709   4.544
 3188SOL    HW110463   2.196   5.619   4.583
 3188SOL    HW210464   2.238   5.773   4.618
 3189SOL     OW10465   2.066   1.633   0.362
 3189SOL    HW110466   2.015   1.547   0.358
 3189SOL    HW210467   2.058   1.672   0.454
 3190SOL     OW10468   6.912   5.811   6.779
 3190SOL    HW110469   6.942   5.765   6.862
 3190SOL    HW210470   6.814   5.830   6.786
 3191SOL     OW10471   4.306   5.020   1.585
 3191SOL    HW110472   4.380   5.049   1.646
 3191SOL    HW210473   4.233   4.978   1.639
 3192SOL     OW10474   0.043   2.620   0.947
 3192SOL    HW110475   0.139   2.590   0.942
 3192SOL    HW210476   7.016   2.543   0.973
 3193SOL     OW10477   3.895   1.473   5.144
 3193SOL    HW110478   3.951   1.390   5.147
 3193SOL    HW210479   3.929   1.533   5.072
 3194SOL     OW10480   0.329   1.425   5.288
 3194SOL    HW110481   0.248   1.436   5.231
 3194SOL    HW210482   0.410   1.420   5.230
 3195SOL     OW10483   0.626   1.188   1.447
 3195SOL    HW110484   0.710   1.235   1.473
 3195SOL    HW210485   0.645   1.124   1.373
 3196SOL     OW10486   6.809   0.689   6.765
 3196SOL    HW110487   6.838   0.768   6.709
 3196SOL    HW210488   6.804   0.608   6.707
 3197SOL     OW10489   2.485   7.019   5.240
 3197SOL    HW110490   2.539   7.002   5.322
 3197SOL    HW210491   2.392   0.015   5.266
 3198SOL     OW10492   6.432   2.659   3.141
 3198SOL    HW110493   6.362   2.589   3.152
 3198SOL    HW210494   6.394   2.749   3.162
 3199SOL     OW10495   5.508   4.439   2.933
 3199SOL    HW110496   5.478   4.529   2.964
 3199SOL    HW210497   5.568   4.450   2.853
 3200SOL     OW10498   5.827   2.680   2.964
 3200SOL    HW110499   5.798   2.641   3.052
 3200SOL    HW210500   5.747   2.700   2.908
 3201SOL     OW10501   6.482   4.914   3.131
 3201SOL    HW110502   6.547   4.900   3.057
 3201SOL    HW210503   6.388   4.909   3.096
 3202SOL     OW10504   0.730   5.063   0.544
 3202SOL    HW110505   0.771   5.141   0.590
 3202SOL    HW210506   0.702   4.995   0.612
 3203SOL     OW10507   5.625   1.846   1.084
 3203SOL    HW110508   5.557   1.903   1.130
 3203SOL    HW210509   5.700   1.827   1.147
 3204SOL     OW10510   3.420   0.698   3.234
 3204SOL    HW110511   3.462   0.607   3.239
 3204SOL    HW210512   3.344   0.703   3.298
 3205SOL     OW10513   5.039   2.773   5.746
 3205SOL    HW110514   4.981   2.735   5.818
 3205SOL    HW210515   4.991   2.772   5.659
 3206SOL     OW10516   2.109   4.042   1.212
 3206SOL    HW110517   2.191   4.021   1.159
 3206SOL    HW210518   2.038   3.974   1.193
 3207SOL     OW10519   1.432   0.701   6.726
 3207SOL    HW110520   1.481   0.614   6.724
 3207SOL    HW210521   1.420   0.730   6.821
 3208SOL     OW10522   5.507   5.923   6.187
 3208SOL    HW110523   5.504   5.977   6.271
 3208SOL    HW210524   5.420   5.874   6.176
 3209SOL     OW10525   3.028   5.221   4.739
 3209SOL    HW110526   3.021   5.158   4.661
 3209SOL    HW210527   3.058   5.171   4.820
 3210SOL     OW10528   1.120   5.065   1.093
 3210SOL    HW110529   1.039   5.122   1.104
 3210SOL    HW210530   1.101   4.993   1.026
 3211SOL     OW10531   2.058   4.586   0.645
 3211SOL    HW110532   2.109   4.506   0.612
 3211SOL    HW210533   2.104   4.624   0.725
 3212SOL     OW10534   3.478   6.916   2.498
 3212SOL    HW110535   3.562   6.881   2.457
 3212SOL    HW210536   3.407   6.923   2.428
 3213SOL     OW10537   1.588   0.484   6.723
 3213SOL    HW110538   1.628   0.474   6.631
 3213SOL    HW210539   1.541   0.399   6.748
 3214SOL     OW10540   4.907   5.787   2.569
 3214SOL    HW110541   4.870   5.868   2.522
 3214SOL    HW210542   4.951   5.816   2.654
 3215SOL     OW10543   0.740   4.114   0.740
 3215SOL    HW110544   0.772   4.045   0.675
 3215SOL    HW210545   0.732   4.072   0.831
 3216SOL     OW10546   5.602   5.233   0.593
 3216SOL    HW110547   5.516   5.248   0.642
 3216SOL    HW210548   5.677   5.225   0.659
 3217SOL     OW10549   0.215   5.375   2.535
 3217SOL    HW110550   0.192   5.470   2.557
 3217SOL    HW210551   0.169   5.349   2.450
 3218SOL     OW10552   5.615   2.570   3.102
 3218SOL    HW110553   5.526   2.571   3.056
 3218SOL    HW210554   5.609   2.515   3.185
 3219SOL     OW10555   0.014   0.460   4.391
 3219SOL    HW110556   7.000   0.371   4.389
 3219SOL    HW210557   6.977   0.531   4.411
 3220SOL     OW10558   0.417   5.917   6.311
 3220SOL    HW110559   0.326   5.890   6.277
 3220SOL    HW210560   0.419   5.908   6.410
 3221SOL     OW10561   3.110   7.007   2.605
 3221SOL    HW110562   3.138   0.043   2.536
 3221SOL    HW210563   3.149   0.002   2.694
 3222SOL     OW10564   2.793   1.305   2.515
 3222SOL    HW110565   2.846   1.389   2.521
 3222SOL    HW210566   2.854   1.229   2.493
 3223SOL     OW10567   2.775   6.797   0.142
 3223SOL    HW110568   2.778   6.700   0.118
 3223SOL    HW210569   2.781   6.807   0.242
 3224SOL     OW10570   5.103   2.668   5.049
 3224SOL    HW110571   5.121   2.597   4.980
 3224SOL    HW210572   5.004   2.682   5.057
 3225SOL     OW10573   4.600   1.489   5.558
 3225SOL    HW110574   4.526   1.549   5.592
 3225SOL    HW210575   4.575   1.394   5.573
 3226SOL     OW10576   2.138   1.081   1.986
 3226SOL    HW110577   2.053   1.068   2.037
 3226SOL    HW210578   2.190   1.156   2.026
 3227SOL     OW10579   3.499   3.382   6.712
 3227SOL    HW110580   3.573   3.418   6.654
 3227SOL    HW210581   3.418   3.439   6.701
 3228SOL     OW10582   6.727   3.828   0.791
 3228SOL    HW110583   6.767   3.787   0.873
 3228SOL    HW210584   6.777   3.796   0.710
 3229SOL     OW10585   3.716   0.585   5.654
 3229SOL    HW110586   3.689   0.564   5.560
 3229SOL    HW210587   3.739   0.681   5.662
 3230SOL     OW10588   1.852   5.718   6.097
 3230SOL    HW110589   1.904   5.727   6.182
 3230SOL    HW210590   1.916   5.716   6.019
 3231SOL     OW10591   2.525   0.639   2.831
 3231SOL    HW110592   2.528   0.653   2.930
 3231SOL    HW210593   2.478   0.716   2.789
 3232SOL     OW10594   4.082   6.297   4.127
 3232SOL    HW110595   4.051   6.338   4.213
 3232SOL    HW210596   4.092   6.369   4.058
 3233SOL     OW10597   6.870   2.489   0.578
 3233SOL    HW110598   6.795   2.471   0.642
 3233SOL    HW210599   6.911   2.578   0.599
 3234SOL     OW10600   0.704   2.959   0.187
 3234SOL    HW110601   0.627   2.901   0.214
 3234SOL    HW210602   0.759   2.913   0.118
 3235SOL     OW10603   6.370   0.028   1.919
 3235SOL    HW110604   6.463   7.022   1.917
 3235SOL    HW210605   6.350   0.074   1.833
 3236SOL     OW10606   0.903   4.322   0.824
 3236SOL    HW110607   0.857   4.255   0.766
 3236SOL    HW210608   1.000   4.300   0.830
 3237SOL     OW10609   5.818   1.066   2.588
 3237SOL    HW110610   5.728   1.084   2.626
 3237SOL    HW210611   5.886   1.065   2.662
 3238SOL     OW10612   5.868   5.421   0.195
 3238SOL    HW110613   5.892   5.481   0.118
 3238SOL    HW210614   5.821   5.340   0.160
 3239SOL     OW10615   0.276   0.931   3.205
 3239SOL    HW110616   0.243   0.924   3.111
 3239SOL    HW210617   0.346   1.003   3.210
 3240SOL     OW10618   0.006   0.473   6.182
 3240SOL    HW110619   0.051   0.390   6.149
 3240SOL    HW210620   6.939   0.467   6.164
 3241SOL     OW10621   5.092   1.594   5.810
 3241SOL    HW110622   5.010   1.551   5.773
 3241SOL    HW210623   5.118   1.549   5.896
 3242SOL     OW10624   4.475   3.762   6.070
 3242SOL    HW110625   4.457   3.779   5.973
 3242SOL    HW210626   4.393   3.725   6.113
 3243SOL     OW10627   4.505   5.128   0.169
 3243SOL    HW110628   4.563   5.046   0.166
 3243SOL    HW210629   4.554   5.201   0.216
 3244SOL     OW10630   5.570   6.225   6.873
 3244SOL    HW110631   5.578   6.228   6.774
 3244SOL    HW210632   5.638   6.287   6.914
 3245SOL     OW10633   4.965   1.639   4.574
 3245SOL    HW110634   5.032   1.566   4.559
 3245SOL    HW210635   4.910   1.617   4.655
 3246SOL     OW10636   6.821   6.959   2.794
 3246SOL    HW110637   6.821   6.987   2.698
 3246SOL    HW210638   6.796   6.862   2.799
 3247SOL     OW10639   6.049   4.596   2.050
 3247SOL    HW110640   6.142   4.560   2.050
 3247SOL    HW210641   6.039   4.662   2.125
 3248SOL     OW10642   5.415   2.283   2.574
 3248SOL    HW110643   5.460   2.362   2.615
 3248SOL    HW210644   5.318   2.301   2.564
 3249SOL     OW10645   3.481   3.806   3.555
 3249SOL    HW110646   3.417   3.799   3.479
 3249SOL    HW210647   3.445   3.757   3.634
 3250SOL     OW10648   5.369   0.204   2.644
 3250SOL    HW110649   5.329   0.271   2.582
 3250SOL    HW210650   5.457   0.238   2.677
 3251SOL     OW10651   3.475   0.942   4.082
 3251SOL    HW110652   3.499   1.028   4.126
 3251SOL    HW210653   3.523   0.936   3.994
 3252SOL     OW10654   3.039   0.645   2.393
 3252SOL    HW110655   3.003   0.721   2.339
 3252SOL    HW210656   3.139   0.649   2.394
 3253SOL     OW10657   4.495   3.762   0.425
 3253SOL    HW110658   4.416   3.802   0.379
 3253SOL    HW210659   4.464   3.697   0.494
 3254SOL     OW10660   5.251   6.538   6.892
 3254SOL    HW110661   5.277   6.568   6.800
 3254SOL    HW210662   5.239   6.618   6.950
 3255SOL     OW10663   4.770   6.465   1.157
 3255SOL    HW110664   4.843   6.472   1.225
 3255SOL    HW210665   4.786   6.531   1.084
 3256SOL     OW10666   3.591   1.791   1.170
 3256SOL    HW110667   3.613   1.751   1.259
 3256SOL    HW210668   3.606   1.890   1.173
 3257SOL     OW10669   1.776   1.674   1.701
 3257SOL    HW110670   1.712   1.683   1.777
 3257SOL    HW210671   1.804   1.765   1.670
 3258SOL     OW10672   4.066   5.405   3.398
 3258SOL    HW110673   4.041   5.488   3.449
 3258SOL    HW210674   4.023   5.407   3.308
 3259SOL     OW10675   4.715   5.274   4.347
 3259SOL    HW110676   4.659   5.245   4.425
 3259SOL    HW210677   4.811   5.278   4.374
 3260SOL     OW10678   1.706   3.593   1.486
 3260SOL    HW110679   1.788   3.638   1.451
 3260SOL    HW210680   1.718   3.494   1.479
 3261SOL     OW10681   5.307   0.733   1.211
 3261SOL    HW110682   5.219   0.754   1.168
 3261SOL    HW210683   5.332   0.807   1.273
 3262SOL     OW10684   3.944   2.154   2.009
 3262SOL    HW110685   3.966   2.201   1.923
 3262SOL    HW210686   3.855   2.184   2.042
 3263SOL     OW10687   3.353   1.541   2.796
 3263SOL    HW110688   3.416   1.538   2.718
 3263SOL    HW210689   3.339   1.448   2.831
 3264SOL     OW10690   2.350   5.617   1.101
 3264SOL    HW110691   2.378   5.548   1.033
 3264SOL    HW210692   2.303   5.692   1.055
 3265SOL     OW10693   5.582   0.042   6.583
 3265SOL    HW110694   5.579   0.102   6.503
 3265SOL    HW210695   5.607   0.096   6.664
 3266SOL     OW10696   2.831   4.845   6.753
 3266SOL    HW110697   2.882   4.891   6.681
 3266SOL    HW210698   2.888   4.775   6.796
 3267SOL     OW10699   3.113   6.775   2.224
 3267SOL    HW110700   3.026   6.811   2.257
 3267SOL    HW210701   3.109   6.762   2.125
 3268SOL     OW10702   2.007   4.283   1.322
 3268SOL    HW110703   1.918   4.238   1.329
 3268SOL    HW210704   2.067   4.231   1.262
 3269SOL     OW10705   6.683   5.858   2.035
 3269SOL    HW110706   6.743   5.807   1.973
 3269SOL    HW210707   6.649   5.939   1.989
 3270SOL     OW10708   1.319   3.359   6.678
 3270SOL    HW110709   1.258   3.415   6.733
 3270SOL    HW210710   1.394   3.416   6.644
 3271SOL     OW10711   0.044   3.171   1.551
 3271SOL    HW110712   0.098   3.133   1.476
 3271SOL    HW210713   6.977   3.161   1.531
 3272SOL     OW10714   2.947   4.433   6.417
 3272SOL    HW110715   2.951   4.333   6.416
 3272SOL    HW210716   3.021   4.470   6.362
 3273SOL     OW10717   6.545   5.094   6.914
 3273SOL    HW110718   6.460   5.119   6.867
 3273SOL    HW210719   6.600   5.176   6.929
 3274SOL     OW10720   5.874   0.286   0.553
 3274SOL    HW110721   5.870   0.357   0.623
 3274SOL    HW210722   5.937   0.214   0.581
 3275SOL     OW10723   4.553   1.031   6.919
 3275SOL    HW110724   4.581   1.085   6.839
 3275SOL    HW210725   4.565   1.085   7.002
 3276SOL     OW10726   4.387   7.006   6.649
 3276SOL    HW110727   4.450   6.991   6.725
 3276SOL    HW210728   4.409   6.944   6.574
 3277SOL     OW10729   3.783   1.123   1.176
 3277SOL    HW110730   3.756   1.123   1.272
 3277SOL    HW210731   3.733   1.052   1.127
 3278SOL     OW10732   1.368   0.724   5.936
 3278SOL    HW110733   1.446   0.727   6.000
 3278SOL    HW210734   1.292   0.676   5.979
 3279SOL     OW10735   5.254   0.222   0.480
 3279SOL    HW110736   5.190   0.160   0.435
 3279SOL    HW210737   5.291   0.178   0.562
 3280SOL     OW10738   4.901   4.718   5.262
 3280SOL    HW110739   4.870   4.813   5.257
 3280SOL    HW210740   4.974   4.703   5.195
 3281SOL     OW10741   0.911   5.137   0.848
 3281SOL    HW110742   0.986   5.088   0.805
 3281SOL    HW210743   0.934   5.234   0.856
 3282SOL     OW10744   6.829   5.097   5.185
 3282SOL    HW110745   6.805   5.194   5.194
 3282SOL    HW210746   6.746   5.042   5.181
 3283SOL     OW10747   3.149   1.249   1.418
 3283SOL    HW110748   3.060   1.228   1.378
 3283SOL    HW210749   3.221   1.221   1.354
 3284SOL     OW10750   1.348   5.903   5.672
 3284SOL    HW110751   1.312   5.896   5.579
 3284SOL    HW210752   1.274   5.927   5.734
 3285SOL     OW10753   4.393   2.121   4.887
 3285SOL    HW110754   4.316   2.063   4.910
 3285SOL    HW210755   4.474   2.065   4.871
 3286SOL     OW10756   3.347   2.784   1.917
 3286SOL    HW110757   3.337   2.704   1.859
 3286SOL    HW210758   3.443   2.808   1.927
 3287SOL     OW10759   0.484   6.924   0.176
 3287SOL    HW110760   0.538   6.956   0.099
 3287SOL    HW210761   0.397   6.889   0.144
 3288SOL     OW10762   1.994   6.864   0.352
 3288SOL    HW110763   2.084   6.841   0.389
 3288SOL    HW210764   1.985   6.826   0.259
 3289SOL     OW10765   2.406   1.642   6.106
 3289SOL    HW110766   2.484   1.699   6.083
 3289SOL    HW210767   2.391   1.574   6.034
 3290SOL     OW10768   6.799   5.053   0.692
 3290SOL    HW110769   6.809   5.040   0.791
 3290SOL    HW210770   6.726   4.995   0.658
 3291SOL     OW10771   2.086   1.497   6.051
 3291SOL    HW110772   2.120   1.582   6.092
 3291SOL    HW210773   2.042   1.517   5.964
 3292SOL     OW10774   0.068   1.046   0.632
 3292SOL    HW110775   7.018   1.101   0.610
 3292SOL    HW210776   0.125   1.095   0.697
 3293SOL     OW10777   6.383   4.419   1.608
 3293SOL    HW110778   6.439   4.371   1.540
 3293SOL    HW210779   6.424   4.407   1.698
 3294SOL     OW10780   5.157   2.903   6.411
 3294SOL    HW110781   5.256   2.901   6.397
 3294SOL    HW210782   5.120   2.812   6.393
 3295SOL     OW10783   0.722   2.978   1.976
 3295SOL    HW110784   0.713   2.879   1.964
 3295SOL    HW210785   0.818   3.004   1.968
 3296SOL     OW10786   1.053   0.690   2.954
 3296SOL    HW110787   1.056   0.790   2.948
 3296SOL    HW210788   1.019   0.663   3.044
 3297SOL     OW10789   2.796   1.328   5.447
 3297SOL    HW110790   2.747   1.312   5.361
 3297SOL    HW210791   2.756   1.408   5.493
 3298SOL     OW10792   6.868   2.379   5.727
 3298SOL    HW110793   6.887   2.453   5.792
 3298SOL    HW210794   6.790   2.326   5.760
 3299SOL     OW10795   3.919   6.055   3.007
 3299SOL    HW110796   3.989   6.106   2.956
 3299SOL    HW210797   3.877   5.988   2.946
 3300SOL     OW10798   1.311   0.380   6.079
 3300SOL    HW110799   1.386   0.384   6.144
 3300SOL    HW210800   1.248   0.456   6.097
 3301SOL     OW10801   2.005   2.890   3.499
 3301SOL    HW110802   1.986   2.877   3.402
 3301SOL    HW210803   2.101   2.913   3.512
 3302SOL     OW10804   0.650   4.935   5.086
 3302SOL    HW110805   0.747   4.929   5.110
 3302SOL    HW210806   0.640   4.969   4.993
 3303SOL     OW10807   2.875   3.549   0.276
 3303SOL    HW110808   2.839   3.526   0.186
 3303SOL    HW210809   2.885   3.648   0.284
 3304SOL     OW10810   1.806   5.250   6.300
 3304SOL    HW110811   1.874   5.225   6.231
 3304SOL    HW210812   1.782   5.347   6.289
 3305SOL     OW10813   2.774   1.414   2.107
 3305SOL    HW110814   2.818   1.334   2.147
 3305SOL    HW210815   2.678   1.417   2.134
 3306SOL     OW10816   1.300   4.903   4.529
 3306SOL    HW110817   1.317   4.923   4.625
 3306SOL    HW210818   1.215   4.947   4.500
 3307SOL     OW10819   0.776   7.014   5.647
 3307SOL    HW110820   0.847   6.946   5.632
 3307SOL    HW210821   0.781   0.016   5.742
 3308SOL     OW10822   3.230   5.519   1.484
 3308SOL    HW110823   3.291   5.543   1.560
 3308SOL    HW210824   3.139   5.496   1.519
 3309SOL     OW10825   6.985   4.898   3.948
 3309SOL    HW110826   6.976   4.805   3.913
 3309SOL    HW210827   7.027   4.895   4.039
 3310SOL     OW10828   6.776   4.230   4.776
 3310SOL    HW110829   6.730   4.202   4.692
 3310SOL    HW210830   6.720   4.206   4.855
 3311SOL     OW10831   3.198   4.200   0.557
 3311SOL    HW110832   3.133   4.154   0.617
 3311SOL    HW210833   3.242   4.275   0.607
 3312SOL     OW10834   4.085   3.724   5.519
 3312SOL    HW110835   4.124   3.784   5.589
 3312SOL    HW210836   4.136   3.638   5.517
 3313SOL     OW10837   1.216   7.016   3.574
 3313SOL    HW110838   1.291   6.986   3.515
 3313SOL    HW210839   1.148   6.943   3.580
 3314SOL     OW10840   2.539   1.216   2.484
 3314SOL    HW110841   2.555   1.132   2.433
 3314SOL    HW210842   2.626   1.263   2.499
 3315SOL     OW10843   0.292   3.772   4.744
 3315SOL    HW110844   0.241   3.853   4.773
 3315SOL    HW210845   0.307   3.776   4.646
 3316SOL     OW10846   4.441   0.939   5.196
 3316SOL    HW110847   4.527   0.891   5.176
 3316SOL    HW210848   4.364   0.882   5.167
 3317SOL     OW10849   4.874   2.591   2.193
 3317SOL    HW110850   4.907   2.567   2.284
 3317SOL    HW210851   4.929   2.545   2.123
 3318SOL     OW10852   1.961   1.525   0.727
 3318SOL    HW110853   1.916   1.475   0.801
 3318SOL    HW210854   1.900   1.530   0.648
 3319SOL     OW10855   5.655   1.250   3.830
 3319SOL    HW110856   5.630   1.322   3.895
 3319SOL    HW210857   5.581   1.182   3.826
 3320SOL     OW10858   5.807   1.153   0.103
 3320SOL    HW110859   5.895   1.192   0.133
 3320SOL    HW210860   5.768   1.100   0.179
 3321SOL     OW10861   5.549   1.904   0.568
 3321SOL    HW110862   5.584   1.872   0.656
 3321SOL    HW210863   5.569   2.001   0.557
 3322SOL     OW10864   6.669   2.637   1.713
 3322SOL    HW110865   6.657   2.575   1.790
 3322SOL    HW210866   6.736   2.708   1.737
 3323SOL     OW10867   2.484   2.924   0.439
 3323SOL    HW110868   2.391   2.904   0.407
 3323SOL    HW210869   2.544   2.847   0.417
 3324SOL     OW10870   4.285   4.959   6.133
 3324SOL    HW110871   4.189   4.933   6.137
 3324SOL    HW210872   4.333   4.899   6.068
 3325SOL     OW10873   0.192   3.985   0.214
 3325SOL    HW110874   0.195   4.023   0.122
 3325SOL    HW210875   0.263   3.915   0.224
 3326SOL     OW10876   4.541   1.748   1.842
 3326SOL    HW110877   4.580   1.772   1.753
 3326SOL    HW210878   4.541   1.649   1.852
 3327SOL     OW10879   2.908   5.542   1.844
 3327SOL    HW110880   2.827   5.522   1.899
 3327SOL    HW210881   2.968   5.604   1.895
 3328SOL     OW10882   4.110   1.924   0.656
 3328SOL    HW110883   4.210   1.913   0.653
 3328SOL    HW210884   4.071   1.900   0.567
 3329SOL     OW10885   5.699   0.301   5.766
 3329SOL    HW110886   5.741   0.225   5.817
 3329SOL    HW210887   5.652   0.362   5.829
 3330SOL     OW10888   6.210   3.566   1.679
 3330SOL    HW110889   6.185   3.632   1.608
 3330SOL    HW210890   6.236   3.479   1.635
 3331SOL     OW10891   2.353   3.211   1.715
 3331SOL    HW110892   2.347   3.304   1.754
 3331SOL    HW210893   2.433   3.205   1.656
 3332SOL     OW10894   5.793   5.834   0.418
 3332SOL    HW110895   5.810   5.930   0.392
 3332SOL    HW210896   5.828   5.819   0.511
 3333SOL     OW10897   3.770   5.891   6.230
 3333SOL    HW110898   3.747   5.970   6.286
 3333SOL    HW210899   3.785   5.811   6.288
 3334SOL     OW10900   3.290   3.758   1.270
 3334SOL    HW110901   3.258   3.709   1.189
 3334SOL    HW210902   3.246   3.720   1.351
 3335SOL     OW10903   4.788   4.922   5.675
 3335SOL    HW110904   4.823   4.830   5.692
 3335SOL    HW210905   4.720   4.946   5.744
 3336SOL     OW10906   3.009   5.440   5.068
 3336SOL    HW110907   3.051   5.502   5.133
 3336SOL    HW210908   3.079   5.386   5.022
 3337SOL     OW10909   3.286   2.937   2.190
 3337SOL    HW110910   3.256   2.900   2.103
 3337SOL    HW210911   3.241   2.888   2.265
 3338SOL     OW10912   6.097   2.907   1.117
 3338SOL    HW110913   6.061   3.000   1.127
 3338SOL    HW210914   6.197   2.910   1.115
 3339SOL     OW10915   6.783   0.411   6.699
 3339SOL    HW110916   6.856   0.371   6.643
 3339SOL    HW210917   6.695   0.371   6.673
 3340SOL     OW10918   3.847   0.524   1.148
 3340SOL    HW110919   3.939   0.561   1.157
 3340SOL    HW210920   3.780   0.597   1.159
 3341SOL     OW10921   1.448   6.047   4.065
 3341SOL    HW110922   1.409   5.993   3.991
 3341SOL    HW210923   1.475   5.987   4.140
 3342SOL     OW10924   2.560   6.474   4.314
 3342SOL    HW110925   2.588   6.557   4.362
 3342SOL    HW210926   2.631   6.447   4.249
 3343SOL     OW10927   4.937   2.946   0.517
 3343SOL    HW110928   4.934   3.004   0.435
 3343SOL    HW210929   4.905   2.999   0.596
 3344SOL     OW10930   6.191   3.660   4.532
 3344SOL    HW110931   6.122   3.695   4.595
 3344SOL    HW210932   6.147   3.605   4.462
 3345SOL     OW10933   1.627   3.814   5.508
 3345SOL    HW110934   1.661   3.720   5.500
 3345SOL    HW210935   1.659   3.868   5.430
 3346SOL     OW10936   1.649   0.971   1.302
 3346SOL    HW110937   1.675   0.978   1.206
 3346SOL    HW210938   1.720   0.922   1.353
 3347SOL     OW10939   0.500   4.750   3.553
 3347SOL    HW110940   0.488   4.835   3.502
 3347SOL    HW210941   0.583   4.704   3.521
 3348SOL     OW10942   3.024   3.162   3.229
 3348SOL    HW110943   3.062   3.138   3.140
 3348SOL    HW210944   3.041   3.088   3.294
 3349SOL     OW10945   0.970   4.740   4.381
 3349SOL    HW110946   0.974   4.687   4.466
 3349SOL    HW210947   0.993   4.836   4.400
 3350SOL     OW10948   1.160   2.263   6.581
 3350SOL    HW110949   1.102   2.242   6.502
 3350SOL    HW210950   1.110   2.321   6.645
 3351SOL     OW10951   5.293   6.917   2.658
 3351SOL    HW110952   5.313   6.900   2.754
 3351SOL    HW210953   5.273   7.014   2.644
 3352SOL     OW10954   0.361   3.556   0.529
 3352SOL    HW110955   0.300   3.635   0.531
 3352SOL    HW210956   0.423   3.559   0.608
 3353SOL     OW10957   1.433   6.288   2.265
 3353SOL    HW110958   1.421   6.385   2.244
 3353SOL    HW210959   1.386   6.267   2.350
 3354SOL     OW10960   5.317   2.649   4.270
 3354SOL    HW110961   5.284   2.675   4.361
 3354SOL    HW210962   5.363   2.561   4.276
 3355SOL     OW10963   1.383   1.452   0.053
 3355SOL    HW110964   1.345   1.542   0.078
 3355SOL    HW210965   1.445   1.422   0.125
 3356SOL     OW10966   2.025   3.419   7.009
 3356SOL    HW110967   1.965   3.442   0.055
 3356SOL    HW210968   2.115   3.394   0.014
 3357SOL     OW10969   2.652   4.878   1.810
 3357SOL    HW110970   2.610   4.800   1.857
 3357SOL    HW210971   2.747   4.887   1.839
 3358SOL     OW10972   4.742   0.163   1.644
 3358SOL    HW110973   4.650   0.193   1.668
 3358SOL    HW210974   4.750   0.155   1.544
 3359SOL     OW10975   6.836   0.293   3.968
 3359SOL    HW110976   6.886   0.289   4.055
 3359SOL    HW210977   6.831   0.202   3.928
 3360SOL     OW10978   6.892   0.860   0.266
 3360SOL    HW110979   6.966   0.792   0.268
 3360SOL    HW210980   6.820   0.829   0.205
 3361SOL     OW10981   0.493   5.516   2.075
 3361SOL    HW110982   0.500   5.505   2.174
 3361SOL    HW210983   0.584   5.511   2.034
 3362SOL     OW10984   4.168   1.680   4.074
 3362SOL    HW110985   4.261   1.718   4.072
 3362SOL    HW210986   4.163   1.601   4.012
 3363SOL     OW10987   0.804   0.167   0.028
 3363SOL    HW110988   0.735   0.109   7.015
 3363SOL    HW210989   0.886   0.170   7.001
 3364SOL     OW10990   1.314   4.278   4.257
 3364SOL    HW110991   1.262   4.200   4.293
 3364SOL    HW210992   1.392   4.244   4.204
 3365SOL     OW10993   0.221   2.361   5.092
 3365SOL    HW110994   0.174   2.304   5.159
 3365SOL    HW210995   0.173   2.356   5.004
 3366SOL     OW10996   6.103   6.997   5.762
 3366SOL    HW110997   6.113   6.898   5.753
 3366SOL    HW210998   6.184   0.012   5.726
 3367SOL     OW10999   1.974   2.932   1.576
 3367SOL    HW111000   1.954   2.837   1.601
 3367SOL    HW211001   2.053   2.964   1.629
 3368SOL     OW11002   0.664   5.791   6.602
 3368SOL    HW111003   0.721   5.859   6.648
 3368SOL    HW211004   0.701   5.773   6.510
 3369SOL     OW11005   3.266   2.503   5.835
 3369SOL    HW111006   3.320   2.429   5.795
 3369SOL    HW211007   3.201   2.538   5.767
 3370SOL     OW11008   6.759   5.976   5.698
 3370SOL    HW111009   6.759   6.076   5.701
 3370SOL    HW211010   6.785   5.946   5.606
 3371SOL     OW11011   0.532   4.382   2.394
 3371SOL    HW111012   0.493   4.455   2.451
 3371SOL    HW211013   0.460   4.341   2.339
 3372SOL     OW11014   1.118   1.541   1.864
 3372SOL    HW111015   1.042   1.549   1.929
 3372SOL    HW211016   1.204   1.561   1.910
 3373SOL     OW11017   6.267   1.328   3.512
 3373SOL    HW111018   6.174   1.336   3.477
 3373SOL    HW211019   6.290   1.411   3.564
 3374SOL     OW11020   2.559   5.275   4.534
 3374SOL    HW111021   2.537   5.367   4.502
 3374SOL    HW211022   2.639   5.280   4.594
 3375SOL     OW11023   4.659   5.088   5.477
 3375SOL    HW111024   4.710   5.035   5.544
 3375SOL    HW211025   4.566   5.054   5.471
 3376SOL     OW11026   4.092   3.551   2.898
 3376SOL    HW111027   4.126   3.479   2.959
 3376SOL    HW211028   4.092   3.639   2.947
 3377SOL     OW11029   0.124   5.969   4.395
 3377SOL    HW111030   0.078   5.888   4.431
 3377SOL    HW211031   0.056   6.038   4.371
 3378SOL     OW11032   6.297   0.627   0.583
 3378SOL    HW111033   6.383   0.601   0.626
 3378SOL    HW211034   6.315   0.673   0.497
 3379SOL     OW11035   6.956   5.228   6.024
 3379SOL    HW111036   6.893   5.186   5.959
 3379SOL    HW211037   7.009   5.156   6.070
 3380SOL     OW11038   5.963   6.093   6.129
 3380SOL    HW111039   5.951   5.997   6.156
 3380SOL    HW211040   5.888   6.120   6.069
 3381SOL     OW11041   1.235   2.454   0.760
 3381SOL    HW111042   1.306   2.524   0.753
 3381SOL    HW211043   1.249   2.386   0.688
 3382SOL     OW11044   0.821   1.113   0.329
 3382SOL    HW111045   0.742   1.168   0.303
 3382SOL    HW211046   0.815   1.023   0.286
 3383SOL     OW11047   4.775   5.391   3.177
 3383SOL    HW111048   4.832   5.459   3.223
 3383SOL    HW211049   4.744   5.428   3.089
 3384SOL     OW11050   2.885   3.289   5.124
 3384SOL    HW111051   2.867   3.354   5.198
 3384SOL    HW211052   2.930   3.208   5.161
 3385SOL     OW11053   0.162   3.996   3.597
 3385SOL    HW111054   0.213   3.910   3.604
 3385SOL    HW211055   0.180   4.052   3.678
 3386SOL     OW11056   6.575   3.281   5.962
 3386SOL    HW111057   6.578   3.276   5.862
 3386SOL    HW211058   6.647   3.224   6.001
 3387SOL     OW11059   2.946   0.741   2.778
 3387SOL    HW111060   2.908   0.711   2.866
 3387SOL    HW211061   2.954   0.840   2.777
 3388SOL     OW11062   6.363   3.139   1.866
 3388SOL    HW111063   6.264   3.144   1.872
 3388SOL    HW211064   6.390   3.119   1.772
 3389SOL     OW11065   4.485   5.228   4.882
 3389SOL    HW111066   4.430   5.242   4.965
 3389SOL    HW211067   4.581   5.214   4.907
 3390SOL     OW11068   5.651   4.901   6.227
 3390SOL    HW111069   5.662   4.812   6.183
 3390SOL    HW211070   5.705   4.969   6.179
 3391SOL     OW11071   5.652   2.731   4.562
 3391SOL    HW111072   5.723   2.740   4.492
 3391SOL    HW211073   5.567   2.772   4.529
 3392SOL     OW11074   2.774   0.738   3.572
 3392SOL    HW111075   2.702   0.687   3.620
 3392SOL    HW211076   2.736   0.777   3.488
 3393SOL     OW11077   0.212   6.509   0.479
 3393SOL    HW111078   0.269   6.585   0.449
 3393SOL    HW211079   0.129   6.506   0.424
 3394SOL     OW11080   6.238   3.521   1.079
 3394SOL    HW111081   6.249   3.438   1.023
 3394SOL    HW211082   6.193   3.498   1.165
 3395SOL     OW11083   6.216   3.084   3.651
 3395SOL    HW111084   6.145   3.043   3.594
 3395SOL    HW211085   6.176   3.115   3.738
 3396SOL     OW11086   6.308   2.106   3.374
 3396SOL    HW111087   6.358   2.032   3.418
 3396SOL    HW211088   6.249   2.069   3.303
 3397SOL     OW11089   2.928   1.229   5.665
 3397SOL    HW111090   2.889   1.274   5.585
 3397SOL    HW211091   2.860   1.230   5.739
 3398SOL     OW11092   1.668   6.771   4.018
 3398SOL    HW111093   1.691   6.804   3.927
 3398SOL    HW211094   1.645   6.673   4.014
 3399SOL     OW11095   5.317   4.630   4.866
 3399SOL    HW111096   5.229   4.653   4.825
 3399SOL    HW211097   5.385   4.699   4.842
 3400SOL     OW11098   4.424   1.717   5.627
 3400SOL    HW111099   4.461   1.808   5.610
 3400SOL    HW211100   4.324   1.721   5.624
 3401SOL     OW11101   6.696   3.566   1.209
 3401SOL    HW111102   6.721   3.646   1.264
 3401SOL    HW211103   6.704   3.484   1.266
 3402SOL     OW11104   4.234   6.378   0.690
 3402SOL    HW111105   4.162   6.368   0.759
 3402SOL    HW211106   4.318   6.334   0.723
 3403SOL     OW11107   3.825   0.547   4.930
 3403SOL    HW111108   3.794   0.634   4.969
 3403SOL    HW211109   3.752   0.507   4.875
 3404SOL     OW11110   5.494   1.786   6.585
 3404SOL    HW111111   5.517   1.718   6.516
 3404SOL    HW211112   5.493   1.742   6.675
 3405SOL     OW11113   6.363   3.673   4.047
 3405SOL    HW111114   6.412   3.696   4.132
 3405SOL    HW211115   6.310   3.752   4.018
 3406SOL     OW11116   0.994   4.060   2.315
 3406SOL    HW111117   0.937   4.110   2.380
 3406SOL    HW211118   1.070   4.118   2.286
 3407SOL     OW11119   1.344   5.128   0.218
 3407SOL    HW111120   1.272   5.195   0.198
 3407SOL    HW211121   1.304   5.049   0.265
 3408SOL     OW11122   4.944   4.184   4.854
 3408SOL    HW111123   4.858   4.234   4.841
 3408SOL    HW211124   5.020   4.241   4.823
 3409SOL     OW11125   3.255   6.564   6.038
 3409SOL    HW111126   3.269   6.649   6.090
 3409SOL    HW211127   3.283   6.486   6.094
 3410SOL     OW11128   6.196   5.943   0.287
 3410SOL    HW111129   6.137   5.994   0.350
 3410SOL    HW211130   6.171   5.966   0.193
 3411SOL     OW11131   0.436   2.688   2.162
 3411SOL    HW111132   0.436   2.778   2.119
 3411SOL    HW211133   0.479   2.622   2.100
 3412SOL     OW11134   4.491   2.890   6.551
 3412SOL    HW111135   4.446   2.891   6.640
 3412SOL    HW211136   4.449   2.959   6.491
 3413SOL     OW11137   4.791   0.696   2.655
 3413SOL    HW111138   4.825   0.788   2.673
 3413SOL    HW211139   4.716   0.700   2.590
 3414SOL     OW11140   1.739   1.133   5.978
 3414SOL    HW111141   1.808   1.069   5.945
 3414SOL    HW211142   1.771   1.175   6.063
 3415SOL     OW11143   1.589   4.429   4.628
 3415SOL    HW111144   1.607   4.354   4.565
 3415SOL    HW211145   1.676   4.472   4.654
 3416SOL     OW11146   6.740   5.565   0.116
 3416SOL    HW111147   6.727   5.470   0.145
 3416SOL    HW211148   6.837   5.582   0.101
 3417SOL     OW11149   0.347   5.993   3.558
 3417SOL    HW111150   0.311   5.909   3.600
 3417SOL    HW211151   0.406   5.969   3.481
 3418SOL     OW11152   3.914   0.460   5.187
 3418SOL    HW111153   3.901   0.480   5.090
 3418SOL    HW211154   3.938   0.364   5.198
 3419SOL     OW11155   3.822   5.308   4.846
 3419SOL    HW111156   3.794   5.363   4.768
 3419SOL    HW211157   3.746   5.302   4.912
 3420SOL     OW11158   5.445   2.669   3.608
 3420SOL    HW111159   5.370   2.677   3.543
 3420SOL    HW211160   5.410   2.676   3.701
 3421SOL     OW11161   6.152   0.631   6.340
 3421SOL    HW111162   6.216   0.696   6.382
 3421SOL    HW211163   6.170   0.625   6.242
 3422SOL     OW11164   2.167   6.575   1.141
 3422SOL    HW111165   2.143   6.671   1.127
 3422SOL    HW211166   2.124   6.520   1.070
 3423SOL     OW11167   2.449   6.606   0.425
 3423SOL    HW111168   2.488   6.574   0.338
 3423SOL    HW211169   2.483   6.548   0.500
 3424SOL     OW11170   2.964   6.788   2.607
 3424SOL    HW111171   2.968   6.724   2.530
 3424SOL    HW211172   3.043   6.849   2.605
 3425SOL     OW11173   5.590   3.704   2.195
 3425SOL    HW111174   5.560   3.609   2.197
 3425SOL    HW211175   5.625   3.730   2.285
 3426SOL     OW11176   2.929   3.067   7.030
 3426SOL    HW111177   2.972   2.990   0.047
 3426SOL    HW211178   2.830   3.063   0.013
 3427SOL     OW11179   6.885   6.733   6.399
 3427SOL    HW111180   6.863   6.799   6.328
 3427SOL    HW211181   6.800   6.699   6.439
 3428SOL     OW11182   3.392   5.112   1.037
 3428SOL    HW111183   3.444   5.070   0.963
 3428SOL    HW211184   3.440   5.096   1.124
 3429SOL     OW11185   1.210   0.944   0.102
 3429SOL    HW111186   1.143   0.932   0.176
 3429SOL    HW211187   1.162   0.958   0.016
 3430SOL     OW11188   0.307   6.408   5.069
 3430SOL    HW111189   0.250   6.401   5.151
 3430SOL    HW211190   0.360   6.324   5.058
 3431SOL     OW11191   1.961   7.009   1.198
 3431SOL    HW111192   1.913   0.043   1.138
 3431SOL    HW211193   1.943   0.002   1.293
 3432SOL     OW11194   2.481   2.731   6.891
 3432SOL    HW111195   2.395   2.738   6.940
 3432SOL    HW211196   2.471   2.774   6.801
 3433SOL     OW11197   1.143   6.876   6.481
 3433SOL    HW111198   1.078   6.804   6.459
 3433SOL    HW211199   1.109   6.963   6.445
 3434SOL     OW11200   3.810   2.413   0.933
 3434SOL    HW111201   3.783   2.497   0.886
 3434SOL    HW211202   3.739   2.387   0.998
 3435SOL     OW11203   1.150   1.579   1.272
 3435SOL    HW111204   1.225   1.624   1.222
 3435SOL    HW211205   1.156   1.480   1.258
 3436SOL     OW11206   3.821   6.574   5.576
 3436SOL    HW111207   3.862   6.611   5.659
 3436SOL    HW211208   3.787   6.481   5.593
 3437SOL     OW11209   3.148   0.645   6.384
 3437SOL    HW111210   3.192   0.686   6.305
 3437SOL    HW211211   3.143   0.712   6.458
 3438SOL     OW11212   1.389   2.559   0.206
 3438SOL    HW111213   1.419   2.527   0.117
 3438SOL    HW211214   1.453   2.627   0.241
 3439SOL     OW11215   2.215   6.623   5.866
 3439SOL    HW111216   2.285   6.551   5.870
 3439SOL    HW211217   2.259   6.712   5.858
 3440SOL     OW11218   4.165   3.096   1.487
 3440SOL    HW111219   4.147   3.001   1.464
 3440SOL    HW211220   4.111   3.122   1.567
 3441SOL     OW11221   5.042   0.445   3.640
 3441SOL    HW111222   5.100   0.406   3.712
 3441SOL    HW211223   5.029   0.542   3.657
 3442SOL     OW11224   3.078   4.899   2.461
 3442SOL    HW111225   3.065   4.831   2.390
 3442SOL    HW211226   2.989   4.936   2.489
 3443SOL     OW11227   5.330   0.270   2.163
 3443SOL    HW111228   5.281   0.350   2.126
 3443SOL    HW211229   5.264   0.201   2.191
 3444SOL     OW11230   4.699   5.544   6.918
 3444SOL    HW111231   4.630   5.479   6.948
 3444SOL    HW211232   4.708   5.541   6.818
 3445SOL     OW11233   5.979   5.632   4.047
 3445SOL    HW111234   5.900   5.571   4.047
 3445SOL    HW211235   6.057   5.585   4.088
 3446SOL     OW11236   5.997   0.944   2.815
 3446SOL    HW111237   5.919   0.895   2.854
 3446SOL    HW211238   6.066   0.960   2.886
 3447SOL     OW11239   5.276   4.948   0.991
 3447SOL    HW111240   5.353   4.964   0.929
 3447SOL    HW211241   5.246   5.035   1.030
 3448SOL     OW11242   3.214   0.392   0.725
 3448SOL    HW111243   3.171   0.319   0.778
 3448SOL    HW211244   3.226   0.473   0.782
 3449SOL     OW11245   6.303   6.524   3.846
 3449SOL    HW111246   6.375   6.468   3.805
 3449SOL    HW211247   6.216   6.505   3.801
 3450SOL     OW11248   0.410   2.960   6.785
 3450SOL    HW111249   0.433   3.013   6.866
 3450SOL    HW211250   0.381   3.021   6.712
 3451SOL     OW11251   1.122   5.478   2.959
 3451SOL    HW111252   1.051   5.419   2.997
 3451SOL    HW211253   1.083   5.568   2.940
 3452SOL     OW11254   5.733   2.191   6.796
 3452SOL    HW111255   5.735   2.191   6.896
 3452SOL    HW211256   5.825   2.174   6.760
 3453SOL     OW11257   0.081   6.689   6.135
 3453SOL    HW111258   0.043   6.773   6.174
 3453SOL    HW211259   0.012   6.645   6.077
 3454SOL     OW11260   1.747   1.020   0.081
 3454SOL    HW111261   1.707   0.928   0.085
 3454SOL    HW211262   1.775   1.039   7.018
 3455SOL     OW11263   2.173   3.308   4.206
 3455SOL    HW111264   2.219   3.220   4.216
 3455SOL    HW211265   2.181   3.359   4.292
 3456SOL     OW11266   5.417   6.176   2.497
 3456SOL    HW111267   5.433   6.175   2.596
 3456SOL    HW211268   5.505   6.180   2.449
 3457SOL     OW11269   2.617   5.572   3.969
 3457SOL    HW111270   2.713   5.545   3.974
 3457SOL    HW211271   2.594   5.594   3.874
 3458SOL     OW11272   5.007   6.926   0.554
 3458SOL    HW111273   5.042   6.976   0.475
 3458SOL    HW211274   4.916   6.891   0.535
 3459SOL     OW11275   6.484   3.864   2.753
 3459SOL    HW111276   6.401   3.920   2.753
 3459SOL    HW211277   6.534   3.879   2.838
 3460SOL     OW11278   2.508   3.379   0.506
 3460SOL    HW111279   2.570   3.330   0.446
 3460SOL    HW211280   2.428   3.321   0.525
 3461SOL     OW11281   4.444   5.914   4.538
 3461SOL    HW111282   4.364   5.901   4.479
 3461SOL    HW211283   4.520   5.860   4.502
 3462SOL     OW11284   0.190   3.749   2.168
 3462SOL    HW111285   0.171   3.670   2.110
 3462SOL    HW211286   0.255   3.723   2.240
 3463SOL     OW11287   1.117   3.222   3.169
 3463SOL    HW111288   1.101   3.124   3.184
 3463SOL    HW211289   1.140   3.265   3.257
 3464SOL     OW11290   6.618   2.404   6.347
 3464SOL    HW111291   6.629   2.466   6.424
 3464SOL    HW211292   6.704   2.397   6.297
 3465SOL     OW11293   0.110   2.971   2.151
 3465SOL    HW111294   0.168   2.968   2.070
 3465SOL    HW211295   0.027   3.023   2.131
 3466SOL     OW11296   6.455   4.504   6.333
 3466SOL    HW111297   6.536   4.535   6.284
 3466SOL    HW211298   6.482   4.464   6.421
 3467SOL     OW11299   2.293   1.818   0.713
 3467SOL    HW111300   2.323   1.863   0.797
 3467SOL    HW211301   2.373   1.781   0.665
 3468SOL     OW11302   5.360   0.652   3.282
 3468SOL    HW111303   5.267   0.618   3.288
 3468SOL    HW211304   5.381   0.709   3.361
 3469SOL     OW11305   4.845   1.032   4.362
 3469SOL    HW111306   4.923   0.971   4.374
 3469SOL    HW211307   4.762   0.988   4.396
 3470SOL     OW11308   0.336   2.288   1.574
 3470SOL    HW111309   0.346   2.220   1.647
 3470SOL    HW211310   0.278   2.250   1.501
 3471SOL     OW11311   4.608   4.409   4.539
 3471SOL    HW111312   4.658   4.483   4.494
 3471SOL    HW211313   4.519   4.441   4.568
 3472SOL     OW11314   2.623   1.016   2.276
 3472SOL    HW111315   2.714   1.050   2.252
 3472SOL    HW211316   2.581   0.974   2.195
 3473SOL     OW11317   6.868   2.768   2.664
 3473SOL    HW111318   6.778   2.727   2.675
 3473SOL    HW211319   6.922   2.714   2.600
 3474SOL     OW11320   0.228   4.656   2.403
 3474SOL    HW111321   0.130   4.658   2.385
 3474SOL    HW211322   0.256   4.739   2.452
 3475SOL     OW11323   0.863   4.339   3.801
 3475SOL    HW111324   0.956   4.370   3.781
 3475SOL    HW211325   0.805   4.419   3.818
 3476SOL     OW11326   2.080   1.848   2.571
 3476SOL    HW111327   2.015   1.784   2.613
 3476SOL    HW211328   2.155   1.797   2.529
 3477SOL     OW11329   2.173   4.987   1.199
 3477SOL    HW111330   2.123   4.903   1.177
 3477SOL    HW211331   2.136   5.027   1.282
 3478SOL     OW11332   2.371   5.635   5.963
 3478SOL    HW111333   2.392   5.578   6.043
 3478SOL    HW211334   2.360   5.730   5.993
 3479SOL     OW11335   0.955   0.947   3.049
 3479SOL    HW111336   0.978   1.044   3.054
 3479SOL    HW211337   0.859   0.938   3.020
 3480SOL     OW11338   6.689   5.365   4.617
 3480SOL    HW111339   6.682   5.444   4.556
 3480SOL    HW211340   6.773   5.372   4.670
 3481SOL     OW11341   5.071   0.825   0.352
 3481SOL    HW111342   5.065   0.736   0.307
 3481SOL    HW211343   5.096   0.895   0.285
 3482SOL     OW11344   6.385   0.934   2.100
 3482SOL    HW111345   6.318   0.898   2.034
 3482SOL    HW211346   6.402   1.030   2.081
 3483SOL     OW11347   5.090   1.683   1.503
 3483SOL    HW111348   5.088   1.585   1.480
 3483SOL    HW211349   5.052   1.696   1.595
 3484SOL     OW11350   0.870   2.880   0.521
 3484SOL    HW111351   0.938   2.810   0.542
 3484SOL    HW211352   0.914   2.970   0.525
 3485SOL     OW11353   1.690   1.565   4.301
 3485SOL    HW111354   1.627   1.546   4.225
 3485SOL    HW211355   1.658   1.645   4.352
 3486SOL     OW11356   2.788   0.140   3.378
 3486SOL    HW111357   2.814   0.150   3.282
 3486SOL    HW211358   2.769   0.043   3.397
 3487SOL     OW11359   6.777   1.655   0.345
 3487SOL    HW111360   6.753   1.684   0.252
 3487SOL    HW211361   6.715   1.699   0.410
 3488SOL     OW11362   5.921   0.517   4.901
 3488SOL    HW111363   5.884   0.486   4.988
 3488SOL    HW211364   5.957   0.610   4.912
 3489SOL     OW11365   4.175   0.462   1.757
 3489SOL    HW111366   4.113   0.537   1.734
 3489SOL    HW211367   4.241   0.450   1.682
 3490SOL     OW11368   4.265   4.133   1.138
 3490SOL    HW111369   4.318   4.216   1.120
 3490SOL    HW211370   4.183   4.133   1.080
 3491SOL     OW11371   4.475   2.376   5.710
 3491SOL    HW111372   4.557   2.341   5.664
 3491SOL    HW211373   4.495   2.390   5.807
 3492SOL     OW11374   6.820   4.064   0.880
 3492SOL    HW111375   6.917   4.042   0.891
 3492SOL    HW211376   6.769   3.980   0.861
 3493SOL     OW11377   4.709   4.300   4.761
 3493SOL    HW111378   4.694   4.378   4.821
 3493SOL    HW211379   4.672   4.319   4.671
 3494SOL     OW11380   3.034   1.067   2.021
 3494SOL    HW111381   3.123   1.080   1.977
 3494SOL    HW211382   2.962   1.078   1.953
 3495SOL     OW11383   6.146   4.842   1.790
 3495SOL    HW111384   6.182   4.759   1.747
 3495SOL    HW211385   6.121   4.822   1.885
 3496SOL     OW11386   6.336   5.286   0.775
 3496SOL    HW111387   6.264   5.342   0.817
 3496SOL    HW211388   6.309   5.265   0.681
 3497SOL     OW11389   2.619   1.372   3.811
 3497SOL    HW111390   2.565   1.351   3.893
 3497SOL    HW211391   2.708   1.327   3.817
 3498SOL     OW11392   2.999   1.983   1.224
 3498SOL    HW111393   2.924   1.923   1.196
 3498SOL    HW211394   3.045   1.944   1.304
 3499SOL     OW11395   5.640   4.107   4.267
 3499SOL    HW111396   5.717   4.060   4.223
 3499SOL    HW211397   5.581   4.147   4.197
 3500SOL     OW11398   1.520   3.117   3.615
 3500SOL    HW111399   1.570   3.175   3.551
 3500SOL    HW211400   1.555   3.131   3.707
 3501SOL     OW11401   2.771   5.721   5.821
 3501SOL    HW111402   2.840   5.682   5.882
 3501SOL    HW211403   2.712   5.649   5.785
 3502SOL     OW11404   6.638   1.817   1.311
 3502SOL    HW111405   6.562   1.821   1.377
 3502SOL    HW211406   6.722   1.850   1.355
 3503SOL     OW11407   6.310   5.892   4.851
 3503SOL    HW111408   6.291   5.801   4.887
 3503SOL    HW211409   6.225   5.932   4.816
 3504SOL     OW11410   2.547   0.626   1.833
 3504SOL    HW111411   2.631   0.630   1.779
 3504SOL    HW211412   2.561   0.566   1.912
 3505SOL     OW11413   5.456   4.235   6.049
 3505SOL    HW111414   5.502   4.167   6.106
 3505SOL    HW211415   5.517   4.312   6.033
 3506SOL     OW11416   5.645   4.682   5.636
 3506SOL    HW111417   5.580   4.720   5.569
 3506SOL    HW211418   5.619   4.711   5.728
 3507SOL     OW11419   2.559   0.826   1.037
 3507SOL    HW111420   2.466   0.852   1.009
 3507SOL    HW211421   2.555   0.772   1.121
 3508SOL     OW11422   1.743   2.567   5.760
 3508SOL    HW111423   1.825   2.624   5.764
 3508SOL    HW211424   1.711   2.560   5.666
 3509SOL     OW11425   4.869   0.399   6.598
 3509SOL    HW111426   4.815   0.421   6.679
 3509SOL    HW211427   4.848   0.305   6.569
 3510SOL     OW11428   1.328   1.135   2.080
 3510SOL    HW111429   1.276   1.141   1.995
 3510SOL    HW211430   1.385   1.053   2.079
 3511SOL     OW11431   2.000   4.830   1.447
 3511SOL    HW111432   1.958   4.828   1.538
 3511SOL    HW211433   1.987   4.741   1.403
 3512SOL     OW11434   0.799   4.499   0.265
 3512SOL    HW111435   0.793   4.541   0.355
 3512SOL    HW211436   0.789   4.569   0.195
 3513SOL     OW11437   5.318   2.096   0.353
 3513SOL    HW111438   5.334   2.148   0.270
 3513SOL    HW211439   5.276   2.008   0.330
 3514SOL     OW11440   0.228   1.097   2.177
 3514SOL    HW111441   0.177   1.023   2.221
 3514SOL    HW211442   0.189   1.116   2.087
 3515SOL     OW11443   4.235   5.940   3.261
 3515SOL    HW111444   4.226   6.031   3.302
 3515SOL    HW211445   4.310   5.891   3.305
 3516SOL     OW11446   5.056   6.983   0.967
 3516SOL    HW111447   5.136   0.008   0.943
 3516SOL    HW211448   4.994   6.978   0.889
 3517SOL     OW11449   0.805   1.889   1.263
 3517SOL    HW111450   0.894   1.921   1.231
 3517SOL    HW211451   0.781   1.804   1.216
 3518SOL     OW11452   4.844   3.029   4.526
 3518SOL    HW111453   4.775   3.069   4.587
 3518SOL    HW211454   4.901   2.965   4.579
 3519SOL     OW11455   1.333   1.024   6.404
 3519SOL    HW111456   1.253   1.065   6.362
 3519SOL    HW211457   1.366   1.082   6.478
 3520SOL     OW11458   3.133   5.401   0.054
 3520SOL    HW111459   3.203   5.464   0.019
 3520SOL    HW211460   3.072   5.376   7.010
 3521SOL     OW11461   4.901   2.599   0.234
 3521SOL    HW111462   4.840   2.639   0.302
 3521SOL    HW211463   4.995   2.604   0.266
 3522SOL     OW11464   0.138   4.715   1.233
 3522SOL    HW111465   0.182   4.774   1.165
 3522SOL    HW211466   0.207   4.660   1.279
 3523SOL     OW11467   1.498   4.477   5.754
 3523SOL    HW111468   1.510   4.576   5.767
 3523SOL    HW211469   1.564   4.444   5.687
 3524SOL     OW11470   4.815   1.485   1.759
 3524SOL    HW111471   4.804   1.431   1.675
 3524SOL    HW211472   4.732   1.540   1.774
 3525SOL     OW11473   0.171   4.438   3.422
 3525SOL    HW111474   0.250   4.383   3.396
 3525SOL    HW211475   0.101   4.432   3.351
 3526SOL     OW11476   2.469   6.832   3.884
 3526SOL    HW111477   2.493   6.740   3.852
 3526SOL    HW211478   2.551   6.889   3.884
 3527SOL     OW11479   5.519   3.780   6.015
 3527SOL    HW111480   5.458   3.726   6.073
 3527SOL    HW211481   5.486   3.779   5.921
 3528SOL     OW11482   1.304   6.127   5.408
 3528SOL    HW111483   1.216   6.147   5.452
 3528SOL    HW211484   1.359   6.211   5.405
 3529SOL     OW11485   3.805   0.242   0.195
 3529SOL    HW111486   3.838   0.336   0.209
 3529SOL    HW211487   3.734   0.242   0.126
 3530SOL     OW11488   6.670   5.485   2.430
 3530SOL    HW111489   6.753   5.430   2.429
 3530SOL    HW211490   6.664   5.535   2.516
 3531SOL     OW11491   5.296   3.244   1.119
 3531SOL    HW111492   5.207   3.211   1.149
 3531SOL    HW211493   5.367   3.209   1.179
 3532SOL     OW11494   2.882   0.205   1.660
 3532SOL    HW111495   2.932   0.216   1.573
 3532SOL    HW211496   2.892   0.111   1.692
 3533SOL     OW11497   0.943   1.747   2.695
 3533SOL    HW111498   0.994   1.764   2.780
 3533SOL    HW211499   0.882   1.825   2.677
 3534SOL     OW11500   6.784   1.679   0.732
 3534SOL    HW111501   6.785   1.698   0.830
 3534SOL    HW211502   6.835   1.596   0.712
 3535SOL     OW11503   1.476   5.320   6.981
 3535SOL    HW111504   1.534   5.366   6.914
 3535SOL    HW211505   1.531   5.251   7.030
 3536SOL     OW11506   3.037   1.634   3.120
 3536SOL    HW111507   3.010   1.701   3.052
 3536SOL    HW211508   3.009   1.664   3.211
 3537SOL     OW11509   3.292   6.316   2.305
 3537SOL    HW111510   3.212   6.257   2.294
 3537SOL    HW211511   3.263   6.405   2.341
 3538SOL     OW11512   1.800   6.853   6.298
 3538SOL    HW111513   1.819   6.783   6.229
 3538SOL    HW211514   1.881   6.910   6.311
 3539SOL     OW11515   3.946   3.154   5.444
 3539SOL    HW111516   3.972   3.234   5.391
 3539SOL    HW211517   4.000   3.075   5.415
 3540SOL     OW11518   2.018   2.615   5.490
 3540SOL    HW111519   1.923   2.595   5.468
 3540SOL    HW211520   2.062   2.656   5.410
 3541SOL     OW11521   1.804   3.117   6.466
 3541SOL    HW111522   1.820   3.035   6.522
 3541SOL    HW211523   1.805   3.091   6.369
 3542SOL     OW11524   1.991   5.646   2.916
 3542SOL    HW111525   2.083   5.612   2.936
 3542SOL    HW211526   1.992   5.746   2.915
 3543SOL     OW11527   0.781   2.473   4.706
 3543SOL    HW111528   0.737   2.466   4.617
 3543SOL    HW211529   0.718   2.518   4.770
 3544SOL     OW11530   2.310   4.266   6.331
 3544SOL    HW111531   2.405   4.273   6.301
 3544SOL    HW211532   2.307   4.263   6.431
 3545SOL     OW11533   3.947   5.862   0.504
 3545SOL    HW111534   3.948   5.961   0.491
 3545SOL    HW211535   4.035   5.833   0.543
 3546SOL     OW11536   1.545   3.989   4.506
 3546SOL    HW111537   1.620   3.926   4.529
 3546SOL    HW211538   1.458   3.944   4.523
 3547SOL     OW11539   6.849   4.409   3.820
 3547SOL    HW111540   6.770   4.349   3.808
 3547SOL    HW211541   6.915   4.393   3.747
 3548SOL     OW11542   5.772   1.654   5.992
 3548SOL    HW111543   5.730   1.677   6.080
 3548SOL    HW211544   5.794   1.738   5.942
 3549SOL     OW11545   6.807   5.171   5.797
 3549SOL    HW111546   6.831   5.087   5.748
 3549SOL    HW211547   6.840   5.250   5.745
 3550SOL     OW11548   6.435   2.374   2.694
 3550SOL    HW111549   6.445   2.389   2.793
 3550SOL    HW211550   6.340   2.356   2.672
 3551SOL     OW11551   3.639   0.687   2.069
 3551SOL    HW111552   3.667   0.682   1.973
 3551SOL    HW211553   3.600   0.777   2.088
 3552SOL     OW11554   5.431   6.462   2.030
 3552SOL    HW111555   5.495   6.399   1.986
 3552SOL    HW211556   5.471   6.553   2.035
 3553SOL     OW11557   5.110   4.366   1.031
 3553SOL    HW111558   5.129   4.415   0.946
 3553SOL    HW211559   5.157   4.278   1.030
 3554SOL     OW11560   4.516   2.222   0.825
 3554SOL    HW111561   4.443   2.267   0.775
 3554SOL    HW211562   4.477   2.149   0.882
 3555SOL     OW11563   1.365   3.953   3.723
 3555SOL    HW111564   1.452   3.904   3.717
 3555SOL    HW211565   1.376   4.035   3.779
 3556SOL     OW11566   4.417   1.411   3.175
 3556SOL    HW111567   4.347   1.365   3.230
 3556SOL    HW211568   4.488   1.345   3.150
 3557SOL     OW11569   1.266   7.014   4.092
 3557SOL    HW111570   1.200   0.034   4.147
 3557SOL    HW211571   1.256   0.008   3.995
 3558SOL     OW11572   1.461   6.770   1.485
 3558SOL    HW111573   1.397   6.792   1.411
 3558SOL    HW211574   1.506   6.683   1.465
 3559SOL     OW11575   0.387   6.132   5.141
 3559SOL    HW111576   0.436   6.156   5.225
 3559SOL    HW211577   0.412   6.039   5.114
 3560SOL     OW11578   0.646   5.953   1.380
 3560SOL    HW111579   0.734   5.907   1.392
 3560SOL    HW211580   0.607   5.929   1.291
 3561SOL     OW11581   4.191   4.863   5.258
 3561SOL    HW111582   4.128   4.800   5.302
 3561SOL    HW211583   4.281   4.822   5.252
 3562SOL     OW11584   5.286   1.266   3.223
 3562SOL    HW111585   5.216   1.221   3.168
 3562SOL    HW211586   5.350   1.199   3.259
 3563SOL     OW11587   5.748   1.481   7.006
 3563SOL    HW111588   5.780   1.566   0.018
 3563SOL    HW211589   5.824   1.437   6.958
 3564SOL     OW11590   1.419   4.194   3.818
 3564SOL    HW111591   1.455   4.276   3.774
 3564SOL    HW211592   1.455   4.187   3.911
 3565SOL     OW11593   3.969   5.823   4.928
 3565SOL    HW111594   3.935   5.854   4.839
 3565SOL    HW211595   3.892   5.812   4.991
 3566SOL     OW11596   6.814   3.826   5.999
 3566SOL    HW111597   6.829   3.811   6.096
 3566SOL    HW211598   6.718   3.814   5.977
 3567SOL     OW11599   0.604   3.381   0.074
 3567SOL    HW111600   0.614   3.328   0.158
 3567SOL    HW211601   0.662   3.463   0.079
 3568SOL     OW11602   4.460   5.755   4.204
 3568SOL    HW111603   4.381   5.786   4.256
 3568SOL    HW211604   4.497   5.672   4.246
 3569SOL     OW11605   2.544   2.483   5.684
 3569SOL    HW111606   2.537   2.463   5.781
 3569SOL    HW211607   2.541   2.582   5.669
 3570SOL     OW11608   5.198   0.062   5.061
 3570SOL    HW111609   5.150   0.149   5.070
 3570SOL    HW211610   5.271   0.071   4.994
 3571SOL     OW11611   1.516   0.675   5.115
 3571SOL    HW111612   1.426   0.720   5.116
 3571SOL    HW211613   1.571   0.711   5.040
 3572SOL     OW11614   5.742   3.160   2.939
 3572SOL    HW111615   5.825   3.115   2.906
 3572SOL    HW211616   5.663   3.129   2.886
 3573SOL     OW11617   6.219   3.817   2.951
 3573SOL    HW111618   6.222   3.874   3.033
 3573SOL    HW211619   6.230   3.721   2.976
 3574SOL     OW11620   0.536   2.806   0.839
 3574SOL    HW111621   0.576   2.763   0.919
 3574SOL    HW211622   0.447   2.845   0.863
 3575SOL     OW11623   5.144   5.555   2.965
 3575SOL    HW111624   5.091   5.537   3.048
 3575SOL    HW211625   5.111   5.639   2.923
 3576SOL     OW11626   0.512   1.773   0.040
 3576SOL    HW111627   0.477   1.685   0.071
 3576SOL    HW211628   0.587   1.802   0.100
 3577SOL     OW11629   1.543   3.047   6.916
 3577SOL    HW111630   1.555   3.099   6.831
 3577SOL    HW211631   1.576   2.954   6.903
 3578SOL     OW11632   5.032   1.682   0.980
 3578SOL    HW111633   4.956   1.737   1.014
 3578SOL    HW211634   5.006   1.639   0.893
 3579SOL     OW11635   6.776   2.212   2.439
 3579SOL    HW111636   6.827   2.230   2.522
 3579SOL    HW211637   6.836   2.221   2.360
 3580SOL     OW11638   5.856   3.580   0.579
 3580SOL    HW111639   5.814   3.545   0.663
 3580SOL    HW211640   5.888   3.674   0.596
 3581SOL     OW11641   0.651   5.628   3.416
 3581SOL    HW111642   0.614   5.623   3.508
 3581SOL    HW211643   0.640   5.539   3.371
 3582SOL     OW11644   1.483   4.367   5.416
 3582SOL    HW111645   1.422   4.422   5.472
 3582SOL    HW211646   1.486   4.405   5.323
 3583SOL     OW11647   1.855   4.681   0.021
 3583SOL    HW111648   1.899   4.623   6.983
 3583SOL    HW211649   1.854   4.775   7.019
 3584SOL     OW11650   5.517   4.331   5.647
 3584SOL    HW111651   5.603   4.371   5.616
 3584SOL    HW211652   5.536   4.249   5.701
 3585SOL     OW11653   2.692   2.363   4.601
 3585SOL    HW111654   2.742   2.288   4.557
 3585SOL    HW211655   2.719   2.369   4.697
 3586SOL     OW11656   6.526   1.716   5.266
 3586SOL    HW111657   6.433   1.731   5.297
 3586SOL    HW211658   6.580   1.799   5.282
 3587SOL     OW11659   2.054   5.778   5.931
 3587SOL    HW111660   2.131   5.718   5.952
 3587SOL    HW211661   2.056   5.801   5.833
 3588SOL     OW11662   6.922   2.909   4.999
 3588SOL    HW111663   7.008   2.926   5.048
 3588SOL    HW211664   6.934   2.928   4.902
 3589SOL     OW11665   5.710   0.644   6.133
 3589SOL    HW111666   5.703   0.583   6.213
 3589SOL    HW211667   5.725   0.737   6.164
 3590SOL     OW11668   6.648   3.385   0.400
 3590SOL    HW111669   6.636   3.468   0.345
 3590SOL    HW211670   6.637   3.305   0.341
 3591SOL     OW11671   5.604   3.585   0.033
 3591SOL    HW111672   5.577   3.611   0.126
 3591SOL    HW211673   5.638   3.491   0.032
 3592SOL     OW11674   0.479   6.988   2.605
 3592SOL    HW111675   0.552   0.015   2.641
 3592SOL    HW211676   0.390   0.001   2.619
 3593SOL     OW11677   0.293   4.096   5.835
 3593SOL    HW111678   0.348   4.177   5.815
 3593SOL    HW211679   0.200   4.125   5.860
 3594SOL     OW11680   4.593   0.691   3.576
 3594SOL    HW111681   4.591   0.591   3.587
 3594SOL    HW211682   4.537   0.716   3.497
 3595SOL     OW11683   5.324   5.745   6.546
 3595SOL    HW111684   5.376   5.698   6.619
 3595SOL    HW211685   5.231   5.762   6.578
 3596SOL     OW11686   4.998   3.216   3.318
 3596SOL    HW111687   4.990   3.291   3.252
 3596SOL    HW211688   4.907   3.182   3.341
 3597SOL     OW11689   1.776   2.817   5.194
 3597SOL    HW111690   1.787   2.721   5.223
 3597SOL    HW211691   1.865   2.857   5.175
 3598SOL     OW11692   1.933   6.724   5.840
 3598SOL    HW111693   1.946   6.787   5.916
 3598SOL    HW211694   2.002   6.652   5.843
 3599SOL     OW11695   4.929   1.893   0.268
 3599SOL    HW111696   4.905   1.898   0.171
 3599SOL    HW211697   4.854   1.931   0.323
 3600SOL     OW11698   0.738   2.643   2.343
 3600SOL    HW111699   0.761   2.671   2.436
 3600SOL    HW211700   0.646   2.604   2.343
 3601SOL     OW11701   5.235   3.096   6.127
 3601SOL    HW111702   5.177   3.136   6.198
 3601SOL    HW211703   5.179   3.045   6.062
 3602SOL     OW11704   1.281   3.875   1.281
 3602SOL    HW111705   1.251   3.967   1.306
 3602SOL    HW211706   1.381   3.870   1.284
 3603SOL     OW11707   3.649   1.029   4.386
 3603SOL    HW111708   3.591   1.093   4.335
 3603SOL    HW211709   3.605   1.007   4.473
 3604SOL     OW11710   6.936   7.030   3.663
 3604SOL    HW111711   6.974   0.089   3.637
 3604SOL    HW211712   6.898   0.004   3.755
 3605SOL     OW11713   0.809   4.343   3.513
 3605SOL    HW111714   0.798   4.355   3.611
 3605SOL    HW211715   0.787   4.429   3.466
 3606SOL     OW11716   0.917   6.850   4.054
 3606SOL    HW111717   0.831   6.889   4.088
 3606SOL    HW211718   0.900   6.801   3.968
 3607SOL     OW11719   5.603   4.500   1.966
 3607SOL    HW111720   5.681   4.524   1.908
 3607SOL    HW211721   5.617   4.409   2.005
 3608SOL     OW11722   5.298   1.512   4.842
 3608SOL    HW111723   5.274   1.540   4.749
 3608SOL    HW211724   5.246   1.566   4.908
 3609SOL     OW11725   2.185   0.049   4.299
 3609SOL    HW111726   2.169   6.982   4.313
 3609SOL    HW211727   2.275   0.063   4.257
 3610SOL     OW11728   1.723   0.831   6.250
 3610SOL    HW111729   1.792   0.855   6.182
 3610SOL    HW211730   1.756   0.854   6.341
 3611SOL     OW11731   4.037   4.920   3.882
 3611SOL    HW111732   3.998   4.894   3.970
 3611SOL    HW211733   4.135   4.937   3.893
 3612SOL     OW11734   0.750   0.816   6.446
 3612SOL    HW111735   0.754   0.889   6.514
 3612SOL    HW211736   0.726   0.730   6.491
 3613SOL     OW11737   4.869   4.740   2.221
 3613SOL    HW111738   4.916   4.823   2.252
 3613SOL    HW211739   4.929   4.661   2.235
 3614SOL     OW11740   3.617   3.667   0.720
 3614SOL    HW111741   3.671   3.623   0.791
 3614SOL    HW211742   3.543   3.606   0.691
 3615SOL     OW11743   5.423   2.907   6.397
 3615SOL    HW111744   5.511   2.920   6.443
 3615SOL    HW211745   5.432   2.836   6.327
 3616SOL     OW11746   0.972   0.255   6.224
 3616SOL    HW111747   1.021   0.334   6.260
 3616SOL    HW211748   1.019   0.220   6.143
 3617SOL     OW11749   4.261   0.476   5.627
 3617SOL    HW111750   4.199   0.553   5.611
 3617SOL    HW211751   4.324   0.468   5.550
 3618SOL     OW11752   2.319   3.259   5.330
 3618SOL    HW111753   2.389   3.187   5.331
 3618SOL    HW211754   2.362   3.348   5.346
 3619SOL     OW11755   5.781   3.146   6.304
 3619SOL    HW111756   5.844   3.222   6.294
 3619SOL    HW211757   5.697   3.164   6.253
 3620SOL     OW11758   5.829   5.504   5.365
 3620SOL    HW111759   5.736   5.503   5.328
 3620SOL    HW211760   5.834   5.570   5.440
 3621SOL     OW11761   3.138   3.026   4.709
 3621SOL    HW111762   3.163   2.956   4.776
 3621SOL    HW211763   3.075   3.091   4.750
 3622SOL     OW11764   2.063   1.117   0.587
 3622SOL    HW111765   1.988   1.148   0.645
 3622SOL    HW211766   2.089   1.191   0.524
 3623SOL     OW11767   6.356   5.750   4.332
 3623SOL    HW111768   6.311   5.808   4.400
 3623SOL    HW211769   6.430   5.699   4.376
 3624SOL     OW11770   1.371   0.123   2.359
 3624SOL    HW111771   1.343   0.216   2.383
 3624SOL    HW211772   1.314   0.058   2.409
 3625SOL     OW11773   6.826   3.297   6.637
 3625SOL    HW111774   6.772   3.300   6.721
 3625SOL    HW211775   6.810   3.209   6.591
 3626SOL     OW11776   1.044   3.285   5.284
 3626SOL    HW111777   1.111   3.263   5.214
 3626SOL    HW211778   1.088   3.336   5.358
 3627SOL     OW11779   4.483   3.265   1.584
 3627SOL    HW111780   4.447   3.332   1.649
 3627SOL    HW211781   4.478   3.174   1.626
 3628SOL     OW11782   1.257   1.474   2.125
 3628SOL    HW111783   1.260   1.385   2.081
 3628SOL    HW211784   1.189   1.473   2.198
 3629SOL     OW11785   0.575   0.013   5.140
 3629SOL    HW111786   0.555   0.105   5.105
 3629SOL    HW211787   0.586   0.018   5.239
 3630SOL     OW11788   6.333   2.870   3.813
 3630SOL    HW111789   6.378   2.795   3.765
 3630SOL    HW211790   6.321   2.947   3.751
 3631SOL     OW11791   1.715   6.934   3.231
 3631SOL    HW111792   1.622   6.922   3.196
 3631SOL    HW211793   1.780   6.930   3.155
 3632SOL     OW11794   5.194   4.729   0.419
 3632SOL    HW111795   5.235   4.678   0.343
 3632SOL    HW211796   5.095   4.736   0.405
 3633SOL     OW11797   4.569   2.811   6.176
 3633SOL    HW111798   4.542   2.864   6.095
 3633SOL    HW211799   4.656   2.846   6.211
 3634SOL     OW11800   1.792   6.075   6.176
 3634SOL    HW111801   1.793   6.018   6.258
 3634SOL    HW211802   1.702   6.068   6.131
 3635SOL     OW11803   2.969   1.119   0.958
 3635SOL    HW111804   2.897   1.050   0.949
 3635SOL    HW211805   2.936   1.206   0.921
 3636SOL     OW11806   6.980   5.655   0.883
 3636SOL    HW111807   6.916   5.672   0.957
 3636SOL    HW211808   6.948   5.578   0.828
 3637SOL     OW11809   0.638   2.702   1.106
 3637SOL    HW111810   0.697   2.622   1.111
 3637SOL    HW211811   0.579   2.706   1.187
 3638SOL     OW11812   6.888   4.037   2.904
 3638SOL    HW111813   6.856   4.128   2.878
 3638SOL    HW211814   6.972   4.046   2.957
 3639SOL     OW11815   3.694   5.063   6.604
 3639SOL    HW111816   3.619   5.024   6.657
 3639SOL    HW211817   3.672   5.057   6.506
 3640SOL     OW11818   4.812   1.564   0.383
 3640SOL    HW111819   4.848   1.640   0.437
 3640SOL    HW211820   4.715   1.552   0.403
 3641SOL     OW11821   5.761   3.574   1.383
 3641SOL    HW111822   5.728   3.624   1.463
 3641SOL    HW211823   5.722   3.482   1.383
 3642SOL     OW11824   4.716   2.412   6.279
 3642SOL    HW111825   4.662   2.495   6.275
 3642SOL    HW211826   4.735   2.388   6.375
 3643SOL     OW11827   4.103   5.702   5.723
 3643SOL    HW111828   4.116   5.772   5.793
 3643SOL    HW211829   4.017   5.653   5.739
 3644SOL     OW11830   2.520   1.030   1.483
 3644SOL    HW111831   2.423   1.008   1.475
 3644SOL    HW211832   2.531   1.129   1.490
 3645SOL     OW11833   1.544   3.452   4.092
 3645SOL    HW111834   1.570   3.438   3.996
 3645SOL    HW211835   1.448   3.429   4.104
 3646SOL     OW11836   1.732   3.946   5.308
 3646SOL    HW111837   1.667   3.992   5.248
 3646SOL    HW211838   1.798   4.013   5.343
 3647SOL     OW11839   2.591   5.750   6.835
 3647SOL    HW111840   2.643   5.836   6.841
 3647SOL    HW211841   2.611   5.693   6.915
 3648SOL     OW11842   5.087   5.881   3.394
 3648SOL    HW111843   5.140   5.865   3.311
 3648SOL    HW211844   5.083   5.796   3.447
 3649SOL     OW11845   6.667   3.178   0.211
 3649SOL    HW111846   6.702   3.086   0.193
 3649SOL    HW211847   6.579   3.191   0.165
 3650SOL     OW11848   6.436   4.813   0.994
 3650SOL    HW111849   6.369   4.880   1.025
 3650SOL    HW211850   6.502   4.796   1.067
 3651SOL     OW11851   1.940   0.321   4.775
 3651SOL    HW111852   1.967   0.413   4.748
 3651SOL    HW211853   2.000   0.254   4.731
 3652SOL     OW11854   5.831   6.816   3.486
 3652SOL    HW111855   5.778   6.732   3.475
 3652SOL    HW211856   5.797   6.885   3.421
 3653SOL     OW11857   1.944   0.982   2.974
 3653SOL    HW111858   1.873   0.943   2.917
 3653SOL    HW211859   1.990   1.056   2.925
 3654SOL     OW11860   4.659   5.738   0.524
 3654SOL    HW111861   4.616   5.648   0.524
 3654SOL    HW211862   4.730   5.742   0.454
 3655SOL     OW11863   3.514   1.196   4.215
 3655SOL    HW111864   3.566   1.281   4.223
 3655SOL    HW211865   3.418   1.219   4.195
 3656SOL     OW11866   0.879   5.878   1.503
 3656SOL    HW111867   0.860   5.798   1.560
 3656SOL    HW211868   0.926   5.849   1.420
 3657SOL     OW11869   4.609   5.422   4.700
 3657SOL    HW111870   4.533   5.429   4.635
 3657SOL    HW211871   4.584   5.360   4.774
 3658SOL     OW11872   2.151   5.067   6.350
 3658SOL    HW111873   2.205   4.984   6.360
 3658SOL    HW211874   2.115   5.094   6.439
 3659SOL     OW11875   0.941   2.107   6.386
 3659SOL    HW111876   0.946   2.172   6.311
 3659SOL    HW211877   0.857   2.121   6.438
 3660SOL     OW11878   6.222   5.940   4.484
 3660SOL    HW111879   6.252   6.023   4.437
 3660SOL    HW211880   6.165   5.965   4.562
 3661SOL     OW11881   0.598   0.645   4.618
 3661SOL    HW111882   0.647   0.600   4.693
 3661SOL    HW211883   0.563   0.733   4.650
 3662SOL     OW11884   4.184   1.004   4.808
 3662SOL    HW111885   4.259   1.065   4.784
 3662SOL    HW211886   4.142   1.034   4.894
 3663SOL     OW11887   1.829   2.755   6.905
 3663SOL    HW111888   1.830   2.656   6.917
 3663SOL    HW211889   1.769   2.797   6.972
 3664SOL     OW11890   4.878   2.477   1.820
 3664SOL    HW111891   4.803   2.484   1.886
 3664SOL    HW211892   4.896   2.567   1.781
 3665SOL     OW11893   0.557   5.834   5.869
 3665SOL    HW111894   0.473   5.803   5.825
 3665SOL    HW211895   0.600   5.905   5.813
 3666SOL     OW11896   1.034   3.388   2.989
 3666SOL    HW111897   0.983   3.330   2.925
 3666SOL    HW211898   1.084   3.330   3.053
 3667SOL     OW11899   0.510   1.340   3.564
 3667SOL    HW111900   0.465   1.251   3.576
 3667SOL    HW211901   0.446   1.413   3.584
 3668SOL     OW11902   1.764   0.695   1.764
 3668SOL    HW111903   1.804   0.633   1.831
 3668SOL    HW211904   1.667   0.708   1.785
 3669SOL     OW11905   5.489   1.426   4.001
 3669SOL    HW111906   5.409   1.426   4.061
 3669SOL    HW211907   5.541   1.511   4.015
 3670SOL     OW11908   2.818   5.275   0.680
 3670SOL    HW111909   2.816   5.330   0.597
 3670SOL    HW211910   2.728   5.233   0.694
 3671SOL     OW11911   6.969   1.702   3.968
 3671SOL    HW111912   6.901   1.644   3.924
 3671SOL    HW211913   0.018   1.647   3.994
 3672SOL     OW11914   4.596   2.252   2.729
 3672SOL    HW111915   4.608   2.163   2.686
 3672SOL    HW211916   4.580   2.239   2.827
 3673SOL     OW11917   3.844   5.293   6.616
 3673SOL    HW111918   3.934   5.285   6.572
 3673SOL    HW211919   3.799   5.204   6.615
 3674SOL     OW11920   1.799   5.657   5.170
 3674SOL    HW111921   1.723   5.718   5.193
 3674SOL    HW211922   1.767   5.562   5.171
 3675SOL     OW11923   0.741   2.504   4.040
 3675SOL    HW111924   0.710   2.411   4.059
 3675SOL    HW211925   0.804   2.534   4.112
 3676SOL     OW11926   5.678   3.021   2.626
 3676SOL    HW111927   5.776   3.039   2.623
 3676SOL    HW211928   5.635   3.061   2.546
 3677SOL     OW11929   2.431   0.626   5.086
 3677SOL    HW111930   2.502   0.574   5.038
 3677SOL    HW211931   2.370   0.562   5.133
 3678SOL     OW11932   1.842   1.435   3.865
 3678SOL    HW111933   1.900   1.376   3.810
 3678SOL    HW211934   1.892   1.518   3.890
 3679SOL     OW11935   7.028   0.330   3.113
 3679SOL    HW111936   0.008   0.427   3.091
 3679SOL    HW211937   6.945   0.317   3.169
 3680SOL     OW11938   4.525   2.498   4.422
 3680SOL    HW111939   4.478   2.585   4.438
 3680SOL    HW211940   4.478   2.426   4.473
 3681SOL     OW11941   1.199   0.743   6.575
 3681SOL    HW111942   1.280   0.756   6.632
 3681SOL    HW211943   1.220   0.678   6.502
 3682SOL     OW11944   5.539   2.759   0.462
 3682SOL    HW111945   5.578   2.721   0.546
 3682SOL    HW211946   5.494   2.845   0.482
 3683SOL     OW11947   0.263   0.894   3.912
 3683SOL    HW111948   0.358   0.905   3.943
 3683SOL    HW211949   0.201   0.937   3.979
 3684SOL     OW11950   1.303   5.632   6.700
 3684SOL    HW111951   1.281   5.669   6.790
 3684SOL    HW211952   1.402   5.639   6.684
 3685SOL     OW11953   2.711   6.106   5.469
 3685SOL    HW111954   2.781   6.177   5.471
 3685SOL    HW211955   2.749   6.020   5.500
 3686SOL     OW11956   6.306   4.557   4.010
 3686SOL    HW111957   6.355   4.577   3.925
 3686SOL    HW211958   6.365   4.580   4.088
 3687SOL     OW11959   4.716   6.845   3.534
 3687SOL    HW111960   4.657   6.924   3.550
 3687SOL    HW211961   4.811   6.875   3.528
 3688SOL     OW11962   6.420   3.200   6.647
 3688SOL    HW111963   6.382   3.293   6.639
 3688SOL    HW211964   6.348   3.137   6.675
 3689SOL     OW11965   2.164   2.253   5.446
 3689SOL    HW111966   2.207   2.321   5.504
 3689SOL    HW211967   2.207   2.254   5.356
 3690SOL     OW11968   4.563   5.858   0.971
 3690SOL    HW111969   4.467   5.884   0.969
 3690SOL    HW211970   4.571   5.760   0.953
 3691SOL     OW11971   2.453   1.939   6.424
 3691SOL    HW111972   2.423   1.972   6.334
 3691SOL    HW211973   2.374   1.907   6.476
 3692SOL     OW11974   6.795   4.328   5.777
 3692SOL    HW111975   6.698   4.337   5.755
 3692SOL    HW211976   6.833   4.247   5.731
 3693SOL     OW11977   1.998   1.732   2.996
 3693SOL    HW111978   1.933   1.750   3.070
 3693SOL    HW211979   2.067   1.667   3.028
 3694SOL     OW11980   1.618   6.928   2.006
 3694SOL    HW111981   1.707   6.895   2.039
 3694SOL    HW211982   1.568   6.852   1.965
 3695SOL     OW11983   5.741   1.655   2.025
 3695SOL    HW111984   5.832   1.625   1.996
 3695SOL    HW211985   5.714   1.605   2.108
 3696SOL     OW11986   4.095   0.257   5.381
 3696SOL    HW111987   4.167   0.291   5.320
 3696SOL    HW211988   4.137   0.209   5.458
 3697SOL     OW11989   6.635   6.194   3.079
 3697SOL    HW111990   6.702   6.243   3.023
 3697SOL    HW211991   6.603   6.113   3.030
 3698SOL     OW11992   2.082   0.899   3.844
 3698SOL    HW111993   1.982   0.897   3.836
 3698SOL    HW211994   2.122   0.898   3.752
 3699SOL     OW11995   2.060   1.705   3.480
 3699SOL    HW111996   1.969   1.666   3.493
 3699SOL    HW211997   2.095   1.681   3.390
 3700SOL     OW11998   1.319   5.233   4.723
 3700SOL    HW111999   1.292   5.139   4.704
 3700SOL    HW212000   1.238   5.290   4.735
 3701SOL     OW12001   0.960   6.319   2.679
 3701SOL    HW112002   0.923   6.388   2.617
 3701SOL    HW212003   1.014   6.253   2.627
 3702SOL     OW12004   5.777   6.619   2.795
 3702SOL    HW112005   5.790   6.597   2.892
 3702SOL    HW212006   5.858   6.590   2.744
 3703SOL     OW12007   0.944   0.159   6.665
 3703SOL    HW112008   1.015   0.102   6.706
 3703SOL    HW212009   0.936   0.244   6.717
 3704SOL     OW12010   5.406   2.982   0.974
 3704SOL    HW112011   5.328   3.038   0.948
 3704SOL    HW212012   5.487   3.040   0.982
 3705SOL     OW12013   4.855   4.918   4.004
 3705SOL    HW112014   4.880   5.013   4.018
 3705SOL    HW212015   4.825   4.905   3.909
 3706SOL     OW12016   0.559   4.500   6.857
 3706SOL    HW112017   0.533   4.416   6.904
 3706SOL    HW212018   0.572   4.480   6.759
 3707SOL     OW12019   4.179   5.967   3.851
 3707SOL    HW112020   4.138   5.901   3.788
 3707SOL    HW212021   4.278   5.968   3.839
 3708SOL     OW12022   4.512   6.593   1.052
 3708SOL    HW112023   4.577   6.660   1.014
 3708SOL    HW212024   4.557   6.541   1.125
 3709SOL     OW12025   2.424   0.370   1.587
 3709SOL    HW112026   2.464   0.438   1.526
 3709SOL    HW212027   2.498   0.318   1.631
 3710SOL     OW12028   0.767   5.477   4.738
 3710SOL    HW112029   0.675   5.500   4.705
 3710SOL    HW212030   0.760   5.426   4.823
 3711SOL     OW12031   1.170   6.089   4.963
 3711SOL    HW112032   1.216   6.003   4.941
 3711SOL    HW212033   1.207   6.163   4.907
 3712SOL     OW12034   1.669   6.076   0.124
 3712SOL    HW112035   1.708   6.068   0.216
 3712SOL    HW212036   1.570   6.063   0.128
 3713SOL     OW12037   0.771   0.566   4.846
 3713SOL    HW112038   0.736   0.589   4.936
 3713SOL    HW212039   0.813   0.475   4.849
 3714SOL     OW12040   6.102   4.964   6.603
 3714SOL    HW112041   6.056   4.929   6.521
 3714SOL    HW212042   6.080   4.905   6.680
 3715SOL     OW12043   1.166   5.048   2.420
 3715SOL    HW112044   1.160   5.141   2.385
 3715SOL    HW212045   1.095   5.034   2.490
 3716SOL     OW12046   6.085   5.506   4.524
 3716SOL    HW112047   6.172   5.495   4.572
 3716SOL    HW212048   6.012   5.463   4.577
 3717SOL     OW12049   6.198   1.418   0.807
 3717SOL    HW112050   6.245   1.336   0.837
 3717SOL    HW212051   6.182   1.478   0.885
 3718SOL     OW12052   6.525   0.305   6.673
 3718SOL    HW112053   6.491   0.275   6.762
 3718SOL    HW212054   6.489   0.245   6.602
 3719SOL     OW12055   4.037   3.297   6.482
 3719SOL    HW112056   4.134   3.306   6.462
 3719SOL    HW212057   4.022   3.217   6.540
 3720SOL     OW12058   5.586   4.123   0.629
 3720SOL    HW112059   5.582   4.055   0.555
 3720SOL    HW212060   5.679   4.157   0.638
 3721SOL     OW12061   0.092   5.009   0.612
 3721SOL    HW112062   0.020   5.018   0.543
 3721SOL    HW212063   0.154   5.088   0.608
 3722SOL     OW12064   5.445   5.903   1.810
 3722SOL    HW112065   5.493   5.864   1.889
 3722SOL    HW212066   5.371   5.841   1.783
 3723SOL     OW12067   4.841   5.695   0.333
 3723SOL    HW112068   4.795   5.625   0.279
 3723SOL    HW212069   4.932   5.712   0.293
 3724SOL     OW12070   1.245   4.593   5.440
 3724SOL    HW112071   1.185   4.672   5.441
 3724SOL    HW212072   1.339   4.622   5.424
 3725SOL     OW12073   0.801   5.918   6.820
 3725SOL    HW112074   0.803   6.018   6.809
 3725SOL    HW212075   0.772   5.895   6.913
 3726SOL     OW12076   5.308   3.988   5.968
 3726SOL    HW112077   5.315   3.936   6.054
 3726SOL    HW212078   5.350   4.078   5.981
 3727SOL     OW12079   6.417   3.248   5.132
 3727SOL    HW112080   6.320   3.226   5.120
 3727SOL    HW212081   6.450   3.206   5.217
 3728SOL     OW12082   2.111   3.807   0.031
 3728SOL    HW112083   2.025   3.811   0.081
 3728SOL    HW212084   2.164   3.890   0.050
 3729SOL     OW12085   0.750   0.884   4.440
 3729SOL    HW112086   0.707   0.806   4.394
 3729SOL    HW212087   0.725   0.884   4.537
 3730SOL     OW12088   3.902   6.305   5.788
 3730SOL    HW112089   3.811   6.330   5.756
 3730SOL    HW212090   3.958   6.277   5.710
 3731SOL     OW12091   0.225   1.224   0.072
 3731SOL    HW112092   0.267   1.149   0.020
 3731SOL    HW212093   0.257   1.221   0.166
 3732SOL     OW12094   1.760   2.204   0.328
 3732SOL    HW112095   1.790   2.123   0.379
 3732SOL    HW212096   1.662   2.196   0.308
 3733SOL     OW12097   2.004   2.210   3.634
 3733SOL    HW112098   1.970   2.237   3.724
 3733SOL    HW212099   2.051   2.122   3.640
 3734SOL     OW12100   4.652   0.406   1.446
 3734SOL    HW112101   4.676   0.312   1.423
 3734SOL    HW212102   4.682   0.467   1.373
 3735SOL     OW12103   4.214   0.572   2.321
 3735SOL    HW112104   4.266   0.492   2.291
 3735SOL    HW212105   4.117   0.548   2.326
 3736SOL     OW12106   6.863   1.155   0.783
 3736SOL    HW112107   6.943   1.179   0.839
 3736SOL    HW212108   6.831   1.064   0.809
 3737SOL     OW12109   5.767   1.839   3.345
 3737SOL    HW112110   5.847   1.780   3.332
 3737SOL    HW212111   5.796   1.934   3.356
 3738SOL     OW12112   6.424   6.624   1.121
 3738SOL    HW112113   6.477   6.694   1.075
 3738SOL    HW212114   6.486   6.560   1.167
 3739SOL     OW12115   2.744   4.359   1.637
 3739SOL    HW112116   2.825   4.419   1.631
 3739SOL    HW212117   2.690   4.369   1.554
 3740SOL     OW12118   6.152   5.683   0.280
 3740SOL    HW112119   6.181   5.656   0.372
 3740SOL    HW212120   6.159   5.782   0.270
 3741SOL     OW12121   4.332   3.155   6.692
 3741SOL    HW112122   4.383   3.084   6.740
 3741SOL    HW212123   4.394   3.225   6.659
 3742SOL     OW12124   4.246   0.277   0.616
 3742SOL    HW112125   4.219   0.218   0.692
 3742SOL    HW212126   4.168   0.290   0.555
 3743SOL     OW12127   5.511   3.983   1.210
 3743SOL    HW112128   5.446   3.916   1.174
 3743SOL    HW212129   5.581   3.937   1.264
 3744SOL     OW12130   1.175   6.543   2.528
 3744SOL    HW112131   1.085   6.532   2.486
 3744SOL    HW212132   1.168   6.525   2.626
 3745SOL     OW12133   5.558   3.734   2.635
 3745SOL    HW112134   5.570   3.640   2.666
 3745SOL    HW212135   5.464   3.764   2.655
 3746SOL     OW12136   5.880   0.162   3.333
 3746SOL    HW112137   5.947   0.196   3.400
 3746SOL    HW212138   5.897   0.065   3.317
 3747SOL     OW12139   4.913   6.521   5.800
 3747SOL    HW112140   4.875   6.565   5.881
 3747SOL    HW212141   4.879   6.567   5.718
 3748SOL     OW12142   5.231   0.533   2.112
 3748SOL    HW112143   5.173   0.552   2.033
 3748SOL    HW212144   5.324   0.565   2.094
 3749SOL     OW12145   2.147   4.399   3.616
 3749SOL    HW112146   2.089   4.404   3.534
 3749SOL    HW212147   2.139   4.484   3.668
 3750SOL     OW12148   5.992   4.408   0.853
 3750SOL    HW112149   5.953   4.443   0.938
 3750SOL    HW212150   5.941   4.327   0.824
 3751SOL     OW12151   6.968   2.860   0.922
 3751SOL    HW112152   6.952   2.919   1.002
 3751SOL    HW212153   7.021   2.780   0.950
 3752SOL     OW12154   0.957   6.578   0.334
 3752SOL    HW112155   0.899   6.652   0.368
 3752SOL    HW212156   0.940   6.495   0.389
 3753SOL     OW12157   0.222   0.488   4.206
 3753SOL    HW112158   0.144   0.481   4.268
 3753SOL    HW212159   0.301   0.525   4.255
 3754SOL     OW12160   4.711   6.175   1.804
 3754SOL    HW112161   4.681   6.262   1.842
 3754SOL    HW212162   4.633   6.128   1.763
 3755SOL     OW12163   5.444   5.531   4.922
 3755SOL    HW112164   5.445   5.485   4.834
 3755SOL    HW212165   5.538   5.546   4.953
 3756SOL     OW12166   2.053   0.325   6.264
 3756SOL    HW112167   2.111   0.396   6.222
 3756SOL    HW212168   1.997   0.282   6.194
 3757SOL     OW12169   4.231   6.382   6.907
 3757SOL    HW112170   4.193   6.355   6.819
 3757SOL    HW212171   4.158   6.417   6.966
 3758SOL     OW12172   1.657   1.094   4.323
 3758SOL    HW112173   1.610   1.181   4.323
 3758SOL    HW212174   1.756   1.109   4.322
 3759SOL     OW12175   3.953   4.980   5.815
 3759SOL    HW112176   3.976   5.069   5.776
 3759SOL    HW212177   3.998   4.908   5.761
 3760SOL     OW12178   0.861   3.344   4.336
 3760SOL    HW112179   0.883   3.247   4.351
 3760SOL    HW212180   0.847   3.360   4.238
 3761SOL     OW12181   0.705   6.885   4.790
 3761SOL    HW112182   0.684   6.982   4.777
 3761SOL    HW212183   0.716   6.842   4.701
 3762SOL     OW12184   0.880   5.560   6.867
 3762SOL    HW112185   0.802   5.578   6.927
 3762SOL    HW212186   0.847   5.535   6.776
 3763SOL     OW12187   6.581   5.004   0.166
 3763SOL    HW112188   6.639   4.924   0.149
 3763SOL    HW212189   6.572   5.057   0.081
 3764SOL     OW12190   1.939   0.200   3.819
 3764SOL    HW112191   1.844   0.176   3.838
 3764SOL    HW212192   1.962   0.285   3.867
 3765SOL     OW12193   5.440   1.469   1.400
 3765SOL    HW112194   5.387   1.443   1.480
 3765SOL    HW212195   5.432   1.568   1.385
 3766SOL     OW12196   1.258   1.207   4.483
 3766SOL    HW112197   1.337   1.268   4.471
 3766SOL    HW212198   1.268   1.158   4.569
 3767SOL     OW12199   1.932   5.487   0.506
 3767SOL    HW112200   1.968   5.394   0.501
 3767SOL    HW212201   1.891   5.511   0.418
 3768SOL     OW12202   2.475   5.810   5.522
 3768SOL    HW112203   2.476   5.723   5.571
 3768SOL    HW212204   2.546   5.870   5.559
 3769SOL     OW12205   5.692   5.597   4.930
 3769SOL    HW112206   5.744   5.661   4.986
 3769SOL    HW212207   5.741   5.510   4.926
 3770SOL     OW12208   1.843   0.615   0.107
 3770SOL    HW112209   1.943   0.623   0.115
 3770SOL    HW212210   1.819   0.519   0.092
 3771SOL     OW12211   5.557   2.490   0.126
 3771SOL    HW112212   5.497   2.566   0.152
 3771SOL    HW212213   5.568   2.488   0.026
 3772SOL     OW12214   6.648   1.540   6.975
 3772SOL    HW112215   6.722   1.506   0.003
 3772SOL    HW212216   6.561   1.504   7.008
 3773SOL     OW12217   6.193   3.173   6.225
 3773SOL    HW112218   6.282   3.127   6.228
 3773SOL    HW212219   6.122   3.108   6.196
 3774SOL     OW12220   0.545   6.559   6.720
 3774SOL    HW112221   0.448   6.582   6.714
 3774SOL    HW212222   0.558   6.462   6.697
 3775SOL     OW12223   5.359   4.122   2.060
 3775SOL    HW112224   5.405   4.062   2.125
 3775SOL    HW212225   5.269   4.147   2.095
 3776SOL     OW12226   3.708   1.092   0.747
 3776SOL    HW112227   3.691   1.161   0.818
 3776SOL    HW212228   3.805   1.068   0.746
 3777SOL     OW12229   3.082   4.871   4.250
 3777SOL    HW112230   2.995   4.823   4.244
 3777SOL    HW212231   3.066   4.965   4.281
 3778SOL     OW12232   2.791   5.363   3.177
 3778SOL    HW112233   2.698   5.392   3.154
 3778SOL    HW212234   2.807   5.270   3.143
 3779SOL     OW12235   1.795   4.611   1.071
 3779SOL    HW112236   1.753   4.568   1.151
 3779SOL    HW212237   1.724   4.633   1.004
 3780SOL     OW12238   4.356   4.744   5.557
 3780SOL    HW112239   4.266   4.768   5.593
 3780SOL    HW212240   4.396   4.823   5.510
 3781SOL     OW12241   1.621   6.536   4.615
 3781SOL    HW112242   1.576   6.523   4.527
 3781SOL    HW212243   1.604   6.456   4.672
 3782SOL     OW12244   2.953   2.288   4.263
 3782SOL    HW112245   3.017   2.280   4.187
 3782SOL    HW212246   2.995   2.252   4.346
 3783SOL     OW12247   5.527   6.241   5.104
 3783SOL    HW112248   5.444   6.253   5.049
 3783SOL    HW212249   5.554   6.145   5.104
 3784SOL     OW12250   5.030   1.935   3.635
 3784SOL    HW112251   5.022   1.883   3.550
 3784SOL    HW212252   5.122   1.973   3.642
 3785SOL     OW12253   1.424   1.097   0.071
 3785SOL    HW112254   1.435   1.109   7.003
 3785SOL    HW212255   1.358   1.025   0.089
 3786SOL     OW12256   2.642   6.562   2.682
 3786SOL    HW112257   2.680   6.496   2.617
 3786SOL    HW212258   2.601   6.513   2.759
 3787SOL     OW12259   5.874   6.061   3.172
 3787SOL    HW112260   5.914   6.138   3.122
 3787SOL    HW212261   5.831   6.095   3.256
 3788SOL     OW12262   0.668   2.885   3.525
 3788SOL    HW112263   0.738   2.825   3.486
 3788SOL    HW212264   0.619   2.932   3.452
 3789SOL     OW12265   0.834   2.803   4.063
 3789SOL    HW112266   0.834   2.794   3.964
 3789SOL    HW212267   0.860   2.716   4.105
 3790SOL     OW12268   1.869   3.666   5.245
 3790SOL    HW112269   1.921   3.750   5.262
 3790SOL    HW212270   1.843   3.662   5.148
 3791SOL     OW12271   6.013   0.068   0.701
 3791SOL    HW112272   6.071   0.091   0.779
 3791SOL    HW212273   5.925   0.034   0.734
 3792SOL     OW12274   6.889   1.066   3.992
 3792SOL    HW112275   6.943   1.036   3.913
 3792SOL    HW212276   6.924   1.154   4.024
 3793SOL     OW12277   3.832   0.031   3.120
 3793SOL    HW112278   3.837   6.963   3.110
 3793SOL    HW212279   3.907   0.074   3.068
 3794SOL     OW12280   3.085   4.480   1.235
 3794SOL    HW112281   3.019   4.513   1.302
 3794SOL    HW212282   3.178   4.506   1.262
 3795SOL     OW12283   3.745   6.580   0.105
 3795SOL    HW112284   3.761   6.674   0.137
 3795SOL    HW212285   3.680   6.582   0.029
 3796SOL     OW12286   2.757   1.852   1.121
 3796SOL    HW112287   2.714   1.839   1.032
 3796SOL    HW212288   2.687   1.873   1.189
 3797SOL     OW12289   6.057   4.390   2.580
 3797SOL    HW112290   5.994   4.425   2.510
 3797SOL    HW212291   6.106   4.310   2.544
 3798SOL     OW12292   3.662   5.357   3.369
 3798SOL    HW112293   3.592   5.295   3.405
 3798SOL    HW212294   3.647   5.449   3.406
 3799SOL     OW12295   6.992   2.454   4.354
 3799SOL    HW112296   6.943   2.470   4.440
 3799SOL    HW212297   0.055   2.427   4.373
 3800SOL     OW12298   4.966   2.830   4.666
 3800SOL    HW112299   4.880   2.794   4.703
 3800SOL    HW212300   5.018   2.873   4.739
 3801SOL     OW12301   6.903   6.263   3.683
 3801SOL    HW112302   6.912   6.167   3.707
 3801SOL    HW212303   6.962   6.318   3.742
 3802SOL     OW12304   0.401   2.334   4.104
 3802SOL    HW112305   0.351   2.419   4.121
 3802SOL    HW212306   0.371   2.295   4.017
 3803SOL     OW12307   3.773   2.019   1.293
 3803SOL    HW112308   3.731   2.110   1.290
 3803SOL    HW212309   3.766   1.982   1.385
 3804SOL     OW12310   5.508   1.857   3.790
 3804SOL    HW112311   5.424   1.908   3.772
 3804SOL    HW212312   5.547   1.824   3.704
 3805SOL     OW12313   2.631   3.659   1.495
 3805SOL    HW112314   2.581   3.572   1.487
 3805SOL    HW212315   2.569   3.731   1.525
 3806SOL     OW12316   2.502   3.852   0.190
 3806SOL    HW112317   2.474   3.879   0.282
 3806SOL    HW212318   2.597   3.879   0.176
 3807SOL     OW12319   2.644   0.639   3.872
 3807SOL    HW112320   2.735   0.666   3.901
 3807SOL    HW212321   2.609   0.705   3.806
 3808SOL     OW12322   4.060   0.954   0.991
 3808SOL    HW112323   3.995   0.884   1.021
 3808SOL    HW212324   4.059   1.030   1.055
 3809SOL     OW12325   6.357   2.735   0.731
 3809SOL    HW112326   6.424   2.782   0.789
 3809SOL    HW212327   6.266   2.747   0.770
 3810SOL     OW12328   4.463   2.549   5.314
 3810SOL    HW112329   4.546   2.501   5.341
 3810SOL    HW212330   4.415   2.582   5.395
 3811SOL     OW12331   0.741   4.623   3.817
 3811SOL    HW112332   0.715   4.720   3.816
 3811SOL    HW212333   0.686   4.574   3.749
 3812SOL     OW12334   5.620   1.204   4.918
 3812SOL    HW112335   5.698   1.211   4.856
 3812SOL    HW212336   5.625   1.118   4.969
 3813SOL     OW12337   3.759   4.277   0.586
 3813SOL    HW112338   3.693   4.203   0.577
 3813SOL    HW212339   3.818   4.279   0.505
 3814SOL     OW12340   0.094   6.872   1.399
 3814SOL    HW112341   0.145   6.798   1.444
 3814SOL    HW212342   0.152   6.953   1.393
 3815SOL     OW12343   4.769   2.742   0.444
 3815SOL    HW112344   4.763   2.686   0.527
 3815SOL    HW212345   4.825   2.823   0.462
 3816SOL     OW12346   6.955   5.783   0.623
 3816SOL    HW112347   6.952   5.759   0.720
 3816SOL    HW212348   6.870   5.828   0.597
 3817SOL     OW12349   5.121   2.916   3.697
 3817SOL    HW112350   5.066   2.878   3.623
 3817SOL    HW212351   5.086   3.006   3.722
 3818SOL     OW12352   5.129   0.513   0.486
 3818SOL    HW112353   5.152   0.436   0.428
 3818SOL    HW212354   5.207   0.538   0.543
 3819SOL     OW12355   5.546   5.544   0.800
 3819SOL    HW112356   5.508   5.636   0.808
 3819SOL    HW212357   5.474   5.481   0.771
 3820SOL     OW12358   6.863   6.897   4.113
 3820SOL    HW112359   6.886   6.804   4.142
 3820SOL    HW212360   6.932   6.961   4.147
 3821SOL     OW12361   2.107   3.048   1.366
 3821SOL    HW112362   2.060   3.123   1.321
 3821SOL    HW212363   2.051   3.015   1.442
 3822SOL     OW12364   1.104   5.725   2.560
 3822SOL    HW112365   1.040   5.723   2.484
 3822SOL    HW212366   1.194   5.754   2.527
 3823SOL     OW12367   4.320   2.215   5.864
 3823SOL    HW112368   4.371   2.262   5.792
 3823SOL    HW212369   4.277   2.283   5.924
 3824SOL     OW12370   6.019   1.925   5.996
 3824SOL    HW112371   5.951   1.949   6.065
 3824SOL    HW212372   6.027   1.826   5.989
 3825SOL     OW12373   0.307   6.935   1.118
 3825SOL    HW112374   0.286   6.989   1.200
 3825SOL    HW212375   0.334   6.996   1.044
 3826SOL     OW12376   1.193   3.754   6.652
 3826SOL    HW112377   1.170   3.657   6.651
 3826SOL    HW212378   1.252   3.775   6.574
 3827SOL     OW12379   3.093   3.114   0.624
 3827SOL    HW112380   3.083   3.015   0.628
 3827SOL    HW212381   3.188   3.138   0.647
 3828SOL     OW12382   4.407   2.365   1.326
 3828SOL    HW112383   4.505   2.383   1.322
 3828SOL    HW212384   4.365   2.390   1.238
 3829SOL     OW12385   1.876   4.789   4.451
 3829SOL    HW112386   1.845   4.797   4.546
 3829SOL    HW212387   1.801   4.813   4.389
 3830SOL     OW12388   1.167   0.827   4.538
 3830SOL    HW112389   1.171   0.745   4.481
 3830SOL    HW212390   1.161   0.800   4.634
 3831SOL     OW12391   4.601   1.833   2.373
 3831SOL    HW112392   4.531   1.905   2.372
 3831SOL    HW212393   4.692   1.875   2.363
 3832SOL     OW12394   5.950   0.692   1.964
 3832SOL    HW112395   6.007   0.729   1.891
 3832SOL    HW212396   6.009   0.656   2.037
 3833SOL     OW12397   1.187   5.953   5.891
 3833SOL    HW112398   1.201   5.902   5.976
 3833SOL    HW212399   1.093   5.985   5.886
 3834SOL     OW12400   3.366   2.823   0.773
 3834SOL    HW112401   3.368   2.843   0.675
 3834SOL    HW212402   3.345   2.726   0.787
 3835SOL     OW12403   3.256   5.348   4.974
 3835SOL    HW112404   3.325   5.417   4.951
 3835SOL    HW212405   3.300   5.260   4.991
 3836SOL     OW12406   2.165   3.908   4.685
 3836SOL    HW112407   2.143   3.905   4.783
 3836SOL    HW212408   2.224   3.987   4.667
 3837SOL     OW12409   4.770   3.387   0.007
 3837SOL    HW112410   4.784   3.415   6.943
 3837SOL    HW212411   4.847   3.330   0.036
 3838SOL     OW12412   6.560   4.172   4.581
 3838SOL    HW112413   6.544   4.252   4.639
 3838SOL    HW212414   6.488   4.105   4.596
 3839SOL     OW12415   4.232   0.326   4.362
 3839SOL    HW112416   4.296   0.250   4.370
 3839SOL    HW212417   4.143   0.298   4.398
 3840SOL     OW12418   1.627   1.209   5.734
 3840SOL    HW112419   1.664   1.190   5.825
 3840SOL    HW212420   1.558   1.281   5.741
 3841SOL     OW12421   6.715   3.533   4.728
 3841SOL    HW112422   6.798   3.489   4.764
 3841SOL    HW212423   6.672   3.473   4.662
 3842SOL     OW12424   1.185   4.870   0.370
 3842SOL    HW112425   1.100   4.920   0.384
 3842SOL    HW212426   1.169   4.792   0.310
 3843SOL     OW12427   0.139   3.979   1.536
 3843SOL    HW112428   0.075   4.055   1.547
 3843SOL    HW212429   0.178   3.955   1.625
 3844SOL     OW12430   0.036   4.509   5.322
 3844SOL    HW112431   7.005   4.575   5.366
 3844SOL    HW212432   0.118   4.556   5.289
 3845SOL     OW12433   3.381   2.983   2.820
 3845SOL    HW112434   3.450   2.910   2.815
 3845SOL    HW212435   3.357   2.999   2.916
 3846SOL     OW12436   0.312   4.348   4.173
 3846SOL    HW112437   0.403   4.381   4.151
 3846SOL    HW212438   0.244   4.397   4.118
 3847SOL     OW12439   6.482   1.926   6.000
 3847SOL    HW112440   6.401   1.871   6.021
 3847SOL    HW212441   6.461   1.988   5.924
 3848SOL     OW12442   3.064   5.446   3.049
 3848SOL    HW112443   3.078   5.455   3.147
 3848SOL    HW212444   2.990   5.381   3.031
 3849SOL     OW12445   0.552   1.140   5.465
 3849SOL    HW112446   0.612   1.125   5.543
 3849SOL    HW212447   0.589   1.093   5.385
 3850SOL     OW12448   2.328   3.697   1.696
 3850SOL    HW112449   2.407   3.758   1.696
 3850SOL    HW212450   2.341   3.626   1.765
 3851SOL     OW12451   1.324   4.375   2.523
 3851SOL    HW112452   1.263   4.335   2.591
 3851SOL    HW212453   1.354   4.465   2.554
 3852SOL     OW12454   4.742   0.022   4.720
 3852SOL    HW112455   4.732   0.088   4.795
 3852SOL    HW212456   4.817   0.050   4.661
 3853SOL     OW12457   1.406   3.464   2.587
 3853SOL    HW112458   1.426   3.368   2.569
 3853SOL    HW212459   1.408   3.481   2.686
 3854SOL     OW12460   0.543   4.131   3.122
 3854SOL    HW112461   0.530   4.165   3.215
 3854SOL    HW212462   0.594   4.044   3.126
 3855SOL     OW12463   5.451   5.599   6.742
 3855SOL    HW112464   5.549   5.595   6.762
 3855SOL    HW212465   5.407   5.515   6.772
 3856SOL     OW12466   6.894   6.116   5.028
 3856SOL    HW112467   6.982   6.161   5.040
 3856SOL    HW212468   6.847   6.157   4.949
 3857SOL     OW12469   1.191   6.460   5.328
 3857SOL    HW112470   1.242   6.449   5.413
 3857SOL    HW212471   1.118   6.528   5.342
 3858SOL     OW12472   1.538   6.052   6.030
 3858SOL    HW112473   1.484   5.978   6.072
 3858SOL    HW212474   1.552   6.032   5.934
 3859SOL     OW12475   0.100   1.788   2.845
 3859SOL    HW112476   0.029   1.725   2.875
 3859SOL    HW212477   0.059   1.866   2.798
 3860SOL     OW12478   2.395   6.010   4.448
 3860SOL    HW112479   2.306   6.055   4.443
 3860SOL    HW212480   2.430   5.995   4.355
 3861SOL     OW12481   5.349   4.680   1.464
 3861SOL    HW112482   5.375   4.647   1.373
 3861SOL    HW212483   5.429   4.679   1.524
 3862SOL     OW12484   6.530   6.830   5.354
 3862SOL    HW112485   6.437   6.838   5.390
 3862SOL    HW212486   6.539   6.886   5.272
 3863SOL     OW12487   3.782   4.233   6.927
 3863SOL    HW112488   3.762   4.212   6.831
 3863SOL    HW212489   3.747   4.324   6.949
 3864SOL     OW12490   3.998   2.166   6.079
 3864SOL    HW112491   4.095   2.172   6.054
 3864SOL    HW212492   3.988   2.100   6.154
 3865SOL     OW12493   4.031   0.692   1.728
 3865SOL    HW112494   3.991   0.750   1.799
 3865SOL    HW212495   4.006   0.727   1.638
 3866SOL     OW12496   4.366   0.810   0.217
 3866SOL    HW112497   4.376   0.908   0.234
 3866SOL    HW212498   4.362   0.794   0.119
 3867SOL     OW12499   2.119   3.730   3.600
 3867SOL    HW112500   2.055   3.667   3.644
 3867SOL    HW212501   2.079   3.821   3.597
 3868SOL     OW12502   2.239   6.444   1.939
 3868SOL    HW112503   2.197   6.355   1.957
 3868SOL    HW212504   2.310   6.462   2.007
 3869SOL     OW12505   0.339   2.796   4.292
 3869SOL    HW112506   0.433   2.822   4.315
 3869SOL    HW212507   0.335   2.765   4.197
 3870SOL     OW12508   4.093   5.281   0.199
 3870SOL    HW112509   4.003   5.295   0.241
 3870SOL    HW212510   4.148   5.363   0.210
 3871SOL     OW12511   3.449   0.192   2.694
 3871SOL    HW112512   3.481   0.164   2.785
 3871SOL    HW212513   3.434   0.110   2.638
 3872SOL     OW12514   3.970   2.948   1.036
 3872SOL    HW112515   3.990   2.966   0.939
 3872SOL    HW212516   4.007   2.859   1.062
 3873SOL     OW12517   5.287   5.842   1.265
 3873SOL    HW112518   5.384   5.831   1.287
 3873SOL    HW212519   5.231   5.795   1.334
 3874SOL     OW12520   4.270   6.606   0.527
 3874SOL    HW112521   4.229   6.526   0.572
 3874SOL    HW212522   4.329   6.654   0.593
 3875SOL     OW12523   1.159   3.929   2.862
 3875SOL    HW112524   1.104   3.852   2.831
 3875SOL    HW212525   1.230   3.949   2.795
 3876SOL     OW12526   4.503   4.933   6.344
 3876SOL    HW112527   4.531   4.997   6.272
 3876SOL    HW212528   4.405   4.915   6.335
 3877SOL     OW12529   6.972   1.709   1.188
 3877SOL    HW112530   0.013   1.779   1.192
 3877SOL    HW212531   6.954   1.674   1.280
 3878SOL     OW12532   2.757   5.942   6.026
 3878SOL    HW112533   2.815   6.020   6.052
 3878SOL    HW212534   2.785   5.909   5.935
 3879SOL     OW12535   4.964   5.476   1.393
 3879SOL    HW112536   4.882   5.435   1.433
 3879SOL    HW212537   4.937   5.541   1.322
 3880SOL     OW12538   5.957   3.789   2.910
 3880SOL    HW112539   5.919   3.738   2.987
 3880SOL    HW212540   6.056   3.800   2.923
 3881SOL     OW12541   1.595   5.454   0.899
 3881SOL    HW112542   1.684   5.411   0.902
 3881SOL    HW212543   1.600   5.544   0.943
 3882SOL     OW12544   6.765   0.847   5.813
 3882SOL    HW112545   6.702   0.796   5.872
 3882SOL    HW212546   6.819   0.783   5.759
 3883SOL     OW12547   5.031   1.415   4.024
 3883SOL    HW112548   5.059   1.494   4.079
 3883SOL    HW212549   5.089   1.407   3.944
 3884SOL     OW12550   1.677   6.230   4.642
 3884SOL    HW112551   1.667   6.211   4.740
 3884SOL    HW212552   1.589   6.215   4.597
 3885SOL     OW12553   6.470   1.051   4.674
 3885SOL    HW112554   6.558   1.086   4.705
 3885SOL    HW212555   6.484   0.987   4.599
 3886SOL     OW12556   6.494   0.235   5.780
 3886SOL    HW112557   6.549   0.197   5.854
 3886SOL    HW212558   6.466   0.161   5.718
 3887SOL     OW12559   4.861   1.729   5.556
 3887SOL    HW112560   4.867   1.640   5.602
 3887SOL    HW212561   4.799   1.789   5.607
 3888SOL     OW12562   6.579   1.457   6.692
 3888SOL    HW112563   6.628   1.397   6.755
 3888SOL    HW212564   6.632   1.465   6.607
 3889SOL     OW12565   0.742   5.144   6.708
 3889SOL    HW112566   0.709   5.063   6.658
 3889SOL    HW212567   0.692   5.225   6.677
 3890SOL     OW12568   6.240   6.209   3.108
 3890SOL    HW112569   6.168   6.212   3.177
 3890SOL    HW212570   6.324   6.173   3.149
 3891SOL     OW12571   5.107   5.377   4.724
 3891SOL    HW112572   5.101   5.316   4.803
 3891SOL    HW212573   5.034   5.445   4.729
 3892SOL     OW12574   0.973   0.318   2.993
 3892SOL    HW112575   0.999   0.228   2.958
 3892SOL    HW212576   1.038   0.386   2.962
 3893SOL     OW12577   3.609   5.833   3.546
 3893SOL    HW112578   3.625   5.743   3.585
 3893SOL    HW212579   3.690   5.861   3.493
 3894SOL     OW12580   3.582   2.523   0.576
 3894SOL    HW112581   3.517   2.586   0.533
 3894SOL    HW212582   3.533   2.440   0.604
 3895SOL     OW12583   1.592   1.473   5.435
 3895SOL    HW112584   1.586   1.426   5.524
 3895SOL    HW212585   1.669   1.537   5.436
 3896SOL     OW12586   0.447   1.683   5.959
 3896SOL    HW112587   0.410   1.596   5.927
 3896SOL    HW212588   0.444   1.686   6.059
 3897SOL     OW12589   2.670   6.410   2.432
 3897SOL    HW112590   2.591   6.451   2.388
 3897SOL    HW212591   2.754   6.452   2.396
 3898SOL     OW12592   3.368   2.916   4.231
 3898SOL    HW112593   3.429   2.995   4.227
 3898SOL    HW212594   3.301   2.930   4.303
 3899SOL     OW12595   5.513   1.235   5.213
 3899SOL    HW112596   5.493   1.258   5.118
 3899SOL    HW212597   5.431   1.251   5.269
 3900SOL     OW12598   6.508   2.287   3.439
 3900SOL    HW112599   6.528   2.362   3.375
 3900SOL    HW212600   6.427   2.237   3.408
 3901SOL     OW12601   1.488   6.392   4.951
 3901SOL    HW112602   1.461   6.458   5.022
 3901SOL    HW212603   1.587   6.378   4.954
 3902SOL     OW12604   5.679   4.975   1.952
 3902SOL    HW112605   5.696   4.894   2.008
 3902SOL    HW212606   5.581   4.984   1.935
 3903SOL     OW12607   3.846   2.361   0.219
 3903SOL    HW112608   3.900   2.437   0.256
 3903SOL    HW212609   3.836   2.291   0.289
 3904SOL     OW12610   1.211   0.082   0.171
 3904SOL    HW112611   1.299   0.114   0.206
 3904SOL    HW212612   1.188   7.026   0.215
 3905SOL     OW12613   6.735   6.375   6.336
 3905SOL    HW112614   6.731   6.444   6.409
 3905SOL    HW212615   6.780   6.414   6.256
 3906SOL     OW12616   1.730   5.166   3.721
 3906SOL    HW112617   1.677   5.083   3.706
 3906SOL    HW212618   1.802   5.149   3.788
 3907SOL     OW12619   6.885   0.838   4.620
 3907SOL    HW112620   6.819   0.879   4.682
 3907SOL    HW212621   6.839   0.774   4.559
 3908SOL     OW12622   1.526   0.978   5.651
 3908SOL    HW112623   1.499   0.986   5.555
 3908SOL    HW212624   1.552   1.068   5.686
 3909SOL     OW12625   5.345   3.347   5.510
 3909SOL    HW112626   5.271   3.292   5.549
 3909SOL    HW212627   5.341   3.343   5.410
 3910SOL     OW12628   3.490   3.782   2.013
 3910SOL    HW112629   3.460   3.760   2.105
 3910SOL    HW212630   3.413   3.776   1.950
 3911SOL     OW12631   5.310   0.471   1.195
 3911SOL    HW112632   5.296   0.461   1.097
 3911SOL    HW212633   5.317   0.568   1.218
 3912SOL     OW12634   3.248   2.339   6.523
 3912SOL    HW112635   3.242   2.427   6.476
 3912SOL    HW212636   3.224   2.266   6.458
 3913SOL     OW12637   3.790   6.805   0.515
 3913SOL    HW112638   3.695   6.816   0.486
 3913SOL    HW212639   3.802   6.845   0.606
 3914SOL     OW12640   5.924   1.453   0.998
 3914SOL    HW112641   5.979   1.370   0.984
 3914SOL    HW212642   5.857   1.436   1.070
 3915SOL     OW12643   4.240   5.902   0.247
 3915SOL    HW112644   4.279   5.870   0.333
 3915SOL    HW212645   4.308   5.956   0.197
 3916SOL     OW12646   2.972   0.783   3.185
 3916SOL    HW112647   3.021   0.846   3.125
 3916SOL    HW212648   2.994   0.689   3.160
 3917SOL     OW12649   2.437   5.582   0.671
 3917SOL    HW112650   2.341   5.594   0.649
 3917SOL    HW212651   2.446   5.541   0.762
 3918SOL     OW12652   5.471   1.002   0.609
 3918SOL    HW112653   5.562   0.964   0.620
 3918SOL    HW212654   5.409   0.961   0.676
 3919SOL     OW12655   4.614   1.412   1.202
 3919SOL    HW112656   4.592   1.509   1.189
 3919SOL    HW212657   4.696   1.390   1.149
 3920SOL     OW12658   3.198   1.481   6.348
 3920SOL    HW112659   3.188   1.422   6.428
 3920SOL    HW212660   3.136   1.559   6.356
 3921SOL     OW12661   0.521   2.315   6.498
 3921SOL    HW112662   0.489   2.406   6.525
 3921SOL    HW212663   0.464   2.246   6.541
 3922SOL     OW12664   4.878   4.819   1.795
 3922SOL    HW112665   4.906   4.726   1.822
 3922SOL    HW212666   4.779   4.828   1.805
 3923SOL     OW12667   6.111   0.747   1.724
 3923SOL    HW112668   6.103   0.800   1.639
 3923SOL    HW212669   6.153   0.659   1.704
 3924SOL     OW12670   0.081   4.535   4.130
 3924SOL    HW112671   0.023   4.589   4.191
 3924SOL    HW212672   0.108   4.591   4.051
 3925SOL     OW12673   5.028   3.865   0.121
 3925SOL    HW112674   4.966   3.909   0.185
 3925SOL    HW212675   5.119   3.859   0.161
 3926SOL     OW12676   1.426   0.670   6.373
 3926SOL    HW112677   1.465   0.700   6.286
 3926SOL    HW212678   1.472   0.717   6.448
 3927SOL     OW12679   0.476   2.550   4.781
 3927SOL    HW112680   0.422   2.633   4.794
 3927SOL    HW212681   0.485   2.502   4.868
 3928SOL     OW12682   2.252   6.872   3.600
 3928SOL    HW112683   2.160   6.900   3.627
 3928SOL    HW212684   2.317   6.946   3.618
 3929SOL     OW12685   6.803   1.783   5.258
 3929SOL    HW112686   6.871   1.721   5.298
 3929SOL    HW212687   6.740   1.731   5.200
 3930SOL     OW12688   1.343   2.729   3.896
 3930SOL    HW112689   1.340   2.775   3.985
 3930SOL    HW212690   1.419   2.766   3.843
 3931SOL     OW12691   1.452   2.628   1.769
 3931SOL    HW112692   1.483   2.551   1.825
 3931SOL    HW212693   1.492   2.713   1.804
 3932SOL     OW12694   2.089   5.623   3.875
 3932SOL    HW112695   2.085   5.684   3.955
 3932SOL    HW212696   2.176   5.636   3.828
 3933SOL     OW12697   1.917   4.985   0.543
 3933SOL    HW112698   1.826   5.003   0.580
 3933SOL    HW212699   1.911   4.977   0.444
 3934SOL     OW12700   1.003   1.419   2.891
 3934SOL    HW112701   0.950   1.380   2.815
 3934SOL    HW212702   0.944   1.477   2.946
 3935SOL     OW12703   6.333   3.478   6.557
 3935SOL    HW112704   6.322   3.528   6.471
 3935SOL    HW212705   6.255   3.497   6.617
 3936SOL     OW12706   6.729   5.338   5.275
 3936SOL    HW112707   6.676   5.312   5.356
 3936SOL    HW212708   6.810   5.389   5.304
 3937SOL     OW12709   6.920   5.631   2.505
 3937SOL    HW112710   6.929   5.576   2.589
 3937SOL    HW212711   6.829   5.672   2.502
 3938SOL     OW12712   6.806   3.702   3.457
 3938SOL    HW112713   6.864   3.734   3.382
 3938SOL    HW212714   6.845   3.730   3.544
 3939SOL     OW12715   0.496   1.155   2.517
 3939SOL    HW112716   0.582   1.138   2.468
 3939SOL    HW212717   0.454   1.239   2.483
 3940SOL     OW12718   3.209   4.852   1.850
 3940SOL    HW112719   3.258   4.810   1.774
 3940SOL    HW212720   3.213   4.791   1.930
 3941SOL     OW12721   5.956   6.809   4.346
 3941SOL    HW112722   5.958   6.717   4.386
 3941SOL    HW212723   6.033   6.819   4.283
 3942SOL     OW12724   1.089   6.212   6.505
 3942SOL    HW112725   1.124   6.236   6.415
 3942SOL    HW212726   1.090   6.113   6.516
 3943SOL     OW12727   1.014   3.236   1.621
 3943SOL    HW112728   1.039   3.189   1.706
 3943SOL    HW212729   1.047   3.183   1.543
 3944SOL     OW12730   6.610   2.593   6.549
 3944SOL    HW112731   6.605   2.552   6.640
 3944SOL    HW212732   6.576   2.687   6.554
 3945SOL     OW12733   0.994   1.234   3.109
 3945SOL    HW112734   1.090   1.254   3.131
 3945SOL    HW212735   0.956   1.309   3.055
 3946SOL     OW12736   0.030   3.113   0.390
 3946SOL    HW112737   0.039   3.167   0.306
 3946SOL    HW212738   0.057   3.169   0.469
 3947SOL     OW12739   5.717   5.855   0.753
 3947SOL    HW112740   5.686   5.934   0.805
 3947SOL    HW212741   5.642   5.789   0.743
 3948SOL     OW12742   1.739   2.588   6.186
 3948SOL    HW112743   1.669   2.524   6.216
 3948SOL    HW212744   1.805   2.541   6.128
 3949SOL     OW12745   6.201   6.312   2.281
 3949SOL    HW112746   6.262   6.236   2.256
 3949SOL    HW212747   6.122   6.276   2.331
 3950SOL     OW12748   4.137   4.608   1.129
 3950SOL    HW112749   4.169   4.676   1.062
 3950SOL    HW212750   4.040   4.624   1.149
 3951SOL     OW12751   0.385   1.866   5.512
 3951SOL    HW112752   0.353   1.952   5.471
 3951SOL    HW212753   0.390   1.796   5.441
 3952SOL     OW12754   6.075   2.717   5.453
 3952SOL    HW112755   5.997   2.670   5.412
 3952SOL    HW212756   6.042   2.793   5.509
 3953SOL     OW12757   3.179   4.240   6.181
 3953SOL    HW112758   3.198   4.335   6.205
 3953SOL    HW212759   3.250   4.206   6.119
 3954SOL     OW12760   6.941   3.672   4.479
 3954SOL    HW112761   6.976   3.765   4.490
 3954SOL    HW212762   6.886   3.648   4.559
 3955SOL     OW12763   5.392   5.833   6.908
 3955SOL    HW112764   5.394   5.746   6.859
 3955SOL    HW212765   5.302   5.845   6.950
 3956SOL     OW12766   0.528   2.835   6.070
 3956SOL    HW112767   0.511   2.756   6.129
 3956SOL    HW212768   0.473   2.827   5.987
 3957SOL     OW12769   2.702   6.954   4.086
 3957SOL    HW112770   2.777   6.889   4.099
 3957SOL    HW212771   2.706   6.993   3.994
 3958SOL     OW12772   6.645   5.992   6.332
 3958SOL    HW112773   6.602   5.960   6.416
 3958SOL    HW212774   6.738   5.956   6.326
 3959SOL     OW12775   3.210   5.407   0.486
 3959SOL    HW112776   3.170   5.493   0.518
 3959SOL    HW212777   3.292   5.387   0.538
 3960SOL     OW12778   3.537   2.885   0.186
 3960SOL    HW112779   3.572   2.955   0.124
 3960SOL    HW212780   3.592   2.884   0.270
 3961SOL     OW12781   4.934   1.300   1.959
 3961SOL    HW112782   4.893   1.353   1.885
 3961SOL    HW212783   4.951   1.206   1.928
 3962SOL     OW12784   0.807   6.189   6.797
 3962SOL    HW112785   0.885   6.249   6.812
 3962SOL    HW212786   0.734   6.240   6.751
 3963SOL     OW12787   4.966   5.327   4.426
 3963SOL    HW112788   5.053   5.279   4.436
 3963SOL    HW212789   4.976   5.421   4.457
 3964SOL     OW12790   5.133   5.922   5.382
 3964SOL    HW112791   5.093   5.863   5.452
 3964SOL    HW212792   5.099   6.015   5.395
 3965SOL     OW12793   3.678   4.478   6.919
 3965SOL    HW112794   3.697   4.576   6.915
 3965SOL    HW212795   3.628   4.451   6.837
 3966SOL     OW12796   6.317   4.935   5.522
 3966SOL    HW112797   6.306   5.028   5.555
 3966SOL    HW212798   6.415   4.911   5.521
 3967SOL     OW12799   0.601   6.129   4.878
 3967SOL    HW112800   0.654   6.092   4.954
 3967SOL    HW212801   0.635   6.220   4.855
 3968SOL     OW12802   5.390   0.490   2.457
 3968SOL    HW112803   5.456   0.435   2.404
 3968SOL    HW212804   5.316   0.519   2.396
 3969SOL     OW12805   1.120   4.879   2.769
 3969SOL    HW112806   1.136   4.822   2.849
 3969SOL    HW212807   1.100   4.822   2.690
 3970SOL     OW12808   4.879   4.872   3.518
 3970SOL    HW112809   4.906   4.781   3.487
 3970SOL    HW212810   4.804   4.907   3.461
 3971SOL     OW12811   1.984   5.899   3.060
 3971SOL    HW112812   2.050   5.947   3.118
 3971SOL    HW212813   1.895   5.899   3.104
 3972SOL     OW12814   0.623   6.392   0.700
 3972SOL    HW112815   0.542   6.375   0.756
 3972SOL    HW212816   0.705   6.364   0.749
 3973SOL     OW12817   3.734   4.111   3.680
 3973SOL    HW112818   3.752   4.203   3.643
 3973SOL    HW212819   3.642   4.082   3.652
 3974SOL     OW12820   6.764   1.139   6.199
 3974SOL    HW112821   6.717   1.122   6.286
 3974SOL    HW212822   6.762   1.056   6.143
 3975SOL     OW12823   6.633   1.068   6.455
 3975SOL    HW112824   6.634   0.969   6.448
 3975SOL    HW212825   6.554   1.098   6.508
 3976SOL     OW12826   1.627   4.143   1.119
 3976SOL    HW112827   1.706   4.141   1.058
 3976SOL    HW212828   1.653   4.183   1.207
 3977SOL     OW12829   2.332   6.401   6.578
 3977SOL    HW112830   2.238   6.374   6.557
 3977SOL    HW212831   2.343   6.499   6.561
 3978SOL     OW12832   5.838   1.942   5.811
 3978SOL    HW112833   5.779   2.017   5.840
 3978SOL    HW212834   5.907   1.925   5.881
 3979SOL     OW12835   1.420   6.701   2.245
 3979SOL    HW112836   1.422   6.745   2.335
 3979SOL    HW212837   1.398   6.769   2.175
 3980SOL     OW12838   4.895   3.230   4.336
 3980SOL    HW112839   4.895   3.286   4.418
 3980SOL    HW212840   4.857   3.140   4.357
 3981SOL     OW12841   0.172   1.782   0.278
 3981SOL    HW112842   0.176   1.725   0.361
 3981SOL    HW212843   0.265   1.798   0.245
 3982SOL     OW12844   2.471   1.275   4.006
 3982SOL    HW112845   2.483   1.189   4.057
 3982SOL    HW212846   2.423   1.341   4.063
 3983SOL     OW12847   3.137   6.582   4.224
 3983SOL    HW112848   3.106   6.584   4.319
 3983SOL    HW212849   3.235   6.601   4.220
 3984SOL     OW12850   1.312   6.841   2.026
 3984SOL    HW112851   1.257   6.919   1.995
 3984SOL    HW212852   1.367   6.807   1.951
 3985SOL     OW12853   1.732   3.677   6.928
 3985SOL    HW112854   1.692   3.586   6.938
 3985SOL    HW212855   1.773   3.685   6.837
 3986SOL     OW12856   0.149   1.843   1.330
 3986SOL    HW112857   0.157   1.749   1.363
 3986SOL    HW212858   0.196   1.904   1.393
 3987SOL     OW12859   2.205   5.242   5.962
 3987SOL    HW112860   2.212   5.320   5.899
 3987SOL    HW212861   2.157   5.167   5.918
 3988SOL     OW12862   3.610   2.014   0.103
 3988SOL    HW112863   3.587   1.920   0.128
 3988SOL    HW212864   3.707   2.030   0.122
 3989SOL     OW12865   6.147   6.990   0.003
 3989SOL    HW112866   6.196   7.009   0.089
 3989SOL    HW212867   6.177   0.024   6.964
 3990SOL     OW12868   0.328   3.011   4.678
 3990SOL    HW112869   0.314   2.917   4.647
 3990SOL    HW212870   0.252   3.068   4.646
 3991SOL     OW12871   0.284   2.093   3.617
 3991SOL    HW112872   0.286   1.993   3.614
 3991SOL    HW212873   0.348   2.129   3.550
 3992SOL     OW12874   4.138   3.636   6.531
 3992SOL    HW112875   4.062   3.602   6.586
 3992SOL    HW212876   4.201   3.688   6.589
 3993SOL     OW12877   3.017   2.070   2.683
 3993SOL    HW112878   3.000   2.127   2.602
 3993SOL    HW212879   3.082   1.997   2.659
 3994SOL     OW12880   2.370   2.733   4.505
 3994SOL    HW112881   2.454   2.679   4.510
 3994SOL    HW212882   2.300   2.692   4.562
 3995SOL     OW12883   2.372   4.270   3.464
 3995SOL    HW112884   2.325   4.250   3.550
 3995SOL    HW212885   2.323   4.228   3.388
 3996SOL     OW12886   1.260   0.968   4.317
 3996SOL    HW112887   1.249   1.063   4.345
 3996SOL    HW212888   1.190   0.912   4.360
 3997SOL     OW12889   4.890   3.964   3.131
 3997SOL    HW112890   4.858   4.024   3.058
 3997SOL    HW212891   4.973   4.002   3.171
 3998SOL     OW12892   6.507   2.219   2.500
 3998SOL    HW112893   6.603   2.238   2.480
 3998SOL    HW212894   6.473   2.283   2.570
 3999SOL     OW12895   6.183   3.925   3.203
 3999SOL    HW112896   6.093   3.968   3.207
 3999SOL    HW212897   6.244   3.970   3.269
 4000SOL     OW12898   2.656   5.541   2.790
 4000SOL    HW112899   2.653   5.581   2.699
 4000SOL    HW212900   2.733   5.478   2.796
 4001SOL     OW12901   2.773   3.773   5.872
 4001SOL    HW112902   2.788   3.758   5.970
 4001SOL    HW212903   2.754   3.869   5.855
 4002SOL     OW12904   3.564   3.308   5.354
 4002SOL    HW112905   3.548   3.325   5.257
 4002SOL    HW212906   3.648   3.254   5.364
 4003SOL     OW12907   2.742   1.450   6.419
 4003SOL    HW112908   2.679   1.484   6.350
 4003SOL    HW212909   2.786   1.367   6.386
 4004SOL     OW12910   6.059   3.299   3.098
 4004SOL    HW112911   6.029   3.290   3.003
 4004SOL    HW212912   6.057   3.395   3.125
 4005SOL     OW12913   4.226   3.765   1.055
 4005SOL    HW112914   4.132   3.780   1.024
 4005SOL    HW212915   4.288   3.823   1.001
 4006SOL     OW12916   5.555   5.286   1.873
 4006SOL    HW112917   5.505   5.207   1.837
 4006SOL    HW212918   5.653   5.266   1.873
 4007SOL     OW12919   0.334   1.846   3.076
 4007SOL    HW112920   0.343   1.759   3.125
 4007SOL    HW212921   0.263   1.838   3.006
 4008SOL     OW12922   3.195   7.004   0.459
 4008SOL    HW112923   3.206   6.910   0.490
 4008SOL    HW212924   3.284   0.019   0.459
 4009SOL     OW12925   4.841   1.947   1.695
 4009SOL    HW112926   4.811   1.941   1.599
 4009SOL    HW212927   4.873   1.857   1.725
 4010SOL     OW12928   3.233   4.668   1.431
 4010SOL    HW112929   3.297   4.708   1.365
 4010SOL    HW212930   3.240   4.718   1.517
 4011SOL     OW12931   0.154   6.140   1.165
 4011SOL    HW112932   0.250   6.111   1.163
 4011SOL    HW212933   0.112   6.122   1.077
 4012SOL     OW12934   4.441   6.804   2.009
 4012SOL    HW112935   4.519   6.799   2.071
 4012SOL    HW212936   4.397   6.715   2.002
 4013SOL     OW12937   1.725   6.790   1.228
 4013SOL    HW112938   1.637   6.832   1.208
 4013SOL    HW212939   1.799   6.854   1.206
 4014SOL     OW12940   3.535   6.263   4.376
 4014SOL    HW112941   3.442   6.299   4.381
 4014SOL    HW212942   3.551   6.225   4.284
 4015SOL     OW12943   4.749   4.787   6.242
 4015SOL    HW112944   4.831   4.812   6.294
 4015SOL    HW212945   4.671   4.839   6.276
 4016SOL     OW12946   2.916   5.169   0.403
 4016SOL    HW112947   2.930   5.139   0.497
 4016SOL    HW212948   3.005   5.181   0.358
 4017SOL     OW12949   0.182   4.943   5.302
 4017SOL    HW112950   0.202   4.846   5.311
 4017SOL    HW212951   0.259   4.989   5.260
 4018SOL     OW12952   4.415   0.031   2.080
 4018SOL    HW112953   4.425   6.979   2.025
 4018SOL    HW212954   4.319   0.045   2.102
 4019SOL     OW12955   5.235   3.568   2.122
 4019SOL    HW112956   5.265   3.474   2.108
 4019SOL    HW212957   5.283   3.608   2.200
 4020SOL     OW12958   6.479   3.421   4.873
 4020SOL    HW112959   6.503   3.351   4.940
 4020SOL    HW212960   6.561   3.447   4.822
 4021SOL     OW12961   3.451   4.054   5.516
 4021SOL    HW112962   3.531   4.011   5.474
 4021SOL    HW212963   3.400   3.985   5.567
 4022SOL     OW12964   3.829   6.855   0.155
 4022SOL    HW112965   3.793   6.869   0.247
 4022SOL    HW212966   3.927   6.872   0.154
 4023SOL     OW12967   6.981   0.937   5.544
 4023SOL    HW112968   7.024   1.019   5.583
 4023SOL    HW212969   7.024   0.915   5.456
 4024SOL     OW12970   2.051   5.049   4.857
 4024SOL    HW112971   2.069   5.029   4.954
 4024SOL    HW212972   2.061   4.965   4.804
 4025SOL     OW12973   1.004   6.247   4.343
 4025SOL    HW112974   0.956   6.274   4.260
 4025SOL    HW212975   1.042   6.328   4.388
 4026SOL     OW12976   6.212   6.212   4.375
 4026SOL    HW112977   6.258   6.244   4.458
 4026SOL    HW212978   6.114   6.204   4.393
 4027SOL     OW12979   2.870   1.802   0.100
 4027SOL    HW112980   2.863   1.822   0.002
 4027SOL    HW212981   2.943   1.857   0.140
 4028SOL     OW12982   4.037   1.415   3.605
 4028SOL    HW112983   4.037   1.321   3.572
 4028SOL    HW212984   4.131   1.450   3.607
 4029SOL     OW12985   2.589   4.011   5.995
 4029SOL    HW112986   2.552   4.057   5.915
 4029SOL    HW212987   2.513   3.982   6.054
 4030SOL     OW12988   6.865   0.985   1.064
 4030SOL    HW112989   6.954   1.022   1.089
 4030SOL    HW212990   6.874   0.887   1.044
 4031SOL     OW12991   5.211   6.300   3.300
 4031SOL    HW112992   5.224   6.297   3.201
 4031SOL    HW212993   5.295   6.332   3.344
 4032SOL     OW12994   0.264   7.004   2.304
 4032SOL    HW112995   0.340   6.941   2.287
 4032SOL    HW212996   0.281   0.060   2.256
 4033SOL     OW12997   1.633   2.043   2.577
 4033SOL    HW112998   1.576   1.971   2.538
 4033SOL    HW212999   1.720   2.046   2.529
 4034SOL     OW13000   5.807   1.699   5.569
 4034SOL    HW113001   5.856   1.785   5.560
 4034SOL    HW213002   5.784   1.663   5.479
 4035SOL     OW13003   6.505   0.896   1.590
 4035SOL    HW113004   6.489   0.887   1.689
 4035SOL    HW213005   6.432   0.950   1.549
 4036SOL     OW13006   4.185   5.114   2.594
 4036SOL    HW113007   4.088   5.114   2.620
 4036SOL    HW213008   4.232   5.188   2.643
 4037SOL     OW13009   1.968   1.521   6.425
 4037SOL    HW113010   1.914   1.578   6.363
 4037SOL    HW213011   2.007   1.445   6.374
 4038SOL     OW13012   4.665   3.031   0.365
 4038SOL    HW113013   4.630   2.986   0.447
 4038SOL    HW213014   4.648   2.973   0.285
 4039SOL     OW13015   4.655   5.872   2.128
 4039SOL    HW113016   4.599   5.945   2.167
 4039SOL    HW213017   4.612   5.784   2.146
 4040SOL     OW13018   2.820   6.894   4.790
 4040SOL    HW113019   2.855   6.801   4.805
 4040SOL    HW213020   2.894   6.960   4.803
 4041SOL     OW13021   1.916   5.644   1.099
 4041SOL    HW113022   1.950   5.556   1.132
 4041SOL    HW213023   1.932   5.714   1.168
 4042SOL     OW13024   5.927   6.308   4.334
 4042SOL    HW113025   5.933   6.269   4.242
 4042SOL    HW213026   5.832   6.308   4.365
 4043SOL     OW13027   0.176   1.936   6.592
 4043SOL    HW113028   0.138   1.895   6.675
 4043SOL    HW213029   0.102   1.968   6.533
 4044SOL     OW13030   5.369   5.781   3.191
 4044SOL    HW113031   5.317   5.866   3.187
 4044SOL    HW213032   5.414   5.765   3.103
 4045SOL     OW13033   4.334   6.400   5.921
 4045SOL    HW113034   4.294   6.325   5.869
 4045SOL    HW213035   4.264   6.442   5.979
 4046SOL     OW13036   0.705   2.086   2.762
 4046SOL    HW113037   0.715   2.117   2.668
 4046SOL    HW213038   0.669   1.993   2.763
 4047SOL     OW13039   2.447   2.461   6.863
 4047SOL    HW113040   2.465   2.554   6.894
 4047SOL    HW213041   2.520   2.431   6.802
 4048SOL     OW13042   5.716   1.214   1.690
 4048SOL    HW113043   5.759   1.217   1.600
 4048SOL    HW213044   5.716   1.119   1.723
 4049SOL     OW13045   5.130   5.483   6.279
 4049SOL    HW113046   5.035   5.511   6.268
 4049SOL    HW213047   5.144   5.393   6.238
 4050SOL     OW13048   0.832   6.262   1.890
 4050SOL    HW113049   0.850   6.350   1.933
 4050SOL    HW213050   0.768   6.274   1.813
 4051SOL     OW13051   4.244   1.671   6.315
 4051SOL    HW113052   4.234   1.767   6.290
 4051SOL    HW213053   4.239   1.662   6.414
 4052SOL     OW13054   5.799   2.110   3.385
 4052SOL    HW113055   5.754   2.157   3.461
 4052SOL    HW213056   5.764   2.146   3.298
 4053SOL     OW13057   2.613   6.137   4.698
 4053SOL    HW113058   2.666   6.107   4.777
 4053SOL    HW213059   2.606   6.063   4.631
 4054SOL     OW13060   5.099   4.102   0.805
 4054SOL    HW113061   5.152   4.132   0.725
 4054SOL    HW213062   5.053   4.181   0.845
 4055SOL     OW13063   2.526   4.121   0.956
 4055SOL    HW113064   2.593   4.120   0.882
 4055SOL    HW213065   2.570   4.153   1.040
 4056SOL     OW13066   5.625   4.194   1.035
 4056SOL    HW113067   5.604   4.290   1.052
 4056SOL    HW213068   5.556   4.136   1.077
 4057SOL     OW13069   0.118   2.651   0.412
 4057SOL    HW113070   0.101   2.557   0.442
 4057SOL    HW213071   0.060   2.714   0.464
 4058SOL     OW13072   3.368   6.780   5.086
 4058SOL    HW113073   3.434   6.846   5.051
 4058SOL    HW213074   3.284   6.786   5.032
 4059SOL     OW13075   0.332   1.552   2.459
 4059SOL    HW113076   0.431   1.554   2.478
 4059SOL    HW213077   0.318   1.535   2.361
 4060SOL     OW13078   5.822   5.046   5.754
 4060SOL    HW113079   5.828   5.078   5.659
 4060SOL    HW213080   5.727   5.046   5.783
 4061SOL     OW13081   2.699   4.996   2.160
 4061SOL    HW113082   2.691   5.029   2.066
 4061SOL    HW213083   2.716   5.074   2.221
 4062SOL     OW13084   2.298   0.370   2.087
 4062SOL    HW113085   2.293   0.315   2.004
 4062SOL    HW213086   2.394   0.385   2.112
 4063SOL     OW13087   6.055   6.973   0.403
 4063SOL    HW113088   6.074   7.013   0.493
 4063SOL    HW213089   6.123   7.004   0.337
 4064SOL     OW13090   2.465   1.004   4.343
 4064SOL    HW113091   2.391   1.053   4.296
 4064SOL    HW213092   2.549   1.058   4.339
 4065SOL     OW13093   1.446   6.847   1.735
 4065SOL    HW113094   1.412   6.937   1.705
 4065SOL    HW213095   1.475   6.795   1.655
 4066SOL     OW13096   6.269   4.242   2.857
 4066SOL    HW113097   6.178   4.212   2.827
 4066SOL    HW213098   6.280   4.221   2.954
 4067SOL     OW13099   6.298   3.405   2.808
 4067SOL    HW113100   6.295   3.323   2.751
 4067SOL    HW213101   6.353   3.387   2.890
 4068SOL     OW13102   1.937   1.649   4.626
 4068SOL    HW113103   1.948   1.597   4.541
 4068SOL    HW213104   1.868   1.720   4.612
 4069SOL     OW13105   3.843   5.348   6.879
 4069SOL    HW113106   3.839   5.254   6.913
 4069SOL    HW213107   3.851   5.347   6.779
 4070SOL     OW13108   0.295   2.506   3.077
 4070SOL    HW113109   0.352   2.456   3.143
 4070SOL    HW213110   0.314   2.474   2.985
 4071SOL     OW13111   1.037   1.217   4.954
 4071SOL    HW113112   0.986   1.135   4.980
 4071SOL    HW213113   1.096   1.245   5.029
 4072SOL     OW13114   0.870   5.415   4.489
 4072SOL    HW113115   0.817   5.414   4.574
 4072SOL    HW213116   0.888   5.510   4.463
 4073SOL     OW13117   2.879   5.945   6.606
 4073SOL    HW113118   2.910   6.039   6.592
 4073SOL    HW213119   2.823   5.916   6.528
 4074SOL     OW13120   0.473   4.847   1.291
 4074SOL    HW113121   0.433   4.813   1.376
 4074SOL    HW213122   0.501   4.770   1.234
 4075SOL     OW13123   4.676   1.761   1.547
 4075SOL    HW113124   4.727   1.684   1.508
 4075SOL    HW213125   4.603   1.787   1.484
 4076SOL     OW13126   2.513   3.269   6.577
 4076SOL    HW113127   2.423   3.264   6.533
 4076SOL    HW213128   2.557   3.355   6.554
 4077SOL     OW13129   3.554   1.632   0.220
 4077SOL    HW113130   3.475   1.674   0.263
 4077SOL    HW213131   3.637   1.678   0.250
 4078SOL     OW13132   1.710   5.406   2.095
 4078SOL    HW113133   1.739   5.435   2.004
 4078SOL    HW213134   1.613   5.383   2.094
 4079SOL     OW13135   2.188   0.854   3.565
 4079SOL    HW113136   2.247   0.780   3.597
 4079SOL    HW213137   2.225   0.893   3.481
 4080SOL     OW13138   4.817   3.184   6.257
 4080SOL    HW113139   4.761   3.161   6.337
 4080SOL    HW213140   4.790   3.274   6.223
 4081SOL     OW13141   1.635   2.627   3.934
 4081SOL    HW113142   1.587   2.612   4.021
 4081SOL    HW213143   1.714   2.686   3.949
 4082SOL     OW13144   1.227   4.026   0.038
 4082SOL    HW113145   1.129   4.042   0.055
 4082SOL    HW213146   1.268   3.981   0.118
 4083SOL     OW13147   6.866   3.224   2.784
 4083SOL    HW113148   6.963   3.204   2.795
 4083SOL    HW213149   6.831   3.175   2.704
 4084SOL     OW13150   5.657   2.624   4.151
 4084SOL    HW113151   5.585   2.592   4.213
 4084SOL    HW213152   5.745   2.623   4.199
 4085SOL     OW13153   3.389   5.659   1.675
 4085SOL    HW113154   3.473   5.705   1.646
 4085SOL    HW213155   3.371   5.680   1.771
 4086SOL     OW13156   1.815   5.996   1.644
 4086SOL    HW113157   1.744   5.996   1.714
 4086SOL    HW213158   1.780   6.038   1.560
 4087SOL     OW13159   3.019   2.191   3.613
 4087SOL    HW113160   3.064   2.197   3.524
 4087SOL    HW213161   2.938   2.133   3.606
 4088SOL     OW13162   0.389   1.832   0.662
 4088SOL    HW113163   0.346   1.794   0.744
 4088SOL    HW213164   0.433   1.758   0.611
 4089SOL     OW13165   5.864   6.362   3.928
 4089SOL    HW113166   5.802   6.394   3.999
 4089SOL    HW213167   5.828   6.277   3.888
 4090SOL     OW13168   0.910   4.112   6.158
 4090SOL    HW113169   0.985   4.054   6.190
 4090SOL    HW213170   0.843   4.124   6.231
 4091SOL     OW13171   6.813   6.226   0.133
 4091SOL    HW113172   6.843   6.169   0.210
 4091SOL    HW213173   6.760   6.171   0.070
 4092SOL     OW13174   6.709   2.663   5.111
 4092SOL    HW113175   6.628   2.678   5.169
 4092SOL    HW213176   6.746   2.750   5.081
 4093SOL     OW13177   4.590   0.442   2.680
 4093SOL    HW113178   4.658   0.376   2.648
 4093SOL    HW213179   4.564   0.421   2.774
 4094SOL     OW13180   2.542   5.984   4.243
 4094SOL    HW113181   2.594   6.032   4.313
 4094SOL    HW213182   2.605   5.942   4.177
 4095SOL     OW13183   0.360   3.619   6.847
 4095SOL    HW113184   0.310   3.597   6.930
 4095SOL    HW213185   0.398   3.711   6.853
 4096SOL     OW13186   4.708   6.081   6.500
 4096SOL    HW113187   4.782   6.111   6.561
 4096SOL    HW213188   4.742   6.077   6.406
 4097SOL     OW13189   3.251   4.912   5.831
 4097SOL    HW113190   3.170   4.855   5.846
 4097SOL    HW213191   3.234   5.004   5.864
 4098SOL     OW13192   0.657   2.942   1.569
 4098SOL    HW113193   0.670   3.006   1.644
 4098SOL    HW213194   0.607   2.862   1.601
 4099SOL     OW13195   2.541   4.812   1.164
 4099SOL    HW113196   2.452   4.767   1.162
 4099SOL    HW213197   2.591   4.791   1.079
 4100SOL     OW13198   6.899   5.384   4.823
 4100SOL    HW113199   6.881   5.299   4.872
 4100SOL    HW213200   6.835   5.455   4.853
 4101SOL     OW13201   5.882   1.341   0.439
 4101SOL    HW113202   5.881   1.253   0.487
 4101SOL    HW213203   5.788   1.368   0.417
 4102SOL     OW13204   6.580   0.580   0.679
 4102SOL    HW113205   6.636   0.497   0.682
 4102SOL    HW213206   6.640   0.660   0.674
 4103SOL     OW13207   0.270   0.727   0.688
 4103SOL    HW113208   0.189   0.745   0.632
 4103SOL    HW213209   0.254   0.760   0.781
 4104SOL     OW13210   0.941   4.513   2.406
 4104SOL    HW113211   0.865   4.478   2.351
 4104SOL    HW213212   1.028   4.487   2.363
 4105SOL     OW13213   4.058   6.359   1.924
 4105SOL    HW113214   4.083   6.404   1.838
 4105SOL    HW213215   4.123   6.285   1.943
 4106SOL     OW13216   6.739   2.291   4.180
 4106SOL    HW113217   6.771   2.302   4.086
 4106SOL    HW213218   6.808   2.242   4.233
 4107SOL     OW13219   1.634   6.025   1.052
 4107SOL    HW113220   1.708   6.090   1.067
 4107SOL    HW213221   1.671   5.936   1.025
 4108SOL     OW13222   6.649   4.209   5.441
 4108SOL    HW113223   6.606   4.280   5.496
 4108SOL    HW213224   6.650   4.237   5.345
 4109SOL     OW13225   5.048   6.306   5.049
 4109SOL    HW113226   5.112   6.295   4.973
 4109SOL    HW213227   5.082   6.254   5.128
 4110SOL     OW13228   4.737   3.463   6.502
 4110SOL    HW113229   4.835   3.448   6.515
 4110SOL    HW213230   4.723   3.534   6.432
 4111SOL     OW13231   3.726   3.521   6.601
 4111SOL    HW113232   3.823   3.510   6.622
 4111SOL    HW213233   3.705   3.617   6.583
 4112SOL     OW13234   5.211   0.325   5.453
 4112SOL    HW113235   5.174   0.334   5.546
 4112SOL    HW213236   5.139   0.294   5.391
 4113SOL     OW13237   4.959   6.635   4.478
 4113SOL    HW113238   5.023   6.711   4.487
 4113SOL    HW213239   4.901   6.650   4.397
 4114SOL     OW13240   3.171   2.185   4.582
 4114SOL    HW113241   3.217   2.168   4.494
 4114SOL    HW213242   3.187   2.279   4.610
 4115SOL     OW13243   4.009   5.075   2.230
 4115SOL    HW113244   3.991   5.103   2.325
 4115SOL    HW213245   3.960   4.990   2.211
 4116SOL     OW13246   3.801   2.125   1.747
 4116SOL    HW113247   3.888   2.162   1.714
 4116SOL    HW213248   3.747   2.200   1.785
 4117SOL     OW13249   0.786   4.938   2.109
 4117SOL    HW113250   0.688   4.919   2.114
 4117SOL    HW213251   0.806   5.021   2.160
 4118SOL     OW13252   2.962   6.496   6.815
 4118SOL    HW113253   2.982   6.444   6.898
 4118SOL    HW213254   2.879   6.551   6.829
 4119SOL     OW13255   3.840   2.046   3.914
 4119SOL    HW113256   3.896   2.129   3.917
 4119SOL    HW213257   3.899   1.966   3.908
 4120SOL     OW13258   4.001   0.286   0.517
 4120SOL    HW113259   4.012   0.328   0.426
 4120SOL    HW213260   3.926   0.221   0.514
 4121SOL     OW13261   6.068   1.007   5.056
 4121SOL    HW113262   6.014   0.987   5.137
 4121SOL    HW213263   6.077   1.106   5.045
 4122SOL     OW13264   0.801   5.502   5.475
 4122SOL    HW113265   0.735   5.443   5.428
 4122SOL    HW213266   0.754   5.585   5.506
 4123SOL     OW13267   4.131   4.603   5.827
 4123SOL    HW113268   4.103   4.668   5.756
 4123SOL    HW213269   4.190   4.533   5.787
 4124SOL     OW13270   6.015   5.027   6.190
 4124SOL    HW113271   6.002   4.988   6.281
 4124SOL    HW213272   5.933   5.078   6.164
 4125SOL     OW13273   4.809   1.547   2.392
 4125SOL    HW113274   4.790   1.645   2.406
 4125SOL    HW213275   4.735   1.493   2.433
 4126SOL     OW13276   1.692   3.590   3.300
 4126SOL    HW113277   1.690   3.686   3.274
 4126SOL    HW213278   1.602   3.550   3.286
 4127SOL     OW13279   4.648   4.906   4.724
 4127SOL    HW113280   4.746   4.912   4.703
 4127SOL    HW213281   4.634   4.835   4.792
 4128SOL     OW13282   1.451   3.345   2.077
 4128SOL    HW113283   1.541   3.305   2.060
 4128SOL    HW213284   1.457   3.409   2.154
 4129SOL     OW13285   4.659   1.967   6.745
 4129SOL    HW113286   4.606   1.893   6.703
 4129SOL    HW213287   4.750   1.970   6.703
 4130SOL     OW13288   6.829   2.806   5.606
 4130SOL    HW113289   6.929   2.795   5.606
 4130SOL    HW213290   6.785   2.717   5.598
 4131SOL     OW13291   1.890   6.393   3.582
 4131SOL    HW113292   1.921   6.381   3.676
 4131SOL    HW213293   1.793   6.369   3.576
 4132SOL     OW13294   5.141   4.176   3.658
 4132SOL    HW113295   5.149   4.097   3.597
 4132SOL    HW213296   5.045   4.190   3.682
 4133SOL     OW13297   3.296   0.048   1.488
 4133SOL    HW113298   3.350   0.093   1.558
 4133SOL    HW213299   3.322   0.083   1.398
 4134SOL     OW13300   2.270   2.437   0.371
 4134SOL    HW113301   2.201   2.490   0.321
 4134SOL    HW213302   2.271   2.343   0.336
 4135SOL     OW13303   1.972   1.356   2.908
 4135SOL    HW113304   1.913   1.375   2.829
 4135SOL    HW213305   2.060   1.402   2.895
 4136SOL     OW13306   1.470   2.401   2.914
 4136SOL    HW113307   1.518   2.313   2.912
 4136SOL    HW213308   1.393   2.398   2.850
 4137SOL     OW13309   1.604   4.653   0.876
 4137SOL    HW113310   1.563   4.701   0.799
 4137SOL    HW213311   1.675   4.590   0.844
 4138SOL     OW13312   3.716   4.879   3.168
 4138SOL    HW113313   3.695   4.794   3.121
 4138SOL    HW213314   3.654   4.891   3.245
 4139SOL     OW13315   2.527   2.559   4.801
 4139SOL    HW113316   2.616   2.513   4.809
 4139SOL    HW213317   2.540   2.648   4.757
 4140SOL     OW13318   2.861   0.708   5.395
 4140SOL    HW113319   2.879   0.802   5.423
 4140SOL    HW213320   2.868   0.647   5.475
 4141SOL     OW13321   5.622   6.694   1.275
 4141SOL    HW113322   5.656   6.655   1.189
 4141SOL    HW213323   5.524   6.673   1.284
 4142SOL     OW13324   6.302   5.495   0.468
 4142SOL    HW113325   6.251   5.502   0.553
 4142SOL    HW213326   6.256   5.429   0.407
 4143SOL     OW13327   0.334   3.083   0.361
 4143SOL    HW113328   0.385   2.998   0.346
 4143SOL    HW213329   0.242   3.062   0.394
 4144SOL     OW13330   4.657   3.929   6.476
 4144SOL    HW113331   4.655   4.021   6.437
 4144SOL    HW213332   4.715   3.929   6.557
 4145SOL     OW13333   6.817   5.651   1.100
 4145SOL    HW113334   6.831   5.558   1.134
 4145SOL    HW213335   6.728   5.685   1.131
 4146SOL     OW13336   0.145   1.176   5.616
 4146SOL    HW113337   0.244   1.185   5.629
 4146SOL    HW213338   0.121   1.202   5.523
 4147SOL     OW13339   4.751   2.970   5.826
 4147SOL    HW113340   4.823   3.031   5.859
 4147SOL    HW213341   4.768   2.948   5.730
 4148SOL     OW13342   0.967   0.351   4.481
 4148SOL    HW113343   0.868   0.349   4.465
 4148SOL    HW213344   0.990   0.291   4.558
 4149SOL     OW13345   0.322   2.433   0.692
 4149SOL    HW113346   0.320   2.342   0.734
 4149SOL    HW213347   0.245   2.443   0.630
 4150SOL     OW13348   0.427   0.875   5.101
 4150SOL    HW113349   0.493   0.922   5.043
 4150SOL    HW213350   0.447   0.777   5.101
 4151SOL     OW13351   3.742   6.500   6.154
 4151SOL    HW113352   3.760   6.512   6.252
 4151SOL    HW213353   3.704   6.584   6.117
 4152SOL     OW13354   3.069   6.195   1.412
 4152SOL    HW113355   2.972   6.176   1.398
 4152SOL    HW213356   3.116   6.194   1.324
 4153SOL     OW13357   4.357   4.696   6.895
 4153SOL    HW113358   4.304   4.732   6.971
 4153SOL    HW213359   4.311   4.615   6.858
 4154SOL     OW13360   0.534   4.711   4.699
 4154SOL    HW113361   0.553   4.646   4.773
 4154SOL    HW213362   0.448   4.759   4.718
 4155SOL     OW13363   6.535   1.740   2.823
 4155SOL    HW113364   6.521   1.651   2.867
 4155SOL    HW213365   6.575   1.727   2.733
 4156SOL     OW13366   4.773   6.540   4.893
 4156SOL    HW113367   4.803   6.486   4.815
 4156SOL    HW213368   4.805   6.634   4.883
 4157SOL     OW13369   4.318   6.668   4.127
 4157SOL    HW113370   4.255   6.663   4.205
 4157SOL    HW213371   4.401   6.716   4.155
 4158SOL     OW13372   1.630   5.172   3.445
 4158SOL    HW113373   1.627   5.079   3.410
 4158SOL    HW213374   1.695   5.176   3.522
 4159SOL     OW13375   2.187   3.149   3.777
 4159SOL    HW113376   2.152   3.140   3.684
 4159SOL    HW213377   2.231   3.064   3.805
 4160SOL     OW13378   6.562   0.624   1.002
 4160SOL    HW113379   6.566   0.550   0.934
 4160SOL    HW213380   6.503   0.697   0.968
 4161SOL     OW13381   1.004   0.467   6.475
 4161SOL    HW113382   0.991   0.447   6.572
 4161SOL    HW213383   0.963   0.556   6.453
 4162SOL     OW13384   6.096   6.343   5.708
 4162SOL    HW113385   6.117   6.277   5.780
 4162SOL    HW213386   6.180   6.368   5.661
 4163SOL     OW13387   6.403   0.100   3.286
 4163SOL    HW113388   6.385   0.005   3.312
 4163SOL    HW213389   6.448   0.102   3.196
 4164SOL     OW13390   1.005   6.601   6.329
 4164SOL    HW113391   1.057   6.516   6.340
 4164SOL    HW213392   1.052   6.661   6.264
 4165SOL     OW13393   4.558   0.226   6.830
 4165SOL    HW113394   4.470   0.227   6.783
 4165SOL    HW213395   4.547   0.190   6.923
 4166SOL     OW13396   5.974   4.012   0.925
 4166SOL    HW113397   5.986   3.913   0.914
 4166SOL    HW213398   5.928   4.030   1.012
 4167SOL     OW13399   1.462   4.359   1.027
 4167SOL    HW113400   1.491   4.434   1.087
 4167SOL    HW213401   1.497   4.273   1.063
 4168SOL     OW13402   0.043   4.905   1.402
 4168SOL    HW113403   0.096   4.900   1.487
 4168SOL    HW213404   0.061   4.824   1.347
 4169SOL     OW13405   5.818   3.374   3.915
 4169SOL    HW113406   5.730   3.331   3.896
 4169SOL    HW213407   5.890   3.328   3.864
 4170SOL     OW13408   2.892   3.623   4.919
 4170SOL    HW113409   2.957   3.664   4.983
 4170SOL    HW213410   2.809   3.598   4.968
 4171SOL     OW13411   5.171   4.837   1.280
 4171SOL    HW113412   5.188   4.840   1.181
 4171SOL    HW213413   5.246   4.789   1.325
 4172SOL     OW13414   0.194   1.652   6.221
 4172SOL    HW113415   0.292   1.638   6.233
 4172SOL    HW213416   0.163   1.603   6.140
 4173SOL     OW13417   5.262   3.362   5.247
 4173SOL    HW113418   5.309   3.406   5.171
 4173SOL    HW213419   5.206   3.286   5.212
 4174SOL     OW13420   5.173   0.380   3.913
 4174SOL    HW113421   5.134   0.340   3.996
 4174SOL    HW213422   5.262   0.340   3.895
 4175SOL     OW13423   2.150   5.728   4.863
 4175SOL    HW113424   2.057   5.763   4.872
 4175SOL    HW213425   2.203   5.789   4.804
 4176SOL     OW13426   2.874   6.700   2.066
 4176SOL    HW113427   2.910   6.705   1.973
 4176SOL    HW213428   2.935   6.646   2.123
 4177SOL     OW13429   6.700   4.374   4.392
 4177SOL    HW113430   6.628   4.369   4.323
 4177SOL    HW213431   6.694   4.294   4.452
 4178SOL     OW13432   4.347   1.368   3.820
 4178SOL    HW113433   4.403   1.314   3.883
 4178SOL    HW213434   4.358   1.334   3.727
 4179SOL     OW13435   5.541   2.368   3.646
 4179SOL    HW113436   5.523   2.341   3.741
 4179SOL    HW213437   5.525   2.467   3.637
 4180SOL     OW13438   5.807   3.281   1.637
 4180SOL    HW113439   5.752   3.211   1.683
 4180SOL    HW213440   5.839   3.348   1.705
 4181SOL     OW13441   1.878   2.360   6.085
 4181SOL    HW113442   1.893   2.357   5.986
 4181SOL    HW213443   1.833   2.276   6.115
 4182SOL     OW13444   6.842   6.303   2.911
 4182SOL    HW113445   6.820   6.348   2.824
 4182SOL    HW213446   6.876   6.371   2.976
 4183SOL     OW13447   4.453   0.721   0.799
 4183SOL    HW113448   4.402   0.650   0.750
 4183SOL    HW213449   4.510   0.771   0.734
 4184SOL     OW13450   4.807   5.018   1.261
 4184SOL    HW113451   4.712   5.009   1.289
 4184SOL    HW213452   4.837   4.933   1.218
 4185SOL     OW13453   1.077   6.110   2.547
 4185SOL    HW113454   1.043   6.051   2.620
 4185SOL    HW213455   1.059   6.067   2.458
 4186SOL     OW13456   1.643   4.855   1.350
 4186SOL    HW113457   1.611   4.939   1.394
 4186SOL    HW213458   1.584   4.835   1.271
 4187SOL     OW13459   3.570   4.007   5.823
 4187SOL    HW113460   3.593   3.911   5.839
 4187SOL    HW213461   3.515   4.014   5.739
 4188SOL     OW13462   4.794   0.076   3.957
 4188SOL    HW113463   4.706   0.030   3.962
 4188SOL    HW213464   4.829   0.091   4.049
 4189SOL     OW13465   3.176   1.036   5.013
 4189SOL    HW113466   3.097   0.995   5.060
 4189SOL    HW213467   3.224   0.966   4.960
 4190SOL     OW13468   1.372   0.297   6.767
 4190SOL    HW113469   1.323   0.305   6.853
 4190SOL    HW213470   1.312   0.257   6.698
 4191SOL     OW13471   5.835   3.671   3.132
 4191SOL    HW113472   5.877   3.603   3.193
 4191SOL    HW213473   5.752   3.633   3.093
 4192SOL     OW13474   6.640   0.761   3.516
 4192SOL    HW113475   6.656   0.815   3.433
 4192SOL    HW213476   6.723   0.758   3.571
 4193SOL     OW13477   2.628   6.968   1.871
 4193SOL    HW113478   2.658   6.940   1.962
 4193SOL    HW213479   2.707   6.969   1.809
 4194SOL     OW13480   6.347   1.468   5.597
 4194SOL    HW113481   6.374   1.548   5.651
 4194SOL    HW213482   6.417   1.397   5.606
 4195SOL     OW13483   2.987   0.768   1.498
 4195SOL    HW113484   2.901   0.790   1.452
 4195SOL    HW213485   3.059   0.830   1.467
 4196SOL     OW13486   6.116   2.014   3.798
 4196SOL    HW113487   6.079   2.064   3.720
 4196SOL    HW213488   6.064   2.036   3.880
 4197SOL     OW13489   4.538   4.939   5.137
 4197SOL    HW113490   4.479   4.860   5.152
 4197SOL    HW213491   4.623   4.909   5.092
 4198SOL     OW13492   5.705   3.280   6.527
 4198SOL    HW113493   5.716   3.221   6.446
 4198SOL    HW213494   5.610   3.308   6.535
 4199SOL     OW13495   1.835   3.469   6.327
 4199SOL    HW113496   1.784   3.542   6.281
 4199SOL    HW213497   1.911   3.441   6.268
 4200SOL     OW13498   3.437   6.544   5.258
 4200SOL    HW113499   3.514   6.541   5.322
 4200SOL    HW213500   3.457   6.608   5.184
 4201SOL     OW13501   5.552   5.924   3.863
 4201SOL    HW113502   5.466   5.975   3.856
 4201SOL    HW213503   5.538   5.831   3.830
 4202SOL     OW13504   4.378   5.637   5.643
 4202SOL    HW113505   4.430   5.694   5.707
 4202SOL    HW213506   4.281   5.644   5.665
 4203SOL     OW13507   4.525   5.644   2.163
 4203SOL    HW113508   4.461   5.616   2.091
 4203SOL    HW213509   4.479   5.644   2.251
 4204SOL     OW13510   3.627   3.159   2.102
 4204SOL    HW113511   3.543   3.124   2.062
 4204SOL    HW213512   3.692   3.084   2.117
 4205SOL     OW13513   3.900   5.379   4.519
 4205SOL    HW113514   3.825   5.445   4.517
 4205SOL    HW213515   3.966   5.401   4.448
 4206SOL     OW13516   6.019   0.836   5.369
 4206SOL    HW113517   5.968   0.921   5.359
 4206SOL    HW213518   6.107   0.845   5.323
 4207SOL     OW13519   2.379   2.135   0.844
 4207SOL    HW113520   2.348   2.051   0.889
 4207SOL    HW213521   2.301   2.181   0.802
 4208SOL     OW13522   0.954   2.356   6.755
 4208SOL    HW113523   0.926   2.451   6.766
 4208SOL    HW213524   0.910   2.300   6.825
 4209SOL     OW13525   1.199   1.532   4.601
 4209SOL    HW113526   1.180   1.435   4.614
 4209SOL    HW213527   1.129   1.572   4.542
 4210SOL     OW13528   2.880   3.334   1.799
 4210SOL    HW113529   2.940   3.408   1.830
 4210SOL    HW213530   2.793   3.373   1.769
 4211SOL     OW13531   4.500   6.254   5.442
 4211SOL    HW113532   4.460   6.330   5.390
 4211SOL    HW213533   4.504   6.173   5.383
 4212SOL     OW13534   6.104   1.679   2.160
 4212SOL    HW113535   6.061   1.598   2.122
 4212SOL    HW213536   6.048   1.715   2.234
 4213SOL     OW13537   2.310   1.421   2.833
 4213SOL    HW113538   2.392   1.409   2.888
 4213SOL    HW213539   2.334   1.462   2.745
 4214SOL     OW13540   6.994   4.103   5.668
 4214SOL    HW113541   6.963   4.098   5.573
 4214SOL    HW213542   6.990   4.012   5.710
 4215SOL     OW13543   6.664   5.590   4.409
 4215SOL    HW113544   6.761   5.605   4.388
 4215SOL    HW213545   6.617   5.560   4.327
 4216SOL     OW13546   1.359   1.907   2.713
 4216SOL    HW113547   1.319   1.865   2.795
 4216SOL    HW213548   1.322   1.862   2.632
 4217SOL     OW13549   6.207   0.311   2.732
 4217SOL    HW113550   6.186   0.222   2.771
 4217SOL    HW213551   6.304   0.315   2.710
 4218SOL     OW13552   5.138   0.069   1.316
 4218SOL    HW113553   5.052   0.019   1.325
 4218SOL    HW213554   5.120   0.158   1.275
 4219SOL     OW13555   2.696   5.457   5.020
 4219SOL    HW113556   2.688   5.357   5.017
 4219SOL    HW213557   2.792   5.483   5.013
 4220SOL     OW13558   6.498   2.660   3.724
 4220SOL    HW113559   6.496   2.710   3.638
 4220SOL    HW213560   6.509   2.562   3.705
 4221SOL     OW13561   6.406   5.634   6.517
 4221SOL    HW113562   6.331   5.569   6.519
 4221SOL    HW213563   6.453   5.628   6.429
 4222SOL     OW13564   5.951   2.132   2.122
 4222SOL    HW113565   6.020   2.104   2.189
 4222SOL    HW213566   5.887   2.057   2.107
 4223SOL     OW13567   3.371   3.017   4.539
 4223SOL    HW113568   3.368   3.114   4.511
 4223SOL    HW213569   3.300   2.999   4.606
 4224SOL     OW13570   4.928   3.105   3.781
 4224SOL    HW113571   4.868   3.027   3.760
 4224SOL    HW213572   4.897   3.149   3.865
 4225SOL     OW13573   5.053   0.553   5.219
 4225SOL    HW113574   5.142   0.533   5.260
 4225SOL    HW213575   4.988   0.580   5.291
 4226SOL     OW13576   1.970   0.202   3.225
 4226SOL    HW113577   1.877   0.220   3.257
 4226SOL    HW213578   2.031   0.190   3.303
 4227SOL     OW13579   3.399   4.703   6.706
 4227SOL    HW113580   3.409   4.799   6.732
 4227SOL    HW213581   3.376   4.648   6.787
 4228SOL     OW13582   6.290   4.611   3.181
 4228SOL    HW113583   6.382   4.604   3.142
 4228SOL    HW213584   6.297   4.629   3.279
 4229SOL     OW13585   3.791   4.566   6.178
 4229SOL    HW113586   3.884   4.544   6.149
 4229SOL    HW213587   3.726   4.535   6.109
 4230SOL     OW13588   2.887   0.408   4.355
 4230SOL    HW113589   2.838   0.485   4.314
 4230SOL    HW213590   2.824   0.355   4.411
 4231SOL     OW13591   5.151   6.709   4.815
 4231SOL    HW113592   5.165   6.669   4.906
 4231SOL    HW213593   5.123   6.637   4.752
 4232SOL     OW13594   0.441   5.233   1.627
 4232SOL    HW113595   0.528   5.274   1.653
 4232SOL    HW213596   0.457   5.164   1.556
 4233SOL     OW13597   6.729   0.331   6.964
 4233SOL    HW113598   6.751   0.371   6.876
 4233SOL    HW213599   6.691   0.239   6.951
 4234SOL     OW13600   1.469   7.026   5.446
 4234SOL    HW113601   1.499   6.934   5.468
 4234SOL    HW213602   1.370   0.003   5.459
 4235SOL     OW13603   6.159   3.888   5.230
 4235SOL    HW113604   6.123   3.844   5.148
 4235SOL    HW213605   6.248   3.847   5.252
 4236SOL     OW13606   7.000   3.161   3.279
 4236SOL    HW113607   0.037   3.103   3.235
 4236SOL    HW213608   6.937   3.198   3.210
 4237SOL     OW13609   6.070   4.597   4.246
 4237SOL    HW113610   6.162   4.581   4.212
 4237SOL    HW213611   6.064   4.689   4.285
 4238SOL     OW13612   4.261   4.686   4.152
 4238SOL    HW113613   4.287   4.596   4.186
 4238SOL    HW213614   4.273   4.689   4.053
 4239SOL     OW13615   5.678   0.039   4.211
 4239SOL    HW113616   5.614   0.096   4.263
 4239SOL    HW213617   5.672   6.976   4.243
 4240SOL     OW13618   2.093   6.317   6.459
 4240SOL    HW113619   2.111   6.318   6.360
 4240SOL    HW213620   2.093   6.223   6.492
 4241SOL     OW13621   5.887   0.270   1.054
 4241SOL    HW113622   5.795   0.305   1.033
 4241SOL    HW213623   5.926   0.324   1.129
 4242SOL     OW13624   2.033   6.834   3.290
 4242SOL    HW113625   1.981   6.779   3.355
 4242SOL    HW213626   2.117   6.786   3.265
 4243SOL     OW13627   0.921   4.023   3.016
 4243SOL    HW113628   1.004   3.985   2.977
 4243SOL    HW213629   0.914   4.120   2.993
 4244SOL     OW13630   4.558   5.584   0.895
 4244SOL    HW113631   4.534   5.510   0.833
 4244SOL    HW213632   4.612   5.548   0.972
 4245SOL     OW13633   6.954   2.271   0.170
 4245SOL    HW113634   6.926   2.175   0.170
 4245SOL    HW213635   6.889   2.324   0.226
 4246SOL     OW13636   5.326   3.350   3.082
 4246SOL    HW113637   5.385   3.286   3.033
 4246SOL    HW213638   5.277   3.301   3.154
 4247SOL     OW13639   2.156   5.077   4.584
 4247SOL    HW113640   2.151   4.987   4.627
 4247SOL    HW213641   2.091   5.138   4.629
 4248SOL     OW13642   1.735   1.033   3.502
 4248SOL    HW113643   1.721   1.051   3.404
 4248SOL    HW213644   1.677   1.096   3.555
 4249SOL     OW13645   6.561   1.774   3.294
 4249SOL    HW113646   6.514   1.811   3.374
 4249SOL    HW213647   6.501   1.782   3.214
 4250SOL     OW13648   0.133   6.161   4.038
 4250SOL    HW113649   0.227   6.139   4.065
 4250SOL    HW213650   0.119   6.138   3.942
 4251SOL     OW13651   6.090   2.619   0.000
 4251SOL    HW113652   6.080   2.687   0.072
 4251SOL    HW213653   6.170   2.640   6.975
 4252SOL     OW13654   5.946   5.817   6.190
 4252SOL    HW113655   6.036   5.823   6.233
 4252SOL    HW213656   5.884   5.764   6.247
 4253SOL     OW13657   3.687   6.368   2.462
 4253SOL    HW113658   3.640   6.294   2.416
 4253SOL    HW213659   3.620   6.433   2.498
 4254SOL     OW13660   2.383   4.619   1.761
 4254SOL    HW113661   2.380   4.683   1.838
 4254SOL    HW213662   2.457   4.553   1.775
 4255SOL     OW13663   6.824   3.374   4.292
 4255SOL    HW113664   6.774   3.460   4.281
 4255SOL    HW213665   6.836   3.330   4.203
 4256SOL     OW13666   1.146   5.905   1.828
 4256SOL    HW113667   1.148   5.836   1.756
 4256SOL    HW213668   1.117   5.993   1.790
 4257SOL     OW13669   6.346   0.685   4.982
 4257SOL    HW113670   6.292   0.766   4.961
 4257SOL    HW213671   6.433   0.713   5.023
 4258SOL     OW13672   3.588   5.780   1.198
 4258SOL    HW113673   3.547   5.693   1.222
 4258SOL    HW213674   3.601   5.835   1.280
 4259SOL     OW13675   1.862   6.484   1.193
 4259SOL    HW113676   1.794   6.544   1.235
 4259SOL    HW213677   1.954   6.517   1.214
 4260SOL     OW13678   4.989   6.985   3.807
 4260SOL    HW113679   4.916   6.995   3.874
 4260SOL    HW213680   5.061   0.021   3.824
 4261SOL     OW13681   1.981   6.999   3.641
 4261SOL    HW113682   1.942   0.039   3.700
 4261SOL    HW213683   1.941   7.007   3.550
 4262SOL     OW13684   1.693   4.648   5.400
 4262SOL    HW113685   1.756   4.722   5.425
 4262SOL    HW213686   1.741   4.560   5.407
 4263SOL     OW13687   3.231   1.207   3.619
 4263SOL    HW113688   3.218   1.303   3.597
 4263SOL    HW213689   3.291   1.199   3.699
 4264SOL     OW13690   5.941   1.236   4.347
 4264SOL    HW113691   5.960   1.311   4.410
 4264SOL    HW213692   6.004   1.240   4.270
 4265SOL     OW13693   3.496   0.606   1.139
 4265SOL    HW113694   3.397   0.608   1.152
 4265SOL    HW213695   3.531   0.516   1.165
 4266SOL     OW13696   1.568   6.884   0.138
 4266SOL    HW113697   1.581   6.912   0.234
 4266SOL    HW213698   1.491   6.821   0.132
 4267SOL     OW13699   1.972   3.878   3.924
 4267SOL    HW113700   1.961   3.883   4.023
 4267SOL    HW213701   2.054   3.929   3.897
 4268SOL     OW13702   2.066   5.289   6.838
 4268SOL    HW113703   2.094   5.248   6.750
 4268SOL    HW213704   2.086   5.387   6.837
 4269SOL     OW13705   3.363   1.449   4.035
 4269SOL    HW113706   3.450   1.462   4.082
 4269SOL    HW213707   3.340   1.533   3.986
 4270SOL     OW13708   3.731   2.888   1.332
 4270SOL    HW113709   3.704   2.868   1.238
 4270SOL    HW213710   3.724   2.987   1.348
 4271SOL     OW13711   6.645   1.101   0.237
 4271SOL    HW113712   6.725   1.142   0.194
 4271SOL    HW213713   6.645   1.122   0.335
 4272SOL     OW13714   6.811   3.291   5.146
 4272SOL    HW113715   6.856   3.248   5.224
 4272SOL    HW213716   6.765   3.375   5.176
 4273SOL     OW13717   5.336   6.016   4.955
 4273SOL    HW113718   5.382   5.928   4.969
 4273SOL    HW213719   5.257   6.022   5.014
 4274SOL     OW13720   0.876   6.984   1.724
 4274SOL    HW113721   0.788   6.956   1.687
 4274SOL    HW213722   0.932   6.903   1.740
 4275SOL     OW13723   0.450   1.981   4.666
 4275SOL    HW113724   0.473   2.075   4.691
 4275SOL    HW213725   0.359   1.958   4.700
 4276SOL     OW13726   2.852   5.265   3.470
 4276SOL    HW113727   2.819   5.300   3.382
 4276SOL    HW213728   2.883   5.171   3.459
 4277SOL     OW13729   6.599   4.359   3.296
 4277SOL    HW113730   6.537   4.339   3.371
 4277SOL    HW213731   6.683   4.400   3.333
 4278SOL     OW13732   0.016   6.711   3.418
 4278SOL    HW113733   0.061   6.756   3.340
 4278SOL    HW213734   0.085   6.682   3.484
 4279SOL     OW13735   1.570   0.791   2.257
 4279SOL    HW113736   1.599   0.696   2.240
 4279SOL    HW213737   1.521   0.826   2.178
 4280SOL     OW13738   5.912   6.519   5.766
 4280SOL    HW113739   5.836   6.480   5.714
 4280SOL    HW213740   5.994   6.464   5.752
 4281SOL     OW13741   4.847   4.916   4.317
 4281SOL    HW113742   4.763   4.880   4.276
 4281SOL    HW213743   4.919   4.917   4.248
 4282SOL     OW13744   3.196   4.772   0.952
 4282SOL    HW113745   3.135   4.755   1.030
 4282SOL    HW213746   3.183   4.866   0.920
 4283SOL     OW13747   4.697   1.251   3.198
 4283SOL    HW113748   4.685   1.155   3.172
 4283SOL    HW213749   4.659   1.267   3.289
 4284SOL     OW13750   4.113   5.945   7.004
 4284SOL    HW113751   4.141   5.858   0.014
 4284SOL    HW213752   4.153   5.953   6.913
 4285SOL     OW13753   2.374   1.042   5.938
 4285SOL    HW113754   2.375   1.025   6.037
 4285SOL    HW213755   2.301   1.107   5.917
 4286SOL     OW13756   6.798   0.305   6.335
 4286SOL    HW113757   6.812   0.245   6.256
 4286SOL    HW213758   6.715   0.360   6.320
 4287SOL     OW13759   4.801   1.567   6.251
 4287SOL    HW113760   4.833   1.490   6.196
 4287SOL    HW213761   4.810   1.545   6.348
 4288SOL     OW13762   6.930   5.947   2.684
 4288SOL    HW113763   7.000   5.970   2.617
 4288SOL    HW213764   6.840   5.954   2.641
 4289SOL     OW13765   1.627   2.300   5.816
 4289SOL    HW113766   1.576   2.289   5.901
 4289SOL    HW213767   1.653   2.396   5.805
 4290SOL     OW13768   0.273   6.362   4.411
 4290SOL    HW113769   0.265   6.458   4.440
 4290SOL    HW213770   0.310   6.308   4.486
 4291SOL     OW13771   4.920   3.263   6.587
 4291SOL    HW113772   4.846   3.200   6.563
 4291SOL    HW213773   5.008   3.218   6.573
 4292SOL     OW13774   6.158   3.209   0.114
 4292SOL    HW113775   6.109   3.295   0.126
 4292SOL    HW213776   6.123   3.162   0.033
 4293SOL     OW13777   4.108   4.030   6.492
 4293SOL    HW113778   4.031   4.053   6.432
 4293SOL    HW213779   4.074   4.009   6.584
 4294SOL     OW13780   2.169   2.101   6.093
 4294SOL    HW113781   2.089   2.045   6.077
 4294SOL    HW213782   2.170   2.178   6.028
 4295SOL     OW13783   4.238   6.685   2.860
 4295SOL    HW113784   4.195   6.771   2.884
 4295SOL    HW213785   4.172   6.627   2.811
 4296SOL     OW13786   3.131   0.200   0.904
 4296SOL    HW113787   3.031   0.198   0.899
 4296SOL    HW213788   3.168   0.129   0.843
 4297SOL     OW13789   6.279   6.404   1.903
 4297SOL    HW113790   6.269   6.454   1.989
 4297SOL    HW213791   6.192   6.405   1.853
 4298SOL     OW13792   3.749   6.444   1.647
 4298SOL    HW113793   3.809   6.458   1.726
 4298SOL    HW213794   3.780   6.365   1.595
 4299SOL     OW13795   0.532   3.451   0.357
 4299SOL    HW113796   0.496   3.361   0.332
 4299SOL    HW213797   0.469   3.496   0.421
 4300SOL     OW13798   2.957   0.470   0.898
 4300SOL    HW113799   2.867   0.511   0.909
 4300SOL    HW213800   3.021   0.539   0.865
 4301SOL     OW13801   3.411   0.322   1.368
 4301SOL    HW113802   3.489   0.264   1.391
 4301SOL    HW213803   3.428   0.416   1.398
 4302SOL     OW13804   6.331   0.246   6.904
 4302SOL    HW113805   6.360   0.232   6.998
 4302SOL    HW213806   6.239   0.287   6.902
 4303SOL     OW13807   0.027   4.648   3.524
 4303SOL    HW113808   0.084   4.569   3.502
 4303SOL    HW213809   0.034   4.716   3.451
 4304SOL     OW13810   3.927   4.004   1.867
 4304SOL    HW113811   3.909   3.910   1.840
 4304SOL    HW213812   3.853   4.036   1.927
 4305SOL     OW13813   0.691   6.585   4.678
 4305SOL    HW113814   0.608   6.546   4.639
 4305SOL    HW213815   0.722   6.529   4.755
 4306SOL     OW13816   5.006   4.759   5.016
 4306SOL    HW113817   4.971   4.691   4.953
 4306SOL    HW213818   4.951   4.842   5.010
 4307SOL     OW13819   5.606   2.975   5.831
 4307SOL    HW113820   5.553   2.972   5.746
 4307SOL    HW213821   5.606   3.068   5.867
 4308SOL     OW13822   5.847   5.169   1.879
 4308SOL    HW113823   5.797   5.082   1.874
 4308SOL    HW213824   5.924   5.166   1.815
 4309SOL     OW13825   0.820   3.398   0.342
 4309SOL    HW113826   0.874   3.451   0.407
 4309SOL    HW213827   0.722   3.414   0.359
 4310SOL     OW13828   1.169   2.667   2.161
 4310SOL    HW113829   1.159   2.766   2.150
 4310SOL    HW213830   1.266   2.643   2.160
 4311SOL     OW13831   0.988   6.848   2.101
 4311SOL    HW113832   1.080   6.836   2.064
 4311SOL    HW213833   0.952   6.937   2.074
 4312SOL     OW13834   1.242   5.520   2.698
 4312SOL    HW113835   1.220   5.486   2.789
 4312SOL    HW213836   1.207   5.613   2.687
 4313SOL     OW13837   3.443   2.207   0.209
 4313SOL    HW113838   3.502   2.138   0.168
 4313SOL    HW213839   3.443   2.289   0.153
 4314SOL     OW13840   6.271   1.855   5.791
 4314SOL    HW113841   6.194   1.888   5.845
 4314SOL    HW213842   6.241   1.835   5.698
 4315SOL     OW13843   2.092   1.746   4.151
 4315SOL    HW113844   2.115   1.805   4.228
 4315SOL    HW213845   2.172   1.735   4.092
 4316SOL     OW13846   4.824   6.655   2.849
 4316SOL    HW113847   4.798   6.622   2.940
 4316SOL    HW213848   4.899   6.721   2.858
 4317SOL     OW13849   4.393   0.581   5.254
 4317SOL    HW113850   4.448   0.664   5.270
 4317SOL    HW213851   4.310   0.606   5.205
 4318SOL     OW13852   0.602   0.664   4.079
 4318SOL    HW113853   0.690   0.630   4.111
 4318SOL    HW213854   0.530   0.599   4.102
 4319SOL     OW13855   1.807   2.218   1.247
 4319SOL    HW113856   1.710   2.192   1.245
 4319SOL    HW213857   1.839   2.231   1.153
 4320SOL     OW13858   4.043   6.116   1.060
 4320SOL    HW113859   4.019   6.070   0.974
 4320SOL    HW213860   4.140   6.139   1.060
 4321SOL     OW13861   6.962   4.814   3.239
 4321SOL    HW113862   6.875   4.789   3.196
 4321SOL    HW213863   7.027   4.843   3.168
 4322SOL     OW13864   7.007   3.414   5.570
 4322SOL    HW113865   0.039   3.466   5.512
 4322SOL    HW213866   6.913   3.444   5.553
 4323SOL     OW13867   4.058   5.510   6.926
 4323SOL    HW113868   4.150   5.477   6.905
 4323SOL    HW213869   3.991   5.449   6.885
 4324SOL     OW13870   6.744   3.519   5.526
 4324SOL    HW113871   6.651   3.497   5.499
 4324SOL    HW213872   6.746   3.610   5.566
 4325SOL     OW13873   2.810   2.015   2.334
 4325SOL    HW113874   2.805   1.979   2.428
 4325SOL    HW213875   2.733   1.978   2.281
 4326SOL     OW13876   5.910   3.181   2.593
 4326SOL    HW113877   5.943   3.210   2.683
 4326SOL    HW213878   5.950   3.092   2.570
 4327SOL     OW13879   3.836   5.403   3.175
 4327SOL    HW113880   3.790   5.404   3.264
 4327SOL    HW213881   3.823   5.315   3.131
 4328SOL     OW13882   6.197   4.257   4.695
 4328SOL    HW113883   6.123   4.315   4.663
 4328SOL    HW213884   6.231   4.202   4.619
 4329SOL     OW13885   6.156   3.482   5.395
 4329SOL    HW113886   6.197   3.487   5.304
 4329SOL    HW213887   6.139   3.387   5.419
 4330SOL     OW13888   2.158   6.571   4.634
 4330SOL    HW113889   2.150   6.670   4.621
 4330SOL    HW213890   2.069   6.528   4.620
 4331SOL     OW13891   7.027   0.231   1.409
 4331SOL    HW113892   6.947   0.227   1.350
 4331SOL    HW213893   0.009   0.325   1.441
 4332SOL     OW13894   5.879   3.564   2.737
 4332SOL    HW113895   5.920   3.647   2.774
 4332SOL    HW213896   5.863   3.575   2.639
 4333SOL     OW13897   4.219   1.934   4.990
 4333SOL    HW113898   4.221   1.982   5.077
 4333SOL    HW213899   4.200   1.837   5.005
 4334SOL     OW13900   1.641   2.901   2.702
 4334SOL    HW113901   1.573   2.974   2.690
 4334SOL    HW213902   1.699   2.896   2.621
 4335SOL     OW13903   3.709   3.078   1.047
 4335SOL    HW113904   3.638   3.012   1.025
 4335SOL    HW213905   3.796   3.030   1.058
 4336SOL     OW13906   1.852   4.840   4.970
 4336SOL    HW113907   1.936   4.886   4.997
 4336SOL    HW213908   1.838   4.759   5.027
 4337SOL     OW13909   1.669   5.973   1.858
 4337SOL    HW113910   1.605   5.897   1.849
 4337SOL    HW213911   1.642   6.031   1.935
 4338SOL     OW13912   6.218   0.259   6.084
 4338SOL    HW113913   6.190   0.169   6.119
 4338SOL    HW213914   6.155   0.286   6.011
 4339SOL     OW13915   3.490   2.465   6.251
 4339SOL    HW113916   3.433   2.487   6.172
 4339SOL    HW213917   3.578   2.512   6.244
 4340SOL     OW13918   5.968   2.632   1.218
 4340SOL    HW113919   5.870   2.626   1.199
 4340SOL    HW213920   6.010   2.697   1.154
 4341SOL     OW13921   1.451   5.385   2.059
 4341SOL    HW113922   1.390   5.445   2.007
 4341SOL    HW213923   1.402   5.302   2.085
 4342SOL     OW13924   4.967   3.697   3.252
 4342SOL    HW113925   5.064   3.723   3.243
 4342SOL    HW213926   4.911   3.780   3.250
 4343SOL     OW13927   3.533   6.783   6.384
 4343SOL    HW113928   3.573   6.741   6.465
 4343SOL    HW213929   3.541   6.883   6.390
 4344SOL     OW13930   0.476   3.046   3.366
 4344SOL    HW113931   0.493   2.966   3.308
 4344SOL    HW213932   0.377   3.065   3.368
 4345SOL     OW13933   2.964   3.344   3.014
 4345SOL    HW113934   2.946   3.271   3.080
 4345SOL    HW213935   2.952   3.433   3.058
 4346SOL     OW13936   2.095   2.430   2.265
 4346SOL    HW113937   2.051   2.518   2.245
 4346SOL    HW213938   2.153   2.439   2.346
 4347SOL     OW13939   6.293   6.028   2.216
 4347SOL    HW113940   6.343   5.944   2.238
 4347SOL    HW213941   6.195   6.009   2.215
 4348SOL     OW13942   0.245   5.620   4.294
 4348SOL    HW113943   0.260   5.677   4.213
 4348SOL    HW213944   0.256   5.677   4.376
 4349SOL     OW13945   6.809   3.210   3.628
 4349SOL    HW113946   6.895   3.216   3.678
 4349SOL    HW213947   6.815   3.266   3.545
 4350SOL     OW13948   4.969   2.004   4.832
 4350SOL    HW113949   5.038   1.989   4.762
 4350SOL    HW213950   5.003   2.071   4.898
 4351SOL     OW13951   1.734   6.121   1.403
 4351SOL    HW113952   1.750   6.216   1.431
 4351SOL    HW213953   1.810   6.091   1.346
 4352SOL     OW13954   5.366   3.441   1.497
 4352SOL    HW113955   5.287   3.383   1.513
 4352SOL    HW213956   5.336   3.527   1.456
 4353SOL     OW13957   2.879   3.513   6.677
 4353SOL    HW113958   2.787   3.532   6.714
 4353SOL    HW213959   2.925   3.600   6.657
 4354SOL     OW13960   0.754   1.031   5.625
 4354SOL    HW113961   0.720   1.093   5.696
 4354SOL    HW213962   0.817   0.966   5.667
 4355SOL     OW13963   1.197   6.777   3.308
 4355SOL    HW113964   1.273   6.839   3.329
 4355SOL    HW213965   1.148   6.811   3.227
 4356SOL     OW13966   4.297   3.209   5.831
 4356SOL    HW113967   4.202   3.229   5.805
 4356SOL    HW213968   4.357   3.222   5.753
 4357SOL     OW13969   0.238   1.544   1.673
 4357SOL    HW113970   0.229   1.455   1.719
 4357SOL    HW213971   0.166   1.605   1.705
 4358SOL     OW13972   0.402   0.629   0.018
 4358SOL    HW113973   0.428   0.534   0.034
 4358SOL    HW213974   0.303   0.637   0.017
 4359SOL     OW13975   1.960   0.344   6.528
 4359SOL    HW113976   1.987   0.347   6.432
 4359SOL    HW213977   1.885   0.278   6.539
 4360SOL     OW13978   1.071   2.220   4.141
 4360SOL    HW113979   1.161   2.261   4.128
 4360SOL    HW213980   1.082   2.126   4.173
 4361SOL     OW13981   2.324   2.972   1.175
 4361SOL    HW113982   2.272   2.975   1.260
 4361SOL    HW213983   2.323   2.880   1.138
 4362SOL     OW13984   0.796   6.035   4.196
 4362SOL    HW113985   0.864   6.108   4.189
 4362SOL    HW213986   0.759   6.034   4.289
 4363SOL     OW13987   3.952   0.903   1.923
 4363SOL    HW113988   4.034   0.949   1.957
 4363SOL    HW213989   3.886   0.972   1.892
 4364SOL     OW13990   3.270   3.708   2.544
 4364SOL    HW113991   3.330   3.639   2.583
 4364SOL    HW213992   3.236   3.768   2.617
 4365SOL     OW13993   3.132   1.699   2.155
 4365SOL    HW113994   3.174   1.640   2.086
 4365SOL    HW213995   3.046   1.735   2.120
 4366SOL     OW13996   6.681   5.940   5.959
 4366SOL    HW113997   6.700   6.032   5.994
 4366SOL    HW213998   6.713   5.933   5.865
 4367SOL     OW13999   3.114   5.238   2.835
 4367SOL    HW114000   3.169   5.313   2.871
 4367SOL    HW214001   3.173   5.166   2.800
 4368SOL     OW14002   4.221   5.845   2.975
 4368SOL    HW114003   4.268   5.757   2.979
 4368SOL    HW214004   4.218   5.886   3.066
 4369SOL     OW14005   5.036   5.279   3.172
 4369SOL    HW114006   5.102   5.329   3.227
 4369SOL    HW214007   4.948   5.327   3.175
 4370SOL     OW14008   3.606   3.916   1.521
 4370SOL    HW114009   3.629   3.903   1.617
 4370SOL    HW214010   3.509   3.942   1.513
 4371SOL     OW14011   2.302   1.269   2.110
 4371SOL    HW114012   2.281   1.238   2.202
 4371SOL    HW214013   2.367   1.344   2.114
 4372SOL     OW14014   1.903   3.443   3.986
 4372SOL    HW114015   1.872   3.386   4.062
 4372SOL    HW214016   1.984   3.402   3.944
 4373SOL     OW14017   4.233   1.242   6.292
 4373SOL    HW114018   4.328   1.269   6.276
 4373SOL    HW214019   4.172   1.309   6.248
 4374SOL     OW14020   2.067   2.096   1.390
 4374SOL    HW114021   1.975   2.074   1.357
 4374SOL    HW214022   2.062   2.119   1.487
 4375SOL     OW14023   4.209   6.700   3.308
 4375SOL    HW114024   4.300   6.694   3.348
 4375SOL    HW214025   4.198   6.788   3.263
 4376SOL     OW14026   6.286   0.403   1.854
 4376SOL    HW114027   6.333   0.322   1.820
 4376SOL    HW214028   6.233   0.445   1.779
 4377SOL     OW14029   6.443   5.512   0.093
 4377SOL    HW114030   6.524   5.570   0.103
 4377SOL    HW214031   6.455   5.449   0.016
 4378SOL     OW14032   1.258   4.743   2.274
 4378SOL    HW114033   1.260   4.792   2.361
 4378SOL    HW214034   1.181   4.776   2.219
 4379SOL     OW14035   2.290   0.932   2.310
 4379SOL    HW114036   2.204   0.882   2.309
 4379SOL    HW214037   2.365   0.872   2.281
 4380SOL     OW14038   2.199   5.811   5.111
 4380SOL    HW114039   2.131   5.788   5.180
 4380SOL    HW214040   2.200   5.741   5.040
 4381SOL     OW14041   2.799   4.776   4.619
 4381SOL    HW114042   2.780   4.689   4.665
 4381SOL    HW214043   2.714   4.817   4.587
 4382SOL     OW14044   5.366   4.198   5.227
 4382SOL    HW114045   5.420   4.204   5.144
 4382SOL    HW214046   5.408   4.254   5.299
 4383SOL     OW14047   0.985   1.609   5.477
 4383SOL    HW114048   0.928   1.688   5.499
 4383SOL    HW214049   0.986   1.594   5.378
 4384SOL     OW14050   5.007   0.815   6.912
 4384SOL    HW114051   5.102   0.802   6.939
 4384SOL    HW214052   4.992   0.776   6.822
 4385SOL     OW14053   0.034   2.299   3.941
 4385SOL    HW114054   0.089   2.332   3.864
 4385SOL    HW214055   6.988   2.361   3.956
 4386SOL     OW14056   1.110   3.896   6.272
 4386SOL    HW114057   1.028   3.910   6.327
 4386SOL    HW214058   1.174   3.838   6.321
 4387SOL     OW14059   0.397   2.076   2.114
 4387SOL    HW114060   0.444   1.992   2.086
 4387SOL    HW214061   0.461   2.153   2.113
 4388SOL     OW14062   4.006   1.027   6.658
 4388SOL    HW114063   4.044   0.943   6.695
 4388SOL    HW214064   4.039   1.041   6.565
 4389SOL     OW14065   5.692   2.327   1.037
 4389SOL    HW114066   5.736   2.413   1.011
 4389SOL    HW214067   5.691   2.319   1.137
 4390SOL     OW14068   4.041   2.266   1.755
 4390SOL    HW114069   4.008   2.358   1.735
 4390SOL    HW214070   4.125   2.248   1.703
 4391SOL     OW14071   1.526   6.155   6.522
 4391SOL    HW114072   1.550   6.208   6.441
 4391SOL    HW214073   1.498   6.063   6.494
 4392SOL     OW14074   5.615   4.105   5.079
 4392SOL    HW114075   5.552   4.029   5.091
 4392SOL    HW214076   5.709   4.070   5.077
 4393SOL     OW14077   5.098   6.191   2.740
 4393SOL    HW114078   5.009   6.177   2.783
 4393SOL    HW214079   5.153   6.108   2.749
 4394SOL     OW14080   5.854   5.481   2.439
 4394SOL    HW114081   5.886   5.424   2.515
 4394SOL    HW214082   5.833   5.572   2.473
 4395SOL     OW14083   4.232   2.335   0.935
 4395SOL    HW114084   4.271   2.401   0.999
 4395SOL    HW214085   4.268   2.244   0.954
 4396SOL     OW14086   2.285   2.007   4.068
 4396SOL    HW114087   2.318   1.935   4.007
 4396SOL    HW214088   2.253   2.085   4.014
 4397SOL     OW14089   0.012   1.691   3.701
 4397SOL    HW114090   7.016   1.767   3.641
 4397SOL    HW214091   7.015   1.711   3.795
 4398SOL     OW14092   1.617   4.233   4.416
 4398SOL    HW114093   1.717   4.237   4.418
 4398SOL    HW214094   1.586   4.140   4.434
 4399SOL     OW14095   2.341   0.503   1.144
 4399SOL    HW114096   2.313   0.446   1.221
 4399SOL    HW214097   2.406   0.572   1.176
 4400SOL     OW14098   2.035   6.695   5.210
 4400SOL    HW114099   2.091   6.699   5.128
 4400SOL    HW214100   2.030   6.601   5.243
 4401SOL     OW14101   5.602   5.560   6.237
 4401SOL    HW114102   5.508   5.586   6.259
 4401SOL    HW214103   5.665   5.611   6.296
 4402SOL     OW14104   1.646   6.249   3.129
 4402SOL    HW114105   1.635   6.150   3.140
 4402SOL    HW214106   1.706   6.284   3.201
 4403SOL     OW14107   7.008   0.003   3.221
 4403SOL    HW114108   6.941   6.962   3.239
 4403SOL    HW214109   7.012   0.066   3.298
 4404SOL     OW14110   0.978   3.687   4.920
 4404SOL    HW114111   0.982   3.736   5.007
 4404SOL    HW214112   0.965   3.589   4.938
 4405SOL     OW14113   3.121   4.732   6.476
 4405SOL    HW114114   3.182   4.659   6.508
 4405SOL    HW214115   3.075   4.774   6.554
 4406SOL     OW14116   5.213   4.474   0.782
 4406SOL    HW114117   5.190   4.518   0.695
 4406SOL    HW214118   5.301   4.427   0.773
 4407SOL     OW14119   0.238   5.219   0.996
 4407SOL    HW114120   0.278   5.261   0.914
 4407SOL    HW214121   0.148   5.182   0.973
 4408SOL     OW14122   5.080   0.827   0.743
 4408SOL    HW114123   4.999   0.884   0.726
 4408SOL    HW214124   5.079   0.749   0.680
 4409SOL     OW14125   3.646   0.753   1.732
 4409SOL    HW114126   3.554   0.782   1.759
 4409SOL    HW214127   3.655   0.765   1.633
 4410SOL     OW14128   2.067   4.467   0.129
 4410SOL    HW114129   2.052   4.554   0.176
 4410SOL    HW214130   2.021   4.468   0.040
 4411SOL     OW14131   4.033   3.229   3.350
 4411SOL    HW114132   3.967   3.172   3.399
 4411SOL    HW214133   4.081   3.288   3.415
 4412SOL     OW14134   3.918   1.808   4.757
 4412SOL    HW114135   3.828   1.808   4.715
 4412SOL    HW214136   3.929   1.889   4.815
 4413SOL     OW14137   5.087   5.720   5.108
 4413SOL    HW114138   4.994   5.687   5.119
 4413SOL    HW214139   5.087   5.820   5.114
 4414SOL     OW14140   4.671   4.859   2.103
 4414SOL    HW114141   4.654   4.843   2.006
 4414SOL    HW214142   4.735   4.790   2.137
 4415SOL     OW14143   4.360   4.098   6.590
 4415SOL    HW114144   4.421   4.110   6.512
 4415SOL    HW214145   4.266   4.089   6.557
 4416SOL     OW14146   2.756   1.368   4.153
 4416SOL    HW114147   2.777   1.271   4.159
 4416SOL    HW214148   2.838   1.419   4.127
 4417SOL     OW14149   6.663   4.308   2.543
 4417SOL    HW114150   6.678   4.231   2.481
 4417SOL    HW214151   6.692   4.282   2.635
 4418SOL     OW14152   4.779   6.604   4.276
 4418SOL    HW114153   4.822   6.598   4.187
 4418SOL    HW214154   4.707   6.536   4.284
 4419SOL     OW14155   5.320   5.463   0.681
 4419SOL    HW114156   5.279   5.373   0.668
 4419SOL    HW214157   5.253   5.534   0.657
 4420SOL     OW14158   5.291   1.795   0.535
 4420SOL    HW114159   5.388   1.822   0.530
 4420SOL    HW214160   5.270   1.732   0.460
 4421SOL     OW14161   1.765   1.430   3.077
 4421SOL    HW114162   1.842   1.407   3.018
 4421SOL    HW214163   1.767   1.374   3.159
 4422SOL     OW14164   2.342   3.659   5.839
 4422SOL    HW114165   2.402   3.579   5.844
 4422SOL    HW214166   2.380   3.723   5.772
 4423SOL     OW14167   0.973   2.785   5.825
 4423SOL    HW114168   0.925   2.772   5.912
 4423SOL    HW214169   1.062   2.742   5.829
 4424SOL     OW14170   5.759   6.518   3.550
 4424SOL    HW114171   5.797   6.594   3.603
 4424SOL    HW214172   5.714   6.454   3.611
 4425SOL     OW14173   3.245   5.549   5.835
 4425SOL    HW114174   3.238   5.513   5.742
 4425SOL    HW214175   3.173   5.509   5.892
 4426SOL     OW14176   6.419   1.280   5.032
 4426SOL    HW114177   6.321   1.278   5.010
 4426SOL    HW214178   6.466   1.340   4.968
 4427SOL     OW14179   6.928   0.136   2.327
 4427SOL    HW114180   6.943   0.057   2.386
 4427SOL    HW214181   6.877   0.206   2.376
 4428SOL     OW14182   2.837   4.880   3.248
 4428SOL    HW114183   2.761   4.894   3.185
 4428SOL    HW214184   2.917   4.931   3.216
 4429SOL     OW14185   2.887   0.194   4.157
 4429SOL    HW114186   2.878   0.291   4.177
 4429SOL    HW214187   2.825   0.142   4.216
 4430SOL     OW14188   4.989   2.839   3.473
 4430SOL    HW114189   4.900   2.884   3.461
 4430SOL    HW214190   4.975   2.740   3.484
 4431SOL     OW14191   1.743   1.984   2.097
 4431SOL    HW114192   1.801   1.923   2.152
 4431SOL    HW214193   1.799   2.056   2.057
 4432SOL     OW14194   2.984   3.869   3.933
 4432SOL    HW114195   3.025   3.895   3.846
 4432SOL    HW214196   2.941   3.779   3.925
 4433SOL     OW14197   6.351   0.070   4.528
 4433SOL    HW114198   6.409   0.148   4.550
 4433SOL    HW214199   6.375   7.023   4.586
 4434SOL     OW14200   4.756   1.402   4.079
 4434SOL    HW114201   4.734   1.404   4.177
 4434SOL    HW214202   4.855   1.394   4.068
 4435SOL     OW14203   3.935   3.695   1.152
 4435SOL    HW114204   3.864   3.627   1.170
 4435SOL    HW214205   4.023   3.659   1.183
 4436SOL     OW14206   3.090   2.271   0.423
 4436SOL    HW114207   3.124   2.237   0.511
 4436SOL    HW214208   3.026   2.346   0.439
 4437SOL     OW14209   5.076   1.260   3.666
 4437SOL    HW114210   5.012   1.211   3.725
 4437SOL    HW214211   5.044   1.256   3.572
 4438SOL     OW14212   3.655   1.832   6.634
 4438SOL    HW114213   3.725   1.788   6.689
 4438SOL    HW214214   3.587   1.875   6.693
 4439SOL     OW14215   0.713   5.628   1.303
 4439SOL    HW114216   0.806   5.665   1.292
 4439SOL    HW214217   0.718   5.542   1.354
 4440SOL     OW14218   1.577   4.812   6.689
 4440SOL    HW114219   1.498   4.775   6.639
 4440SOL    HW214220   1.612   4.893   6.641
 4441SOL     OW14221   6.794   1.451   2.155
 4441SOL    HW114222   6.760   1.543   2.178
 4441SOL    HW214223   6.890   1.458   2.127
 4442SOL     OW14224   2.889   5.932   3.915
 4442SOL    HW114225   2.907   6.030   3.918
 4442SOL    HW214226   2.939   5.891   3.839
 4443SOL     OW14227   0.909   2.646   6.746
 4443SOL    HW114228   0.948   2.723   6.695
 4443SOL    HW214229   0.935   2.653   6.842
 4444SOL     OW14230   3.350   6.191   6.658
 4444SOL    HW114231   3.251   6.190   6.674
 4444SOL    HW214232   3.395   6.129   6.723
 4445SOL     OW14233   0.653   0.216   0.250
 4445SOL    HW114234   0.679   0.173   0.336
 4445SOL    HW214235   0.708   0.179   0.176
 4446SOL     OW14236   5.733   1.298   1.186
 4446SOL    HW114237   5.741   1.254   1.096
 4446SOL    HW214238   5.643   1.278   1.225
 4447SOL     OW14239   5.262   3.573   5.872
 4447SOL    HW114240   5.299   3.488   5.908
 4447SOL    HW214241   5.336   3.628   5.833
 4448SOL     OW14242   3.073   3.990   0.721
 4448SOL    HW114243   3.157   3.987   0.775
 4448SOL    HW214244   3.001   3.941   0.770
 4449SOL     OW14245   4.271   0.349   6.082
 4449SOL    HW114246   4.233   0.424   6.138
 4449SOL    HW214247   4.368   0.365   6.067
 4450SOL     OW14248   3.427   2.937   3.665
 4450SOL    HW114249   3.430   2.989   3.580
 4450SOL    HW214250   3.336   2.946   3.707
 4451SOL     OW14251   5.646   4.344   2.678
 4451SOL    HW114252   5.699   4.274   2.629
 4451SOL    HW214253   5.565   4.367   2.624
 4452SOL     OW14254   5.301   6.272   4.923
 4452SOL    HW114255   5.331   6.180   4.897
 4452SOL    HW214256   5.365   6.339   4.885
 4453SOL     OW14257   6.717   2.878   0.173
 4453SOL    HW114258   6.636   2.907   0.121
 4453SOL    HW214259   6.778   2.826   0.114
 4454SOL     OW14260   5.028   2.746   0.684
 4454SOL    HW114261   5.003   2.778   0.593
 4454SOL    HW214262   4.947   2.747   0.743
 4455SOL     OW14263   3.211   6.949   6.711
 4455SOL    HW114264   3.191   6.972   6.615
 4455SOL    HW214265   3.138   6.984   6.769
 4456SOL     OW14266   2.572   5.074   2.528
 4456SOL    HW114267   2.514   5.086   2.447
 4456SOL    HW214268   2.522   5.103   2.609
 4457SOL     OW14269   4.153   2.638   0.170
 4457SOL    HW114270   4.245   2.617   0.203
 4457SOL    HW214271   4.158   2.669   0.075
 4458SOL     OW14272   1.582   3.862   6.770
 4458SOL    HW114273   1.487   3.891   6.781
 4458SOL    HW214274   1.614   3.820   6.854
 4459SOL     OW14275   5.677   0.186   3.866
 4459SOL    HW114276   5.699   0.110   3.805
 4459SOL    HW214277   5.649   0.149   3.955
 4460SOL     OW14278   2.419   2.771   5.817
 4460SOL    HW114279   2.492   2.758   5.885
 4460SOL    HW214280   2.366   2.852   5.840
 4461SOL     OW14281   0.927   0.814   2.619
 4461SOL    HW114282   0.873   0.796   2.537
 4461SOL    HW214283   0.938   0.728   2.670
 4462SOL     OW14284   0.228   3.846   1.207
 4462SOL    HW114285   0.220   3.898   1.292
 4462SOL    HW214286   0.307   3.878   1.155
 4463SOL     OW14287   2.206   2.853   6.921
 4463SOL    HW114288   2.131   2.808   6.872
 4463SOL    HW214289   2.215   2.947   6.888
 4464SOL     OW14290   6.017   5.340   0.411
 4464SOL    HW114291   5.986   5.366   0.320
 4464SOL    HW214292   5.945   5.357   0.477
 4465SOL     OW14293   2.010   6.292   3.090
 4465SOL    HW114294   1.966   6.244   3.166
 4465SOL    HW214295   1.983   6.250   3.004
 4466SOL     OW14296   1.213   0.500   2.784
 4466SOL    HW114297   1.270   0.518   2.704
 4466SOL    HW214298   1.222   0.577   2.848
 4467SOL     OW14299   1.242   6.377   3.763
 4467SOL    HW114300   1.305   6.405   3.835
 4467SOL    HW214301   1.270   6.288   3.727
 4468SOL     OW14302   0.798   1.568   0.401
 4468SOL    HW114303   0.759   1.521   0.480
 4468SOL    HW214304   0.879   1.520   0.369
 4469SOL     OW14305   3.195   0.389   1.083
 4469SOL    HW114306   3.122   0.360   1.022
 4469SOL    HW214307   3.225   0.311   1.138
 4470SOL     OW14308   5.944   3.336   1.404
 4470SOL    HW114309   5.893   3.421   1.390
 4470SOL    HW214310   5.939   3.310   1.500
 4471SOL     OW14311   0.369   2.759   0.485
 4471SOL    HW114312   0.281   2.719   0.459
 4471SOL    HW214313   0.411   2.704   0.556
 4472SOL     OW14314   1.445   3.315   3.361
 4472SOL    HW114315   1.512   3.284   3.428
 4472SOL    HW214316   1.419   3.240   3.302
 4473SOL     OW14317   0.211   1.423   4.635
 4473SOL    HW114318   0.311   1.416   4.633
 4473SOL    HW214319   0.172   1.331   4.627
 4474SOL     OW14320   3.405   1.207   2.126
 4474SOL    HW114321   3.407   1.246   2.218
 4474SOL    HW214322   3.347   1.125   2.125
 4475SOL     OW14323   1.868   4.207   2.315
 4475SOL    HW114324   1.940   4.272   2.339
 4475SOL    HW214325   1.888   4.167   2.225
 4476SOL     OW14326   5.253   6.453   4.063
 4476SOL    HW114327   5.283   6.432   3.970
 4476SOL    HW214328   5.156   6.478   4.062
 4477SOL     OW14329   1.782   0.147   6.516
 4477SOL    HW114330   1.703   0.201   6.487
 4477SOL    HW214331   1.770   0.118   6.611
 4478SOL     OW14332   2.955   5.981   2.448
 4478SOL    HW114333   2.863   5.973   2.486
 4478SOL    HW214334   3.005   6.054   2.494
 4479SOL     OW14335   0.844   0.567   0.262
 4479SOL    HW114336   0.939   0.595   0.279
 4479SOL    HW214337   0.840   0.516   0.176
 4480SOL     OW14338   2.242   4.209   4.848
 4480SOL    HW114339   2.279   4.141   4.911
 4480SOL    HW214340   2.147   4.187   4.827
 4481SOL     OW14341   2.457   0.190   4.629
 4481SOL    HW114342   2.417   0.251   4.696
 4481SOL    HW214343   2.510   0.118   4.675
 4482SOL     OW14344   0.511   3.751   4.167
 4482SOL    HW114345   0.518   3.844   4.131
 4482SOL    HW214346   0.600   3.706   4.163
 4483SOL     OW14347   6.164   3.187   1.215
 4483SOL    HW114348   6.159   3.251   1.292
 4483SOL    HW214349   6.078   3.190   1.164
 4484SOL     OW14350   3.107   2.153   5.344
 4484SOL    HW114351   3.174   2.079   5.341
 4484SOL    HW214352   3.144   2.234   5.297
 4485SOL     OW14353   5.613   2.658   6.340
 4485SOL    HW114354   5.676   2.683   6.414
 4485SOL    HW214355   5.645   2.699   6.254
 4486SOL     OW14356   5.650   3.625   4.582
 4486SOL    HW114357   5.600   3.582   4.506
 4486SOL    HW214358   5.635   3.724   4.580
 4487SOL     OW14359   2.296   3.304   6.837
 4487SOL    HW114360   2.268   3.328   6.744
 4487SOL    HW214361   2.313   3.387   6.889
 4488SOL     OW14362   5.634   2.730   5.584
 4488SOL    HW114363   5.643   2.826   5.558
 4488SOL    HW214364   5.543   2.697   5.561
 4489SOL     OW14365   4.940   6.217   4.519
 4489SOL    HW114366   4.860   6.168   4.555
 4489SOL    HW214367   5.018   6.202   4.580
 4490SOL     OW14368   5.582   2.093   1.959
 4490SOL    HW114369   5.583   2.102   2.059
 4490SOL    HW214370   5.657   2.035   1.929
 4491SOL     OW14371   0.704   3.155   3.210
 4491SOL    HW114372   0.724   3.101   3.129
 4491SOL    HW214373   0.619   3.122   3.252
 4492SOL     OW14374   5.818   4.212   0.820
 4492SOL    HW114375   5.743   4.213   0.887
 4492SOL    HW214376   5.887   4.146   0.849
 4493SOL     OW14377   4.450   5.412   5.370
 4493SOL    HW114378   4.429   5.509   5.357
 4493SOL    HW214379   4.427   5.362   5.287
 4494SOL     OW14380   0.343   1.920   6.293
 4494SOL    HW114381   0.367   1.892   6.386
 4494SOL    HW214382   0.244   1.912   6.281
 4495SOL     OW14383   5.414   6.849   3.596
 4495SOL    HW114384   5.500   6.855   3.647
 4495SOL    HW214385   5.350   6.918   3.630
 4496SOL     OW14386   4.901   5.670   0.703
 4496SOL    HW114387   4.841   5.678   0.624
 4496SOL    HW214388   4.863   5.721   0.780
 4497SOL     OW14389   4.897   0.239   6.953
 4497SOL    HW114390   4.966   0.304   6.920
 4497SOL    HW214391   4.897   0.239   0.022
 4498SOL     OW14392   0.141   3.276   6.321
 4498SOL    HW114393   0.050   3.277   6.279
 4498SOL    HW214394   0.203   3.334   6.268
 4499SOL     OW14395   7.007   3.241   3.823
 4499SOL    HW114396   0.072   3.269   3.831
 4499SOL    HW214397   6.950   3.300   3.880
 4500SOL     OW14398   3.379   3.428   3.818
 4500SOL    HW114399   3.430   3.346   3.844
 4500SOL    HW214400   3.442   3.505   3.808
 4501SOL     OW14401   0.371   2.887   5.812
 4501SOL    HW114402   0.277   2.876   5.846
 4501SOL    HW214403   0.368   2.915   5.716
 4502SOL     OW14404   1.794   2.892   6.628
 4502SOL    HW114405   1.749   2.847   6.551
 4502SOL    HW214406   1.797   2.830   6.707
 4503SOL     OW14407   2.888   0.191   2.350
 4503SOL    HW114408   2.867   0.269   2.290
 4503SOL    HW214409   2.842   0.203   2.438
 4504SOL     OW14410   6.187   2.022   4.964
 4504SOL    HW114411   6.097   1.998   5.001
 4504SOL    HW214412   6.253   2.029   5.039
 4505SOL     OW14413   6.431   5.632   3.961
 4505SOL    HW114414   6.394   5.606   3.871
 4505SOL    HW214415   6.468   5.725   3.957
 4506SOL     OW14416   4.835   2.543   5.001
 4506SOL    HW114417   4.750   2.553   4.950
 4506SOL    HW214418   4.897   2.481   4.952
 4507SOL     OW14419   5.144   3.819   1.354
 4507SOL    HW114420   5.049   3.851   1.361
 4507SOL    HW214421   5.166   3.763   1.434
 4508SOL     OW14422   0.512   4.779   6.330
 4508SOL    HW114423   0.570   4.765   6.249
 4508SOL    HW214424   0.420   4.804   6.301
 4509SOL     OW14425   4.827   2.191   3.876
 4509SOL    HW114426   4.843   2.230   3.966
 4509SOL    HW214427   4.847   2.093   3.878
 4510SOL     OW14428   5.685   6.409   5.214
 4510SOL    HW114429   5.623   6.365   5.149
 4510SOL    HW214430   5.692   6.354   5.297
 4511SOL     OW14431   6.819   3.024   6.535
 4511SOL    HW114432   6.875   2.941   6.538
 4511SOL    HW214433   6.723   3.000   6.548
 4512SOL     OW14434   2.092   6.670   6.278
 4512SOL    HW114435   2.082   6.689   6.376
 4512SOL    HW214436   2.004   6.684   6.233
 4513SOL     OW14437   5.364   6.844   0.398
 4513SOL    HW114438   5.325   6.936   0.392
 4513SOL    HW214439   5.324   6.785   0.328
 4514SOL     OW14440   4.582   0.673   4.592
 4514SOL    HW114441   4.534   0.715   4.670
 4514SOL    HW214442   4.525   0.600   4.554
 4515SOL     OW14443   6.791   4.261   6.220
 4515SOL    HW114444   6.861   4.228   6.283
 4515SOL    HW214445   6.778   4.195   6.147
 4516SOL     OW14446   1.442   1.775   6.151
 4516SOL    HW114447   1.379   1.830   6.097
 4516SOL    HW214448   1.529   1.823   6.160
 4517SOL     OW14449   2.498   0.263   6.766
 4517SOL    HW114450   2.520   0.167   6.784
 4517SOL    HW214451   2.452   0.270   6.677
 4518SOL     OW14452   6.306   1.646   3.115
 4518SOL    HW114453   6.296   1.741   3.086
 4518SOL    HW214454   6.374   1.600   3.058
 4519SOL     OW14455   6.242   0.534   1.602
 4519SOL    HW114456   6.171   0.506   1.537
 4519SOL    HW214457   6.314   0.583   1.553
 4520SOL     OW14458   5.348   4.861   2.748
 4520SOL    HW114459   5.283   4.801   2.795
 4520SOL    HW214460   5.441   4.830   2.766
 4521SOL     OW14461   5.022   2.181   5.299
 4521SOL    HW114462   4.976   2.103   5.342
 4521SOL    HW214463   5.109   2.199   5.346
 4522SOL     OW14464   5.390   0.265   3.693
 4522SOL    HW114465   5.336   0.323   3.632
 4522SOL    HW214466   5.483   0.258   3.657
 4523SOL     OW14467   1.282   4.665   0.032
 4523SOL    HW114468   1.378   4.643   0.053
 4523SOL    HW214469   1.277   4.756   7.021
 4524SOL     OW14470   5.115   2.379   5.783
 4524SOL    HW114471   5.177   2.320   5.836
 4524SOL    HW214472   5.027   2.333   5.773
 4525SOL     OW14473   6.111   1.710   3.297
 4525SOL    HW114474   6.087   1.666   3.384
 4525SOL    HW214475   6.171   1.649   3.245
 4526SOL     OW14476   4.913   0.685   0.522
 4526SOL    HW114477   4.974   0.608   0.506
 4526SOL    HW214478   4.936   0.760   0.461
 4527SOL     OW14479   4.139   1.356   4.118
 4527SOL    HW114480   4.202   1.414   4.170
 4527SOL    HW214481   4.158   1.363   4.020
 4528SOL     OW14482   4.963   6.510   0.473
 4528SOL    HW114483   4.962   6.553   0.382
 4528SOL    HW214484   4.992   6.577   0.541
 4529SOL     OW14485   3.387   1.216   3.844
 4529SOL    HW114486   3.478   1.178   3.859
 4529SOL    HW214487   3.368   1.285   3.914
 4530SOL     OW14488   6.968   3.792   5.294
 4530SOL    HW114489   6.944   3.755   5.204
 4530SOL    HW214490   7.020   3.723   5.345
 4531SOL     OW14491   0.002   3.001   3.494
 4531SOL    HW114492   7.002   3.065   3.423
 4531SOL    HW214493   0.068   3.046   3.554
 4532SOL     OW14494   0.290   1.287   2.377
 4532SOL    HW114495   0.258   1.231   2.301
 4532SOL    HW214496   0.211   1.330   2.421
 4533SOL     OW14497   1.637   0.271   3.393
 4533SOL    HW114498   1.539   0.254   3.397
 4533SOL    HW214499   1.655   0.367   3.412
 4534SOL     OW14500   5.675   3.238   4.311
 4534SOL    HW114501   5.648   3.188   4.228
 4534SOL    HW214502   5.753   3.191   4.354
 4535SOL     OW14503   4.368   1.971   2.757
 4535SOL    HW114504   4.424   2.043   2.799
 4535SOL    HW214505   4.426   1.893   2.733
 4536SOL     OW14506   4.459   1.797   4.689
 4536SOL    HW114507   4.383   1.861   4.679
 4536SOL    HW214508   4.545   1.848   4.692
 4537SOL     OW14509   3.684   3.457   5.977
 4537SOL    HW114510   3.709   3.459   6.074
 4537SOL    HW214511   3.666   3.551   5.946
 4538SOL     OW14512   2.963   1.931   3.938
 4538SOL    HW114513   3.045   1.878   3.918
 4538SOL    HW214514   2.971   1.974   4.028
 4539SOL     OW14515   2.522   1.707   4.269
 4539SOL    HW114516   2.557   1.623   4.310
 4539SOL    HW214517   2.525   1.781   4.336
 4540SOL     OW14518   3.501   3.173   3.925
 4540SOL    HW114519   3.418   3.183   3.979
 4540SOL    HW214520   3.517   3.076   3.907
 4541SOL     OW14521   5.534   1.624   6.909
 4541SOL    HW114522   5.518   1.681   6.989
 4541SOL    HW214523   5.607   1.558   6.929
 4542SOL     OW14524   5.786   6.584   1.874
 4542SOL    HW114525   5.766   6.515   1.805
 4542SOL    HW214526   5.839   6.659   1.833
 4543SOL     OW14527   4.184   1.918   0.074
 4543SOL    HW114528   4.196   1.822   0.052
 4543SOL    HW214529   4.244   1.943   0.150
 4544SOL     OW14530   2.593   6.263   5.717
 4544SOL    HW114531   2.609   6.220   5.628
 4544SOL    HW214532   2.681   6.294   5.755
 4545SOL     OW14533   5.233   2.231   5.462
 4545SOL    HW114534   5.330   2.257   5.467
 4545SOL    HW214535   5.187   2.258   5.547
 4546SOL     OW14536   1.245   0.281   6.513
 4546SOL    HW114537   1.194   0.367   6.508
 4546SOL    HW214538   1.182   0.205   6.496
 4547SOL     OW14539   6.600   2.596   2.758
 4547SOL    HW114540   6.638   2.571   2.847
 4547SOL    HW214541   6.636   2.535   2.688
 4548SOL     OW14542   0.922   4.299   4.431
 4548SOL    HW114543   1.000   4.348   4.472
 4548SOL    HW214544   0.904   4.335   4.340
 4549SOL     OW14545   6.029   3.341   2.830
 4549SOL    HW114546   5.966   3.411   2.796
 4549SOL    HW214547   6.122   3.363   2.800
 4550SOL     OW14548   0.734   6.283   3.153
 4550SOL    HW114549   0.802   6.250   3.088
 4550SOL    HW214550   0.778   6.342   3.221
 4551SOL     OW14551   0.181   2.006   5.354
 4551SOL    HW114552   0.183   2.069   5.432
 4551SOL    HW214553   0.166   2.058   5.270
 4552SOL     OW14554   6.896   2.385   6.209
 4552SOL    HW114555   6.948   2.462   6.172
 4552SOL    HW214556   6.939   2.299   6.182
 4553SOL     OW14557   3.493   4.136   0.731
 4553SOL    HW114558   3.500   4.219   0.785
 4553SOL    HW214559   3.493   4.056   0.792
 4554SOL     OW14560   3.917   1.198   1.616
 4554SOL    HW114561   4.010   1.163   1.607
 4554SOL    HW214562   3.876   1.163   1.700
 4555SOL     OW14563   3.458   1.523   5.930
 4555SOL    HW114564   3.534   1.458   5.927
 4555SOL    HW214565   3.474   1.590   6.002
 4556SOL     OW14566   4.561   2.239   3.880
 4556SOL    HW114567   4.655   2.228   3.846
 4556SOL    HW214568   4.555   2.322   3.935
 4557SOL     OW14569   4.830   6.523   5.164
 4557SOL    HW114570   4.826   6.547   5.067
 4557SOL    HW214571   4.821   6.424   5.174
 4558SOL     OW14572   6.237   3.944   5.822
 4558SOL    HW114573   6.250   3.958   5.724
 4558SOL    HW214574   6.192   4.024   5.862
 4559SOL     OW14575   1.070   5.528   1.320
 4559SOL    HW114576   1.166   5.502   1.305
 4559SOL    HW214577   1.055   5.543   1.418
 4560SOL     OW14578   5.486   4.419   3.491
 4560SOL    HW114579   5.505   4.323   3.470
 4560SOL    HW214580   5.568   4.474   3.474
 4561SOL     OW14581   2.733   0.819   1.367
 4561SOL    HW114582   2.655   0.760   1.346
 4561SOL    HW214583   2.701   0.913   1.383
 4562SOL     OW14584   2.961   5.718   4.982
 4562SOL    HW114585   3.010   5.694   5.066
 4562SOL    HW214586   2.971   5.644   4.915
 4563SOL     OW14587   6.421   4.076   6.921
 4563SOL    HW114588   6.451   3.988   6.885
 4563SOL    HW214589   6.328   4.095   6.889
 4564SOL     OW14590   0.789   6.153   0.871
 4564SOL    HW114591   0.808   6.192   0.961
 4564SOL    HW214592   0.693   6.123   0.868
 4565SOL     OW14593   0.423   1.386   5.569
 4565SOL    HW114594   0.481   1.305   5.560
 4565SOL    HW214595   0.402   1.422   5.478
 4566SOL     OW14596   0.043   0.765   0.535
 4566SOL    HW114597   0.057   0.755   0.437
 4566SOL    HW214598   0.007   0.857   0.555
 4567SOL     OW14599   0.481   0.759   0.282
 4567SOL    HW114600   0.449   0.669   0.314
 4567SOL    HW214601   0.461   0.768   0.185
 4568SOL     OW14602   1.742   4.316   5.141
 4568SOL    HW114603   1.668   4.381   5.153
 4568SOL    HW214604   1.720   4.230   5.188
 4569SOL     OW14605   2.379   1.782   3.739
 4569SOL    HW114606   2.301   1.720   3.742
 4569SOL    HW214607   2.456   1.740   3.788
 4570SOL     OW14608   0.291   4.838   3.280
 4570SOL    HW114609   0.303   4.757   3.337
 4570SOL    HW214610   0.221   4.820   3.210
 4571SOL     OW14611   3.554   3.686   5.393
 4571SOL    HW114612   3.526   3.629   5.470
 4571SOL    HW214613   3.558   3.630   5.310
 4572SOL     OW14614   0.550   6.254   6.709
 4572SOL    HW114615   0.569   6.221   6.617
 4572SOL    HW214616   0.451   6.254   6.724
 4573SOL     OW14617   6.277   6.301   0.711
 4573SOL    HW114618   6.199   6.257   0.754
 4573SOL    HW214619   6.331   6.234   0.660
 4574SOL     OW14620   6.978   4.314   1.147
 4574SOL    HW114621   0.016   4.261   1.198
 4574SOL    HW214622   7.004   4.411   1.147
 4575SOL     OW14623   6.441   2.028   6.980
 4575SOL    HW114624   6.489   2.006   0.034
 4575SOL    HW214625   6.495   2.092   6.926
 4576SOL     OW14626   2.724   5.815   6.423
 4576SOL    HW114627   2.683   5.825   6.332
 4576SOL    HW214628   2.655   5.780   6.486
 4577SOL     OW14629   0.338   2.750   3.201
 4577SOL    HW114630   0.332   2.671   3.139
 4577SOL    HW214631   0.273   2.820   3.172
 4578SOL     OW14632   0.510   3.656   3.373
 4578SOL    HW114633   0.559   3.678   3.289
 4578SOL    HW214634   0.575   3.643   3.448
 4579SOL     OW14635   5.359   1.414   2.883
 4579SOL    HW114636   5.331   1.506   2.910
 4579SOL    HW214637   5.438   1.386   2.937
 4580SOL     OW14638   5.481   5.603   0.126
 4580SOL    HW114639   5.475   5.687   0.072
 4580SOL    HW214640   5.552   5.613   0.196
 4581SOL     OW14641   2.946   5.124   3.112
 4581SOL    HW114642   2.979   5.097   3.022
 4581SOL    HW214643   3.022   5.126   3.177
 4582SOL     OW14644   6.000   6.312   4.697
 4582SOL    HW114645   5.944   6.373   4.753
 4582SOL    HW214646   6.015   6.354   4.608
 4583SOL     OW14647   2.455   1.461   4.872
 4583SOL    HW114648   2.535   1.459   4.933
 4583SOL    HW214649   2.389   1.528   4.907
 4584SOL     OW14650   0.659   5.972   5.348
 4584SOL    HW114651   0.627   5.877   5.348
 4584SOL    HW214652   0.580   6.034   5.349
 4585SOL     OW14653   2.794   6.343   3.058
 4585SOL    HW114654   2.782   6.253   3.015
 4585SOL    HW214655   2.802   6.412   2.986
 4586SOL     OW14656   3.964   4.865   0.791
 4586SOL    HW114657   4.049   4.866   0.843
 4586SOL    HW214658   3.890   4.828   0.847
 4587SOL     OW14659   4.197   3.148   1.813
 4587SOL    HW114660   4.219   3.199   1.896
 4587SOL    HW214661   4.273   3.088   1.789
 4588SOL     OW14662   3.847   3.962   5.198
 4588SOL    HW114663   3.941   3.928   5.204
 4588SOL    HW214664   3.812   3.945   5.106
 4589SOL     OW14665   5.854   1.069   1.988
 4589SOL    HW114666   5.911   1.047   2.067
 4589SOL    HW214667   5.793   1.145   2.011
 4590SOL     OW14668   4.276   6.190   1.867
 4590SOL    HW114669   4.321   6.197   1.778
 4590SOL    HW214670   4.272   6.094   1.895
 4591SOL     OW14671   0.980   6.336   4.692
 4591SOL    HW114672   1.000   6.393   4.612
 4591SOL    HW214673   1.065   6.309   4.736
 4592SOL     OW14674   4.031   2.772   1.610
 4592SOL    HW114675   3.961   2.812   1.669
 4592SOL    HW214676   4.026   2.814   1.519
 4593SOL     OW14677   4.210   5.511   3.819
 4593SOL    HW114678   4.225   5.469   3.909
 4593SOL    HW214679   4.119   5.550   3.816
 4594SOL     OW14680   3.638   2.378   1.126
 4594SOL    HW114681   3.572   2.304   1.144
 4594SOL    HW214682   3.665   2.420   1.213
 4595SOL     OW14683   3.368   2.868   5.741
 4595SOL    HW114684   3.422   2.870   5.825
 4595SOL    HW214685   3.387   2.783   5.692
 4596SOL     OW14686   6.012   6.677   2.054
 4596SOL    HW114687   5.969   6.759   2.090
 4596SOL    HW214688   5.951   6.633   1.988
 4597SOL     OW14689   4.816   4.747   0.094
 4597SOL    HW114690   4.869   4.807   0.153
 4597SOL    HW214691   4.732   4.720   0.141
 4598SOL     OW14692   1.304   5.153   6.844
 4598SOL    HW114693   1.370   5.208   6.895
 4598SOL    HW214694   1.230   5.211   6.811
 4599SOL     OW14695   1.646   4.354   1.526
 4599SOL    HW114696   1.684   4.325   1.614
 4599SOL    HW214697   1.550   4.379   1.537
 4600SOL     OW14698   2.503   6.081   5.956
 4600SOL    HW114699   2.495   6.127   5.868
 4600SOL    HW214700   2.590   6.031   5.960
 4601SOL     OW14701   1.497   0.968   5.336
 4601SOL    HW114702   1.476   1.005   5.245
 4601SOL    HW214703   1.597   0.966   5.348
 4602SOL     OW14704   1.086   6.046   0.546
 4602SOL    HW114705   0.988   6.063   0.556
 4602SOL    HW214706   1.114   5.976   0.611
 4603SOL     OW14707   3.807   6.994   1.485
 4603SOL    HW114708   3.891   0.014   1.503
 4603SOL    HW214709   3.766   6.965   1.571
 4604SOL     OW14710   4.665   0.793   1.468
 4604SOL    HW114711   4.651   0.827   1.561
 4604SOL    HW214712   4.577   0.788   1.420
 4605SOL     OW14713   5.079   0.931   3.166
 4605SOL    HW114714   5.066   0.837   3.133
 4605SOL    HW214715   5.051   0.936   3.262
 4606SOL     OW14716   6.885   7.030   1.993
 4606SOL    HW114717   6.837   6.965   2.051
 4606SOL    HW214718   6.964   0.037   2.042
 4607SOL     OW14719   2.724   3.095   1.047
 4607SOL    HW114720   2.710   3.015   1.106
 4607SOL    HW214721   2.815   3.091   1.007
 4608SOL     OW14722   1.770   5.464   3.955
 4608SOL    HW114723   1.716   5.440   3.874
 4608SOL    HW214724   1.858   5.418   3.951
 4609SOL     OW14725   4.134   5.603   6.041
 4609SOL    HW114726   4.123   5.505   6.030
 4609SOL    HW214727   4.065   5.651   5.986
 4610SOL     OW14728   6.749   2.379   0.304
 4610SOL    HW114729   6.746   2.434   0.388
 4610SOL    HW214730   6.695   2.425   0.233
 4611SOL     OW14731   6.283   5.183   5.669
 4611SOL    HW114732   6.363   5.231   5.633
 4611SOL    HW214733   6.231   5.244   5.728
 4612SOL     OW14734   1.999   6.535   0.649
 4612SOL    HW114735   1.918   6.515   0.595
 4612SOL    HW214736   1.976   6.600   0.722
 4613SOL     OW14737   2.666   5.686   2.550
 4613SOL    HW114738   2.673   5.781   2.518
 4613SOL    HW214739   2.579   5.647   2.521
 4614SOL     OW14740   1.099   4.837   5.508
 4614SOL    HW114741   1.105   4.851   5.606
 4614SOL    HW214742   1.005   4.854   5.477
 4615SOL     OW14743   2.152   0.753   0.473
 4615SOL    HW114744   2.142   0.831   0.411
 4615SOL    HW214745   2.249   0.734   0.487
 4616SOL     OW14746   6.755   0.255   5.705
 4616SOL    HW114747   6.758   0.237   5.606
 4616SOL    HW214748   6.664   0.291   5.729
 4617SOL     OW14749   1.477   2.128   2.927
 4617SOL    HW114750   1.477   2.032   2.955
 4617SOL    HW214751   1.452   2.134   2.830
 4618SOL     OW14752   1.704   3.053   5.301
 4618SOL    HW114753   1.651   3.106   5.235
 4618SOL    HW214754   1.720   2.961   5.265
 4619SOL     OW14755   4.798   6.318   3.735
 4619SOL    HW114756   4.790   6.415   3.756
 4619SOL    HW214757   4.878   6.302   3.678
 4620SOL     OW14758   2.997   3.888   7.011
 4620SOL    HW114759   3.005   3.799   6.966
 4620SOL    HW214760   3.057   3.889   0.061
 4621SOL     OW14761   5.608   1.760   3.553
 4621SOL    HW114762   5.671   1.825   3.511
 4621SOL    HW214763   5.528   1.748   3.493
 4622SOL     OW14764   0.247   3.122   0.887
 4622SOL    HW114765   0.294   3.129   0.799
 4622SOL    HW214766   0.266   3.033   0.928
 4623SOL     OW14767   0.729   5.481   1.062
 4623SOL    HW114768   0.731   5.537   1.145
 4623SOL    HW214769   0.638   5.442   1.050
 4624SOL     OW14770   4.752   6.854   3.106
 4624SOL    HW114771   4.808   6.834   3.027
 4624SOL    HW214772   4.810   6.870   3.186
 4625SOL     OW14773   1.763   4.396   6.725
 4625SOL    HW114774   1.668   4.415   6.698
 4625SOL    HW214775   1.825   4.445   6.664
 4626SOL     OW14776   5.936   4.922   1.257
 4626SOL    HW114777   6.030   4.949   1.281
 4626SOL    HW214778   5.891   4.885   1.338
 4627SOL     OW14779   3.364   5.895   4.552
 4627SOL    HW114780   3.324   5.805   4.536
 4627SOL    HW214781   3.445   5.905   4.493
 4628SOL     OW14782   6.057   4.296   3.447
 4628SOL    HW114783   6.041   4.392   3.422
 4628SOL    HW214784   5.998   4.237   3.392
 4629SOL     OW14785   2.457   4.899   6.155
 4629SOL    HW114786   2.522   4.905   6.079
 4629SOL    HW214787   2.435   4.803   6.173
 4630SOL     OW14788   3.734   5.906   3.142
 4630SOL    HW114789   3.797   5.974   3.104
 4630SOL    HW214790   3.762   5.815   3.112
 4631SOL     OW14791   2.632   6.496   3.579
 4631SOL    HW114792   2.658   6.402   3.600
 4631SOL    HW214793   2.617   6.506   3.481
 4632SOL     OW14794   4.520   4.460   3.070
 4632SOL    HW114795   4.447   4.502   3.125
 4632SOL    HW214796   4.479   4.400   3.001
 4633SOL     OW14797   6.295   1.804   3.768
 4633SOL    HW114798   6.233   1.883   3.764
 4633SOL    HW214799   6.341   1.802   3.857
 4634SOL     OW14800   2.480   4.347   6.790
 4634SOL    HW114801   2.539   4.348   6.710
 4634SOL    HW214802   2.407   4.279   6.776
 4635SOL     OW14803   6.166   3.548   2.484
 4635SOL    HW114804   6.188   3.454   2.458
 4635SOL    HW214805   6.212   3.571   2.570
 4636SOL     OW14806   2.105   5.072   0.044
 4636SOL    HW114807   2.183   5.009   0.040
 4636SOL    HW214808   2.105   5.129   6.992
 4637SOL     OW14809   1.790   0.685   0.377
 4637SOL    HW114810   1.876   0.664   0.424
 4637SOL    HW214811   1.806   0.687   0.278
 4638SOL     OW14812   3.180   2.803   6.145
 4638SOL    HW114813   3.119   2.781   6.221
 4638SOL    HW214814   3.126   2.815   6.062
 4639SOL     OW14815   1.804   5.090   5.315
 4639SOL    HW114816   1.849   5.126   5.233
 4639SOL    HW214817   1.712   5.057   5.290
 4640SOL     OW14818   4.538   5.144   3.630
 4640SOL    HW114819   4.494   5.056   3.613
 4640SOL    HW214820   4.533   5.166   3.727
 4641SOL     OW14821   2.863   5.437   3.998
 4641SOL    HW114822   2.820   5.366   3.942
 4641SOL    HW214823   2.942   5.474   3.949
 4642SOL     OW14824   1.056   6.534   4.965
 4642SOL    HW114825   1.070   6.452   5.021
 4642SOL    HW214826   1.041   6.613   5.025
 4643SOL     OW14827   4.951   2.379   0.912
 4643SOL    HW114828   4.983   2.294   0.953
 4643SOL    HW214829   4.953   2.371   0.812
 4644SOL     OW14830   1.240   4.628   4.458
 4644SOL    HW114831   1.328   4.621   4.413
 4644SOL    HW214832   1.197   4.716   4.433
 4645SOL     OW14833   1.580   0.294   4.277
 4645SOL    HW114834   1.573   0.319   4.374
 4645SOL    HW214835   1.639   0.213   4.269
 4646SOL     OW14836   2.578   6.279   2.674
 4646SOL    HW114837   2.580   6.310   2.578
 4646SOL    HW214838   2.605   6.182   2.678
 4647SOL     OW14839   0.759   6.504   2.646
 4647SOL    HW114840   0.794   6.587   2.601
 4647SOL    HW214841   0.720   6.529   2.735
 4648SOL     OW14842   3.945   0.331   1.349
 4648SOL    HW114843   3.941   0.387   1.432
 4648SOL    HW214844   3.913   0.385   1.271
 4649SOL     OW14845   5.336   6.832   5.986
 4649SOL    HW114846   5.373   6.848   6.078
 4649SOL    HW214847   5.366   6.743   5.953
 4650SOL     OW14848   3.996   5.622   3.588
 4650SOL    HW114849   3.980   5.614   3.686
 4650SOL    HW214850   4.046   5.706   3.568
 4651SOL     OW14851   0.257   1.731   0.881
 4651SOL    HW114852   0.302   1.783   0.954
 4651SOL    HW214853   0.182   1.677   0.919
 4652SOL     OW14854   0.673   0.108   3.772
 4652SOL    HW114855   0.709   0.200   3.781
 4652SOL    HW214856   0.637   0.077   3.860
 4653SOL     OW14857   6.990   5.586   6.635
 4653SOL    HW114858   0.035   5.607   6.574
 4653SOL    HW214859   6.974   5.663   6.696
 4654SOL     OW14860   0.790   6.939   0.186
 4654SOL    HW114861   0.725   6.938   0.262
 4654SOL    HW214862   0.744   6.972   0.103
 4655SOL     OW14863   6.680   4.909   1.697
 4655SOL    HW114864   6.691   4.865   1.786
 4655SOL    HW214865   6.584   4.934   1.684
 4656SOL     OW14866   0.857   0.031   3.253
 4656SOL    HW114867   0.938   0.067   3.298
 4656SOL    HW214868   0.818   6.987   3.308
 4657SOL     OW14869   5.204   0.072   1.572
 4657SOL    HW114870   5.167   0.079   1.480
 4657SOL    HW214871   5.302   0.090   1.571
 4658SOL     OW14872   3.334   0.686   2.420
 4658SOL    HW114873   3.363   0.756   2.486
 4658SOL    HW214874   3.339   0.596   2.463
 4659SOL     OW14875   2.806   4.029   5.688
 4659SOL    HW114876   2.766   4.083   5.614
 4659SOL    HW214877   2.837   4.090   5.761
 4660SOL     OW14878   1.011   2.633   4.896
 4660SOL    HW114879   0.987   2.635   4.799
 4660SOL    HW214880   1.069   2.711   4.918
 4661SOL     OW14881   3.890   4.534   5.525
 4661SOL    HW114882   3.895   4.480   5.608
 4661SOL    HW214883   3.928   4.482   5.448
 4662SOL     OW14884   5.106   0.577   4.760
 4662SOL    HW114885   5.126   0.483   4.734
 4662SOL    HW214886   5.012   0.600   4.734
 4663SOL     OW14887   0.257   1.419   2.691
 4663SOL    HW114888   0.294   1.455   2.606
 4663SOL    HW214889   0.178   1.361   2.672
 4664SOL     OW14890   1.762   2.462   6.862
 4664SOL    HW114891   1.680   2.408   6.846
 4664SOL    HW214892   1.843   2.406   6.846
 4665SOL     OW14893   4.573   6.984   0.302
 4665SOL    HW114894   4.586   6.951   0.208
 4665SOL    HW214895   4.523   0.040   0.300
 4666SOL     OW14896   1.992   1.683   6.890
 4666SOL    HW114897   1.962   1.768   6.933
 4666SOL    HW214898   2.092   1.683   6.882
 4667SOL     OW14899   6.807   4.774   0.961
 4667SOL    HW114900   6.741   4.802   1.031
 4667SOL    HW214901   6.767   4.785   0.870
 4668SOL     OW14902   6.816   2.424   3.842
 4668SOL    HW114903   6.789   2.349   3.781
 4668SOL    HW214904   6.735   2.462   3.886
 4669SOL     OW14905   3.607   6.883   0.872
 4669SOL    HW114906   3.549   6.836   0.805
 4669SOL    HW214907   3.667   6.947   0.825
 4670SOL     OW14908   3.189   1.284   4.880
 4670SOL    HW114909   3.187   1.202   4.936
 4670SOL    HW214910   3.245   1.354   4.924
 4671SOL     OW14911   6.160   2.375   2.136
 4671SOL    HW114912   6.104   2.305   2.179
 4671SOL    HW214913   6.244   2.389   2.190
 4672SOL     OW14914   2.447   4.444   5.916
 4672SOL    HW114915   2.537   4.402   5.922
 4672SOL    HW214916   2.451   4.523   5.855
 4673SOL     OW14917   4.914   6.961   1.206
 4673SOL    HW114918   4.987   6.970   1.138
 4673SOL    HW214919   4.844   7.031   1.188
 4674SOL     OW14920   5.198   6.147   6.420
 4674SOL    HW114921   5.205   6.056   6.379
 4674SOL    HW214922   5.198   6.139   6.520
 4675SOL     OW14923   0.232   3.655   0.086
 4675SOL    HW114924   0.139   3.680   0.116
 4675SOL    HW214925   0.299   3.704   0.142
 4676SOL     OW14926   0.876   5.845   4.041
 4676SOL    HW114927   0.833   5.763   4.077
 4676SOL    HW214928   0.836   5.926   4.085
 4677SOL     OW14929   2.127   2.176   0.787
 4677SOL    HW114930   2.069   2.147   0.711
 4677SOL    HW214931   2.087   2.145   0.873
 4678SOL     OW14932   2.391   4.397   2.702
 4678SOL    HW114933   2.460   4.329   2.728
 4678SOL    HW214934   2.411   4.432   2.611
 4679SOL     OW14935   4.311   0.136   1.646
 4679SOL    HW114936   4.218   0.141   1.684
 4679SOL    HW214937   4.326   0.214   1.585
 4680SOL     OW14938   3.444   1.198   6.821
 4680SOL    HW114939   3.472   1.273   6.762
 4680SOL    HW214940   3.357   1.161   6.790
 4681SOL     OW14941   4.948   4.899   0.269
 4681SOL    HW114942   4.921   4.841   0.347
 4681SOL    HW214943   5.006   4.973   0.302
 4682SOL     OW14944   4.889   4.137   5.884
 4682SOL    HW114945   4.892   4.235   5.868
 4682SOL    HW214946   4.798   4.102   5.861
 4683SOL     OW14947   5.821   5.458   2.173
 4683SOL    HW114948   5.849   5.368   2.138
 4683SOL    HW214949   5.840   5.463   2.271
 4684SOL     OW14950   4.182   6.907   5.839
 4684SOL    HW114951   4.169   6.856   5.924
 4684SOL    HW214952   4.274   6.891   5.804
 4685SOL     OW14953   2.154   4.823   5.996
 4685SOL    HW114954   2.103   4.738   5.987
 4685SOL    HW214955   2.222   4.814   6.069
 4686SOL     OW14956   4.415   5.820   0.450
 4686SOL    HW114957   4.358   5.805   0.531
 4686SOL    HW214958   4.511   5.829   0.479
 4687SOL     OW14959   4.920   2.622   4.322
 4687SOL    HW114960   5.020   2.631   4.331
 4687SOL    HW214961   4.899   2.559   4.248
 4688SOL     OW14962   5.494   2.973   5.569
 4688SOL    HW114963   5.396   2.962   5.579
 4688SOL    HW214964   5.518   2.973   5.472
 4689SOL     OW14965   5.852   1.110   0.933
 4689SOL    HW114966   5.842   1.012   0.913
 4689SOL    HW214967   5.799   1.163   0.867
 4690SOL     OW14968   2.012   0.833   0.960
 4690SOL    HW114969   2.111   0.831   0.951
 4690SOL    HW214970   1.971   0.846   0.870
 4691SOL     OW14971   3.706   3.966   0.330
 4691SOL    HW114972   3.611   3.977   0.361
 4691SOL    HW214973   3.729   4.042   0.270
 4692SOL     OW14974   5.727   5.090   2.732
 4692SOL    HW114975   5.688   4.999   2.748
 4692SOL    HW214976   5.735   5.138   2.819
 4693SOL     OW14977   1.173   0.844   3.457
 4693SOL    HW114978   1.198   0.816   3.550
 4693SOL    HW214979   1.226   0.924   3.431
 4694SOL     OW14980   2.041   2.522   0.126
 4694SOL    HW114981   1.957   2.565   0.160
 4694SOL    HW214982   2.019   2.465   0.047
 4695SOL     OW14983   1.516   5.649   0.508
 4695SOL    HW114984   1.589   5.709   0.540
 4695SOL    HW214985   1.427   5.691   0.529
 4696SOL     OW14986   0.400   5.543   6.275
 4696SOL    HW114987   0.330   5.603   6.314
 4696SOL    HW214988   0.458   5.595   6.213
 4697SOL     OW14989   0.946   3.979   2.014
 4697SOL    HW114990   0.973   4.026   2.098
 4697SOL    HW214991   0.940   3.881   2.030
 4698SOL     OW14992   4.177   6.442   3.212
 4698SOL    HW114993   4.207   6.521   3.265
 4698SOL    HW214994   4.081   6.454   3.186
 4699SOL     OW14995   0.262   6.459   2.952
 4699SOL    HW114996   0.350   6.454   2.999
 4699SOL    HW214997   0.261   6.538   2.891
 4700SOL     OW14998   6.329   1.772   2.259
 4700SOL    HW114999   6.250   1.755   2.200
 4700SOL    HW215000   6.305   1.842   2.326
 4701SOL     OW15001   3.580   1.962   0.656
 4701SOL    HW115002   3.584   2.017   0.740
 4701SOL    HW215003   3.516   2.005   0.592
 4702SOL     OW15004   4.636   4.675   0.792
 4702SOL    HW115005   4.554   4.706   0.743
 4702SOL    HW215006   4.667   4.747   0.853
 4703SOL     OW15007   1.130   6.612   3.036
 4703SOL    HW115008   1.115   6.573   3.127
 4703SOL    HW215009   1.043   6.641   2.998
 4704SOL     OW15010   6.975   5.981   6.201
 4704SOL    HW115011   6.997   6.042   6.278
 4704SOL    HW215012   6.937   6.035   6.126
 4705SOL     OW15013   3.485   2.283   0.713
 4705SOL    HW115014   3.462   2.227   0.634
 4705SOL    HW215015   3.545   2.231   0.774
 4706SOL     OW15016   1.370   0.789   0.540
 4706SOL    HW115017   1.313   0.708   0.552
 4706SOL    HW215018   1.467   0.762   0.536
 4707SOL     OW15019   1.156   6.346   1.534
 4707SOL    HW115020   1.156   6.369   1.632
 4707SOL    HW215021   1.077   6.390   1.490
 4708SOL     OW15022   1.045   1.888   5.660
 4708SOL    HW115023   1.006   1.814   5.715
 4708SOL    HW215024   0.982   1.910   5.585
 4709SOL     OW15025   4.809   5.171   4.841
 4709SOL    HW115026   4.830   5.123   4.755
 4709SOL    HW215027   4.891   5.218   4.874
 4710SOL     OW15028   5.997   6.730   6.089
 4710SOL    HW115029   5.911   6.685   6.109
 4710SOL    HW215030   5.980   6.811   6.032
 4711SOL     OW15031   6.604   1.671   2.558
 4711SOL    HW115032   6.597   1.594   2.494
 4711SOL    HW215033   6.609   1.756   2.506
 4712SOL     OW15034   3.430   4.987   6.427
 4712SOL    HW115035   3.497   4.922   6.462
 4712SOL    HW215036   3.384   5.033   6.503
 4713SOL     OW15037   4.518   5.496   0.511
 4713SOL    HW115038   4.427   5.498   0.553
 4713SOL    HW215039   4.515   5.442   0.427
 4714SOL     OW15040   0.148   1.193   6.195
 4714SOL    HW115041   0.166   1.190   6.097
 4714SOL    HW215042   0.074   1.258   6.213
 4715SOL     OW15043   6.196   3.307   1.539
 4715SOL    HW115044   6.126   3.242   1.569
 4715SOL    HW215045   6.282   3.258   1.522
 4716SOL     OW15046   4.790   6.351   5.379
 4716SOL    HW115047   4.814   6.448   5.369
 4716SOL    HW215048   4.736   6.338   5.463
 4717SOL     OW15049   1.245   5.300   5.156
 4717SOL    HW115050   1.283   5.352   5.233
 4717SOL    HW215051   1.320   5.271   5.096
 4718SOL     OW15052   5.191   2.165   1.404
 4718SOL    HW115053   5.115   2.105   1.429
 4718SOL    HW215054   5.272   2.109   1.383
 4719SOL     OW15055   5.091   3.938   2.659
 4719SOL    HW115056   5.050   3.919   2.748
 4719SOL    HW215057   5.149   4.020   2.665
 4720SOL     OW15058   1.970   4.633   6.221
 4720SOL    HW115059   1.888   4.577   6.208
 4720SOL    HW215060   2.029   4.625   6.141
 4721SOL     OW15061   6.182   2.098   1.899
 4721SOL    HW115062   6.177   2.188   1.943
 4721SOL    HW215063   6.125   2.097   1.818
 4722SOL     OW15064   1.221   6.274   6.886
 4722SOL    HW115065   1.275   6.197   6.855
 4722SOL    HW215066   1.234   6.352   6.824
 4723SOL     OW15067   3.212   3.644   4.920
 4723SOL    HW115068   3.223   3.701   5.001
 4723SOL    HW215069   3.164   3.560   4.944
 4724SOL     OW15070   0.093   6.993   4.217
 4724SOL    HW115071   0.118   6.938   4.297
 4724SOL    HW215072   0.124   6.947   4.134
 4725SOL     OW15073   6.037   4.978   0.392
 4725SOL    HW115074   6.115   5.038   0.375
 4725SOL    HW215075   5.963   5.031   0.433
 4726SOL     OW15076   0.959   3.343   5.777
 4726SOL    HW115077   1.033   3.277   5.766
 4726SOL    HW215078   0.963   3.382   5.869
 4727SOL     OW15079   0.291   5.858   1.146
 4727SOL    HW115080   0.240   5.862   1.060
 4727SOL    HW215081   0.378   5.812   1.130
 4728SOL     OW15082   6.841   1.063   2.842
 4728SOL    HW115083   6.795   1.079   2.755
 4728SOL    HW215084   6.800   1.119   2.914
 4729SOL     OW15085   4.845   1.154   0.243
 4729SOL    HW115086   4.936   1.132   0.210
 4729SOL    HW215087   4.804   1.073   0.286
 4730SOL     OW15088   3.165   5.958   5.589
 4730SOL    HW115089   3.120   5.882   5.637
 4730SOL    HW215090   3.143   6.044   5.634
 4731SOL     OW15091   3.192   1.065   1.143
 4731SOL    HW115092   3.095   1.068   1.118
 4731SOL    HW215093   3.239   1.144   1.104
 4732SOL     OW15094   0.565   3.226   5.086
 4732SOL    HW115095   0.548   3.171   5.004
 4732SOL    HW215096   0.617   3.172   5.152
 4733SOL     OW15097   1.351   4.181   3.235
 4733SOL    HW115098   1.415   4.159   3.161
 4733SOL    HW215099   1.358   4.112   3.306
 4734SOL     OW15100   4.750   3.644   0.295
 4734SOL    HW115101   4.795   3.561   0.264
 4734SOL    HW215102   4.663   3.621   0.338
 4735SOL     OW15103   6.218   5.568   4.143
 4735SOL    HW115104   6.277   5.577   4.063
 4735SOL    HW215105   6.270   5.589   4.226
 4736SOL     OW15106   5.935   1.858   5.119
 4736SOL    HW115107   5.919   1.776   5.174
 4736SOL    HW215108   5.973   1.831   5.030
 4737SOL     OW15109   2.512   4.397   0.686
 4737SOL    HW115110   2.559   4.334   0.747
 4737SOL    HW215111   2.483   4.478   0.737
 4738SOL     OW15112   3.042   6.320   3.448
 4738SOL    HW115113   2.962   6.260   3.443
 4738SOL    HW215114   3.012   6.416   3.448
 4739SOL     OW15115   5.330   1.804   3.472
 4739SOL    HW115116   5.275   1.817   3.390
 4739SOL    HW215117   5.337   1.890   3.522
 4740SOL     OW15118   0.829   0.254   0.655
 4740SOL    HW115119   0.848   0.352   0.656
 4740SOL    HW215120   0.800   0.227   0.563
 4741SOL     OW15121   4.728   3.394   1.463
 4741SOL    HW115122   4.630   3.404   1.445
 4741SOL    HW215123   4.741   3.339   1.545
 4742SOL     OW15124   3.412   6.307   2.013
 4742SOL    HW115125   3.512   6.314   2.012
 4742SOL    HW215126   3.377   6.344   2.099
 4743SOL     OW15127   1.406   2.167   5.690
 4743SOL    HW115128   1.502   2.195   5.702
 4743SOL    HW215129   1.366   2.220   5.615
 4744SOL     OW15130   2.730   3.381   5.609
 4744SOL    HW115131   2.732   3.282   5.601
 4744SOL    HW215132   2.646   3.409   5.656
 4745SOL     OW15133   2.385   5.516   5.224
 4745SOL    HW115134   2.432   5.572   5.156
 4745SOL    HW215135   2.345   5.436   5.179
 4746SOL     OW15136   6.043   6.324   1.725
 4746SOL    HW115137   6.048   6.266   1.643
 4746SOL    HW215138   6.041   6.266   1.806
 4747SOL     OW15139   1.496   3.817   6.068
 4747SOL    HW115140   1.476   3.840   5.973
 4747SOL    HW215141   1.577   3.868   6.098
 4748SOL     OW15142   1.371   5.462   1.258
 4748SOL    HW115143   1.337   5.387   1.202
 4748SOL    HW215144   1.451   5.432   1.311
 4749SOL     OW15145   3.087   6.367   5.925
 4749SOL    HW115146   3.108   6.285   5.977
 4749SOL    HW215147   3.156   6.437   5.943
 4750SOL     OW15148   0.344   2.730   4.015
 4750SOL    HW115149   0.284   2.781   3.954
 4750SOL    HW215150   0.428   2.705   3.968
 4751SOL     OW15151   1.824   3.493   0.188
 4751SOL    HW115152   1.777   3.472   0.102
 4751SOL    HW215153   1.830   3.592   0.199
 4752SOL     OW15154   3.062   0.166   0.623
 4752SOL    HW115155   3.109   0.081   0.597
 4752SOL    HW215156   3.120   0.244   0.602
 4753SOL     OW15157   5.345   0.051   4.187
 4753SOL    HW115158   5.403   0.004   4.121
 4753SOL    HW215159   5.305   7.014   4.249
 4754SOL     OW15160   5.896   0.310   5.317
 4754SOL    HW115161   5.905   0.312   5.416
 4754SOL    HW215162   5.799   0.302   5.293
 4755SOL     OW15163   2.612   0.872   0.357
 4755SOL    HW115164   2.580   0.778   0.340
 4755SOL    HW215165   2.630   0.917   0.270
 4756SOL     OW15166   6.080   2.478   0.957
 4756SOL    HW115167   6.046   2.405   0.898
 4756SOL    HW215168   6.011   2.550   0.965
 4757SOL     OW15169   1.523   1.958   2.308
 4757SOL    HW115170   1.529   2.058   2.297
 4757SOL    HW215171   1.591   1.913   2.251
 4758SOL     OW15172   3.322   5.857   5.006
 4758SOL    HW115173   3.404   5.915   5.004
 4758SOL    HW215174   3.260   5.890   5.076
 4759SOL     OW15175   6.003   5.171   5.002
 4759SOL    HW115176   6.092   5.171   4.956
 4759SOL    HW215177   5.961   5.080   4.994
 4760SOL     OW15178   3.467   2.083   1.083
 4760SOL    HW115179   3.385   2.136   1.059
 4760SOL    HW215180   3.453   2.038   1.171
 4761SOL     OW15181   0.371   0.382   6.670
 4761SOL    HW115182   0.299   0.414   6.732
 4761SOL    HW215183   0.331   0.320   6.602
 4762SOL     OW15184   2.690   5.189   2.873
 4762SOL    HW115185   2.769   5.244   2.845
 4762SOL    HW215186   2.629   5.246   2.929
 4763SOL     OW15187   5.829   6.134   3.425
 4763SOL    HW115188   5.903   6.119   3.491
 4763SOL    HW215189   5.741   6.114   3.468
 4764SOL     OW15190   4.642   4.015   5.863
 4764SOL    HW115191   4.634   3.983   5.769
 4764SOL    HW215192   4.672   3.939   5.921
 4765SOL     OW15193   5.133   6.843   4.480
 4765SOL    HW115194   5.167   6.915   4.541
 4765SOL    HW215195   5.196   6.832   4.403
 4766SOL     OW15196   4.303   0.183   3.560
 4766SOL    HW115197   4.259   0.097   3.587
 4766SOL    HW215198   4.236   0.244   3.519
 4767SOL     OW15199   4.209   5.733   6.285
 4767SOL    HW115200   4.171   5.690   6.204
 4767SOL    HW215201   4.212   5.832   6.272
 4768SOL     OW15202   4.682   2.031   4.918
 4768SOL    HW115203   4.689   2.129   4.903
 4768SOL    HW215204   4.770   1.988   4.896
 4769SOL     OW15205   4.463   5.020   1.066
 4769SOL    HW115206   4.465   5.117   1.042
 4769SOL    HW215207   4.453   5.010   1.165
 4770SOL     OW15208   1.689   6.839   3.732
 4770SOL    HW115209   1.785   6.813   3.747
 4770SOL    HW215210   1.666   6.828   3.635
 4771SOL     OW15211   3.313   5.521   5.564
 4771SOL    HW115212   3.356   5.430   5.569
 4771SOL    HW215213   3.295   5.543   5.468
 4772SOL     OW15214   2.350   5.591   2.012
 4772SOL    HW115215   2.268   5.646   2.024
 4772SOL    HW215216   2.383   5.599   1.918
 4773SOL     OW15217   6.512   5.152   4.692
 4773SOL    HW115218   6.448   5.140   4.616
 4773SOL    HW215219   6.583   5.216   4.665
 4774SOL     OW15220   1.205   2.490   1.717
 4774SOL    HW115221   1.154   2.541   1.648
 4774SOL    HW215222   1.301   2.517   1.713
 4775SOL     OW15223   5.272   6.859   2.933
 4775SOL    HW115224   5.288   6.922   3.009
 4775SOL    HW215225   5.290   6.765   2.964
 4776SOL     OW15226   1.459   6.581   4.319
 4776SOL    HW115227   1.548   6.621   4.342
 4776SOL    HW215228   1.415   6.636   4.248
 4777SOL     OW15229   2.831   4.685   1.356
 4777SOL    HW115230   2.880   4.626   1.420
 4777SOL    HW215231   2.735   4.656   1.351
 4778SOL     OW15232   5.223   2.010   2.346
 4778SOL    HW115233   5.142   1.971   2.304
 4778SOL    HW215234   5.197   2.085   2.406
 4779SOL     OW15235   6.511   6.285   2.022
 4779SOL    HW115236   6.569   6.227   1.965
 4779SOL    HW215237   6.423   6.300   1.977
 4780SOL     OW15238   0.097   0.345   6.898
 4780SOL    HW115239   0.076   0.412   6.826
 4780SOL    HW215240   0.134   0.262   6.857
 4781SOL     OW15241   3.164   6.428   1.542
 4781SOL    HW115242   3.090   6.492   1.522
 4781SOL    HW215243   3.134   6.335   1.522
 4782SOL     OW15244   4.630   6.496   0.646
 4782SOL    HW115245   4.662   6.426   0.583
 4782SOL    HW215246   4.609   6.580   0.595
 4783SOL     OW15247   4.548   4.350   0.210
 4783SOL    HW115248   4.561   4.267   0.263
 4783SOL    HW215249   4.609   4.348   0.130
 4784SOL     OW15250   6.541   3.846   6.814
 4784SOL    HW115251   6.609   3.779   6.785
 4784SOL    HW215252   6.449   3.805   6.810
 4785SOL     OW15253   6.617   5.366   1.357
 4785SOL    HW115254   6.700   5.376   1.301
 4785SOL    HW215255   6.607   5.446   1.416
 4786SOL     OW15256   2.422   2.257   1.990
 4786SOL    HW115257   2.520   2.240   1.978
 4786SOL    HW215258   2.395   2.233   2.083
 4787SOL     OW15259   3.405   2.112   3.480
 4787SOL    HW115260   3.421   2.181   3.550
 4787SOL    HW215261   3.484   2.052   3.473
 4788SOL     OW15262   0.890   5.264   6.355
 4788SOL    HW115263   0.948   5.265   6.274
 4788SOL    HW215264   0.794   5.276   6.329
 4789SOL     OW15265   5.406   1.000   0.117
 4789SOL    HW115266   5.405   0.900   0.116
 4789SOL    HW215267   5.460   1.033   0.194
 4790SOL     OW15268   0.208   2.605   6.362
 4790SOL    HW115269   0.181   2.551   6.442
 4790SOL    HW215270   0.238   2.696   6.392
 4791SOL     OW15271   5.888   2.088   1.490
 4791SOL    HW115272   5.969   2.059   1.540
 4791SOL    HW215273   5.886   2.187   1.483
 4792SOL     OW15274   1.735   3.547   2.730
 4792SOL    HW115275   1.735   3.576   2.634
 4792SOL    HW215276   1.685   3.614   2.785
 4793SOL     OW15277   1.203   2.347   5.904
 4793SOL    HW115278   1.206   2.265   5.847
 4793SOL    HW215279   1.227   2.324   5.998
 4794SOL     OW15280   4.631   0.980   3.173
 4794SOL    HW115281   4.702   0.917   3.205
 4794SOL    HW215282   4.555   0.980   3.237
 4795SOL     OW15283   6.313   1.384   2.784
 4795SOL    HW115284   6.251   1.440   2.729
 4795SOL    HW215285   6.321   1.293   2.743
 4796SOL     OW15286   5.384   2.496   6.320
 4796SOL    HW115287   5.366   2.446   6.406
 4796SOL    HW215288   5.462   2.557   6.333
 4797SOL     OW15289   1.503   6.326   5.441
 4797SOL    HW115290   1.563   6.342   5.519
 4797SOL    HW215291   1.555   6.333   5.357
 4798SOL     OW15292   0.307   3.031   5.275
 4798SOL    HW115293   0.365   2.964   5.229
 4798SOL    HW215294   0.286   3.105   5.211
 4799SOL     OW15295   4.933   2.028   6.451
 4799SOL    HW115296   4.888   2.118   6.453
 4799SOL    HW215297   4.877   1.964   6.397
 4800SOL     OW15298   2.513   3.775   5.616
 4800SOL    HW115299   2.576   3.702   5.641
 4800SOL    HW215300   2.486   3.765   5.520
 4801SOL     OW15301   2.773   2.927   0.587
 4801SOL    HW115302   2.711   2.956   0.659
 4801SOL    HW215303   2.725   2.864   0.525
 4802SOL     OW15304   0.858   6.549   2.008
 4802SOL    HW115305   0.789   6.534   2.079
 4802SOL    HW215306   0.928   6.611   2.042
 4803SOL     OW15307   1.239   6.460   0.524
 4803SOL    HW115308   1.153   6.448   0.474
 4803SOL    HW215309   1.303   6.389   0.499
 4804SOL     OW15310   4.634   5.405   6.343
 4804SOL    HW115311   4.547   5.437   6.305
 4804SOL    HW215312   4.705   5.474   6.326
 4805SOL     OW15313   6.143   6.863   0.878
 4805SOL    HW115314   6.070   6.929   0.896
 4805SOL    HW215315   6.228   6.912   0.859
 4806SOL     OW15316   0.219   4.508   2.695
 4806SOL    HW115317   0.156   4.443   2.737
 4806SOL    HW215318   0.180   4.600   2.701
 4807SOL     OW15319   1.305   4.964   0.831
 4807SOL    HW115320   1.211   4.980   0.861
 4807SOL    HW215321   1.368   5.011   0.893
 4808SOL     OW15322   6.303   3.729   6.797
 4808SOL    HW115323   6.260   3.667   6.731
 4808SOL    HW215324   6.239   3.801   6.823
 4809SOL     OW15325   3.528   4.022   6.678
 4809SOL    HW115326   3.532   3.998   6.775
 4809SOL    HW215327   3.434   4.039   6.652
 4810SOL     OW15328   1.152   5.383   2.265
 4810SOL    HW115329   1.208   5.383   2.347
 4810SOL    HW215330   1.180   5.307   2.206
 4811SOL     OW15331   1.855   4.778   2.093
 4811SOL    HW115332   1.793   4.706   2.064
 4811SOL    HW215333   1.856   4.782   2.193
 4812SOL     OW15334   0.404   5.029   5.171
 4812SOL    HW115335   0.378   5.100   5.106
 4812SOL    HW215336   0.483   4.979   5.135
 4813SOL     OW15337   5.352   2.031   0.988
 4813SOL    HW115338   5.374   2.005   1.082
 4813SOL    HW215339   5.304   1.956   0.942
 4814SOL     OW15340   5.928   4.498   0.399
 4814SOL    HW115341   6.023   4.522   0.421
 4814SOL    HW215342   5.869   4.578   0.412
 4815SOL     OW15343   5.673   4.251   3.105
 4815SOL    HW115344   5.612   4.318   3.063
 4815SOL    HW215345   5.655   4.160   3.069
 4816SOL     OW15346   6.865   5.115   2.749
 4816SOL    HW115347   6.796   5.186   2.733
 4816SOL    HW215348   6.956   5.157   2.751
 4817SOL     OW15349   1.161   1.893   6.362
 4817SOL    HW115350   1.093   1.965   6.374
 4817SOL    HW215351   1.133   1.812   6.413
 4818SOL     OW15352   0.677   0.321   4.490
 4818SOL    HW115353   0.630   0.297   4.405
 4818SOL    HW215354   0.610   0.357   4.555
 4819SOL     OW15355   0.992   2.434   0.098
 4819SOL    HW115356   0.975   2.367   0.025
 4819SOL    HW215357   1.009   2.524   0.057
 4820SOL     OW15358   6.723   2.817   1.418
 4820SOL    HW115359   6.743   2.909   1.450
 4820SOL    HW215360   6.791   2.754   1.455
 4821SOL     OW15361   0.741   6.048   2.816
 4821SOL    HW115362   0.822   6.098   2.846
 4821SOL    HW215363   0.748   6.028   2.718
 4822SOL     OW15364   1.141   3.442   4.536
 4822SOL    HW115365   1.091   3.510   4.484
 4822SOL    HW215366   1.231   3.477   4.561
 4823SOL     OW15367   1.999   1.735   3.902
 4823SOL    HW115368   1.900   1.746   3.886
 4823SOL    HW215369   2.020   1.762   3.996
 4824SOL     OW15370   5.099   1.996   5.585
 4824SOL    HW115371   5.182   2.013   5.532
 4824SOL    HW215372   5.033   1.948   5.528
 4825SOL     OW15373   1.257   2.292   4.677
 4825SOL    HW115374   1.255   2.197   4.646
 4825SOL    HW215375   1.193   2.346   4.622
 4826SOL     OW15376   5.578   0.424   0.546
 4826SOL    HW115377   5.593   0.341   0.600
 4826SOL    HW215378   5.551   0.400   0.453
 4827SOL     OW15379   6.287   2.006   0.938
 4827SOL    HW115380   6.321   1.949   1.013
 4827SOL    HW215381   6.311   1.963   0.850
 4828SOL     OW15382   5.206   0.990   1.338
 4828SOL    HW115383   5.122   0.949   1.304
 4828SOL    HW215384   5.235   1.063   1.277
 4829SOL     OW15385   3.711   0.509   6.200
 4829SOL    HW115386   3.801   0.466   6.194
 4829SOL    HW215387   3.649   0.449   6.252
 4830SOL     OW15388   3.581   5.596   4.260
 4830SOL    HW115389   3.568   5.695   4.269
 4830SOL    HW215390   3.532   5.550   4.334
 4831SOL     OW15391   1.629   4.754   5.150
 4831SOL    HW115392   1.573   4.832   5.178
 4831SOL    HW215393   1.678   4.718   5.229
 4832SOL     OW15394   3.138   3.943   3.694
 4832SOL    HW115395   3.210   4.010   3.714
 4832SOL    HW215396   3.180   3.853   3.682
 4833SOL     OW15397   5.988   2.060   2.538
 4833SOL    HW115398   6.036   2.042   2.624
 4833SOL    HW215399   5.985   1.975   2.484
 4834SOL     OW15400   2.552   5.883   2.147
 4834SOL    HW115401   2.546   5.919   2.053
 4834SOL    HW215402   2.472   5.912   2.198
 4835SOL     OW15403   6.316   3.619   5.901
 4835SOL    HW115404   6.260   3.680   5.844
 4835SOL    HW215405   6.365   3.673   5.969
 4836SOL     OW15406   5.598   1.477   4.831
 4836SOL    HW115407   5.596   1.386   4.873
 4836SOL    HW215408   5.537   1.538   4.880
 4837SOL     OW15409   6.989   3.806   2.734
 4837SOL    HW115410   6.954   3.885   2.783
 4837SOL    HW215411   6.917   3.766   2.677
 4838SOL     OW15412   2.377   5.745   0.146
 4838SOL    HW115413   2.358   5.673   0.080
 4838SOL    HW215414   2.299   5.755   0.208
 4839SOL     OW15415   1.332   3.205   7.027
 4839SOL    HW115416   1.398   3.144   6.984
 4839SOL    HW215417   1.285   3.156   0.070
 4840SOL     OW15418   6.531   4.309   5.748
 4840SOL    HW115419   6.526   4.209   5.745
 4840SOL    HW215420   6.508   4.340   5.840
 4841SOL     OW15421   2.618   4.950   3.076
 4841SOL    HW115422   2.521   4.926   3.077
 4841SOL    HW215423   2.628   5.046   3.049
 4842SOL     OW15424   2.384   5.263   3.770
 4842SOL    HW115425   2.312   5.225   3.713
 4842SOL    HW215426   2.474   5.234   3.735
 4843SOL     OW15427   6.744   2.737   1.987
 4843SOL    HW115428   6.756   2.641   1.963
 4843SOL    HW215429   6.731   2.745   2.086
 4844SOL     OW15430   0.297   4.137   5.065
 4844SOL    HW115431   0.226   4.207   5.063
 4844SOL    HW215432   0.264   4.057   5.116
 4845SOL     OW15433   4.387   5.064   5.748
 4845SOL    HW115434   4.400   5.044   5.651
 4845SOL    HW215435   4.398   5.162   5.764
 4846SOL     OW15436   0.242   1.847   3.486
 4846SOL    HW115437   0.143   1.830   3.489
 4846SOL    HW215438   0.265   1.895   3.402
 4847SOL     OW15439   2.254   2.012   5.526
 4847SOL    HW115440   2.211   2.102   5.537
 4847SOL    HW215441   2.298   1.986   5.612
 4848SOL     OW15442   2.507   1.333   4.644
 4848SOL    HW115443   2.492   1.373   4.734
 4848SOL    HW215444   2.600   1.296   4.639
 4849SOL     OW15445   2.075   6.166   0.705
 4849SOL    HW115446   2.111   6.085   0.658
 4849SOL    HW215447   2.088   6.246   0.647
 4850SOL     OW15448   5.035   0.810   1.154
 4850SOL    HW115449   4.997   0.846   1.068
 4850SOL    HW215450   4.963   0.761   1.203
 4851SOL     OW15451   3.742   5.522   6.171
 4851SOL    HW115452   3.788   5.527   6.260
 4851SOL    HW215453   3.796   5.570   6.102
 4852SOL     OW15454   2.773   5.321   4.665
 4852SOL    HW115455   2.835   5.259   4.714
 4852SOL    HW215456   2.827   5.380   4.605
 4853SOL     OW15457   3.854   1.823   3.637
 4853SOL    HW115458   3.953   1.813   3.647
 4853SOL    HW215459   3.829   1.919   3.646
 4854SOL     OW15460   4.924   7.003   1.636
 4854SOL    HW115461   5.020   7.028   1.652
 4854SOL    HW215462   4.866   0.052   1.650
 4855SOL     OW15463   6.060   3.769   5.000
 4855SOL    HW115464   5.963   3.742   4.996
 4855SOL    HW215465   6.114   3.704   4.948
 4856SOL     OW15466   0.917   3.197   2.823
 4856SOL    HW115467   0.879   3.115   2.866
 4856SOL    HW215468   1.013   3.180   2.801
 4857SOL     OW15469   3.308   1.678   3.167
 4857SOL    HW115470   3.335   1.721   3.082
 4857SOL    HW215471   3.216   1.639   3.157
 4858SOL     OW15472   0.331   6.864   5.100
 4858SOL    HW115473   0.382   6.780   5.115
 4858SOL    HW215474   0.394   6.941   5.091
 4859SOL     OW15475   0.805   5.392   1.963
 4859SOL    HW115476   0.814   5.491   1.974
 4859SOL    HW215477   0.793   5.350   2.053
 4860SOL     OW15478   3.843   4.563   0.220
 4860SOL    HW115479   3.925   4.572   0.165
 4860SOL    HW215480   3.853   4.616   0.305
 4861SOL     OW15481   5.847   5.590   6.635
 4861SOL    HW115482   5.825   5.680   6.672
 4861SOL    HW215483   5.914   5.545   6.693
 4862SOL     OW15484   2.366   4.658   4.512
 4862SOL    HW115485   2.313   4.709   4.444
 4862SOL    HW215486   2.351   4.697   4.602
 4863SOL     OW15487   4.930   3.482   2.889
 4863SOL    HW115488   4.863   3.412   2.867
 4863SOL    HW215489   4.934   3.549   2.814
 4864SOL     OW15490   3.615   1.723   1.828
 4864SOL    HW115491   3.552   1.659   1.870
 4864SOL    HW215492   3.596   1.816   1.861
 4865SOL     OW15493   2.459   5.649   4.980
 4865SOL    HW115494   2.446   5.732   5.035
 4865SOL    HW215495   2.551   5.614   4.996
 4866SOL     OW15496   6.096   4.545   1.312
 4866SOL    HW115497   6.097   4.644   1.328
 4866SOL    HW215498   6.109   4.497   1.398
 4867SOL     OW15499   4.341   5.571   3.575
 4867SOL    HW115500   4.417   5.508   3.563
 4867SOL    HW215501   4.268   5.527   3.627
 4868SOL     OW15502   0.572   6.017   1.821
 4868SOL    HW115503   0.523   5.941   1.864
 4868SOL    HW215504   0.669   6.012   1.845
 4869SOL     OW15505   6.905   2.429   1.008
 4869SOL    HW115506   6.867   2.455   1.097
 4869SOL    HW215507   6.890   2.331   0.993
 4870SOL     OW15508   4.780   5.120   1.581
 4870SOL    HW115509   4.772   5.213   1.545
 4870SOL    HW215510   4.784   5.055   1.506
 4871SOL     OW15511   0.855   0.475   4.018
 4871SOL    HW115512   0.873   0.550   3.953
 4871SOL    HW215513   0.938   0.455   4.069
 4872SOL     OW15514   0.869   6.761   3.788
 4872SOL    HW115515   0.955   6.763   3.737
 4872SOL    HW215516   0.793   6.780   3.725
 4873SOL     OW15517   0.297   4.911   3.777
 4873SOL    HW115518   0.281   4.969   3.858
 4873SOL    HW215519   0.396   4.906   3.760
 4874SOL     OW15520   6.082   3.503   2.151
 4874SOL    HW115521   6.131   3.590   2.158
 4874SOL    HW215522   5.985   3.521   2.137
 4875SOL     OW15523   5.759   2.597   0.958
 4875SOL    HW115524   5.803   2.648   0.884
 4875SOL    HW215525   5.660   2.599   0.946
 4876SOL     OW15526   5.629   0.476   5.236
 4876SOL    HW115527   5.583   0.462   5.324
 4876SOL    HW215528   5.701   0.544   5.248
 4877SOL     OW15529   6.929   1.435   0.752
 4877SOL    HW115530   6.883   1.346   0.759
 4877SOL    HW215531   7.006   1.427   0.689
 4878SOL     OW15532   6.857   1.507   2.527
 4878SOL    HW115533   6.878   1.480   2.621
 4878SOL    HW215534   6.761   1.487   2.507
 4879SOL     OW15535   4.420   4.926   3.057
 4879SOL    HW115536   4.473   4.981   2.992
 4879SOL    HW215537   4.366   4.987   3.115
 4880SOL     OW15538   4.996   2.664   6.630
 4880SOL    HW115539   5.015   2.621   6.542
 4880SOL    HW215540   4.904   2.639   6.659
 4881SOL     OW15541   2.064   5.611   6.864
 4881SOL    HW115542   2.155   5.595   6.903
 4881SOL    HW215543   1.995   5.572   6.925
 4882SOL     OW15544   6.277   1.787   5.320
 4882SOL    HW115545   6.190   1.784   5.270
 4882SOL    HW215546   6.265   1.743   5.409
 4883SOL     OW15547   4.885   4.861   2.485
 4883SOL    HW115548   4.801   4.825   2.446
 4883SOL    HW215549   4.911   4.806   2.565
 4884SOL     OW15550   4.734   0.105   1.093
 4884SOL    HW115551   4.647   0.071   1.058
 4884SOL    HW215552   4.767   0.178   1.034
 4885SOL     OW15553   2.636   6.145   2.323
 4885SOL    HW115554   2.585   6.183   2.246
 4885SOL    HW215555   2.647   6.215   2.393
 4886SOL     OW15556   0.317   6.609   6.005
 4886SOL    HW115557   0.234   6.645   6.046
 4886SOL    HW215558   0.397   6.650   6.050
 4887SOL     OW15559   6.841   1.425   3.255
 4887SOL    HW115560   6.889   1.488   3.316
 4887SOL    HW215561   6.742   1.433   3.270
 4888SOL     OW15562   1.947   6.268   3.835
 4888SOL    HW115563   1.991   6.260   3.925
 4888SOL    HW215564   1.969   6.187   3.781
 4889SOL     OW15565   0.550   1.489   0.195
 4889SOL    HW115566   0.644   1.516   0.176
 4889SOL    HW215567   0.548   1.396   0.231
 4890SOL     OW15568   0.294   1.448   4.290
 4890SOL    HW115569   0.310   1.460   4.388
 4890SOL    HW215570   0.377   1.473   4.240
 4891SOL     OW15571   1.228   5.740   6.943
 4891SOL    HW115572   1.216   5.670   7.013
 4891SOL    HW215573   1.183   5.825   6.973
 4892SOL     OW15574   2.172   5.705   2.468
 4892SOL    HW115575   2.135   5.734   2.556
 4892SOL    HW215576   2.099   5.705   2.400
 4893SOL     OW15577   6.854   4.404   6.472
 4893SOL    HW115578   6.950   4.431   6.474
 4893SOL    HW215579   6.847   4.307   6.450
 4894SOL     OW15580   2.731   0.181   2.562
 4894SOL    HW115581   2.692   0.093   2.591
 4894SOL    HW215582   2.671   0.255   2.590
 4895SOL     OW15583   0.770   4.235   1.375
 4895SOL    HW115584   0.762   4.135   1.372
 4895SOL    HW215585   0.832   4.266   1.302
 4896SOL     OW15586   2.901   5.415   2.794
 4896SOL    HW115587   2.977   5.352   2.811
 4896SOL    HW215588   2.931   5.487   2.731
 4897SOL     OW15589   2.948   5.107   5.941
 4897SOL    HW115590   2.984   5.078   5.853
 4897SOL    HW215591   2.977   5.042   6.012
 4898SOL     OW15592   5.687   2.368   4.985
 4898SOL    HW115593   5.745   2.290   4.959
 4898SOL    HW215594   5.745   2.443   5.017
 4899SOL     OW15595   6.664   4.932   2.867
 4899SOL    HW115596   6.672   4.844   2.820
 4899SOL    HW215597   6.751   4.982   2.859
 4900SOL     OW15598   1.480   6.565   5.943
 4900SOL    HW115599   1.528   6.556   5.855
 4900SOL    HW215600   1.469   6.474   5.984
 4901SOL     OW15601   2.735   6.509   4.973
 4901SOL    HW115602   2.669   6.463   4.912
 4901SOL    HW215603   2.689   6.535   5.057
 4902SOL     OW15604   2.306   2.894   3.778
 4902SOL    HW115605   2.322   2.873   3.682
 4902SOL    HW215606   2.368   2.841   3.835
 4903SOL     OW15607   3.729   6.340   0.259
 4903SOL    HW115608   3.765   6.349   0.352
 4903SOL    HW215609   3.719   6.430   0.218
 4904SOL     OW15610   2.242   6.852   4.007
 4904SOL    HW115611   2.186   6.924   3.966
 4904SOL    HW215612   2.328   6.844   3.955
 4905SOL     OW15613   4.296   2.254   2.250
 4905SOL    HW115614   4.314   2.330   2.186
 4905SOL    HW215615   4.197   2.245   2.263
 4906SOL     OW15616   3.577   0.664   0.099
 4906SOL    HW115617   3.566   0.758   0.129
 4906SOL    HW215618   3.649   0.620   0.153
 4907SOL     OW15619   4.276   6.328   2.423
 4907SOL    HW115620   4.323   6.246   2.457
 4907SOL    HW215621   4.177   6.317   2.434
 4908SOL     OW15622   3.791   5.280   0.186
 4908SOL    HW115623   3.830   5.210   0.126
 4908SOL    HW215624   3.820   5.371   0.154
 4909SOL     OW15625   6.036   0.393   6.665
 4909SOL    HW115626   5.993   0.306   6.690
 4909SOL    HW215627   6.015   0.415   6.570
 4910SOL     OW15628   5.525   6.813   5.377
 4910SOL    HW115629   5.567   6.901   5.353
 4910SOL    HW215630   5.439   6.830   5.424
 4911SOL     OW15631   6.875   2.200   5.502
 4911SOL    HW115632   6.884   2.241   5.592
 4911SOL    HW215633   6.848   2.104   5.511
 4912SOL     OW15634   5.082   1.424   1.420
 4912SOL    HW115635   5.118   1.438   1.328
 4912SOL    HW215636   5.145   1.367   1.473
 4913SOL     OW15637   4.052   3.506   4.089
 4913SOL    HW115638   4.035   3.483   3.993
 4913SOL    HW215639   4.110   3.587   4.094
 4914SOL     OW15640   3.033   0.662   4.563
 4914SOL    HW115641   3.039   0.729   4.490
 4914SOL    HW215642   3.124   0.637   4.594
 4915SOL     OW15643   4.468   0.175   4.293
 4915SOL    HW115644   4.535   0.238   4.253
 4915SOL    HW215645   4.496   0.151   4.385
 4916SOL     OW15646   2.253   1.600   3.034
 4916SOL    HW115647   2.250   1.520   2.973
 4916SOL    HW215648   2.314   1.669   2.995
 4917SOL     OW15649   1.723   3.926   0.675
 4917SOL    HW115650   1.671   3.951   0.593
 4917SOL    HW215651   1.676   3.852   0.722
 4918SOL     OW15652   3.164   0.061   2.881
 4918SOL    HW115653   3.215   0.124   2.939
 4918SOL    HW215654   3.066   0.067   2.903
 4919SOL     OW15655   1.938   2.067   2.582
 4919SOL    HW115656   2.008   2.010   2.540
 4919SOL    HW215657   1.975   2.109   2.666
 4920SOL     OW15658   4.539   0.133   0.056
 4920SOL    HW115659   4.556   0.037   0.035
 4920SOL    HW215660   4.441   0.147   0.075
 4921SOL     OW15661   2.436   4.333   1.467
 4921SOL    HW115662   2.497   4.255   1.453
 4921SOL    HW215663   2.346   4.301   1.494
 4922SOL     OW15664   0.904   3.328   4.756
 4922SOL    HW115665   0.905   3.385   4.838
 4922SOL    HW215666   0.953   3.375   4.682
 4923SOL     OW15667   4.834   0.670   1.282
 4923SOL    HW115668   4.776   0.715   1.349
 4923SOL    HW215669   4.902   0.613   1.328
 4924SOL     OW15670   2.135   3.170   5.139
 4924SOL    HW115671   2.165   3.191   5.232
 4924SOL    HW215672   2.214   3.142   5.084
 4925SOL     OW15673   6.052   6.172   0.869
 4925SOL    HW115674   5.960   6.190   0.833
 4925SOL    HW215675   6.062   6.213   0.959
 4926SOL     OW15676   5.029   2.549   1.520
 4926SOL    HW115677   4.962   2.501   1.578
 4926SOL    HW215678   5.074   2.621   1.573
 4927SOL     OW15679   4.117   3.471   3.473
 4927SOL    HW115680   4.034   3.506   3.429
 4927SOL    HW215681   4.115   3.493   3.571
 4928SOL     OW15682   0.197   0.184   6.476
 4928SOL    HW115683   0.221   0.207   6.381
 4928SOL    HW215684   0.221   0.088   6.493
 4929SOL     OW15685   0.849   4.327   5.003
 4929SOL    HW115686   0.918   4.391   5.035
 4929SOL    HW215687   0.787   4.373   4.939
 4930SOL     OW15688   0.209   0.459   0.759
 4930SOL    HW115689   0.123   0.490   0.799
 4930SOL    HW215690   0.244   0.528   0.696
 4931SOL     OW15691   0.888   6.767   7.000
 4931SOL    HW115692   0.899   6.818   0.055
 4931SOL    HW215693   0.847   6.678   7.020
 4932SOL     OW15694   2.094   3.287   1.816
 4932SOL    HW115695   2.131   3.353   1.881
 4932SOL    HW215696   2.154   3.207   1.812
 4933SOL     OW15697   2.057   0.309   4.282
 4933SOL    HW115698   2.100   0.400   4.285
 4933SOL    HW215699   2.128   0.239   4.280
 4934SOL     OW15700   1.125   5.088   4.169
 4934SOL    HW115701   1.098   5.181   4.142
 4934SOL    HW215702   1.209   5.063   4.121
 4935SOL     OW15703   2.137   0.689   0.168
 4935SOL    HW115704   2.088   0.774   0.187
 4935SOL    HW215705   2.219   0.709   0.114
 4936SOL     OW15706   2.193   6.157   2.418
 4936SOL    HW115707   2.241   6.222   2.477
 4936SOL    HW215708   2.099   6.187   2.404
 4937SOL     OW15709   0.522   3.849   6.035
 4937SOL    HW115710   0.602   3.791   6.022
 4937SOL    HW215711   0.456   3.831   5.961
 4938SOL     OW15712   3.497   4.898   1.747
 4938SOL    HW115713   3.528   4.807   1.774
 4938SOL    HW215714   3.458   4.945   1.827
 4939SOL     OW15715   0.719   2.122   2.482
 4939SOL    HW115716   0.695   2.035   2.441
 4939SOL    HW215717   0.697   2.197   2.419
 4940SOL     OW15718   0.009   1.628   5.328
 4940SOL    HW115719   0.037   1.676   5.411
 4940SOL    HW215720   0.088   1.619   5.267
 4941SOL     OW15721   3.993   2.756   5.349
 4941SOL    HW115722   4.038   2.837   5.312
 4941SOL    HW215723   4.017   2.676   5.293
 4942SOL     OW15724   5.216   3.503   4.076
 4942SOL    HW115725   5.307   3.511   4.036
 4942SOL    HW215726   5.216   3.433   4.147
 4943SOL     OW15727   5.645   3.770   6.613
 4943SOL    HW115728   5.692   3.745   6.698
 4943SOL    HW215729   5.625   3.868   6.615
 4944SOL     OW15730   2.390   4.443   1.222
 4944SOL    HW115731   2.375   4.407   1.315
 4944SOL    HW215732   2.344   4.384   1.156
 4945SOL     OW15733   1.501   0.915   4.467
 4945SOL    HW115734   1.404   0.931   4.448
 4945SOL    HW215735   1.556   0.981   4.415
 4946SOL     OW15736   0.888   5.230   0.121
 4946SOL    HW115737   0.973   5.247   0.072
 4946SOL    HW215738   0.905   5.167   0.197
 4947SOL     OW15739   2.481   1.507   2.160
 4947SOL    HW115740   2.421   1.562   2.101
 4947SOL    HW215741   2.506   1.560   2.241
 4948SOL     OW15742   1.653   2.403   3.267
 4948SOL    HW115743   1.650   2.406   3.367
 4948SOL    HW215744   1.590   2.471   3.230
 4949SOL     OW15745   0.187   3.807   5.908
 4949SOL    HW115746   0.247   3.885   5.891
 4949SOL    HW215747   0.206   3.769   5.998
 4950SOL     OW15748   2.029   3.907   5.303
 4950SOL    HW115749   2.020   3.964   5.221
 4950SOL    HW215750   2.012   3.962   5.385
 4951SOL     OW15751   6.189   6.561   4.630
 4951SOL    HW115752   6.281   6.533   4.602
 4951SOL    HW215753   6.194   6.613   4.715
 4952SOL     OW15754   0.128   6.988   6.204
 4952SOL    HW115755   0.137   0.011   6.288
 4952SOL    HW215756   0.213   6.995   6.152
 4953SOL     OW15757   2.409   0.511   3.874
 4953SOL    HW115758   2.486   0.568   3.901
 4953SOL    HW215759   2.394   0.519   3.775
 4954SOL     OW15760   2.261   3.980   6.487
 4954SOL    HW115761   2.225   3.912   6.423
 4954SOL    HW215762   2.355   4.002   6.463
 4955SOL     OW15763   3.511   6.113   6.924
 4955SOL    HW115764   3.537   6.034   6.868
 4955SOL    HW215765   3.587   6.138   6.984
 4956SOL     OW15766   2.500   0.226   5.649
 4956SOL    HW115767   2.532   0.273   5.567
 4956SOL    HW215768   2.400   0.220   5.647
 4957SOL     OW15769   5.909   3.317   0.505
 4957SOL    HW115770   5.896   3.416   0.514
 4957SOL    HW215771   5.989   3.299   0.449
 4958SOL     OW15772   1.928   6.016   5.942
 4958SOL    HW115773   1.987   5.937   5.958
 4958SOL    HW215774   1.885   6.045   6.027
 4959SOL     OW15775   6.513   1.369   1.563
 4959SOL    HW115776   6.439   1.402   1.504
 4959SOL    HW215777   6.501   1.407   1.655
 4960SOL     OW15778   4.550   4.464   3.861
 4960SOL    HW115779   4.608   4.517   3.799
 4960SOL    HW215780   4.599   4.444   3.945
 4961SOL     OW15781   2.806   0.697   6.159
 4961SOL    HW115782   2.877   0.630   6.138
 4961SOL    HW215783   2.847   0.775   6.206
 4962SOL     OW15784   5.483   2.724   0.873
 4962SOL    HW115785   5.458   2.803   0.929
 4962SOL    HW215786   5.432   2.644   0.904
 4963SOL     OW15787   1.890   5.275   1.397
 4963SOL    HW115788   1.914   5.198   1.456
 4963SOL    HW215789   1.970   5.304   1.344
 4964SOL     OW15790   2.141   0.018   4.913
 4964SOL    HW115791   2.102   0.105   4.943
 4964SOL    HW215792   2.232   0.034   4.876
 4965SOL     OW15793   0.899   6.718   2.567
 4965SOL    HW115794   0.970   6.732   2.497
 4965SOL    HW215795   0.846   6.802   2.578
 4966SOL     OW15796   2.324   6.528   4.836
 4966SOL    HW115797   2.327   6.440   4.884
 4966SOL    HW215798   2.251   6.526   4.769
 4967SOL     OW15799   3.099   5.177   6.252
 4967SOL    HW115800   3.182   5.232   6.242
 4967SOL    HW215801   3.098   5.103   6.184
 4968SOL     OW15802   6.972   1.226   3.576
 4968SOL    HW115803   6.880   1.206   3.541
 4968SOL    HW215804   7.006   1.146   3.626
 4969SOL     OW15805   0.530   5.870   2.840
 4969SOL    HW115806   0.554   5.789   2.893
 4969SOL    HW215807   0.599   5.941   2.853
 4970SOL     OW15808   2.442   1.323   1.207
 4970SOL    HW115809   2.528   1.321   1.156
 4970SOL    HW215810   2.368   1.288   1.149
 4971SOL     OW15811   6.303   5.876   3.097
 4971SOL    HW115812   6.236   5.892   3.169
 4971SOL    HW215813   6.391   5.916   3.123
 4972SOL     OW15814   1.075   4.061   0.596
 4972SOL    HW115815   1.137   4.070   0.519
 4972SOL    HW215816   1.109   4.116   0.673
 4973SOL     OW15817   0.589   0.423   1.608
 4973SOL    HW115818   0.608   0.342   1.663
 4973SOL    HW215819   0.498   0.458   1.630
 4974SOL     OW15820   6.056   5.076   0.818
 4974SOL    HW115821   6.043   4.981   0.845
 4974SOL    HW215822   6.134   5.083   0.755
 4975SOL     OW15823   5.600   3.894   0.393
 4975SOL    HW115824   5.650   3.954   0.331
 4975SOL    HW215825   5.638   3.801   0.388
 4976SOL     OW15826   0.933   0.801   4.895
 4976SOL    HW115827   1.024   0.765   4.873
 4976SOL    HW215828   0.865   0.728   4.884
 4977SOL     OW15829   3.810   5.102   6.987
 4977SOL    HW115830   3.890   5.045   6.974
 4977SOL    HW215831   3.728   5.045   6.992
 4978SOL     OW15832   5.600   4.825   4.565
 4978SOL    HW115833   5.590   4.735   4.522
 4978SOL    HW215834   5.556   4.894   4.508
 4979SOL     OW15835   0.109   6.711   6.506
 4979SOL    HW115836   0.130   6.614   6.488
 4979SOL    HW215837   0.015   6.730   6.479
 4980SOL     OW15838   5.407   5.109   2.846
 4980SOL    HW115839   5.461   5.148   2.771
 4980SOL    HW215840   5.366   5.024   2.816
 4981SOL     OW15841   3.593   5.715   2.368
 4981SOL    HW115842   3.547   5.633   2.332
 4981SOL    HW215843   3.652   5.753   2.297
 4982SOL     OW15844   2.961   2.362   5.636
 4982SOL    HW115845   3.019   2.439   5.609
 4982SOL    HW215846   2.878   2.362   5.581
 4983SOL     OW15847   5.636   4.543   4.465
 4983SOL    HW115848   5.546   4.534   4.508
 4983SOL    HW215849   5.691   4.462   4.486
 4984SOL     OW15850   4.766   4.102   2.877
 4984SOL    HW115851   4.775   4.198   2.905
 4984SOL    HW215852   4.723   4.097   2.788
 4985SOL     OW15853   5.580   6.244   3.205
 4985SOL    HW115854   5.551   6.289   3.289
 4985SOL    HW215855   5.678   6.225   3.209
 4986SOL     OW15856   6.419   5.030   0.383
 4986SOL    HW115857   6.430   4.941   0.428
 4986SOL    HW215858   6.483   5.036   0.307
 4987SOL     OW15859   1.669   6.404   2.503
 4987SOL    HW115860   1.728   6.443   2.432
 4987SOL    HW215861   1.574   6.426   2.483
 4988SOL     OW15862   6.270   0.740   3.254
 4988SOL    HW115863   6.299   0.778   3.166
 4988SOL    HW215864   6.299   0.645   3.261
 4989SOL     OW15865   5.177   6.951   1.822
 4989SOL    HW115866   5.199   7.010   1.744
 4989SOL    HW215867   5.157   7.006   1.902
 4990SOL     OW15868   3.372   2.165   6.744
 4990SOL    HW115869   3.352   2.207   6.655
 4990SOL    HW215870   3.430   2.226   6.797
 4991SOL     OW15871   6.575   5.143   3.708
 4991SOL    HW115872   6.661   5.154   3.657
 4991SOL    HW215873   6.552   5.229   3.753
 4992SOL     OW15874   5.609   0.680   2.256
 4992SOL    HW115875   5.655   0.711   2.173
 4992SOL    HW215876   5.678   0.645   2.320
 4993SOL     OW15877   4.137   5.963   5.131
 4993SOL    HW115878   4.103   5.883   5.082
 4993SOL    HW215879   4.064   6.032   5.136
 4994SOL     OW15880   2.535   5.855   4.632
 4994SOL    HW115881   2.474   5.887   4.559
 4994SOL    HW215882   2.501   5.767   4.667
 4995SOL     OW15883   1.035   0.859   5.487
 4995SOL    HW115884   1.059   0.802   5.566
 4995SOL    HW215885   1.115   0.912   5.459
 4996SOL     OW15886   6.888   0.624   3.300
 4996SOL    HW115887   6.890   0.716   3.338
 4996SOL    HW215888   6.976   0.603   3.259
 4997SOL     OW15889   4.350   2.448   1.621
 4997SOL    HW115890   4.322   2.362   1.663
 4997SOL    HW215891   4.348   2.439   1.522
 4998SOL     OW15892   2.158   3.707   4.353
 4998SOL    HW115893   2.206   3.620   4.338
 4998SOL    HW215894   2.102   3.700   4.436
 4999SOL     OW15895   0.068   3.438   4.428
 4999SOL    HW115896   0.048   3.534   4.447
 4999SOL    HW215897   7.029   3.400   4.368
 5000SOL     OW15898   3.214   6.940   3.182
 5000SOL    HW115899   3.267   6.862   3.149
 5000SOL    HW215900   3.234   6.955   3.279
 5001SOL     OW15901   1.031   5.887   2.100
 5001SOL    HW115902   1.102   5.916   2.164
 5001SOL    HW215903   1.073   5.838   2.024
 5002SOL     OW15904   0.342   5.282   2.067
 5002SOL    HW115905   0.394   5.363   2.094
 5002SOL    HW215906   0.405   5.209   2.044
 5003SOL     OW15907   3.963   6.177   3.244
 5003SOL    HW115908   3.972   6.158   3.146
 5003SOL    HW215909   4.053   6.177   3.287
 5004SOL     OW15910   2.173   4.357   5.930
 5004SOL    HW115911   2.130   4.358   5.840
 5004SOL    HW215912   2.262   4.403   5.925
 5005SOL     OW15913   2.788   2.825   6.119
 5005SOL    HW115914   2.834   2.893   6.062
 5005SOL    HW215915   2.742   2.870   6.194
 5006SOL     OW15916   5.480   0.806   1.466
 5006SOL    HW115917   5.392   0.769   1.438
 5006SOL    HW215918   5.469   0.865   1.546
 5007SOL     OW15919   0.050   0.211   1.037
 5007SOL    HW115920   0.149   0.214   1.032
 5007SOL    HW215921   0.014   0.303   1.051
 5008SOL     OW15922   5.661   5.644   1.526
 5008SOL    HW115923   5.699   5.709   1.592
 5008SOL    HW215924   5.733   5.616   1.462
 5009SOL     OW15925   6.997   1.939   0.135
 5009SOL    HW115926   0.020   1.990   0.068
 5009SOL    HW215927   0.028   1.895   0.201
 5010SOL     OW15928   4.279   2.607   0.761
 5010SOL    HW115929   4.265   2.508   0.764
 5010SOL    HW215930   4.374   2.626   0.735
 5011SOL     OW15931   1.661   4.576   2.029
 5011SOL    HW115932   1.583   4.597   1.969
 5011SOL    HW215933   1.732   4.530   1.976
 5012SOL     OW15934   5.927   2.503   5.091
 5012SOL    HW115935   5.943   2.593   5.050
 5012SOL    HW215936   6.010   2.447   5.081
 5013SOL     OW15937   5.486   1.350   6.301
 5013SOL    HW115938   5.469   1.296   6.218
 5013SOL    HW215939   5.567   1.315   6.348
 5014SOL     OW15940   6.389   4.114   0.333
 5014SOL    HW115941   6.409   4.050   0.408
 5014SOL    HW215942   6.304   4.163   0.354
 5015SOL     OW15943   4.882   0.663   4.643
 5015SOL    HW115944   4.786   0.672   4.616
 5015SOL    HW215945   4.938   0.724   4.587
 5016SOL     OW15946   1.332   2.977   5.112
 5016SOL    HW115947   1.355   2.993   5.016
 5016SOL    HW215948   1.379   2.894   5.144
 5017SOL     OW15949   1.324   2.798   1.407
 5017SOL    HW115950   1.326   2.882   1.460
 5017SOL    HW215951   1.413   2.783   1.364
 5018SOL     OW15952   1.105   5.135   2.719
 5018SOL    HW115953   1.111   5.040   2.751
 5018SOL    HW215954   1.183   5.186   2.754
 5019SOL     OW15955   2.147   6.215   5.791
 5019SOL    HW115956   2.216   6.152   5.756
 5019SOL    HW215957   2.089   6.166   5.856
 5020SOL     OW15958   6.555   6.943   6.412
 5020SOL    HW115959   6.624   6.986   6.354
 5020SOL    HW215960   6.490   6.893   6.355
 5021SOL     OW15961   1.227   1.404   0.895
 5021SOL    HW115962   1.144   1.367   0.938
 5021SOL    HW215963   1.217   1.399   0.796
 5022SOL     OW15964   1.740   2.934   1.435
 5022SOL    HW115965   1.688   2.992   1.498
 5022SOL    HW215966   1.833   2.921   1.469
 5023SOL     OW15967   0.623   4.073   1.931
 5023SOL    HW115968   0.633   3.973   1.935
 5023SOL    HW215969   0.711   4.115   1.913
 5024SOL     OW15970   6.067   5.676   1.246
 5024SOL    HW115971   6.135   5.618   1.202
 5024SOL    HW215972   6.076   5.770   1.213
 5025SOL     OW15973   4.111   2.263   4.002
 5025SOL    HW115974   4.185   2.324   4.030
 5025SOL    HW215975   4.150   2.175   3.972
 5026SOL     OW15976   6.980   5.802   5.574
 5026SOL    HW115977   7.016   5.720   5.620
 5026SOL    HW215978   6.971   5.784   5.476
 5027SOL     OW15979   5.979   6.496   1.048
 5027SOL    HW115980   6.005   6.541   0.963
 5027SOL    HW215981   6.055   6.503   1.113
 5028SOL     OW15982   7.013   1.335   3.053
 5028SOL    HW115983   6.948   1.353   3.127
 5028SOL    HW215984   0.057   1.279   3.088
 5029SOL     OW15985   6.184   2.396   2.545
 5029SOL    HW115986   6.119   2.382   2.471
 5029SOL    HW215987   6.200   2.493   2.559
 5030SOL     OW15988   6.956   6.318   6.948
 5030SOL    HW115989   0.025   6.310   6.947
 5030SOL    HW215990   6.921   6.287   0.005
 5031SOL     OW15991   6.947   1.361   6.225
 5031SOL    HW115992   6.879   1.431   6.244
 5031SOL    HW215993   6.901   1.273   6.213
 5032SOL     OW15994   2.743   1.683   6.123
 5032SOL    HW115995   2.841   1.678   6.109
 5032SOL    HW215996   2.724   1.728   6.210
 5033SOL     OW15997   2.114   0.136   6.622
 5033SOL    HW115998   2.080   0.077   6.695
 5033SOL    HW215999   2.072   0.227   6.630
 5034SOL     OW16000   6.313   0.235   3.681
 5034SOL    HW116001   6.256   0.296   3.736
 5034SOL    HW216002   6.409   0.251   3.702
 5035SOL     OW16003   6.900   4.023   5.432
 5035SOL    HW116004   6.927   3.937   5.390
 5035SOL    HW216005   6.803   4.041   5.412
 5036SOL     OW16006   0.253   5.135   6.898
 5036SOL    HW116007   0.190   5.072   6.852
 5036SOL    HW216008   0.255   5.115   6.996
 5037SOL     OW16009   5.337   4.412   1.875
 5037SOL    HW116010   5.324   4.377   1.968
 5037SOL    HW216011   5.435   4.421   1.857
 5038SOL     OW16012   3.271   3.070   5.294
 5038SOL    HW116013   3.307   3.094   5.384
 5038SOL    HW216014   3.326   3.114   5.223
 5039SOL     OW16015   2.002   3.367   5.715
 5039SOL    HW116016   2.041   3.331   5.630
 5039SOL    HW216017   1.904   3.381   5.704
 5040SOL     OW16018   1.200   6.360   6.240
 5040SOL    HW116019   1.277   6.348   6.177
 5040SOL    HW216020   1.115   6.368   6.187
 5041SOL     OW16021   1.547   1.978   1.822
 5041SOL    HW116022   1.589   2.044   1.884
 5041SOL    HW216023   1.559   1.886   1.858
 5042SOL     OW16024   6.222   3.345   0.842
 5042SOL    HW116025   6.214   3.378   0.748
 5042SOL    HW216026   6.283   3.266   0.846
 5043SOL     OW16027   3.554   0.239   0.033
 5043SOL    HW116028   3.500   0.160   0.004
 5043SOL    HW216029   3.581   0.292   6.984
 5044SOL     OW16030   0.410   6.428   0.850
 5044SOL    HW116031   0.375   6.425   0.944
 5044SOL    HW216032   0.334   6.415   0.786
 5045SOL     OW16033   5.979   6.105   6.667
 5045SOL    HW116034   6.034   6.182   6.698
 5045SOL    HW216035   6.022   6.063   6.587
 5046SOL     OW16036   3.347   4.103   2.978
 5046SOL    HW116037   3.258   4.059   2.977
 5046SOL    HW216038   3.363   4.147   2.889
 5047SOL     OW16039   1.185   3.908   2.491
 5047SOL    HW116040   1.238   3.901   2.406
 5047SOL    HW216041   1.190   3.822   2.541
 5048SOL     OW16042   0.779   1.180   2.870
 5048SOL    HW116043   0.744   1.159   2.962
 5048SOL    HW216044   0.852   1.116   2.847
 5049SOL     OW16045   4.987   2.059   6.781
 5049SOL    HW116046   5.002   2.155   6.757
 5049SOL    HW216047   5.034   2.001   6.715
 5050SOL     OW16048   1.903   0.341   1.127
 5050SOL    HW116049   1.867   0.261   1.079
 5050SOL    HW216050   1.883   0.333   1.225
 5051SOL     OW16051   4.724   3.957   1.213
 5051SOL    HW116052   4.629   3.946   1.242
 5051SOL    HW216053   4.743   4.054   1.195
 5052SOL     OW16054   2.267   1.447   5.638
 5052SOL    HW116055   2.294   1.353   5.617
 5052SOL    HW216056   2.284   1.505   5.558
 5053SOL     OW16057   1.704   4.074   3.401
 5053SOL    HW116058   1.699   4.166   3.439
 5053SOL    HW216059   1.656   4.010   3.461
 5054SOL     OW16060   3.075   5.123   3.928
 5054SOL    HW116061   3.095   5.030   3.897
 5054SOL    HW216062   3.075   5.125   4.028
 5055SOL     OW16063   1.120   2.053   5.863
 5055SOL    HW116064   1.063   2.037   5.944
 5055SOL    HW216065   1.081   2.005   5.785
 5056SOL     OW16066   5.649   4.155   6.934
 5056SOL    HW116067   5.700   4.190   6.855
 5056SOL    HW216068   5.561   4.118   6.903
 5057SOL     OW16069   0.790   6.849   3.433
 5057SOL    HW116070   0.720   6.866   3.502
 5057SOL    HW216071   0.770   6.762   3.387
 5058SOL     OW16072   3.253   4.092   5.337
 5058SOL    HW116073   3.329   4.088   5.402
 5058SOL    HW216074   3.169   4.060   5.382
 5059SOL     OW16075   6.629   0.687   3.205
 5059SOL    HW116076   6.608   0.597   3.245
 5059SOL    HW216077   6.727   0.704   3.212
 5060SOL     OW16078   0.375   2.105   6.091
 5060SOL    HW116079   0.365   2.034   6.161
 5060SOL    HW216080   0.433   2.178   6.126
 5061SOL     OW16081   4.782   3.020   0.737
 5061SOL    HW116082   4.688   3.040   0.709
 5061SOL    HW216083   4.786   2.927   0.775
 5062SOL     OW16084   6.038   6.964   3.409
 5062SOL    HW116085   5.973   6.897   3.445
 5062SOL    HW216086   6.123   6.919   3.383
 5063SOL     OW16087   1.031   0.107   2.401
 5063SOL    HW116088   1.070   0.016   2.413
 5063SOL    HW216089   1.100   0.167   2.360
 5064SOL     OW16090   5.197   3.778   0.607
 5064SOL    HW116091   5.195   3.828   0.694
 5064SOL    HW216092   5.251   3.828   0.540
 5065SOL     OW16093   2.608   0.360   5.444
 5065SOL    HW116094   2.680   0.323   5.385
 5065SOL    HW216095   2.613   0.460   5.445
 5066SOL     OW16096   5.154   4.669   2.480
 5066SOL    HW116097   5.106   4.621   2.406
 5066SOL    HW216098   5.244   4.697   2.449
 5067SOL     OW16099   4.555   1.119   1.821
 5067SOL    HW116100   4.475   1.170   1.792
 5067SOL    HW216101   4.575   1.138   1.917
 5068SOL     OW16102   2.973   4.362   0.856
 5068SOL    HW116103   2.893   4.418   0.872
 5068SOL    HW216104   2.949   4.265   0.863
 5069SOL     OW16105   1.875   3.510   4.729
 5069SOL    HW116106   1.969   3.487   4.706
 5069SOL    HW216107   1.874   3.573   4.807
 5070SOL     OW16108   5.019   4.075   4.267
 5070SOL    HW116109   4.960   3.995   4.272
 5070SOL    HW216110   4.999   4.136   4.344
 5071SOL     OW16111   4.931   1.745   4.895
 5071SOL    HW116112   4.920   1.844   4.880
 5071SOL    HW216113   4.855   1.712   4.952
 5072SOL     OW16114   0.975   6.330   0.414
 5072SOL    HW116115   0.914   6.261   0.452
 5072SOL    HW216116   1.025   6.290   0.337
 5073SOL     OW16117   0.337   6.530   2.538
 5073SOL    HW116118   0.354   6.558   2.632
 5073SOL    HW216119   0.424   6.507   2.494
 5074SOL     OW16120   3.243   3.415   6.983
 5074SOL    HW116121   3.225   3.365   6.898
 5074SOL    HW216122   3.341   3.433   6.991
 5075SOL     OW16123   0.983   1.682   6.551
 5075SOL    HW116124   0.973   1.594   6.597
 5075SOL    HW216125   1.023   1.748   6.614
 5076SOL     OW16126   3.875   0.695   0.735
 5076SOL    HW116127   3.966   0.671   0.769
 5076SOL    HW216128   3.822   0.612   0.718
 5077SOL     OW16129   0.271   3.246   5.058
 5077SOL    HW116130   0.367   3.264   5.037
 5077SOL    HW216131   0.219   3.239   4.973
 5078SOL     OW16132   0.951   1.876   3.400
 5078SOL    HW116133   0.981   1.956   3.452
 5078SOL    HW216134   0.940   1.902   3.304
 5079SOL     OW16135   2.159   4.396   5.650
 5079SOL    HW116136   2.189   4.338   5.575
 5079SOL    HW216137   2.229   4.465   5.669
 5080SOL     OW16138   6.392   6.315   6.028
 5080SOL    HW116139   6.330   6.258   5.974
 5080SOL    HW216140   6.434   6.259   6.100
 5081SOL     OW16141   3.865   3.100   4.655
 5081SOL    HW116142   3.869   3.008   4.615
 5081SOL    HW216143   3.894   3.167   4.587
 5082SOL     OW16144   5.767   5.446   5.751
 5082SOL    HW116145   5.859   5.412   5.768
 5082SOL    HW216146   5.740   5.508   5.825
 5083SOL     OW16147   2.578   6.965   3.008
 5083SOL    HW116148   2.542   0.015   2.961
 5083SOL    HW216149   2.661   6.934   2.962
 5084SOL     OW16150   1.071   4.993   4.439
 5084SOL    HW116151   1.091   5.042   4.354
 5084SOL    HW216152   1.025   5.054   4.503
 5085SOL     OW16153   5.263   3.106   6.782
 5085SOL    HW116154   5.186   3.047   6.755
 5085SOL    HW216155   5.228   3.188   6.828
 5086SOL     OW16156   6.946   6.036   3.294
 5086SOL    HW116157   7.014   6.083   3.351
 5086SOL    HW216158   6.955   6.068   3.199
 5087SOL     OW16159   0.119   5.751   3.456
 5087SOL    HW116160   0.158   5.790   3.539
 5087SOL    HW216161   0.023   5.776   3.449
 5088SOL     OW16162   5.399   1.566   5.183
 5088SOL    HW116163   5.355   1.638   5.237
 5088SOL    HW216164   5.368   1.476   5.216
 5089SOL     OW16165   5.257   2.871   3.388
 5089SOL    HW116166   5.314   2.927   3.447
 5089SOL    HW216167   5.162   2.872   3.421
 5090SOL     OW16168   1.894   3.438   3.176
 5090SOL    HW116169   1.950   3.499   3.120
 5090SOL    HW216170   1.829   3.491   3.230
 5091SOL     OW16171   1.971   6.357   2.549
 5091SOL    HW116172   1.925   6.441   2.579
 5091SOL    HW216173   1.949   6.340   2.453
 5092SOL     OW16174   2.886   2.985   1.465
 5092SOL    HW116175   2.964   2.995   1.528
 5092SOL    HW216176   2.802   2.974   1.518
 5093SOL     OW16177   3.123   1.581   1.425
 5093SOL    HW116178   3.107   1.494   1.473
 5093SOL    HW216179   3.065   1.585   1.344
 5094SOL     OW16180   1.269   6.322   4.827
 5094SOL    HW116181   1.351   6.354   4.875
 5094SOL    HW216182   1.200   6.394   4.826
 5095SOL     OW16183   0.141   2.166   4.513
 5095SOL    HW116184   0.177   2.254   4.547
 5095SOL    HW216185   0.210   2.123   4.455
 5096SOL     OW16186   4.274   3.781   0.642
 5096SOL    HW116187   4.258   3.876   0.669
 5096SOL    HW216188   4.187   3.736   0.626
 5097SOL     OW16189   1.725   0.340   0.039
 5097SOL    HW116190   1.662   0.269   0.009
 5097SOL    HW216191   1.813   0.328   7.023
 5098SOL     OW16192   1.321   0.589   0.846
 5098SOL    HW116193   1.415   0.558   0.833
 5098SOL    HW216194   1.282   0.544   0.926
 5099SOL     OW16195   0.300   0.116   5.811
 5099SOL    HW116196   0.287   0.112   5.712
 5099SOL    HW216197   0.354   0.037   5.840
 5100SOL     OW16198   4.436   6.825   5.309
 5100SOL    HW116199   4.419   6.763   5.386
 5100SOL    HW216200   4.512   6.789   5.254
 5101SOL     OW16201   4.771   6.840   0.499
 5101SOL    HW116202   4.702   6.767   0.502
 5101SOL    HW216203   4.730   6.922   0.459
 5102SOL     OW16204   5.556   0.468   5.498
 5102SOL    HW116205   5.608   0.551   5.517
 5102SOL    HW216206   5.577   0.398   5.566
 5103SOL     OW16207   0.550   0.919   3.979
 5103SOL    HW116208   0.620   0.936   3.910
 5103SOL    HW216209   0.553   0.823   4.007
 5104SOL     OW16210   2.487   6.546   2.303
 5104SOL    HW116211   2.482   6.566   2.206
 5104SOL    HW216212   2.401   6.571   2.347
 5105SOL     OW16213   4.003   3.160   0.161
 5105SOL    HW116214   4.066   3.231   0.192
 5105SOL    HW216215   4.031   3.071   0.198
 5106SOL     OW16216   3.881   0.471   1.550
 5106SOL    HW116217   3.796   0.428   1.581
 5106SOL    HW216218   3.876   0.570   1.564
 5107SOL     OW16219   4.161   0.897   0.486
 5107SOL    HW116220   4.185   0.970   0.550
 5107SOL    HW216221   4.204   0.914   0.398
 5108SOL     OW16222   2.867   3.607   3.844
 5108SOL    HW116223   2.912   3.584   3.757
 5108SOL    HW216224   2.768   3.602   3.832
 5109SOL     OW16225   0.739   1.360   0.904
 5109SOL    HW116226   0.837   1.369   0.924
 5109SOL    HW216227   0.726   1.284   0.840
 5110SOL     OW16228   0.686   0.107   6.549
 5110SOL    HW116229   0.758   0.122   6.616
 5110SOL    HW216230   0.714   0.147   6.461
 5111SOL     OW16231   0.658   0.808   6.085
 5111SOL    HW116232   0.729   0.825   6.153
 5111SOL    HW216233   0.611   0.894   6.064
 5112SOL     OW16234   0.533   0.498   2.476
 5112SOL    HW116235   0.485   0.504   2.563
 5112SOL    HW216236   0.529   0.587   2.430
 5113SOL     OW16237   1.843   6.827   1.696
 5113SOL    HW116238   1.943   6.829   1.705
 5113SOL    HW216239   1.818   6.770   1.618
 5114SOL     OW16240   3.784   2.812   0.394
 5114SOL    HW116241   3.734   2.742   0.344
 5114SOL    HW216242   3.824   2.773   0.477
 5115SOL     OW16243   2.179   4.577   5.258
 5115SOL    HW116244   2.180   4.583   5.158
 5115SOL    HW216245   2.132   4.493   5.285
 5116SOL     OW16246   5.713   6.409   6.425
 5116SOL    HW116247   5.661   6.398   6.341
 5116SOL    HW216248   5.809   6.385   6.408
 5117SOL     OW16249   1.635   4.858   4.250
 5117SOL    HW116250   1.595   4.950   4.249
 5117SOL    HW216251   1.596   4.805   4.325
 5118SOL     OW16252   4.648   6.102   0.903
 5118SOL    HW116253   4.618   6.010   0.930
 5118SOL    HW216254   4.747   6.109   0.910
 5119SOL     OW16255   4.895   0.403   1.688
 5119SOL    HW116256   4.842   0.472   1.738
 5119SOL    HW216257   4.837   0.326   1.665
 5120SOL     OW16258   5.328   1.138   3.590
 5120SOL    HW116259   5.324   1.055   3.647
 5120SOL    HW216260   5.241   1.186   3.595
 5121SOL     OW16261   2.240   2.701   0.136
 5121SOL    HW116262   2.219   2.753   0.053
 5121SOL    HW216263   2.172   2.630   0.149
 5122SOL     OW16264   3.374   0.700   4.114
 5122SOL    HW116265   3.424   0.651   4.043
 5122SOL    HW216266   3.398   0.797   4.112
 5123SOL     OW16267   5.995   3.433   4.972
 5123SOL    HW116268   6.084   3.477   4.988
 5123SOL    HW216269   5.990   3.403   4.876
 5124SOL     OW16270   2.635   5.464   5.734
 5124SOL    HW116271   2.571   5.402   5.689
 5124SOL    HW216272   2.670   5.421   5.817
 5125SOL     OW16273   6.342   3.090   4.487
 5125SOL    HW116274   6.348   2.993   4.510
 5125SOL    HW216275   6.316   3.143   4.567
 5126SOL     OW16276   6.471   4.901   6.202
 5126SOL    HW116277   6.499   4.898   6.106
 5126SOL    HW216278   6.375   4.928   6.208
 5127SOL     OW16279   6.552   3.859   0.072
 5127SOL    HW116280   6.558   3.953   0.105
 5127SOL    HW216281   6.571   3.858   7.004
 5128SOL     OW16282   0.418   0.008   0.438
 5128SOL    HW116283   0.329   0.035   0.473
 5128SOL    HW216284   0.422   0.028   0.340
 5129SOL     OW16285   4.804   0.513   2.343
 5129SOL    HW116286   4.901   0.532   2.356
 5129SOL    HW216287   4.761   0.591   2.299
 5130SOL     OW16288   1.540   5.949   4.338
 5130SOL    HW116289   1.509   6.020   4.402
 5130SOL    HW216290   1.640   5.947   4.337
 5131SOL     OW16291   2.830   4.978   3.487
 5131SOL    HW116292   2.784   4.917   3.552
 5131SOL    HW216293   2.813   4.948   3.394
 5132SOL     OW16294   3.252   1.369   5.902
 5132SOL    HW116295   3.323   1.439   5.907
 5132SOL    HW216296   3.164   1.412   5.881
 5133SOL     OW16297   2.974   5.647   5.984
 5133SOL    HW116298   2.946   5.619   6.076
 5133SOL    HW216299   3.065   5.688   5.987
 5134SOL     OW16300   6.764   0.277   2.165
 5134SOL    HW116301   6.675   0.235   2.181
 5134SOL    HW216302   6.836   0.219   2.203
 5135SOL     OW16303   6.213   4.057   3.443
 5135SOL    HW116304   6.187   4.135   3.500
 5135SOL    HW216305   6.187   3.972   3.488
 5136SOL     OW16306   6.054   0.904   5.861
 5136SOL    HW116307   6.013   0.995   5.856
 5136SOL    HW216308   6.153   0.912   5.869
 5137SOL     OW16309   4.993   3.377   5.472
 5137SOL    HW116310   4.904   3.347   5.506
 5137SOL    HW216311   5.046   3.298   5.442
 5138SOL     OW16312   3.845   3.888   3.780
 5138SOL    HW116313   3.815   3.965   3.723
 5138SOL    HW216314   3.847   3.805   3.724
 5139SOL     OW16315   1.148   6.739   4.574
 5139SOL    HW116316   1.223   6.787   4.529
 5139SOL    HW216317   1.171   6.722   4.670
 5140SOL     OW16318   3.202   2.225   5.610
 5140SOL    HW116319   3.119   2.279   5.621
 5140SOL    HW216320   3.203   2.182   5.520
 5141SOL     OW16321   6.609   3.238   1.290
 5141SOL    HW116322   6.564   3.179   1.223
 5141SOL    HW216323   6.544   3.306   1.324
 5142SOL     OW16324   5.928   6.707   5.463
 5142SOL    HW116325   5.846   6.663   5.426
 5142SOL    HW216326   5.903   6.793   5.508
 5143SOL     OW16327   0.895   4.036   5.516
 5143SOL    HW116328   0.906   4.018   5.614
 5143SOL    HW216329   0.982   4.070   5.479
 5144SOL     OW16330   1.679   3.630   6.179
 5144SOL    HW116331   1.623   3.548   6.166
 5144SOL    HW216332   1.636   3.708   6.133
 5145SOL     OW16333   4.416   6.583   6.904
 5145SOL    HW116334   4.378   6.663   6.857
 5145SOL    HW216335   4.343   6.516   6.921
 5146SOL     OW16336   3.615   4.236   5.033
 5146SOL    HW116337   3.640   4.295   4.956
 5146SOL    HW216338   3.688   4.236   5.101
 5147SOL     OW16339   6.132   5.053   3.599
 5147SOL    HW116340   6.172   5.139   3.631
 5147SOL    HW216341   6.076   5.071   3.518
 5148SOL     OW16342   0.693   0.499   2.006
 5148SOL    HW116343   0.763   0.542   2.063
 5148SOL    HW216344   0.630   0.569   1.971
 5149SOL     OW16345   5.851   4.935   4.185
 5149SOL    HW116346   5.894   4.950   4.275
 5149SOL    HW216347   5.881   5.006   4.122
 5150SOL     OW16348   2.434   4.397   4.164
 5150SOL    HW116349   2.531   4.396   4.188
 5150SOL    HW216350   2.411   4.485   4.121
 5151SOL     OW16351   6.012   3.704   1.482
 5151SOL    HW116352   5.918   3.692   1.449
 5151SOL    HW216353   6.033   3.802   1.485
 5152SOL     OW16354   1.093   5.918   6.263
 5152SOL    HW116355   1.105   5.874   6.174
 5152SOL    HW216356   1.041   6.003   6.252
 5153SOL     OW16357   1.057   2.020   0.884
 5153SOL    HW116358   1.107   2.100   0.916
 5153SOL    HW216359   0.974   2.050   0.836
 5154SOL     OW16360   1.610   3.172   6.681
 5154SOL    HW116361   1.538   3.205   6.620
 5154SOL    HW216362   1.690   3.146   6.626
 5155SOL     OW16363   4.074   1.228   0.855
 5155SOL    HW116364   4.046   1.149   0.801
 5155SOL    HW216365   4.134   1.198   0.930
 5156SOL     OW16366   5.491   4.817   4.799
 5156SOL    HW116367   5.551   4.834   4.877
 5156SOL    HW216368   5.544   4.819   4.715
 5157SOL     OW16369   3.305   2.100   2.330
 5157SOL    HW116370   3.242   2.178   2.330
 5157SOL    HW216371   3.252   2.016   2.342
 5158SOL     OW16372   3.152   2.170   0.671
 5158SOL    HW116373   3.187   2.118   0.748
 5158SOL    HW216374   3.063   2.210   0.695
 5159SOL     OW16375   6.286   4.318   6.476
 5159SOL    HW116376   6.352   4.319   6.402
 5159SOL    HW216377   6.261   4.224   6.498
 5160SOL     OW16378   6.625   5.774   3.487
 5160SOL    HW116379   6.602   5.857   3.537
 5160SOL    HW216380   6.609   5.694   3.545
 5161SOL     OW16381   0.909   3.173   0.228
 5161SOL    HW116382   0.865   3.260   0.249
 5161SOL    HW216383   0.840   3.108   0.195
 5162SOL     OW16384   0.757   5.732   2.527
 5162SOL    HW116385   0.720   5.694   2.612
 5162SOL    HW216386   0.724   5.825   2.515
 5163SOL     OW16387   3.449   0.139   0.725
 5163SOL    HW116388   3.522   0.072   0.738
 5163SOL    HW216389   3.470   0.221   0.777
 5164SOL     OW16390   2.821   3.344   6.484
 5164SOL    HW116391   2.844   3.402   6.563
 5164SOL    HW216392   2.774   3.262   6.515
 5165SOL     OW16393   1.052   4.362   6.619
 5165SOL    HW116394   1.103   4.376   6.703
 5165SOL    HW216395   1.078   4.275   6.578
 5166SOL     OW16396   1.766   4.753   2.710
 5166SOL    HW116397   1.830   4.704   2.769
 5166SOL    HW216398   1.692   4.792   2.766
 5167SOL     OW16399   6.502   4.502   4.967
 5167SOL    HW116400   6.437   4.576   4.980
 5167SOL    HW216401   6.518   4.455   5.054
 5168SOL     OW16402   4.992   2.231   2.946
 5168SOL    HW116403   4.922   2.291   2.907
 5168SOL    HW216404   4.949   2.150   2.984
 5169SOL     OW16405   4.759   2.007   3.464
 5169SOL    HW116406   4.831   2.057   3.416
 5169SOL    HW216407   4.792   1.979   3.554
 5170SOL     OW16408   1.108   3.750   5.373
 5170SOL    HW116409   1.045   3.771   5.298
 5170SOL    HW216410   1.118   3.651   5.381
 5171SOL     OW16411   0.246   4.652   5.220
 5171SOL    HW116412   0.256   4.605   5.133
 5171SOL    HW216413   0.336   4.682   5.252
 5172SOL     OW16414   1.465   4.851   3.087
 5172SOL    HW116415   1.459   4.839   3.186
 5172SOL    HW216416   1.527   4.926   3.066
 5173SOL     OW16417   4.190   3.865   6.292
 5173SOL    HW116418   4.149   3.928   6.226
 5173SOL    HW216419   4.165   3.894   6.385
 5174SOL     OW16420   2.378   6.411   4.083
 5174SOL    HW116421   2.427   6.445   4.163
 5174SOL    HW216422   2.441   6.365   4.022
 5175SOL     OW16423   2.318   3.832   6.757
 5175SOL    HW116424   2.271   3.785   6.831
 5175SOL    HW216425   2.262   3.909   6.724
 5176SOL     OW16426   4.883   5.252   6.485
 5176SOL    HW116427   4.912   5.210   6.399
 5176SOL    HW216428   4.795   5.214   6.513
 5177SOL     OW16429   4.969   6.558   1.354
 5177SOL    HW116430   4.973   6.656   1.373
 5177SOL    HW216431   4.935   6.510   1.434
 5178SOL     OW16432   0.811   4.686   1.680
 5178SOL    HW116433   0.773   4.611   1.733
 5178SOL    HW216434   0.830   4.763   1.741
 5179SOL     OW16435   4.929   4.552   3.457
 5179SOL    HW116436   5.010   4.571   3.512
 5179SOL    HW216437   4.950   4.568   3.360
 5180SOL     OW16438   3.647   0.772   1.444
 5180SOL    HW116439   3.609   0.842   1.383
 5180SOL    HW216440   3.586   0.692   1.445
 5181SOL     OW16441   0.013   0.097   0.351
 5181SOL    HW116442   0.045   0.149   0.430
 5181SOL    HW216443   0.016   0.155   0.270
 5182SOL     OW16444   4.646   4.494   1.861
 5182SOL    HW116445   4.643   4.454   1.770
 5182SOL    HW216446   4.621   4.425   1.929
 5183SOL     OW16447   3.958   1.499   2.683
 5183SOL    HW116448   3.950   1.407   2.722
 5183SOL    HW216449   3.890   1.559   2.726
 5184SOL     OW16450   2.363   1.874   3.247
 5184SOL    HW116451   2.295   1.912   3.184
 5184SOL    HW216452   2.430   1.820   3.195
 5185SOL     OW16453   4.824   0.276   2.766
 5185SOL    HW116454   4.856   0.185   2.739
 5185SOL    HW216455   4.893   0.344   2.741
 5186SOL     OW16456   6.369   2.949   5.625
 5186SOL    HW116457   6.397   2.857   5.654
 5186SOL    HW216458   6.360   2.952   5.526
 5187SOL     OW16459   1.695   5.500   4.909
 5187SOL    HW116460   1.778   5.444   4.909
 5187SOL    HW216461   1.672   5.526   4.815
 5188SOL     OW16462   6.270   5.832   1.708
 5188SOL    HW116463   6.243   5.906   1.769
 5188SOL    HW216464   6.361   5.851   1.670
 5189SOL     OW16465   5.057   6.212   0.084
 5189SOL    HW116466   4.961   6.206   0.112
 5189SOL    HW216467   5.061   6.236   7.017
 5190SOL     OW16468   1.778   3.288   2.710
 5190SOL    HW116469   1.796   3.278   2.612
 5190SOL    HW216470   1.752   3.383   2.730
 5191SOL     OW16471   3.375   5.688   3.069
 5191SOL    HW116472   3.323   5.702   3.153
 5191SOL    HW216473   3.402   5.777   3.031
 5192SOL     OW16474   2.142   5.955   1.462
 5192SOL    HW116475   2.227   5.929   1.416
 5192SOL    HW216476   2.143   5.921   1.556
 5193SOL     OW16477   4.579   6.225   6.065
 5193SOL    HW116478   4.649   6.260   6.003
 5193SOL    HW216479   4.590   6.126   6.075
 5194SOL     OW16480   2.958   2.590   6.944
 5194SOL    HW116481   2.870   2.573   6.988
 5194SOL    HW216482   2.942   2.618   6.849
 5195SOL     OW16483   0.394   0.300   4.109
 5195SOL    HW116484   0.331   0.361   4.156
 5195SOL    HW216485   0.391   0.318   4.011
 5196SOL     OW16486   4.327   6.783   2.294
 5196SOL    HW116487   4.370   6.697   2.320
 5196SOL    HW216488   4.346   6.853   2.363
 5197SOL     OW16489   1.325   3.828   6.855
 5197SOL    HW116490   1.263   3.809   6.779
 5197SOL    HW216491   1.273   3.855   6.936
 5198SOL     OW16492   4.326   5.350   3.324
 5198SOL    HW116493   4.403   5.377   3.383
 5198SOL    HW216494   4.241   5.383   3.365
 5199SOL     OW16495   0.253   5.613   0.748
 5199SOL    HW116496   0.312   5.660   0.683
 5199SOL    HW216497   0.165   5.659   0.753
 5200SOL     OW16498   6.724   3.522   5.215
 5200SOL    HW116499   6.687   3.603   5.169
 5200SOL    HW216500   6.740   3.544   5.311
 5201SOL     OW16501   0.630   6.799   3.028
 5201SOL    HW116502   0.628   6.755   3.117
 5201SOL    HW216503   0.686   6.882   3.032
 5202SOL     OW16504   6.180   3.028   6.636
 5202SOL    HW116505   6.145   3.101   6.578
 5202SOL    HW216506   6.116   3.011   6.711
 5203SOL     OW16507   1.969   2.285   6.866
 5203SOL    HW116508   1.962   2.219   6.791
 5203SOL    HW216509   1.954   2.239   6.953
 5204SOL     OW16510   4.244   5.523   0.270
 5204SOL    HW116511   4.307   5.557   0.201
 5204SOL    HW216512   4.182   5.597   0.297
 5205SOL     OW16513   1.973   0.039   0.801
 5205SOL    HW116514   2.056   7.014   0.797
 5205SOL    HW216515   1.989   0.127   0.755
 5206SOL     OW16516   0.444   3.524   6.012
 5206SOL    HW116517   0.354   3.502   6.048
 5206SOL    HW216518   0.435   3.592   5.940
 5207SOL     OW16519   1.062   5.519   4.244
 5207SOL    HW116520   1.079   5.495   4.340
 5207SOL    HW216521   1.102   5.608   4.224
 5208SOL     OW16522   3.652   1.333   0.341
 5208SOL    HW116523   3.616   1.249   0.381
 5208SOL    HW216524   3.631   1.410   0.401
 5209SOL     OW16525   5.997   5.940   3.724
 5209SOL    HW116526   5.955   6.004   3.788
 5209SOL    HW216527   5.964   5.847   3.743
 5210SOL     OW16528   5.932   2.885   5.594
 5210SOL    HW116529   5.977   2.916   5.678
 5210SOL    HW216530   5.859   2.821   5.617
 5211SOL     OW16531   4.117   3.459   4.585
 5211SOL    HW116532   4.138   3.364   4.564
 5211SOL    HW216533   4.112   3.471   4.684
 5212SOL     OW16534   6.756   1.709   1.003
 5212SOL    HW116535   6.715   1.622   1.030
 5212SOL    HW216536   6.812   1.744   1.078
 5213SOL     OW16537   5.082   3.479   6.639
 5213SOL    HW116538   5.012   3.407   6.643
 5213SOL    HW216539   5.136   3.467   6.555
 5214SOL     OW16540   5.614   1.593   6.413
 5214SOL    HW116541   5.713   1.582   6.417
 5214SOL    HW216542   5.573   1.510   6.375
 5215SOL     OW16543   5.239   5.428   3.290
 5215SOL    HW116544   5.291   5.405   3.208
 5215SOL    HW216545   5.273   5.515   3.327
 5216SOL     OW16546   4.442   6.152   1.651
 5216SOL    HW116547   4.485   6.072   1.608
 5216SOL    HW216548   4.404   6.212   1.581
 5217SOL     OW16549   3.617   5.301   3.769
 5217SOL    HW116550   3.673   5.220   3.785
 5217SOL    HW216551   3.577   5.332   3.855
 5218SOL     OW16552   1.759   0.532   3.427
 5218SOL    HW116553   1.829   0.483   3.478
 5218SOL    HW216554   1.802   0.598   3.365
 5219SOL     OW16555   3.757   0.602   6.632
 5219SOL    HW116556   3.847   0.559   6.625
 5219SOL    HW216557   3.706   0.560   6.708
 5220SOL     OW16558   1.804   5.460   2.835
 5220SOL    HW116559   1.770   5.485   2.744
 5220SOL    HW216560   1.880   5.520   2.860
 5221SOL     OW16561   5.730   2.330   4.356
 5221SOL    HW116562   5.798   2.396   4.324
 5221SOL    HW216563   5.723   2.336   4.456
 5222SOL     OW16564   2.458   0.247   3.934
 5222SOL    HW116565   2.406   0.331   3.917
 5222SOL    HW216566   2.545   0.251   3.883
 5223SOL     OW16567   5.010   0.507   1.453
 5223SOL    HW116568   5.057   0.426   1.419
 5223SOL    HW216569   4.979   0.491   1.546
 5224SOL     OW16570   0.936   1.613   3.399
 5224SOL    HW116571   0.840   1.598   3.376
 5224SOL    HW216572   0.952   1.711   3.412
 5225SOL     OW16573   6.253   0.569   2.679
 5225SOL    HW116574   6.350   0.589   2.693
 5225SOL    HW216575   6.238   0.471   2.683
 5226SOL     OW16576   0.469   5.441   5.161
 5226SOL    HW116577   0.447   5.362   5.103
 5226SOL    HW216578   0.481   5.409   5.255
 5227SOL     OW16579   1.691   4.327   3.521
 5227SOL    HW116580   1.701   4.381   3.604
 5227SOL    HW216581   1.618   4.366   3.464
 5228SOL     OW16582   6.424   3.090   1.567
 5228SOL    HW116583   6.449   3.004   1.523
 5228SOL    HW216584   6.507   3.142   1.589
 5229SOL     OW16585   1.486   4.444   6.589
 5229SOL    HW116586   1.443   4.533   6.579
 5229SOL    HW216587   1.525   4.415   6.501
 5230SOL     OW16588   0.033   6.575   1.006
 5230SOL    HW116589   0.122   6.620   1.015
 5230SOL    HW216590   0.015   6.519   1.087
 5231SOL     OW16591   3.346   4.171   4.228
 5231SOL    HW116592   3.328   4.121   4.313
 5231SOL    HW216593   3.350   4.269   4.247
 5232SOL     OW16594   3.084   2.339   6.083
 5232SOL    HW116595   3.104   2.253   6.035
 5232SOL    HW216596   3.156   2.405   6.061
 5233SOL     OW16597   6.224   0.143   1.456
 5233SOL    HW116598   6.309   0.160   1.405
 5233SOL    HW216599   6.195   0.048   1.441
 5234SOL     OW16600   2.995   0.409   6.280
 5234SOL    HW116601   3.028   0.481   6.340
 5234SOL    HW216602   2.930   0.352   6.329
 5235SOL     OW16603   1.330   3.132   1.162
 5235SOL    HW116604   1.370   3.166   1.077
 5235SOL    HW216605   1.243   3.087   1.141
 5236SOL     OW16606   5.769   3.293   2.412
 5236SOL    HW116607   5.709   3.221   2.377
 5236SOL    HW216608   5.821   3.258   2.490
 5237SOL     OW16609   2.803   0.970   5.533
 5237SOL    HW116610   2.889   1.021   5.528
 5237SOL    HW216611   2.739   1.006   5.466
 5238SOL     OW16612   1.914   4.951   0.848
 5238SOL    HW116613   1.943   4.984   0.758
 5238SOL    HW216614   1.940   4.855   0.859
 5239SOL     OW16615   4.099   3.734   3.890
 5239SOL    HW116616   4.098   3.765   3.985
 5239SOL    HW216617   4.068   3.808   3.831
 5240SOL     OW16618   2.748   1.388   5.842
 5240SOL    HW116619   2.710   1.443   5.917
 5240SOL    HW216620   2.683   1.317   5.816
 5241SOL     OW16621   0.837   5.832   6.379
 5241SOL    HW116622   0.778   5.803   6.304
 5241SOL    HW216623   0.896   5.906   6.348
 5242SOL     OW16624   6.832   6.162   6.038
 5242SOL    HW116625   6.848   6.177   5.940
 5242SOL    HW216626   6.832   6.249   6.086
 5243SOL     OW16627   1.460   6.519   1.753
 5243SOL    HW116628   1.540   6.562   1.795
 5243SOL    HW216629   1.393   6.497   1.823
 5244SOL     OW16630   3.696   3.798   6.541
 5244SOL    HW116631   3.646   3.879   6.569
 5244SOL    HW216632   3.741   3.815   6.453
 5245SOL     OW16633   4.135   4.508   0.149
 5245SOL    HW116634   4.163   4.602   0.129
 5245SOL    HW216635   4.215   4.448   0.146
 5246SOL     OW16636   5.838   4.513   2.880
 5246SOL    HW116637   5.772   4.438   2.868
 5246SOL    HW216638   5.893   4.496   2.962
 5247SOL     OW16639   1.209   5.862   0.359
 5247SOL    HW116640   1.180   5.943   0.410
 5247SOL    HW216641   1.182   5.780   0.409
 5248SOL     OW16642   6.283   0.530   5.378
 5248SOL    HW116643   6.213   0.538   5.449
 5248SOL    HW216644   6.305   0.621   5.343
 5249SOL     OW16645   0.575   5.375   5.429
 5249SOL    HW116646   0.537   5.331   5.511
 5249SOL    HW216647   0.609   5.305   5.367
 5250SOL     OW16648   0.371   1.007   5.939
 5250SOL    HW116649   0.321   1.091   5.917
 5250SOL    HW216650   0.404   1.012   6.033
 5251SOL     OW16651   0.356   2.967   1.566
 5251SOL    HW116652   0.312   3.043   1.613
 5251SOL    HW216653   0.425   2.926   1.625
 5252SOL     OW16654   2.018   5.759   0.845
 5252SOL    HW116655   1.965   5.734   0.926
 5252SOL    HW216656   1.975   5.838   0.801
 5253SOL     OW16657   5.493   3.743   5.484
 5253SOL    HW116658   5.428   3.716   5.413
 5253SOL    HW216659   5.543   3.825   5.455
 5254SOL     OW16660   5.958   1.081   3.790
 5254SOL    HW116661   6.040   1.098   3.735
 5254SOL    HW216662   5.960   1.138   3.872
 5255SOL     OW16663   4.835   0.321   5.490
 5255SOL    HW116664   4.787   0.397   5.445
 5255SOL    HW216665   4.921   0.304   5.441
 5256SOL     OW16666   4.594   1.212   2.849
 5256SOL    HW116667   4.642   1.125   2.861
 5256SOL    HW216668   4.641   1.283   2.901
 5257SOL     OW16669   4.260   0.357   2.002
 5257SOL    HW116670   4.215   0.268   2.010
 5257SOL    HW216671   4.235   0.400   1.916
 5258SOL     OW16672   5.505   3.992   2.226
 5258SOL    HW116673   5.582   4.054   2.214
 5258SOL    HW216674   5.530   3.901   2.193
 5259SOL     OW16675   4.317   6.120   0.992
 5259SOL    HW116676   4.348   6.213   0.970
 5259SOL    HW216677   4.359   6.091   1.078
 5260SOL     OW16678   5.594   3.363   0.974
 5260SOL    HW116679   5.581   3.300   1.051
 5260SOL    HW216680   5.649   3.441   1.005
 5261SOL     OW16681   1.202   2.841   6.109
 5261SOL    HW116682   1.218   2.753   6.064
 5261SOL    HW216683   1.145   2.827   6.190
 5262SOL     OW16684   3.174   0.143   2.374
 5262SOL    HW116685   3.216   0.202   2.305
 5262SOL    HW216686   3.076   0.160   2.377
 5263SOL     OW16687   0.915   0.662   5.913
 5263SOL    HW116688   0.860   0.600   5.857
 5263SOL    HW216689   0.859   0.740   5.942
 5264SOL     OW16690   5.894   0.192   1.911
 5264SOL    HW116691   5.878   0.281   1.954
 5264SOL    HW216692   5.970   0.146   1.957
 5265SOL     OW16693   5.098   4.237   3.005
 5265SOL    HW116694   5.086   4.172   3.080
 5265SOL    HW216695   5.009   4.254   2.962
 5266SOL     OW16696   2.593   0.403   2.007
 5266SOL    HW116697   2.691   0.383   1.998
 5266SOL    HW216698   2.541   0.323   1.976
 5267SOL     OW16699   4.562   4.552   5.644
 5267SOL    HW116700   4.504   4.633   5.651
 5267SOL    HW216701   4.658   4.580   5.645
 5268SOL     OW16702   6.524   5.609   6.280
 5268SOL    HW116703   6.533   5.519   6.238
 5268SOL    HW216704   6.522   5.679   6.208
 5269SOL     OW16705   2.793   6.282   4.141
 5269SOL    HW116706   2.797   6.219   4.219
 5269SOL    HW216707   2.886   6.308   4.115
 5270SOL     OW16708   4.147   1.589   1.901
 5270SOL    HW116709   4.078   1.655   1.933
 5270SOL    HW216710   4.215   1.637   1.847
 5271SOL     OW16711   4.172   5.296   4.949
 5271SOL    HW116712   4.082   5.335   4.932
 5271SOL    HW216713   4.219   5.282   4.862
 5272SOL     OW16714   1.816   5.538   3.151
 5272SOL    HW116715   1.826   5.556   3.053
 5272SOL    HW216716   1.762   5.455   3.164
 5273SOL     OW16717   0.641   3.655   3.132
 5273SOL    HW116718   0.694   3.579   3.169
 5273SOL    HW216719   0.570   3.620   3.070
 5274SOL     OW16720   6.055   4.984   2.317
 5274SOL    HW116721   6.002   4.956   2.397
 5274SOL    HW216722   6.086   5.079   2.329
 5275SOL     OW16723   3.460   1.498   6.325
 5275SOL    HW116724   3.367   1.470   6.300
 5275SOL    HW216725   3.488   1.575   6.267
 5276SOL     OW16726   1.271   6.270   1.024
 5276SOL    HW116727   1.262   6.332   0.946
 5276SOL    HW216728   1.183   6.262   1.070
 5277SOL     OW16729   0.896   2.250   2.908
 5277SOL    HW116730   0.820   2.200   2.867
 5277SOL    HW216731   0.976   2.245   2.848
 5278SOL     OW16732   5.192   6.154   4.598
 5278SOL    HW116733   5.228   6.068   4.634
 5278SOL    HW216734   5.256   6.192   4.532
 5279SOL     OW16735   1.817   5.879   7.029
 5279SOL    HW116736   1.742   5.936   0.033
 5279SOL    HW216737   1.864   5.835   0.075
 5280SOL     OW16738   2.913   5.511   5.493
 5280SOL    HW116739   2.835   5.502   5.431
 5280SOL    HW216740   2.991   5.460   5.457
 5281SOL     OW16741   1.457   1.247   3.771
 5281SOL    HW116742   1.362   1.232   3.743
 5281SOL    HW216743   1.486   1.172   3.832
 5282SOL     OW16744   1.876   0.845   2.275
 5282SOL    HW116745   1.966   0.808   2.252
 5282SOL    HW216746   1.821   0.774   2.320
 5283SOL     OW16747   2.576   0.448   2.613
 5283SOL    HW116748   2.554   0.482   2.704
 5283SOL    HW216749   2.557   0.519   2.546
 5284SOL     OW16750   4.891   3.040   2.900
 5284SOL    HW116751   4.845   2.958   2.865
 5284SOL    HW216752   4.861   3.120   2.848
 5285SOL     OW16753   1.027   3.850   3.942
 5285SOL    HW116754   1.024   3.833   3.843
 5285SOL    HW216755   1.084   3.930   3.961
 5286SOL     OW16756   6.483   3.893   0.895
 5286SOL    HW116757   6.462   3.801   0.928
 5286SOL    HW216758   6.558   3.888   0.829
 5287SOL     OW16759   2.556   6.041   1.846
 5287SOL    HW116760   2.461   6.043   1.815
 5287SOL    HW216761   2.616   6.015   1.770
 5288SOL     OW16762   3.897   0.813   2.778
 5288SOL    HW116763   3.992   0.831   2.804
 5288SOL    HW216764   3.889   0.717   2.749
 5289SOL     OW16765   1.662   6.419   5.643
 5289SOL    HW116766   1.738   6.484   5.648
 5289SOL    HW216767   1.695   6.332   5.607
 5290SOL     OW16768   1.164   4.528   6.037
 5290SOL    HW116769   1.150   4.617   6.082
 5290SOL    HW216770   1.203   4.543   5.946
 5291SOL     OW16771   3.088   4.915   6.123
 5291SOL    HW116772   3.161   4.876   6.178
 5291SOL    HW216773   3.060   4.849   6.053
 5292SOL     OW16774   6.001   4.385   6.678
 5292SOL    HW116775   5.962   4.468   6.716
 5292SOL    HW216776   6.097   4.378   6.704
 5293SOL     OW16777   1.835   0.032   4.974
 5293SOL    HW116778   1.757   0.091   4.951
 5293SOL    HW216779   1.837   6.984   4.912
 5294SOL     OW16780   5.854   2.630   5.314
 5294SOL    HW116781   5.756   2.645   5.329
 5294SOL    HW216782   5.868   2.587   5.225
 5295SOL     OW16783   4.296   1.351   2.908
 5295SOL    HW116784   4.317   1.382   3.001
 5295SOL    HW216785   4.289   1.430   2.847
 5296SOL     OW16786   3.270   5.102   6.636
 5296SOL    HW116787   3.295   5.192   6.671
 5296SOL    HW216788   3.183   5.107   6.588
 5297SOL     OW16789   1.708   3.301   0.884
 5297SOL    HW116790   1.731   3.206   0.906
 5297SOL    HW216791   1.733   3.360   0.960
 5298SOL     OW16792   1.130   5.994   7.027
 5298SOL    HW116793   1.112   6.037   0.084
 5298SOL    HW216794   1.166   6.062   6.963
 5299SOL     OW16795   2.342   3.154   0.550
 5299SOL    HW116796   2.268   3.127   0.613
 5299SOL    HW216797   2.389   3.073   0.517
 5300SOL     OW16798   1.029   6.195   1.184
 5300SOL    HW116799   1.059   6.166   1.275
 5300SOL    HW216800   0.930   6.189   1.178
 5301SOL     OW16801   3.302   2.039   6.123
 5301SOL    HW116802   3.257   2.105   6.063
 5301SOL    HW216803   3.401   2.050   6.118
 5302SOL     OW16804   5.659   5.706   3.751
 5302SOL    HW116805   5.684   5.789   3.702
 5302SOL    HW216806   5.741   5.657   3.779
 5303SOL     OW16807   7.014   5.222   3.912
 5303SOL    HW116808   7.022   5.195   4.008
 5303SOL    HW216809   6.997   5.141   3.855
 5304SOL     OW16810   5.696   0.866   0.638
 5304SOL    HW116811   5.635   0.803   0.686
 5304SOL    HW216812   5.760   0.814   0.582
 5305SOL     OW16813   0.920   4.322   3.010
 5305SOL    HW116814   0.918   4.279   3.100
 5305SOL    HW216815   0.826   4.334   2.977
 5306SOL     OW16816   1.271   4.106   4.902
 5306SOL    HW116817   1.221   4.054   4.833
 5306SOL    HW216818   1.308   4.189   4.860
 5307SOL     OW16819   4.287   1.900   0.357
 5307SOL    HW116820   4.260   1.803   0.365
 5307SOL    HW216821   4.381   1.911   0.388
 5308SOL     OW16822   1.302   4.636   3.673
 5308SOL    HW116823   1.324   4.719   3.724
 5308SOL    HW216824   1.270   4.566   3.737
 5309SOL     OW16825   3.948   4.675   1.551
 5309SOL    HW116826   3.855   4.645   1.531
 5309SOL    HW216827   4.008   4.596   1.561
 5310SOL     OW16828   5.942   3.512   1.752
 5310SOL    HW116829   6.038   3.540   1.748
 5310SOL    HW216830   5.897   3.537   1.666
 5311SOL     OW16831   6.583   6.623   7.018
 5311SOL    HW116832   6.668   6.602   6.971
 5311SOL    HW216833   6.554   6.544   0.041
 5312SOL     OW16834   0.366   5.805   1.889
 5312SOL    HW116835   0.323   5.865   1.821
 5312SOL    HW216836   0.308   5.725   1.905
 5313SOL     OW16837   1.221   3.259   5.794
 5313SOL    HW116838   1.185   3.279   5.885
 5313SOL    HW216839   1.305   3.311   5.779
 5314SOL     OW16840   3.137   6.478   0.224
 5314SOL    HW116841   3.089   6.534   0.291
 5314SOL    HW216842   3.200   6.416   0.270
 5315SOL     OW16843   4.897   3.658   1.933
 5315SOL    HW116844   4.866   3.699   1.848
 5315SOL    HW216845   4.988   3.694   1.955
 5316SOL     OW16846   1.008   3.882   4.759
 5316SOL    HW116847   0.998   3.794   4.805
 5316SOL    HW216848   0.943   3.948   4.799
 5317SOL     OW16849   6.105   0.128   4.643
 5317SOL    HW116850   6.028   0.083   4.598
 5317SOL    HW216851   6.191   0.099   4.601
 5318SOL     OW16852   0.616   3.178   6.908
 5318SOL    HW116853   0.627   3.244   6.982
 5318SOL    HW216854   0.530   3.127   6.921
 5319SOL     OW16855   3.339   6.323   0.310
 5319SOL    HW116856   3.413   6.388   0.330
 5319SOL    HW216857   3.370   6.230   0.330
 5320SOL     OW16858   5.071   4.957   0.014
 5320SOL    HW116859   5.041   4.962   0.109
 5320SOL    HW216860   5.129   5.036   7.024
 5321SOL     OW16861   1.534   5.311   4.567
 5321SOL    HW116862   1.471   5.301   4.643
 5321SOL    HW216863   1.573   5.404   4.567
 5322SOL     OW16864   5.440   6.232   6.127
 5322SOL    HW116865   5.452   6.175   6.208
 5322SOL    HW216866   5.460   6.177   6.045
 5323SOL     OW16867   3.882   2.033   0.122
 5323SOL    HW116868   3.976   1.999   0.123
 5323SOL    HW216869   3.874   2.104   0.052
 5324SOL     OW16870   3.443   2.132   0.494
 5324SOL    HW116871   3.468   2.165   0.403
 5324SOL    HW216872   3.360   2.077   0.488
 5325SOL     OW16873   4.600   0.840   4.367
 5325SOL    HW116874   4.517   0.893   4.356
 5325SOL    HW216875   4.602   0.801   4.460
 5326SOL     OW16876   6.259   4.938   2.650
 5326SOL    HW116877   6.325   4.999   2.692
 5326SOL    HW216878   6.219   4.878   2.720
 5327SOL     OW16879   5.843   2.993   5.252
 5327SOL    HW116880   5.811   3.022   5.162
 5327SOL    HW216881   5.764   2.980   5.313
 5328SOL     OW16882   4.135   2.991   5.302
 5328SOL    HW116883   4.116   3.062   5.235
 5328SOL    HW216884   4.227   3.003   5.339
 5329SOL     OW16885   0.334   4.899   0.259
 5329SOL    HW116886   0.386   4.899   0.344
 5329SOL    HW216887   0.309   4.805   0.235
 5330SOL     OW16888   3.627   4.555   5.566
 5330SOL    HW116889   3.604   4.646   5.600
 5330SOL    HW216890   3.725   4.552   5.545
 5331SOL     OW16891   5.405   1.278   0.564
 5331SOL    HW116892   5.479   1.342   0.585
 5331SOL    HW216893   5.438   1.185   0.576
 5332SOL     OW16894   0.605   3.209   1.102
 5332SOL    HW116895   0.507   3.189   1.104
 5332SOL    HW216896   0.642   3.198   1.194
 5333SOL     OW16897   0.912   0.741   3.907
 5333SOL    HW116898   0.851   0.820   3.913
 5333SOL    HW216899   1.005   0.769   3.929
 5334SOL     OW16900   3.787   0.468   4.515
 5334SOL    HW116901   3.736   0.545   4.553
 5334SOL    HW216902   3.799   0.398   4.587
 5335SOL     OW16903   6.745   5.926   2.320
 5335SOL    HW116904   6.736   5.914   2.221
 5335SOL    HW216905   6.828   5.978   2.340
 5336SOL     OW16906   2.406   2.191   3.112
 5336SOL    HW116907   2.330   2.128   3.129
 5336SOL    HW216908   2.374   2.268   3.057
 5337SOL     OW16909   5.163   4.254   1.714
 5337SOL    HW116910   5.232   4.292   1.775
 5337SOL    HW216911   5.202   4.176   1.664
 5338SOL     OW16912   5.902   2.081   6.425
 5338SOL    HW116913   5.919   2.178   6.406
 5338SOL    HW216914   5.805   2.061   6.413
 5339SOL     OW16915   6.599   2.428   4.400
 5339SOL    HW116916   6.640   2.393   4.315
 5339SOL    HW216917   6.622   2.525   4.411
 5340SOL     OW16918   5.120   3.483   1.282
 5340SOL    HW116919   5.178   3.421   1.335
 5340SOL    HW216920   5.024   3.461   1.297
 5341SOL     OW16921   3.210   3.377   6.525
 5341SOL    HW116922   3.233   3.412   6.435
 5341SOL    HW216923   3.254   3.288   6.539
 5342SOL     OW16924   3.093   6.938   3.936
 5342SOL    HW116925   3.057   6.865   3.995
 5342SOL    HW216926   3.127   7.013   3.993
 5343SOL     OW16927   3.699   3.664   4.369
 5343SOL    HW116928   3.643   3.594   4.414
 5343SOL    HW216929   3.781   3.622   4.331
 5344SOL     OW16930   2.321   2.645   2.693
 5344SOL    HW116931   2.420   2.631   2.701
 5344SOL    HW216932   2.295   2.729   2.742
 5345SOL     OW16933   3.768   6.606   1.411
 5345SOL    HW116934   3.707   6.682   1.389
 5345SOL    HW216935   3.744   6.568   1.501
 5346SOL     OW16936   3.217   6.123   4.170
 5346SOL    HW116937   3.188   6.030   4.148
 5346SOL    HW216938   3.210   6.138   4.268
 5347SOL     OW16939   0.523   2.510   1.993
 5347SOL    HW116940   0.509   2.414   2.016
 5347SOL    HW216941   0.552   2.519   1.898
 5348SOL     OW16942   6.888   2.133   1.027
 5348SOL    HW116943   6.803   2.088   1.002
 5348SOL    HW216944   6.927   2.088   1.108
 5349SOL     OW16945   1.894   2.878   0.642
 5349SOL    HW116946   1.923   2.883   0.546
 5349SOL    HW216947   1.800   2.912   0.650
 5350SOL     OW16948   1.770   0.326   5.417
 5350SOL    HW116949   1.830   0.247   5.410
 5350SOL    HW216950   1.796   0.394   5.348
 5351SOL     OW16951   6.902   5.318   2.457
 5351SOL    HW116952   6.956   5.308   2.374
 5351SOL    HW216953   6.963   5.317   2.537
 5352SOL     OW16954   2.643   4.783   3.659
 5352SOL    HW116955   2.667   4.735   3.575
 5352SOL    HW216956   2.593   4.722   3.720
 5353SOL     OW16957   4.335   4.708   3.627
 5353SOL    HW116958   4.334   4.700   3.727
 5353SOL    HW216959   4.381   4.629   3.588
 5354SOL     OW16960   2.715   5.475   2.084
 5354SOL    HW116961   2.711   5.411   2.161
 5354SOL    HW216962   2.694   5.567   2.116
 5355SOL     OW16963   6.604   3.737   3.880
 5355SOL    HW116964   6.515   3.712   3.841
 5355SOL    HW216965   6.592   3.763   3.976
 5356SOL     OW16966   5.851   4.564   1.862
 5356SOL    HW116967   5.908   4.572   1.944
 5356SOL    HW216968   5.900   4.511   1.793
 5357SOL     OW16969   4.279   6.375   1.038
 5357SOL    HW116970   4.279   6.335   1.129
 5357SOL    HW216971   4.340   6.454   1.036
 5358SOL     OW16972   4.575   1.823   0.050
 5358SOL    HW116973   4.547   1.918   0.064
 5358SOL    HW216974   4.672   1.819   0.029
 5359SOL     OW16975   1.323   1.409   6.014
 5359SOL    HW116976   1.234   1.425   6.057
 5359SOL    HW216977   1.315   1.338   5.944
 5360SOL     OW16978   3.911   6.536   5.296
 5360SOL    HW116979   3.864   6.471   5.237
 5360SOL    HW216980   3.867   6.538   5.386
 5361SOL     OW16981   2.485   1.260   5.557
 5361SOL    HW116982   2.523   1.272   5.649
 5361SOL    HW216983   2.464   1.164   5.543
 5362SOL     OW16984   6.776   5.175   3.496
 5362SOL    HW116985   6.856   5.126   3.463
 5362SOL    HW216986   6.708   5.181   3.423
 5363SOL     OW16987   0.368   1.027   6.829
 5363SOL    HW116988   0.300   1.065   6.766
 5363SOL    HW216989   0.358   0.928   6.833
 5364SOL     OW16990   6.470   6.626   1.767
 5364SOL    HW116991   6.377   6.624   1.803
 5364SOL    HW216992   6.534   6.600   1.840
 5365SOL     OW16993   3.468   3.707   6.895
 5365SOL    HW116994   3.535   3.781   6.899
 5365SOL    HW216995   3.498   3.631   6.952
 5366SOL     OW16996   5.245   5.757   2.044
 5366SOL    HW116997   5.300   5.682   2.082
 5366SOL    HW216998   5.287   5.844   2.067
 5367SOL     OW16999   0.984   6.475   0.755
 5367SOL    HW117000   1.002   6.485   0.657
 5367SOL    HW217001   1.071   6.466   0.803
 5368SOL     OW17002   5.226   0.132   2.854
 5368SOL    HW117003   5.279   0.166   2.931
 5368SOL    HW217004   5.272   0.154   2.768
 5369SOL     OW17005   2.952   6.985   1.781
 5369SOL    HW117006   3.029   7.005   1.841
 5369SOL    HW217007   2.945   6.887   1.766
 5370SOL     OW17008   4.427   3.023   1.711
 5370SOL    HW117009   4.419   2.933   1.666
 5370SOL    HW217010   4.486   3.015   1.791
 5371SOL     OW17011   0.963   3.859   5.143
 5371SOL    HW117012   0.873   3.862   5.185
 5371SOL    HW217013   0.990   3.951   5.115
 5372SOL     OW17014   2.190   6.540   3.893
 5372SOL    HW117015   2.149   6.621   3.936
 5372SOL    HW217016   2.277   6.519   3.938
 5373SOL     OW17017   3.815   6.830   4.646
 5373SOL    HW117018   3.905   6.797   4.616
 5373SOL    HW217019   3.781   6.897   4.581
 5374SOL     OW17020   1.524   4.153   6.956
 5374SOL    HW117021   1.435   4.168   7.000
 5374SOL    HW217022   1.511   4.143   6.857
 5375SOL     OW17023   1.291   4.968   4.786
 5375SOL    HW117024   1.366   4.912   4.823
 5375SOL    HW217025   1.225   4.987   4.859
 5376SOL     OW17026   1.138   2.810   0.964
 5376SOL    HW117027   1.106   2.753   0.888
 5376SOL    HW217028   1.153   2.753   1.045
 5377SOL     OW17029   0.304   0.247   2.264
 5377SOL    HW117030   0.257   0.335   2.259
 5377SOL    HW217031   0.402   0.263   2.277
 5378SOL     OW17032   6.821   0.696   1.790
 5378SOL    HW117033   6.736   0.672   1.836
 5378SOL    HW217034   6.819   0.662   1.696
 5379SOL     OW17035   1.294   4.388   5.013
 5379SOL    HW117036   1.199   4.418   5.025
 5379SOL    HW217037   1.300   4.289   5.031
 5380SOL     OW17038   2.588   1.735   3.153
 5380SOL    HW117039   2.659   1.779   3.210
 5380SOL    HW217040   2.573   1.641   3.185
 5381SOL     OW17041   6.500   4.370   1.864
 5381SOL    HW117042   6.503   4.271   1.880
 5381SOL    HW217043   6.589   4.410   1.885
 5382SOL     OW17044   3.076   1.347   2.336
 5382SOL    HW117045   3.122   1.411   2.275
 5382SOL    HW217046   3.079   1.382   2.430
 5383SOL     OW17047   2.233   2.533   5.308
 5383SOL    HW117048   2.154   2.483   5.272
 5383SOL    HW217049   2.307   2.533   5.241
 5384SOL     OW17050   5.854   6.927   4.770
 5384SOL    HW117051   5.940   6.891   4.808
 5384SOL    HW217052   5.823   6.868   4.695
 5385SOL     OW17053   3.112   3.575   4.219
 5385SOL    HW117054   3.086   3.505   4.153
 5385SOL    HW217055   3.182   3.635   4.179
 5386SOL     OW17056   4.941   0.617   4.186
 5386SOL    HW117057   4.959   0.542   4.250
 5386SOL    HW217058   4.848   0.651   4.199
 5387SOL     OW17059   2.331   6.612   3.596
 5387SOL    HW117060   2.294   6.704   3.578
 5387SOL    HW217061   2.325   6.592   3.694
 5388SOL     OW17062   0.009   1.022   3.781
 5388SOL    HW117063   0.081   1.090   3.793
 5388SOL    HW217064   0.050   0.931   3.774
 5389SOL     OW17065   4.516   1.058   2.515
 5389SOL    HW117066   4.517   1.148   2.559
 5389SOL    HW217067   4.423   1.021   2.518
 5390SOL     OW17068   4.845   4.372   2.902
 5390SOL    HW117069   4.782   4.403   2.973
 5390SOL    HW217070   4.829   4.423   2.818
 5391SOL     OW17071   1.986   2.432   0.848
 5391SOL    HW117072   2.060   2.408   0.786
 5391SOL    HW217073   1.983   2.531   0.860
 5392SOL     OW17074   5.369   2.855   1.231
 5392SOL    HW117075   5.339   2.759   1.231
 5392SOL    HW217076   5.385   2.884   1.137
 5393SOL     OW17077   4.980   6.788   6.313
 5393SOL    HW117078   5.002   6.794   6.215
 5393SOL    HW217079   4.885   6.817   6.328
 5394SOL     OW17080   6.913   4.840   6.576
 5394SOL    HW117081   6.840   4.900   6.609
 5394SOL    HW217082   6.933   4.861   6.481
 5395SOL     OW17083   5.327   1.114   1.548
 5395SOL    HW117084   5.356   1.045   1.615
 5395SOL    HW217085   5.263   1.073   1.484
 5396SOL     OW17086   4.314   4.514   1.869
 5396SOL    HW117087   4.357   4.549   1.952
 5396SOL    HW217088   4.349   4.423   1.849
 5397SOL     OW17089   0.263   2.507   1.720
 5397SOL    HW117090   0.275   2.568   1.642
 5397SOL    HW217091   0.278   2.412   1.690
 5398SOL     OW17092   3.635   2.130   3.736
 5398SOL    HW117093   3.670   2.090   3.821
 5398SOL    HW217094   3.709   2.137   3.670
 5399SOL     OW17095   2.614   5.822   0.705
 5399SOL    HW117096   2.563   5.737   0.694
 5399SOL    HW217097   2.706   5.811   0.669
 5400SOL     OW17098   2.415   3.977   0.679
 5400SOL    HW117099   2.377   4.048   0.619
 5400SOL    HW217100   2.497   3.939   0.637
 5401SOL     OW17101   5.648   3.671   1.068
 5401SOL    HW117102   5.553   3.643   1.075
 5401SOL    HW217103   5.665   3.749   1.127
 5402SOL     OW17104   2.899   5.175   1.741
 5402SOL    HW117105   2.843   5.161   1.822
 5402SOL    HW217106   2.996   5.162   1.763
 5403SOL     OW17107   5.833   2.727   6.528
 5403SOL    HW117108   5.773   2.807   6.523
 5403SOL    HW217109   5.823   2.684   6.618
 5404SOL     OW17110   0.598   1.023   2.240
 5404SOL    HW117111   0.577   0.948   2.178
 5404SOL    HW217112   0.664   1.085   2.197
 5405SOL     OW17113   5.716   6.421   7.027
 5405SOL    HW117114   5.718   6.457   0.090
 5405SOL    HW217115   5.809   6.408   6.994
 5406SOL     OW17116   2.735   0.077   6.512
 5406SOL    HW117117   2.784   0.135   6.577
 5406SOL    HW217118   2.676   0.133   6.455
 5407SOL     OW17119   4.635   2.543   1.373
 5407SOL    HW117120   4.731   2.540   1.347
 5407SOL    HW217121   4.627   2.527   1.472
 5408SOL     OW17122   3.291   1.111   6.036
 5408SOL    HW117123   3.287   1.209   6.015
 5408SOL    HW217124   3.201   1.080   6.068
 5409SOL     OW17125   6.055   1.761   4.139
 5409SOL    HW117126   5.999   1.726   4.214
 5409SOL    HW217127   6.149   1.726   4.147
 5410SOL     OW17128   1.430   3.202   0.890
 5410SOL    HW117129   1.520   3.235   0.861
 5410SOL    HW217130   1.360   3.261   0.851
 5411SOL     OW17131   6.657   4.606   5.887
 5411SOL    HW117132   6.685   4.702   5.896
 5411SOL    HW217133   6.728   4.555   5.838
 5412SOL     OW17134   4.124   0.764   6.728
 5412SOL    HW117135   4.193   0.828   6.763
 5412SOL    HW217136   4.053   0.751   6.797
 5413SOL     OW17137   1.054   0.132   0.781
 5413SOL    HW117138   0.989   0.189   0.731
 5413SOL    HW217139   1.064   0.044   0.735
 5414SOL     OW17140   5.843   2.947   4.863
 5414SOL    HW117141   5.832   3.018   4.932
 5414SOL    HW217142   5.869   2.990   4.776
 5415SOL     OW17143   1.489   6.453   1.229
 5415SOL    HW117144   1.519   6.361   1.204
 5415SOL    HW217145   1.502   6.467   1.327
 5416SOL     OW17146   3.558   4.580   6.330
 5416SOL    HW117147   3.645   4.590   6.281
 5416SOL    HW217148   3.490   4.641   6.289
 5417SOL     OW17149   3.701   6.447   5.059
 5417SOL    HW117150   3.774   6.491   5.008
 5417SOL    HW217151   3.613   6.486   5.032
 5418SOL     OW17152   4.252   6.992   4.647
 5418SOL    HW117153   4.288   6.918   4.705
 5418SOL    HW217154   4.328   0.005   4.599
 5419SOL     OW17155   3.220   5.703   0.325
 5419SOL    HW117156   3.310   5.711   0.368
 5419SOL    HW217157   3.170   5.789   0.337
 5420SOL     OW17158   1.626   2.792   1.906
 5420SOL    HW117159   1.703   2.730   1.925
 5420SOL    HW217160   1.593   2.831   1.991
 5421SOL     OW17161   2.254   4.082   2.633
 5421SOL    HW117162   2.229   3.991   2.666
 5421SOL    HW217163   2.224   4.151   2.699
 5422SOL     OW17164   0.911   5.968   5.879
 5422SOL    HW117165   0.844   5.978   5.952
 5422SOL    HW217166   0.866   5.980   5.790
 5423SOL     OW17167   5.485   3.295   6.950
 5423SOL    HW117168   5.439   3.345   6.876
 5423SOL    HW217169   5.449   3.203   6.956
 5424SOL     OW17170   5.132   2.757   4.454
 5424SOL    HW117171   5.135   2.847   4.409
 5424SOL    HW217172   5.076   2.763   4.536
 5425SOL     OW17173   4.682   2.016   4.226
 5425SOL    HW117174   4.762   2.075   4.240
 5425SOL    HW217175   4.607   2.049   4.283
 5426SOL     OW17176   0.021   5.425   3.755
 5426SOL    HW117177   6.972   5.441   3.697
 5426SOL    HW217178   0.007   5.343   3.810
 5427SOL     OW17179   5.216   5.225   0.573
 5427SOL    HW117180   5.286   5.174   0.624
 5427SOL    HW217181   5.127   5.183   0.588
 5428SOL     OW17182   6.922   0.698   2.063
 5428SOL    HW117183   6.909   0.682   1.966
 5428SOL    HW217184   7.013   0.735   2.080
 5429SOL     OW17185   1.477   1.433   5.692
 5429SOL    HW117186   1.386   1.474   5.698
 5429SOL    HW217187   1.546   1.498   5.725
 5430SOL     OW17188   0.904   3.131   4.968
 5430SOL    HW117189   0.884   3.190   4.890
 5430SOL    HW217190   0.846   3.157   5.045
 5431SOL     OW17191   3.548   5.950   6.647
 5431SOL    HW117192   3.578   5.855   6.633
 5431SOL    HW217193   3.579   6.007   6.571
 5432SOL     OW17194   4.114   6.623   6.330
 5432SOL    HW117195   4.113   6.700   6.393
 5432SOL    HW217196   4.181   6.555   6.361
 5433SOL     OW17197   6.949   1.644   3.379
 5433SOL    HW117198   6.915   1.709   3.448
 5433SOL    HW217199   6.911   1.667   3.290
 5434SOL     OW17200   3.466   1.104   4.770
 5434SOL    HW117201   3.375   1.064   4.760
 5434SOL    HW217202   3.534   1.031   4.778
 5435SOL     OW17203   6.001   1.495   1.393
 5435SOL    HW117204   6.029   1.564   1.325
 5435SOL    HW217205   5.902   1.486   1.392
 5436SOL     OW17206   5.212   4.197   4.696
 5436SOL    HW117207   5.258   4.163   4.778
 5436SOL    HW217208   5.207   4.124   4.628
 5437SOL     OW17209   2.509   5.237   5.607
 5437SOL    HW117210   2.512   5.194   5.517
 5437SOL    HW217211   2.520   5.167   5.678
 5438SOL     OW17212   5.655   3.503   2.956
 5438SOL    HW117213   5.634   3.406   2.964
 5438SOL    HW217214   5.747   3.515   2.920
 5439SOL     OW17215   0.515   2.055   0.610
 5439SOL    HW117216   0.458   1.982   0.648
 5439SOL    HW217217   0.549   2.027   0.520
 5440SOL     OW17218   0.850   0.285   2.014
 5440SOL    HW117219   0.787   0.349   1.970
 5440SOL    HW217220   0.811   0.254   2.101
 5441SOL     OW17221   4.773   2.980   3.155
 5441SOL    HW117222   4.761   2.886   3.122
 5441SOL    HW217223   4.816   3.035   3.084
 5442SOL     OW17224   3.485   6.454   3.160
 5442SOL    HW117225   3.504   6.419   3.068
 5442SOL    HW217226   3.402   6.410   3.195
 5443SOL     OW17227   2.676   0.364   3.773
 5443SOL    HW117228   2.659   0.346   3.676
 5443SOL    HW217229   2.666   0.461   3.791
 5444SOL     OW17230   1.203   0.779   3.756
 5444SOL    HW117231   1.145   0.707   3.719
 5444SOL    HW217232   1.189   0.786   3.855
 5445SOL     OW17233   6.186   4.302   4.345
 5445SOL    HW117234   6.108   4.361   4.321
 5445SOL    HW217235   6.171   4.211   4.307
 5446SOL     OW17236   6.132   5.128   5.270
 5446SOL    HW117237   6.065   5.163   5.205
 5446SOL    HW217238   6.222   5.124   5.227
 5447SOL     OW17239   1.446   1.849   0.328
 5447SOL    HW117240   1.356   1.890   0.346
 5447SOL    HW217241   1.518   1.911   0.359
 5448SOL     OW17242   5.332   3.305   4.786
 5448SOL    HW117243   5.376   3.389   4.817
 5448SOL    HW217244   5.349   3.293   4.688
 5449SOL     OW17245   1.726   1.896   6.745
 5449SOL    HW117246   1.637   1.879   6.702
 5449SOL    HW217247   1.715   1.901   6.844
 5450SOL     OW17248   2.069   0.257   2.197
 5450SOL    HW117249   2.062   0.295   2.289
 5450SOL    HW217250   2.130   0.314   2.141
 5451SOL     OW17251   1.327   5.729   3.411
 5451SOL    HW117252   1.293   5.635   3.416
 5451SOL    HW217253   1.425   5.730   3.426
 5452SOL     OW17254   1.725   4.222   0.217
 5452SOL    HW117255   1.644   4.165   0.212
 5452SOL    HW217256   1.760   4.237   0.124
 5453SOL     OW17257   5.229   4.042   1.570
 5453SOL    HW117258   5.193   3.990   1.492
 5453SOL    HW217259   5.296   3.986   1.618
 5454SOL     OW17260   6.520   4.024   5.606
 5454SOL    HW117261   6.424   4.036   5.582
 5454SOL    HW217262   6.578   4.066   5.536
 5455SOL     OW17263   5.946   2.686   1.638
 5455SOL    HW117264   5.920   2.782   1.645
 5455SOL    HW217265   6.045   2.678   1.640
 5456SOL     OW17266   2.577   7.017   6.728
 5456SOL    HW117267   2.652   0.010   6.666
 5456SOL    HW217268   2.597   6.930   6.773
 5457SOL     OW17269   6.607   2.440   0.710
 5457SOL    HW117270   6.579   2.356   0.755
 5457SOL    HW217271   6.570   2.441   0.617
 5458SOL     OW17272   0.402   3.901   0.371
 5458SOL    HW117273   0.323   3.919   0.430
 5458SOL    HW217274   0.473   3.969   0.389
 5459SOL     OW17275   1.905   4.032   6.796
 5459SOL    HW117276   1.888   4.104   6.864
 5459SOL    HW217277   1.858   3.948   6.825
 5460SOL     OW17278   3.900   0.499   2.983
 5460SOL    HW117279   3.903   0.588   3.029
 5460SOL    HW217280   3.993   0.471   2.960
 5461SOL     OW17281   6.566   0.204   5.469
 5461SOL    HW117282   6.545   0.213   5.372
 5461SOL    HW217283   6.481   0.209   5.522
 5462SOL     OW17284   0.245   6.721   0.943
 5462SOL    HW117285   0.230   6.804   0.998
 5462SOL    HW217286   0.318   6.738   0.876
 5463SOL     OW17287   6.945   1.239   0.463
 5463SOL    HW117288   6.970   1.203   0.372
 5463SOL    HW217289   6.869   1.303   0.453
 5464SOL     OW17290   0.890   0.980   4.671
 5464SOL    HW117291   0.894   0.901   4.731
 5464SOL    HW217292   0.953   0.968   4.595
 5465SOL     OW17293   4.260   0.068   4.156
 5465SOL    HW117294   4.168   0.064   4.196
 5465SOL    HW217295   4.321   0.113   4.221
 5466SOL     OW17296   5.131   2.927   4.872
 5466SOL    HW117297   5.213   2.982   4.888
 5466SOL    HW217298   5.138   2.841   4.922
 5467SOL     OW17299   5.200   3.721   3.594
 5467SOL    HW117300   5.224   3.649   3.529
 5467SOL    HW217301   5.101   3.725   3.605
 5468SOL     OW17302   6.272   2.642   4.048
 5468SOL    HW117303   6.274   2.727   3.995
 5468SOL    HW217304   6.323   2.654   4.133
 5469SOL     OW17305   3.126   6.109   6.055
 5469SOL    HW117306   3.166   6.018   6.061
 5469SOL    HW217307   3.063   6.123   6.131
 5470SOL     OW17308   3.461   5.437   3.120
 5470SOL    HW117309   3.521   5.468   3.194
 5470SOL    HW217310   3.407   5.514   3.086
 5471SOL     OW17311   5.465   6.931   3.089
 5471SOL    HW117312   5.549   6.901   3.044
 5471SOL    HW217313   5.449   6.875   3.170
 5472SOL     OW17314   3.914   3.940   5.903
 5472SOL    HW117315   3.878   3.881   5.830
 5472SOL    HW217316   3.879   4.033   5.891
 5473SOL     OW17317   0.262   3.172   2.339
 5473SOL    HW117318   0.362   3.170   2.335
 5473SOL    HW217319   0.225   3.121   2.262
 5474SOL     OW17320   0.956   4.881   4.132
 5474SOL    HW117321   1.028   4.951   4.129
 5474SOL    HW217322   0.974   4.819   4.209
 5475SOL     OW17323   2.537   3.178   1.422
 5475SOL    HW117324   2.568   3.112   1.491
 5475SOL    HW217325   2.449   3.149   1.384
 5476SOL     OW17326   2.132   4.751   5.454
 5476SOL    HW117327   2.169   4.693   5.382
 5476SOL    HW217328   2.033   4.738   5.459
 5477SOL     OW17329   2.330   4.694   2.910
 5477SOL    HW117330   2.410   4.657   2.958
 5477SOL    HW217331   2.360   4.747   2.831
 5478SOL     OW17332   3.571   5.357   4.983
 5478SOL    HW117333   3.564   5.402   4.894
 5478SOL    HW217334   3.516   5.274   4.983
 5479SOL     OW17335   5.506   1.534   5.989
 5479SOL    HW117336   5.508   1.434   6.000
 5479SOL    HW217337   5.600   1.567   5.979
 5480SOL     OW17338   6.030   4.164   2.757
 5480SOL    HW117339   5.938   4.139   2.786
 5480SOL    HW217340   6.029   4.257   2.720
 5481SOL     OW17341   4.492   1.822   4.325
 5481SOL    HW117342   4.558   1.862   4.390
 5481SOL    HW217343   4.430   1.761   4.374
 5482SOL     OW17344   3.669   4.375   1.728
 5482SOL    HW117345   3.648   4.465   1.767
 5482SOL    HW217346   3.626   4.304   1.784
 5483SOL     OW17347   0.580   1.720   5.630
 5483SOL    HW117348   0.658   1.756   5.580
 5483SOL    HW217349   0.500   1.778   5.614
 5484SOL     OW17350   4.370   1.450   4.212
 5484SOL    HW117351   4.400   1.524   4.151
 5484SOL    HW217352   4.396   1.472   4.305
 5485SOL     OW17353   3.733   0.150   5.625
 5485SOL    HW117354   3.765   0.180   5.715
 5485SOL    HW217355   3.643   0.108   5.634
 5486SOL     OW17356   2.500   5.811   5.251
 5486SOL    HW117357   2.599   5.813   5.232
 5486SOL    HW217358   2.485   5.801   5.349
 5487SOL     OW17359   4.395   2.572   6.843
 5487SOL    HW117360   4.367   2.536   6.754
 5487SOL    HW217361   4.315   2.612   6.889
 5488SOL     OW17362   6.562   0.085   0.977
 5488SOL    HW117363   6.516   0.174   0.980
 5488SOL    HW217364   6.661   0.099   0.984
 5489SOL     OW17365   0.641   4.981   1.668
 5489SOL    HW117366   0.648   5.012   1.573
 5489SOL    HW217367   0.733   4.973   1.707
 5490SOL     OW17368   3.334   0.452   2.580
 5490SOL    HW117369   3.396   0.402   2.641
 5490SOL    HW217370   3.254   0.395   2.560
 5491SOL     OW17371   0.584   3.191   0.263
 5491SOL    HW117372   0.489   3.164   0.274
 5491SOL    HW217373   0.638   3.112   0.232
 5492SOL     OW17374   0.606   4.102   6.567
 5492SOL    HW117375   0.648   4.093   6.476
 5492SOL    HW217376   0.540   4.028   6.580
 5493SOL     OW17377   3.006   3.396   4.026
 5493SOL    HW117378   2.936   3.465   4.009
 5493SOL    HW217379   3.047   3.368   3.940
 5494SOL     OW17380   0.614   3.741   5.793
 5494SOL    HW117381   0.542   3.776   5.733
 5494SOL    HW217382   0.694   3.716   5.738
 5495SOL     OW17383   6.103   0.912   0.746
 5495SOL    HW117384   6.067   0.961   0.667
 5495SOL    HW217385   6.031   0.899   0.813
 5496SOL     OW17386   4.218   0.541   3.816
 5496SOL    HW117387   4.243   0.638   3.818
 5496SOL    HW217388   4.230   0.502   3.907
 5497SOL     OW17389   0.521   0.878   4.715
 5497SOL    HW117390   0.471   0.904   4.632
 5497SOL    HW217391   0.534   0.960   4.771
 5498SOL     OW17392   7.019   5.280   1.438
 5498SOL    HW117393   6.997   5.357   1.498
 5498SOL    HW217394   6.957   5.204   1.458
 5499SOL     OW17395   1.202   0.762   4.872
 5499SOL    HW117396   1.205   0.663   4.885
 5499SOL    HW217397   1.234   0.808   4.955
 5500SOL     OW17398   0.829   0.444   0.011
 5500SOL    HW117399   0.754   0.474   6.983
 5500SOL    HW217400   0.813   0.350   0.039
 5501SOL     OW17401   3.816   1.735   6.843
 5501SOL    HW117402   3.886   1.668   6.869
 5501SOL    HW217403   3.734   1.719   6.898
 5502SOL     OW17404   5.536   4.042   6.572
 5502SOL    HW117405   5.614   4.101   6.596
 5502SOL    HW217406   5.469   4.043   6.646
 5503SOL     OW17407   6.931   4.598   1.166
 5503SOL    HW117408   6.889   4.649   1.091
 5503SOL    HW217409   7.015   4.643   1.195
 5504SOL     OW17410   4.507   1.205   5.154
 5504SOL    HW117411   4.481   1.118   5.193
 5504SOL    HW217412   4.603   1.225   5.177
 5505SOL     OW17413   2.147   4.950   4.092
 5505SOL    HW117414   2.121   5.015   4.164
 5505SOL    HW217415   2.198   4.875   4.132
 5506SOL     OW17416   0.668   3.790   0.906
 5506SOL    HW117417   0.575   3.788   0.869
 5506SOL    HW217418   0.727   3.735   0.848
 5507SOL     OW17419   3.766   1.138   4.978
 5507SOL    HW117420   3.709   1.179   5.050
 5507SOL    HW217421   3.710   1.078   4.922
 5508SOL     OW17422   1.341   1.188   0.297
 5508SOL    HW117423   1.247   1.217   0.280
 5508SOL    HW217424   1.380   1.151   0.213
 5509SOL     OW17425   0.601   6.157   6.446
 5509SOL    HW117426   0.695   6.185   6.467
 5509SOL    HW217427   0.595   6.131   6.350
 5510SOL     OW17428   4.094   5.415   6.448
 5510SOL    HW117429   4.123   5.323   6.476
 5510SOL    HW217430   4.143   5.483   6.501
 5511SOL     OW17431   1.161   0.155   4.369
 5511SOL    HW117432   1.240   0.206   4.335
 5511SOL    HW217433   1.090   0.218   4.399
 5512SOL     OW17434   4.941   1.971   0.922
 5512SOL    HW117435   4.883   1.925   0.990
 5512SOL    HW217436   5.012   2.023   0.969
 5513SOL     OW17437   3.592   5.283   5.808
 5513SOL    HW117438   3.655   5.342   5.758
 5513SOL    HW217439   3.553   5.333   5.885
 5514SOL     OW17440   3.527   0.452   4.817
 5514SOL    HW117441   3.433   0.419   4.827
 5514SOL    HW217442   3.527   0.536   4.763
 5515SOL     OW17443   0.806   5.705   1.692
 5515SOL    HW117444   0.830   5.706   1.790
 5515SOL    HW217445   0.710   5.678   1.682
 5516SOL     OW17446   1.751   2.536   4.692
 5516SOL    HW117447   1.654   2.515   4.703
 5516SOL    HW217448   1.773   2.618   4.746
 5517SOL     OW17449   2.061   3.662   2.056
 5517SOL    HW117450   1.993   3.680   1.985
 5517SOL    HW217451   2.113   3.580   2.032
 5518SOL     OW17452   5.671   5.606   6.914
 5518SOL    HW117453   5.626   5.522   6.943
 5518SOL    HW217454   5.765   5.608   6.950
 5519SOL     OW17455   5.387   2.932   2.975
 5519SOL    HW117456   5.299   2.979   2.981
 5519SOL    HW217457   5.455   2.994   2.935
 5520SOL     OW17458   5.729   6.887   2.574
 5520SOL    HW117459   5.787   6.816   2.534
 5520SOL    HW217460   5.636   6.851   2.586
 5521SOL     OW17461   4.975   6.403   1.976
 5521SOL    HW117462   4.938   6.496   1.976
 5521SOL    HW217463   5.058   6.401   1.920
 5522SOL     OW17464   6.550   5.062   0.887
 5522SOL    HW117465   6.533   4.964   0.876
 5522SOL    HW217466   6.466   5.113   0.867
 5523SOL     OW17467   4.297   0.786   1.744
 5523SOL    HW117468   4.207   0.742   1.744
 5523SOL    HW217469   4.301   0.852   1.819
 5524SOL     OW17470   3.866   6.840   4.906
 5524SOL    HW117471   3.864   6.831   4.806
 5524SOL    HW217472   3.897   6.931   4.930
 5525SOL     OW17473   1.143   2.546   0.326
 5525SOL    HW117474   1.229   2.549   0.276
 5525SOL    HW217475   1.081   2.481   0.283
 5526SOL     OW17476   4.937   4.943   2.805
 5526SOL    HW117477   4.984   4.975   2.887
 5526SOL    HW217478   4.950   5.009   2.731
 5527SOL     OW17479   4.860   3.776   3.839
 5527SOL    HW117480   4.896   3.725   3.916
 5527SOL    HW217481   4.818   3.860   3.871
 5528SOL     OW17482   1.703   0.890   1.055
 5528SOL    HW117483   1.769   0.821   1.027
 5528SOL    HW217484   1.685   0.952   0.979
 5529SOL     OW17485   3.333   6.710   4.643
 5529SOL    HW117486   3.428   6.686   4.664
 5529SOL    HW217487   3.284   6.729   4.729
 5530SOL     OW17488   6.443   1.655   1.097
 5530SOL    HW117489   6.518   1.593   1.119
 5530SOL    HW217490   6.476   1.749   1.094
 5531SOL     OW17491   3.417   3.371   1.364
 5531SOL    HW117492   3.331   3.400   1.321
 5531SOL    HW217493   3.441   3.434   1.437
 5532SOL     OW17494   1.046   3.032   1.099
 5532SOL    HW117495   1.077   2.940   1.074
 5532SOL    HW217496   0.967   3.057   1.043
 5533SOL     OW17497   4.760   1.602   3.564
 5533SOL    HW117498   4.727   1.557   3.481
 5533SOL    HW217499   4.782   1.532   3.632
 5534SOL     OW17500   1.041   1.521   0.266
 5534SOL    HW117501   1.051   1.565   0.176
 5534SOL    HW217502   1.052   1.422   0.256
 5535SOL     OW17503   1.229   1.359   3.137
 5535SOL    HW117504   1.286   1.330   3.214
 5535SOL    HW217505   1.275   1.338   3.051
 5536SOL     OW17506   3.765   0.320   4.007
 5536SOL    HW117507   3.781   0.225   3.980
 5536SOL    HW217508   3.801   0.335   4.099
 5537SOL     OW17509   3.498   1.550   1.997
 5537SOL    HW117510   3.398   1.547   2.006
 5537SOL    HW217511   3.540   1.519   2.083
 5538SOL     OW17512   4.365   5.705   5.378
 5538SOL    HW117513   4.345   5.675   5.471
 5538SOL    HW217514   4.324   5.795   5.362
 5539SOL     OW17515   1.367   4.072   1.605
 5539SOL    HW117516   1.461   4.062   1.574
 5539SOL    HW217517   1.305   4.071   1.527
 5540SOL     OW17518   4.624   4.727   4.228
 5540SOL    HW117519   4.545   4.665   4.237
 5540SOL    HW217520   4.613   4.783   4.146
 5541SOL     OW17521   5.133   0.197   6.315
 5541SOL    HW117522   5.044   0.178   6.359
 5541SOL    HW217523   5.184   0.111   6.308
 5542SOL     OW17524   4.146   3.401   6.079
 5542SOL    HW117525   4.158   3.303   6.090
 5542SOL    HW217526   4.048   3.422   6.073
 5543SOL     OW17527   4.833   4.192   6.861
 5543SOL    HW117528   4.827   4.106   6.912
 5543SOL    HW217529   4.889   4.178   6.779
 5544SOL     OW17530   4.509   5.703   6.729
 5544SOL    HW117531   4.537   5.687   6.824
 5544SOL    HW217532   4.569   5.651   6.668
 5545SOL     OW17533   5.142   0.588   2.856
 5545SOL    HW117534   5.090   0.564   2.774
 5545SOL    HW217535   5.237   0.558   2.845
 5546SOL     OW17536   0.679   4.335   4.515
 5546SOL    HW117537   0.649   4.423   4.479
 5546SOL    HW217538   0.778   4.327   4.505
 5547SOL     OW17539   2.954   6.374   5.049
 5547SOL    HW117540   2.951   6.280   5.081
 5547SOL    HW217541   2.861   6.408   5.035
 5548SOL     OW17542   6.327   3.415   5.702
 5548SOL    HW117543   6.337   3.483   5.774
 5548SOL    HW217544   6.265   3.342   5.732
 5549SOL     OW17545   4.088   4.866   0.429
 5549SOL    HW117546   4.172   4.893   0.382
 5549SOL    HW217547   4.069   4.929   0.504
 5550SOL     OW17548   3.024   5.556   2.400
 5550SOL    HW117549   3.027   5.635   2.338
 5550SOL    HW217550   2.957   5.490   2.367
 5551SOL     OW17551   1.640   0.698   2.988
 5551SOL    HW117552   1.569   0.658   3.046
 5551SOL    HW217553   1.719   0.722   3.044
 5552SOL     OW17554   6.885   1.227   6.811
 5552SOL    HW117555   6.898   1.247   6.714
 5552SOL    HW217556   6.787   1.231   6.833
 5553SOL     OW17557   3.499   6.545   0.408
 5553SOL    HW117558   3.457   6.581   0.491
 5553SOL    HW217559   3.596   6.529   0.424
 5554SOL     OW17560   2.558   1.764   5.866
 5554SOL    HW117561   2.586   1.831   5.935
 5554SOL    HW217562   2.577   1.801   5.775
 5555SOL     OW17563   0.937   5.705   3.466
 5555SOL    HW117564   0.939   5.754   3.379
 5555SOL    HW217565   0.864   5.741   3.524
 5556SOL     OW17566   0.384   2.442   4.388
 5556SOL    HW117567   0.376   2.342   4.379
 5556SOL    HW217568   0.371   2.485   4.299
 5557SOL     OW17569   3.044   5.450   4.248
 5557SOL    HW117570   2.994   5.440   4.335
 5557SOL    HW217571   2.980   5.437   4.172
 5558SOL     OW17572   4.782   3.164   5.286
 5558SOL    HW117573   4.821   3.245   5.243
 5558SOL    HW217574   4.819   3.082   5.242
 5559SOL     OW17575   2.667   6.863   2.122
 5559SOL    HW117576   2.743   6.815   2.079
 5559SOL    HW217577   2.585   6.805   2.118
 5560SOL     OW17578   0.227   6.951   3.082
 5560SOL    HW117579   0.194   6.961   2.988
 5560SOL    HW217580   0.156   6.981   3.146
 5561SOL     OW17581   1.511   2.636   4.221
 5561SOL    HW117582   1.428   2.588   4.247
 5561SOL    HW217583   1.538   2.698   4.295
 5562SOL     OW17584   1.877   2.574   6.580
 5562SOL    HW117585   1.872   2.488   6.529
 5562SOL    HW217586   1.836   2.562   6.670
 5563SOL     OW17587   4.443   6.547   2.334
 5563SOL    HW117588   4.518   6.512   2.279
 5563SOL    HW217589   4.383   6.471   2.361
 5564SOL     OW17590   5.164   2.901   1.453
 5564SOL    HW117591   5.204   2.874   1.365
 5564SOL    HW217592   5.190   2.835   1.523
 5565SOL     OW17593   4.559   2.402   5.973
 5565SOL    HW117594   4.496   2.478   5.985
 5565SOL    HW217595   4.647   2.424   6.016
 5566SOL     OW17596   1.273   5.890   1.345
 5566SOL    HW117597   1.229   5.973   1.380
 5566SOL    HW217598   1.315   5.909   1.256
 5567SOL     OW17599   0.898   4.811   0.712
 5567SOL    HW117600   0.812   4.844   0.673
 5567SOL    HW217601   0.904   4.712   0.702
 5568SOL     OW17602   4.583   2.430   1.016
 5568SOL    HW117603   4.657   2.497   1.026
 5568SOL    HW217604   4.607   2.366   0.943
 5569SOL     OW17605   3.967   1.686   1.575
 5569SOL    HW117606   3.930   1.736   1.653
 5569SOL    HW217607   3.990   1.592   1.603
 5570SOL     OW17608   6.381   4.756   4.879
 5570SOL    HW117609   6.297   4.762   4.934
 5570SOL    HW217610   6.439   4.835   4.897
 5571SOL     OW17611   0.205   6.350   0.694
 5571SOL    HW117612   0.217   6.419   0.623
 5571SOL    HW217613   0.108   6.340   0.716
 5572SOL     OW17614   3.570   2.619   6.448
 5572SOL    HW117615   3.500   2.575   6.392
 5572SOL    HW217616   3.576   2.573   6.536
 5573SOL     OW17617   1.046   3.115   0.549
 5573SOL    HW117618   1.036   3.146   0.644
 5573SOL    HW217619   0.980   3.164   0.492
 5574SOL     OW17620   0.265   0.203   4.475
 5574SOL    HW117621   0.328   0.188   4.399
 5574SOL    HW217622   0.236   0.299   4.475
 5575SOL     OW17623   1.820   0.833   1.445
 5575SOL    HW117624   1.835   0.848   1.543
 5575SOL    HW217625   1.772   0.747   1.432
 5576SOL     OW17626   6.215   5.069   1.482
 5576SOL    HW117627   6.306   5.027   1.474
 5576SOL    HW217628   6.209   5.147   1.420
 5577SOL     OW17629   2.170   3.613   5.069
 5577SOL    HW117630   2.211   3.528   5.037
 5577SOL    HW217631   2.178   3.618   5.169
 5578SOL     OW17632   3.206   2.634   7.015
 5578SOL    HW117633   3.260   2.587   0.054
 5578SOL    HW217634   3.118   2.589   7.004
 5579SOL     OW17635   5.272   3.813   6.167
 5579SOL    HW117636   5.183   3.841   6.131
 5579SOL    HW217637   5.264   3.799   6.266
 5580SOL     OW17638   4.765   2.144   0.354
 5580SOL    HW117639   4.863   2.156   0.368
 5580SOL    HW217640   4.727   2.226   0.311
 5581SOL     OW17641   2.725   0.299   7.029
 5581SOL    HW117642   2.657   0.324   0.068
 5581SOL    HW217643   2.698   0.212   6.987
 5582SOL     OW17644   3.683   3.698   3.950
 5582SOL    HW117645   3.693   3.797   3.956
 5582SOL    HW217646   3.758   3.653   4.000
 5583SOL     OW17647   4.002   6.278   2.432
 5583SOL    HW117648   3.945   6.205   2.471
 5583SOL    HW217649   3.990   6.362   2.484
 5584SOL     OW17650   5.457   4.144   3.493
 5584SOL    HW117651   5.496   4.138   3.585
 5584SOL    HW217652   5.371   4.094   3.490
 5585SOL     OW17653   5.438   0.716   3.826
 5585SOL    HW117654   5.503   0.676   3.762
 5585SOL    HW217655   5.349   0.672   3.816
 5586SOL     OW17656   1.497   1.613   6.456
 5586SOL    HW117657   1.525   1.586   6.364
 5586SOL    HW217658   1.534   1.548   6.522
 5587SOL     OW17659   3.374   0.306   3.366
 5587SOL    HW117660   3.424   0.236   3.417
 5587SOL    HW217661   3.283   0.272   3.343
 5588SOL     OW17662   2.612   6.594   5.192
 5588SOL    HW117663   2.637   6.688   5.171
 5588SOL    HW217664   2.565   6.590   5.280
 5589SOL     OW17665   4.927   3.179   5.858
 5589SOL    HW117666   5.009   3.194   5.801
 5589SOL    HW217667   4.929   3.242   5.936
 5590SOL     OW17668   6.320   5.631   3.688
 5590SOL    HW117669   6.239   5.579   3.661
 5590SOL    HW217670   6.294   5.724   3.711
 5591SOL     OW17671   5.852   0.724   0.454
 5591SOL    HW117672   5.926   0.767   0.402
 5591SOL    HW217673   5.884   0.637   0.493
 5592SOL     OW17674   1.898   3.660   3.770
 5592SOL    HW117675   1.901   3.606   3.854
 5592SOL    HW217676   1.920   3.756   3.792
 5593SOL     OW17677   0.435   2.323   5.808
 5593SOL    HW117678   0.461   2.416   5.780
 5593SOL    HW217679   0.335   2.316   5.812
 5594SOL     OW17680   2.161   0.993   0.355
 5594SOL    HW117681   2.134   1.008   0.450
 5594SOL    HW217682   2.211   1.073   0.321
 5595SOL     OW17683   6.320   0.970   5.928
 5595SOL    HW117684   6.351   0.942   6.019
 5595SOL    HW217685   6.400   0.991   5.871
 5596SOL     OW17686   5.921   0.453   2.338
 5596SOL    HW117687   5.938   0.498   2.425
 5596SOL    HW217688   5.877   0.364   2.354
 5597SOL     OW17689   5.444   2.161   6.252
 5597SOL    HW117690   5.470   2.256   6.268
 5597SOL    HW217691   5.345   2.152   6.256
 5598SOL     OW17692   5.055   1.684   4.104
 5598SOL    HW117693   5.055   1.714   4.008
 5598SOL    HW217694   4.965   1.700   4.143
 5599SOL     OW17695   5.687   3.746   1.598
 5599SOL    HW117696   5.598   3.705   1.617
 5599SOL    HW217697   5.726   3.781   1.683
 5600SOL     OW17698   2.280   0.181   3.140
 5600SOL    HW117699   2.312   0.086   3.145
 5600SOL    HW217700   2.278   0.220   3.232
 5601SOL     OW17701   5.303   3.298   5.921
 5601SOL    HW117702   5.394   3.267   5.895
 5601SOL    HW217703   5.274   3.251   6.004
 5602SOL     OW17704   0.329   2.010   3.291
 5602SOL    HW117705   0.290   2.102   3.283
 5602SOL    HW217706   0.342   1.971   3.200
 5603SOL     OW17707   4.559   2.825   5.255
 5603SOL    HW117708   4.611   2.854   5.175
 5603SOL    HW217709   4.525   2.732   5.242
 5604SOL     OW17710   1.102   6.990   4.788
 5604SOL    HW117711   1.101   7.028   4.880
 5604SOL    HW217712   1.126   6.893   4.792
 5605SOL     OW17713   1.586   6.959   4.502
 5605SOL    HW117714   1.490   6.949   4.478
 5605SOL    HW217715   1.639   6.886   4.459
 5606SOL     OW17716   4.908   1.583   0.100
 5606SOL    HW117717   4.890   1.545   0.191
 5606SOL    HW217718   4.904   1.683   0.104
 5607SOL     OW17719   5.906   2.276   3.680
 5607SOL    HW117720   5.984   2.246   3.623
 5607SOL    HW217721   5.863   2.356   3.638
 5608SOL     OW17722   5.719   0.403   3.247
 5608SOL    HW117723   5.759   0.317   3.280
 5608SOL    HW217724   5.790   0.474   3.244
 5609SOL     OW17725   5.290   6.807   7.023
 5609SOL    HW117726   5.296   6.750   0.074
 5609SOL    HW217727   5.379   6.812   6.979
 5610SOL     OW17728   5.371   3.743   6.951
 5610SOL    HW117729   5.324   3.799   7.019
 5610SOL    HW217730   5.458   3.710   6.989
 5611SOL     OW17731   0.605   5.042   1.414
 5611SOL    HW117732   0.659   5.092   1.346
 5611SOL    HW217733   0.560   4.965   1.369
 5612SOL     OW17734   2.704   2.536   0.072
 5612SOL    HW117735   2.635   2.518   0.143
 5612SOL    HW217736   2.688   2.626   0.032
 5613SOL     OW17737   0.121   5.478   4.859
 5613SOL    HW117738   0.027   5.462   4.830
 5613SOL    HW217739   0.182   5.415   4.812
 5614SOL     OW17740   5.433   2.031   4.886
 5614SOL    HW117741   5.485   2.109   4.850
 5614SOL    HW217742   5.468   1.946   4.846
 5615SOL     OW17743   0.317   2.615   2.601
 5615SOL    HW117744   0.259   2.574   2.671
 5615SOL    HW217745   0.341   2.709   2.628
 5616SOL     OW17746   1.798   2.629   4.362
 5616SOL    HW117747   1.776   2.673   4.449
 5616SOL    HW217748   1.726   2.650   4.296
 5617SOL     OW17749   1.691   5.115   5.894
 5617SOL    HW117750   1.743   5.192   5.857
 5617SOL    HW217751   1.596   5.143   5.910
 5618SOL     OW17752   6.930   4.968   3.688
 5618SOL    HW117753   6.879   4.893   3.645
 5618SOL    HW217754   6.934   4.953   3.787
 5619SOL     OW17755   3.181   3.021   3.479
 5619SOL    HW117756   3.269   2.983   3.453
 5619SOL    HW217757   3.154   2.985   3.569
 5620SOL     OW17758   4.094   4.039   6.096
 5620SOL    HW117759   4.063   4.122   6.144
 5620SOL    HW217760   4.028   4.015   6.025
 5621SOL     OW17761   1.516   3.078   5.910
 5621SOL    HW117762   1.616   3.067   5.911
 5621SOL    HW217763   1.489   3.119   5.823
 5622SOL     OW17764   4.569   5.715   4.769
 5622SOL    HW117765   4.607   5.628   4.737
 5622SOL    HW217766   4.544   5.772   4.691
 5623SOL     OW17767   4.989   6.198   4.259
 5623SOL    HW117768   4.932   6.124   4.224
 5623SOL    HW217769   4.970   6.213   4.356
 5624SOL     OW17770   0.267   5.359   3.644
 5624SOL    HW117771   0.184   5.408   3.670
 5624SOL    HW217772   0.243   5.268   3.609
 5625SOL     OW17773   1.583   5.577   4.586
 5625SOL    HW117774   1.499   5.630   4.595
 5625SOL    HW217775   1.659   5.638   4.564
 5626SOL     OW17776   2.098   4.363   4.216
 5626SOL    HW117777   2.079   4.461   4.221
 5626SOL    HW217778   2.163   4.345   4.142
 5627SOL     OW17779   1.039   5.850   6.734
 5627SOL    HW117780   1.061   5.767   6.785
 5627SOL    HW217781   0.953   5.888   6.768
 5628SOL     OW17782   3.075   3.375   0.883
 5628SOL    HW117783   3.017   3.294   0.897
 5628SOL    HW217784   3.022   3.457   0.902
 5629SOL     OW17785   4.206   3.603   1.269
 5629SOL    HW117786   4.260   3.654   1.335
 5629SOL    HW217787   4.223   3.639   1.177
 5630SOL     OW17788   1.464   4.179   6.673
 5630SOL    HW117789   1.479   4.271   6.636
 5630SOL    HW217790   1.522   4.114   6.623
 5631SOL     OW17791   5.114   0.931   1.726
 5631SOL    HW117792   5.120   1.020   1.771
 5631SOL    HW217793   5.051   0.872   1.776
 5632SOL     OW17794   5.104   1.070   5.439
 5632SOL    HW117795   5.050   1.114   5.511
 5632SOL    HW217796   5.201   1.072   5.463
 5633SOL     OW17797   0.229   4.518   4.962
 5633SOL    HW117798   0.214   4.441   5.023
 5633SOL    HW217799   0.160   4.519   4.890
 5634SOL     OW17800   2.731   5.374   5.971
 5634SOL    HW117801   2.818   5.408   5.933
 5634SOL    HW217802   2.750   5.320   6.053
 5635SOL     OW17803   2.842   0.223   6.702
 5635SOL    HW117804   2.846   0.314   6.743
 5635SOL    HW217805   2.866   0.155   6.772
 5636SOL     OW17806   6.206   1.208   5.622
 5636SOL    HW117807   6.217   1.158   5.537
 5636SOL    HW217808   6.233   1.303   5.608
 5637SOL     OW17809   5.725   6.080   4.814
 5637SOL    HW117810   5.799   6.134   4.855
 5637SOL    HW217811   5.688   6.017   4.882
 5638SOL     OW17812   4.886   5.955   1.364
 5638SOL    HW117813   4.922   5.880   1.420
 5638SOL    HW217814   4.853   6.028   1.424
 5639SOL     OW17815   1.809   0.265   2.023
 5639SOL    HW117816   1.854   0.198   2.083
 5639SOL    HW217817   1.767   0.217   1.946
 5640SOL     OW17818   2.797   6.890   2.858
 5640SOL    HW117819   2.858   6.968   2.843
 5640SOL    HW217820   2.832   6.810   2.810
 5641SOL     OW17821   1.147   4.189   5.465
 5641SOL    HW117822   1.184   4.114   5.410
 5641SOL    HW217823   1.216   4.219   5.530
 5642SOL     OW17824   0.542   5.038   6.030
 5642SOL    HW117825   0.504   5.115   6.081
 5642SOL    HW217826   0.612   4.992   6.085
 5643SOL     OW17827   3.564   2.093   4.860
 5643SOL    HW117828   3.474   2.127   4.832
 5643SOL    HW217829   3.635   2.153   4.822
 5644SOL     OW17830   5.147   1.453   4.507
 5644SOL    HW117831   5.227   1.457   4.566
 5644SOL    HW217832   5.136   1.360   4.471
 5645SOL     OW17833   5.151   4.378   2.564
 5645SOL    HW117834   5.160   4.478   2.559
 5645SOL    HW217835   5.059   4.352   2.534
 5646SOL     OW17836   1.014   5.486   3.759
 5646SOL    HW117837   1.045   5.464   3.666
 5646SOL    HW217838   0.940   5.424   3.784
 5647SOL     OW17839   0.229   6.199   6.676
 5647SOL    HW117840   0.222   6.101   6.658
 5647SOL    HW217841   0.186   6.220   6.764
 5648SOL     OW17842   1.941   1.373   3.383
 5648SOL    HW117843   2.027   1.421   3.364
 5648SOL    HW217844   1.865   1.435   3.364
 5649SOL     OW17845   1.544   0.362   4.559
 5649SOL    HW117846   1.467   0.425   4.571
 5649SOL    HW217847   1.591   0.350   4.647
 5650SOL     OW17848   0.211   4.888   1.049
 5650SOL    HW117849   0.235   4.911   0.955
 5650SOL    HW217850   0.118   4.920   1.069
 5651SOL     OW17851   0.616   2.357   1.552
 5651SOL    HW117852   0.519   2.343   1.569
 5651SOL    HW217853   0.654   2.276   1.508
 5652SOL     OW17854   4.922   5.907   2.144
 5652SOL    HW117855   4.961   5.993   2.112
 5652SOL    HW217856   4.824   5.905   2.126
 5653SOL     OW17857   6.840   6.491   6.130
 5653SOL    HW117858   6.793   6.539   6.055
 5653SOL    HW217859   6.928   6.457   6.098
 5654SOL     OW17860   0.384   6.960   6.111
 5654SOL    HW117861   0.428   6.887   6.163
 5654SOL    HW217862   0.382   6.936   6.014
 5655SOL     OW17863   1.068   2.777   4.384
 5655SOL    HW117864   1.154   2.742   4.422
 5655SOL    HW217865   1.086   2.861   4.333
 5656SOL     OW17866   3.204   4.502   0.861
 5656SOL    HW117867   3.203   4.599   0.887
 5656SOL    HW217868   3.115   4.462   0.881
 5657SOL     OW17869   4.990   6.490   1.659
 5657SOL    HW117870   4.990   6.422   1.733
 5657SOL    HW217871   5.000   6.581   1.698
 5658SOL     OW17872   2.941   6.715   6.146
 5658SOL    HW117873   2.991   6.703   6.060
 5658SOL    HW217874   2.980   6.791   6.197
 5659SOL     OW17875   2.925   3.296   2.750
 5659SOL    HW117876   2.931   3.312   2.848
 5659SOL    HW217877   2.867   3.367   2.708
 5660SOL     OW17878   5.439   0.686   0.130
 5660SOL    HW117879   5.501   0.715   0.202
 5660SOL    HW217880   5.464   0.593   0.101
 5661SOL     OW17881   0.184   5.541   5.301
 5661SOL    HW117882   0.236   5.456   5.307
 5661SOL    HW217883   0.228   5.610   5.359
 5662SOL     OW17884   2.820   5.138   4.388
 5662SOL    HW117885   2.833   5.105   4.294
 5662SOL    HW217886   2.733   5.104   4.423
 5663SOL     OW17887   1.518   4.020   0.159
 5663SOL    HW117888   1.520   4.075   0.075
 5663SOL    HW217889   1.489   3.927   0.136
 5664SOL     OW17890   0.382   4.294   3.314
 5664SOL    HW117891   0.309   4.228   3.294
 5664SOL    HW217892   0.457   4.247   3.361
 5665SOL     OW17893   1.478   1.869   6.623
 5665SOL    HW117894   1.490   1.781   6.576
 5665SOL    HW217895   1.380   1.888   6.631
 5666SOL     OW17896   4.702   5.541   1.125
 5666SOL    HW117897   4.705   5.442   1.117
 5666SOL    HW217898   4.794   5.578   1.121
 5667SOL     OW17899   1.176   4.855   3.541
 5667SOL    HW117900   1.102   4.899   3.590
 5667SOL    HW217901   1.197   4.767   3.584
 5668SOL     OW17902   5.616   2.005   6.396
 5668SOL    HW117903   5.555   1.939   6.441
 5668SOL    HW217904   5.563   2.063   6.334
 5669SOL     OW17905   0.605   4.320   6.196
 5669SOL    HW117906   0.529   4.384   6.186
 5669SOL    HW217907   0.570   4.230   6.222
 5670SOL     OW17908   6.892   2.869   3.799
 5670SOL    HW117909   6.940   2.858   3.886
 5670SOL    HW217910   6.946   2.929   3.739
 5671SOL     OW17911   1.459   6.815   6.402
 5671SOL    HW117912   1.523   6.813   6.479
 5671SOL    HW217913   1.483   6.890   6.341
 5672SOL     OW17914   4.437   4.266   6.245
 5672SOL    HW117915   4.453   4.230   6.154
 5672SOL    HW217916   4.340   4.261   6.267
 5673SOL     OW17917   0.294   0.015   1.970
 5673SOL    HW117918   0.205   0.036   2.009
 5673SOL    HW217919   0.338   6.974   2.025
 5674SOL     OW17920   6.913   4.107   2.137
 5674SOL    HW117921   6.834   4.049   2.117
 5674SOL    HW217922   6.994   4.049   2.146
 5675SOL     OW17923   4.188   2.267   5.580
 5675SOL    HW117924   4.188   2.175   5.539
 5675SOL    HW217925   4.096   2.287   5.615
 5676SOL     OW17926   2.153   1.238   1.479
 5676SOL    HW117927   2.057   1.216   1.493
 5676SOL    HW217928   2.200   1.160   1.436
 5677SOL     OW17929   0.873   1.568   3.669
 5677SOL    HW117930   0.916   1.573   3.760
 5677SOL    HW217931   0.942   1.587   3.599
 5678SOL     OW17932   3.532   6.259   2.957
 5678SOL    HW117933   3.600   6.246   3.030
 5678SOL    HW217934   3.573   6.235   2.869
 5679SOL     OW17935   1.974   6.557   4.964
 5679SOL    HW117936   1.928   6.599   5.042
 5679SOL    HW217937   2.028   6.627   4.917
 5680SOL     OW17938   1.573   5.685   0.124
 5680SOL    HW117939   1.643   5.639   0.179
 5680SOL    HW217940   1.550   5.772   0.165
 5681SOL     OW17941   1.086   3.284   6.491
 5681SOL    HW117942   1.139   3.335   6.424
 5681SOL    HW217943   1.142   3.267   6.573
 5682SOL     OW17944   2.035   3.600   5.838
 5682SOL    HW117945   2.124   3.633   5.804
 5682SOL    HW217946   2.012   3.515   5.792
 5683SOL     OW17947   4.200   2.431   6.029
 5683SOL    HW117948   4.113   2.479   6.019
 5683SOL    HW217949   4.272   2.496   6.056
 5684SOL     OW17950   4.002   3.539   4.829
 5684SOL    HW117951   3.917   3.545   4.777
 5684SOL    HW217952   4.019   3.627   4.873
 5685SOL     OW17953   0.857   4.942   1.824
 5685SOL    HW117954   0.870   4.904   1.915
 5685SOL    HW217955   0.892   5.036   1.821
 5686SOL     OW17956   3.411   0.795   0.449
 5686SOL    HW117957   3.457   0.829   0.531
 5686SOL    HW217958   3.447   0.843   0.369
 5687SOL     OW17959   6.274   4.019   4.458
 5687SOL    HW117960   6.245   4.040   4.365
 5687SOL    HW217961   6.358   3.965   4.455
 5688SOL     OW17962   6.564   1.694   0.544
 5688SOL    HW117963   6.478   1.665   0.586
 5688SOL    HW217964   6.638   1.690   0.611
 5689SOL     OW17965   3.945   1.221   0.436
 5689SOL    HW117966   3.954   1.126   0.406
 5689SOL    HW217967   3.863   1.261   0.394
 5690SOL     OW17968   3.010   6.333   0.977
 5690SOL    HW117969   2.960   6.253   1.008
 5690SOL    HW217970   3.108   6.314   0.978
 5691SOL     OW17971   3.148   6.119   2.171
 5691SOL    HW117972   3.175   6.102   2.076
 5691SOL    HW217973   3.052   6.147   2.174
 5692SOL     OW17974   6.762   2.100   6.005
 5692SOL    HW117975   6.752   2.031   5.933
 5692SOL    HW217976   6.856   2.098   6.040
 5693SOL     OW17977   5.168   2.661   2.094
 5693SOL    HW117978   5.193   2.612   2.178
 5693SOL    HW217979   5.123   2.598   2.031
 5694SOL     OW17980   0.663   1.525   3.949
 5694SOL    HW117981   0.747   1.478   3.925
 5694SOL    HW217982   0.668   1.621   3.919
 5695SOL     OW17983   1.329   2.140   3.230
 5695SOL    HW117984   1.325   2.059   3.289
 5695SOL    HW217985   1.385   2.120   3.150
 5696SOL     OW17986   2.850   0.991   3.619
 5696SOL    HW117987   2.781   0.981   3.691
 5696SOL    HW217988   2.858   0.906   3.569
 5697SOL     OW17989   6.133   2.107   1.623
 5697SOL    HW117990   6.150   2.184   1.561
 5697SOL    HW217991   6.174   2.024   1.585
 5698SOL     OW17992   0.233   2.079   2.388
 5698SOL    HW117993   0.317   2.035   2.420
 5698SOL    HW217994   0.257   2.164   2.341
 5699SOL     OW17995   6.454   1.459   3.753
 5699SOL    HW117996   6.379   1.516   3.719
 5699SOL    HW217997   6.452   1.458   3.853
 5700SOL     OW17998   6.995   5.790   4.539
 5700SOL    HW117999   6.961   5.766   4.630
 5700SOL    HW218000   6.950   5.732   4.471
 5701SOL     OW18001   0.815   5.580   3.146
 5701SOL    HW118002   0.857   5.633   3.219
 5701SOL    HW218003   0.846   5.485   3.150
 5702SOL     OW18004   1.950   6.921   5.575
 5702SOL    HW118005   1.933   6.840   5.631
 5702SOL    HW218006   2.029   6.904   5.516
 5703SOL     OW18007   4.863   4.643   0.442
 5703SOL    HW118008   4.767   4.640   0.468
 5703SOL    HW218009   4.890   4.554   0.405
 5704SOL     OW18010   4.059   5.821   2.719
 5704SOL    HW118011   3.979   5.786   2.766
 5704SOL    HW218012   4.126   5.855   2.786
 5705SOL     OW18013   6.242   1.417   0.324
 5705SOL    HW118014   6.301   1.494   0.300
 5705SOL    HW218015   6.192   1.438   0.408
 5706SOL     OW18016   1.730   1.688   0.546
 5706SOL    HW118017   1.740   1.661   0.642
 5706SOL    HW218018   1.647   1.646   0.509
 5707SOL     OW18019   1.225   6.787   6.987
 5707SOL    HW118020   1.224   6.751   6.894
 5707SOL    HW218021   1.167   6.869   6.991
 5708SOL     OW18022   5.471   6.852   1.847
 5708SOL    HW118023   5.495   6.949   1.847
 5708SOL    HW218024   5.372   6.842   1.840
 5709SOL     OW18025   1.023   6.102   3.518
 5709SOL    HW118026   0.929   6.115   3.551
 5709SOL    HW218027   1.054   6.011   3.543
 5710SOL     OW18028   2.459   3.489   5.383
 5710SOL    HW118029   2.554   3.481   5.352
 5710SOL    HW218030   2.431   3.585   5.382
 5711SOL     OW18031   5.132   0.315   3.128
 5711SOL    HW118032   5.202   0.244   3.133
 5711SOL    HW218033   5.135   0.359   3.038
 5712SOL     OW18034   0.899   6.601   5.468
 5712SOL    HW118035   0.861   6.615   5.377
 5712SOL    HW218036   0.911   6.689   5.514
 5713SOL     OW18037   0.811   2.634   1.451
 5713SOL    HW118038   0.847   2.647   1.544
 5713SOL    HW218039   0.784   2.539   1.439
 5714SOL     OW18040   1.511   6.793   6.804
 5714SOL    HW118041   1.610   6.784   6.808
 5714SOL    HW218042   1.468   6.709   6.837
 5715SOL     OW18043   1.013   5.749   2.942
 5715SOL    HW118044   0.937   5.778   3.001
 5715SOL    HW218045   1.098   5.785   2.978
 5716SOL     OW18046   0.742   3.924   5.299
 5716SOL    HW118047   0.671   3.857   5.320
 5716SOL    HW218048   0.781   3.958   5.385
 5717SOL     OW18049   1.793   5.301   6.991
 5717SOL    HW118050   1.746   5.215   7.014
 5717SOL    HW218051   1.881   5.280   6.949
 5718SOL     OW18052   1.501   4.557   6.192
 5718SOL    HW118053   1.482   4.651   6.220
 5718SOL    HW218054   1.417   4.503   6.196
 5719SOL     OW18055   2.617   1.150   5.817
 5719SOL    HW118056   2.677   1.078   5.781
 5719SOL    HW218057   2.533   1.109   5.851
 5720SOL     OW18058   0.283   5.319   4.723
 5720SOL    HW118059   0.219   5.251   4.689
 5720SOL    HW218060   0.377   5.285   4.717
 5721SOL     OW18061   0.866   3.818   0.180
 5721SOL    HW118062   0.767   3.811   0.188
 5721SOL    HW218063   0.891   3.913   0.160
 5722SOL     OW18064   5.637   1.663   5.082
 5722SOL    HW118065   5.552   1.627   5.122
 5722SOL    HW218066   5.618   1.697   4.990
 5723SOL     OW18067   4.450   4.353   0.650
 5723SOL    HW118068   4.433   4.255   0.644
 5723SOL    HW218069   4.457   4.380   0.746
 5724SOL     OW18070   3.988   2.317   5.305
 5724SOL    HW118071   4.011   2.410   5.275
 5724SOL    HW218072   3.915   2.321   5.374
 5725SOL     OW18073   5.208   5.990   3.142
 5725SOL    HW118074   5.256   6.072   3.110
 5725SOL    HW218075   5.110   6.010   3.150
 5726SOL     OW18076   6.458   2.917   4.057
 5726SOL    HW118077   6.449   2.840   4.120
 5726SOL    HW218078   6.450   2.884   3.963
 5727SOL     OW18079   6.001   3.515   3.279
 5727SOL    HW118080   6.021   3.580   3.352
 5727SOL    HW218081   5.951   3.437   3.317
 5728SOL     OW18082   4.714   2.143   6.214
 5728SOL    HW118083   4.726   2.216   6.281
 5728SOL    HW218084   4.618   2.139   6.186
 5729SOL     OW18085   0.978   1.434   1.039
 5729SOL    HW118086   0.984   1.378   1.121
 5729SOL    HW218087   0.935   1.521   1.060
 5730SOL     OW18088   4.638   5.673   5.386
 5730SOL    HW118089   4.662   5.646   5.479
 5730SOL    HW218090   4.545   5.708   5.384
 5731SOL     OW18091   1.993   6.723   4.047
 5731SOL    HW118092   1.964   6.723   3.951
 5731SOL    HW218093   2.068   6.788   4.058
 5732SOL     OW18094   6.139   4.759   5.021
 5732SOL    HW118095   6.046   4.791   5.006
 5732SOL    HW218096   6.155   4.747   5.119
 5733SOL     OW18097   3.551   0.799   5.890
 5733SOL    HW118098   3.633   0.744   5.906
 5733SOL    HW218099   3.534   0.806   5.792
 5734SOL     OW18100   0.865   6.798   6.026
 5734SOL    HW118101   0.953   6.782   5.983
 5734SOL    HW218102   0.816   6.712   6.038
 5735SOL     OW18103   3.656   1.169   2.068
 5735SOL    HW118104   3.716   1.220   2.130
 5735SOL    HW218105   3.562   1.203   2.077
 5736SOL     OW18106   5.273   4.642   6.970
 5736SOL    HW118107   5.236   4.732   6.990
 5736SOL    HW218108   5.203   4.573   6.987
 5737SOL     OW18109   5.456   6.056   0.890
 5737SOL    HW118110   5.386   6.047   0.960
 5737SOL    HW218111   5.439   6.138   0.835
 5738SOL     OW18112   3.938   1.539   6.437
 5738SOL    HW118113   3.885   1.454   6.439
 5738SOL    HW218114   3.899   1.601   6.369
 5739SOL     OW18115   1.470   6.956   5.737
 5739SOL    HW118116   1.389   6.910   5.700
 5739SOL    HW218117   1.536   6.888   5.767
 5740SOL     OW18118   4.383   3.411   1.124
 5740SOL    HW118119   4.400   3.335   1.186
 5740SOL    HW218120   4.294   3.399   1.079
 5741SOL     OW18121   6.801   3.357   3.970
 5741SOL    HW118122   6.749   3.294   3.913
 5741SOL    HW218123   6.814   3.443   3.921
 5742SOL     OW18124   4.469   6.691   3.413
 5742SOL    HW118125   4.445   6.738   3.498
 5742SOL    HW218126   4.499   6.757   3.345
 5743SOL     OW18127   3.371   5.771   5.596
 5743SOL    HW118128   3.355   5.673   5.599
 5743SOL    HW218129   3.284   5.820   5.603
 5744SOL     OW18130   5.586   0.892   2.728
 5744SOL    HW118131   5.647   0.850   2.796
 5744SOL    HW218132   5.523   0.955   2.774
 5745SOL     OW18133   2.290   1.118   4.144
 5745SOL    HW118134   2.311   1.079   4.055
 5745SOL    HW218135   2.208   1.174   4.138
 5746SOL     OW18136   4.983   6.917   2.475
 5746SOL    HW118137   4.929   6.966   2.406
 5746SOL    HW218138   5.078   6.912   2.445
 5747SOL     OW18139   0.551   6.251   2.012
 5747SOL    HW118140   0.650   6.265   2.022
 5747SOL    HW218141   0.535   6.182   1.941
 5748SOL     OW18142   1.558   0.156   1.284
 5748SOL    HW118143   1.553   0.248   1.243
 5748SOL    HW218144   1.572   0.088   1.212
 5749SOL     OW18145   1.698   6.128   4.901
 5749SOL    HW118146   1.729   6.039   4.868
 5749SOL    HW218147   1.646   6.116   4.985
 5750SOL     OW18148   6.229   5.551   5.736
 5750SOL    HW118149   6.298   5.603   5.785
 5750SOL    HW218150   6.162   5.515   5.801
 5751SOL     OW18151   1.760   3.255   4.807
 5751SOL    HW118152   1.741   3.195   4.729
 5751SOL    HW218153   1.775   3.348   4.774
 5752SOL     OW18154   5.550   0.151   0.929
 5752SOL    HW118155   5.583   0.233   0.976
 5752SOL    HW218156   5.556   0.073   0.991
 5753SOL     OW18157   2.995   3.215   4.841
 5753SOL    HW118158   2.908   3.204   4.888
 5753SOL    HW218159   3.045   3.293   4.879
 5754SOL     OW18160   0.957   6.079   1.723
 5754SOL    HW118161   0.898   6.151   1.761
 5754SOL    HW218162   0.900   6.008   1.683
 5755SOL     OW18163   1.699   2.061   5.739
 5755SOL    HW118164   1.629   2.044   5.670
 5755SOL    HW218165   1.691   2.155   5.772
 5756SOL     OW18166   0.487   0.382   2.840
 5756SOL    HW118167   0.430   0.427   2.771
 5756SOL    HW218168   0.438   0.305   2.880
 5757SOL     OW18169   0.277   5.309   4.082
 5757SOL    HW118170   0.261   5.389   4.023
 5757SOL    HW218171   0.323   5.338   4.166
 5758SOL     OW18172   2.328   1.044   3.036
 5758SOL    HW118173   2.280   0.956   3.035
 5758SOL    HW218174   2.426   1.029   3.029
 5759SOL     OW18175   4.649   0.796   0.642
 5759SOL    HW118176   4.656   0.896   0.639
 5759SOL    HW218177   4.721   0.757   0.585
 5760SOL     OW18178   6.589   2.492   1.487
 5760SOL    HW118179   6.489   2.489   1.494
 5760SOL    HW218180   6.626   2.549   1.560
 5761SOL     OW18181   5.609   5.331   5.550
 5761SOL    HW118182   5.670   5.256   5.524
 5761SOL    HW218183   5.644   5.374   5.633
 5762SOL     OW18184   4.621   4.148   0.915
 5762SOL    HW118185   4.583   4.241   0.907
 5762SOL    HW218186   4.703   4.151   0.973
 5763SOL     OW18187   5.776   6.211   0.744
 5763SOL    HW118188   5.731   6.239   0.829
 5763SOL    HW218189   5.823   6.289   0.704
 5764SOL     OW18190   4.310   5.465   4.122
 5764SOL    HW118191   4.348   5.373   4.129
 5764SOL    HW218192   4.383   5.532   4.135
 5765SOL     OW18193   6.491   3.245   0.960
 5765SOL    HW118194   6.451   3.189   1.033
 5765SOL    HW218195   6.466   3.341   0.974
 5766SOL     OW18196   1.967   1.586   5.164
 5766SOL    HW118197   1.928   1.662   5.216
 5766SOL    HW218198   1.901   1.554   5.096
 5767SOL     OW18199   2.778   0.294   0.586
 5767SOL    HW118200   2.877   0.283   0.584
 5767SOL    HW218201   2.754   0.391   0.587
 5768SOL     OW18202   0.856   0.322   3.681
 5768SOL    HW118203   0.837   0.268   3.600
 5768SOL    HW218204   0.930   0.387   3.662
 5769SOL     OW18205   2.856   5.905   4.769
 5769SOL    HW118206   2.787   5.966   4.808
 5769SOL    HW218207   2.867   5.825   4.827
 5770SOL     OW18208   6.730   6.920   6.681
 5770SOL    HW118209   6.691   6.944   6.592
 5770SOL    HW218210   6.830   6.926   6.676
 5771SOL     OW18211   1.804   6.926   4.264
 5771SOL    HW118212   1.778   6.899   4.171
 5771SOL    HW218213   1.808   7.026   4.268
 5772SOL     OW18214   5.395   1.150   0.979
 5772SOL    HW118215   5.379   1.233   0.926
 5772SOL    HW218216   5.327   1.144   1.052
 5773SOL     OW18217   3.857   0.842   3.262
 5773SOL    HW118218   3.870   0.765   3.324
 5773SOL    HW218219   3.793   0.907   3.302
 5774SOL     OW18220   2.749   0.307   4.559
 5774SOL    HW118221   2.657   0.271   4.571
 5774SOL    HW218222   2.814   0.232   4.549
 5775SOL     OW18223   0.960   0.100   2.801
 5775SOL    HW118224   1.038   0.152   2.766
 5775SOL    HW218225   0.898   0.077   2.726
 5776SOL     OW18226   1.481   0.329   3.779
 5776SOL    HW118227   1.516   0.394   3.712
 5776SOL    HW218228   1.385   0.309   3.760
 5777SOL     OW18229   0.712   0.033   4.210
 5777SOL    HW118230   0.770   0.064   4.286
 5777SOL    HW218231   0.705   0.106   4.142
 5778SOL     OW18232   1.401   0.097   0.417
 5778SOL    HW118233   1.483   0.141   0.381
 5778SOL    HW218234   1.419   0.000   0.435
 5779SOL     OW18235   4.413   2.600   0.262
 5779SOL    HW118236   4.458   2.564   0.343
 5779SOL    HW218237   4.471   2.669   0.219
 5780SOL     OW18238   6.213   6.165   4.105
 5780SOL    HW118239   6.246   6.192   4.195
 5780SOL    HW218240   6.220   6.065   4.096
 5781SOL     OW18241   6.904   4.607   4.326
 5781SOL    HW118242   6.847   4.528   4.308
 5781SOL    HW218243   6.848   4.680   4.365
 5782SOL     OW18244   2.016   1.800   0.669
 5782SOL    HW118245   1.993   1.716   0.718
 5782SOL    HW218246   2.115   1.815   0.672
 5783SOL     OW18247   0.951   0.957   1.902
 5783SOL    HW118248   1.020   0.890   1.929
 5783SOL    HW218249   0.860   0.921   1.923
 5784SOL     OW18250   0.766   6.688   5.242
 5784SOL    HW118251   0.767   6.770   5.184
 5784SOL    HW218252   0.721   6.613   5.193
 5785SOL     OW18253   1.700   2.729   0.377
 5785SOL    HW118254   1.715   2.632   0.394
 5785SOL    HW218255   1.606   2.753   0.401
 5786SOL     OW18256   0.141   3.735   0.535
 5786SOL    HW118257   0.155   3.710   0.631
 5786SOL    HW218258   0.136   3.834   0.526
 5787SOL     OW18259   2.495   2.100   4.896
 5787SOL    HW118260   2.503   2.164   4.972
 5787SOL    HW218261   2.497   2.006   4.930
 5788SOL     OW18262   2.907   1.554   1.881
 5788SOL    HW118263   2.839   1.618   1.848
 5788SOL    HW218264   2.872   1.507   1.962
 5789SOL     OW18265   3.666   4.904   0.438
 5789SOL    HW118266   3.590   4.966   0.420
 5789SOL    HW218267   3.742   4.926   0.376
 5790SOL     OW18268   1.395   4.248   4.716
 5790SOL    HW118269   1.465   4.315   4.691
 5790SOL    HW218270   1.381   4.184   4.640
 5791SOL     OW18271   4.080   1.116   2.123
 5791SOL    HW118272   4.028   1.043   2.167
 5791SOL    HW218273   4.020   1.172   2.067
 5792SOL     OW18274   6.624   2.937   2.780
 5792SOL    HW118275   6.662   2.889   2.859
 5792SOL    HW218276   6.696   2.953   2.713
 5793SOL     OW18277   5.200   0.923   3.712
 5793SOL    HW118278   5.241   0.930   3.803
 5793SOL    HW218279   5.101   0.932   3.720
 5794SOL     OW18280   3.275   1.646   0.302
 5794SOL    HW118281   3.271   1.642   0.401
 5794SOL    HW218282   3.207   1.712   0.269
 5795SOL     OW18283   6.974   6.635   0.516
 5795SOL    HW118284   6.924   6.586   0.445
 5795SOL    HW218285   6.954   6.593   0.605
 5796SOL     OW18286   3.981   1.591   0.227
 5796SOL    HW118287   3.916   1.642   0.283
 5796SOL    HW218288   4.038   1.534   0.285
 5797SOL     OW18289   4.935   2.097   5.766
 5797SOL    HW118290   5.000   2.088   5.842
 5797SOL    HW218291   4.977   2.063   5.682
 5798SOL     OW18292   0.649   4.515   5.255
 5798SOL    HW118293   0.573   4.454   5.235
 5798SOL    HW218294   0.726   4.462   5.292
 5799SOL     OW18295   6.426   0.752   3.014
 5799SOL    HW118296   6.436   0.693   2.933
 5799SOL    HW218297   6.498   0.730   3.079
 5800SOL     OW18298   5.984   6.313   1.320
 5800SOL    HW118299   5.931   6.231   1.298
 5800SOL    HW218300   5.922   6.391   1.331
 5801SOL     OW18301   2.162   1.985   3.610
 5801SOL    HW118302   2.173   1.888   3.631
 5801SOL    HW218303   2.246   2.019   3.568
 5802SOL     OW18304   1.662   4.507   1.298
 5802SOL    HW118305   1.573   4.552   1.305
 5802SOL    HW218306   1.673   4.442   1.373
 5803SOL     OW18307   1.711   4.995   2.425
 5803SOL    HW118308   1.748   5.075   2.376
 5803SOL    HW218309   1.614   4.985   2.403
 5804SOL     OW18310   0.408   5.109   3.936
 5804SOL    HW118311   0.362   5.180   3.990
 5804SOL    HW218312   0.493   5.146   3.898
 5805SOL     OW18313   2.429   3.926   6.179
 5805SOL    HW118314   2.461   3.837   6.146
 5805SOL    HW218315   2.336   3.918   6.213
 5806SOL     OW18316   0.276   5.838   5.417
 5806SOL    HW118317   0.356   5.821   5.359
 5806SOL    HW218318   0.304   5.886   5.500
 5807SOL     OW18319   0.429   3.843   1.990
 5807SOL    HW118320   0.359   3.775   1.972
 5807SOL    HW218321   0.410   3.889   2.077
 5808SOL     OW18322   5.613   5.191   4.896
 5808SOL    HW118323   5.592   5.205   4.993
 5808SOL    HW218324   5.655   5.101   4.884
 5809SOL     OW18325   5.706   1.915   4.843
 5809SOL    HW118326   5.767   1.845   4.880
 5809SOL    HW218327   5.701   1.906   4.743
 5810SOL     OW18328   3.984   1.614   4.365
 5810SOL    HW118329   4.073   1.572   4.347
 5810SOL    HW218330   3.994   1.714   4.363
 5811SOL     OW18331   2.934   0.295   5.869
 5811SOL    HW118332   3.023   0.256   5.847
 5811SOL    HW218333   2.862   0.229   5.849
 5812SOL     OW18334   6.158   2.289   4.042
 5812SOL    HW118335   6.059   2.280   4.052
 5812SOL    HW218336   6.203   2.205   4.072
 5813SOL     OW18337   1.798   2.012   0.734
 5813SOL    HW118338   1.856   1.932   0.724
 5813SOL    HW218339   1.721   1.991   0.794
 5814SOL     OW18340   6.537   4.555   0.893
 5814SOL    HW118341   6.536   4.655   0.889
 5814SOL    HW218342   6.544   4.518   0.801
 5815SOL     OW18343   3.705   1.996   4.547
 5815SOL    HW118344   3.747   2.041   4.467
 5815SOL    HW218345   3.738   2.040   4.630
 5816SOL     OW18346   4.434   5.923   6.905
 5816SOL    HW118347   4.387   5.945   6.820
 5816SOL    HW218348   4.457   6.008   6.954
 5817SOL     OW18349   5.830   3.984   6.371
 5817SOL    HW118350   5.827   3.891   6.408
 5817SOL    HW218351   5.836   3.980   6.271
 5818SOL     OW18352   6.852   5.740   4.787
 5818SOL    HW118353   6.855   5.803   4.865
 5818SOL    HW218354   6.786   5.667   4.805
 5819SOL     OW18355   4.229   6.532   0.257
 5819SOL    HW118356   4.149   6.480   0.227
 5819SOL    HW218357   4.215   6.565   0.350
 5820SOL     OW18358   3.833   5.860   3.877
 5820SOL    HW118359   3.873   5.951   3.883
 5820SOL    HW218360   3.735   5.868   3.860
 5821SOL     OW18361   0.107   0.090   1.632
 5821SOL    HW118362   0.037   0.028   1.667
 5821SOL    HW218363   0.074   0.134   1.549
 5822SOL     OW18364   0.925   2.449   2.376
 5822SOL    HW118365   1.012   2.462   2.329
 5822SOL    HW218366   0.859   2.515   2.342
 5823SOL     OW18367   1.228   1.247   5.728
 5823SOL    HW118368   1.278   1.238   5.642
 5823SOL    HW218369   1.163   1.322   5.722
 5824SOL     OW18370   6.005   5.015   2.738
 5824SOL    HW118371   5.914   4.991   2.703
 5824SOL    HW218372   6.070   5.020   2.663
 5825SOL     OW18373   2.229   2.243   5.174
 5825SOL    HW118374   2.169   2.252   5.094
 5825SOL    HW218375   2.324   2.234   5.144
 5826SOL     OW18376   6.841   4.974   5.596
 5826SOL    HW118377   6.887   4.891   5.629
 5826SOL    HW218378   6.897   5.016   5.524
 5827SOL     OW18379   1.821   4.570   4.730
 5827SOL    HW118380   1.789   4.664   4.727
 5827SOL    HW218381   1.909   4.563   4.684
 5828SOL     OW18382   6.824   2.991   1.625
 5828SOL    HW118383   6.758   3.010   1.698
 5828SOL    HW218384   6.895   2.929   1.659
 5829SOL     OW18385   2.508   1.212   3.264
 5829SOL    HW118386   2.529   1.307   3.289
 5829SOL    HW218387   2.413   1.192   3.288
 5830SOL     OW18388   4.967   6.950   5.375
 5830SOL    HW118389   5.061   6.986   5.373
 5830SOL    HW218390   4.970   6.850   5.368
 5831SOL     OW18391   0.125   0.745   4.615
 5831SOL    HW118392   0.025   0.751   4.626
 5831SOL    HW218393   0.147   0.732   4.518
 5832SOL     OW18394   3.485   4.789   5.900
 5832SOL    HW118395   3.400   4.834   5.874
 5832SOL    HW218396   3.562   4.849   5.881
 5833SOL     OW18397   4.297   3.638   5.247
 5833SOL    HW118398   4.325   3.693   5.168
 5833SOL    HW218399   4.375   3.586   5.282
 5834SOL     OW18400   6.679   3.447   6.999
 5834SOL    HW118401   6.580   3.460   6.992
 5834SOL    HW218402   6.726   3.502   6.931
 5835SOL     OW18403   4.915   3.224   4.053
 5835SOL    HW118404   4.893   3.227   4.150
 5835SOL    HW218405   4.928   3.317   4.018
 5836SOL     OW18406   3.344   6.390   2.835
 5836SOL    HW118407   3.409   6.465   2.849
 5836SOL    HW218408   3.383   6.305   2.870
 5837SOL     OW18409   4.125   4.921   6.425
 5837SOL    HW118410   4.036   4.958   6.453
 5837SOL    HW218411   4.112   4.839   6.370
 5838SOL     OW18412   2.891   2.721   6.709
 5838SOL    HW118413   2.823   2.707   6.638
 5838SOL    HW218414   2.881   2.812   6.749
 5839SOL     OW18415   6.977   2.032   2.365
 5839SOL    HW118416   0.037   2.065   2.387
 5839SOL    HW218417   6.957   1.949   2.419
 5840SOL     OW18418   0.971   5.605   6.449
 5840SOL    HW118419   0.939   5.570   6.538
 5840SOL    HW218420   0.921   5.689   6.427
 5841SOL     OW18421   4.704   1.991   2.633
 5841SOL    HW118422   4.632   1.922   2.640
 5841SOL    HW218423   4.751   1.982   2.545
 5842SOL     OW18424   4.622   3.084   1.184
 5842SOL    HW118425   4.560   3.009   1.160
 5842SOL    HW218426   4.575   3.149   1.244
 5843SOL     OW18427   2.107   3.571   2.694
 5843SOL    HW118428   2.106   3.669   2.674
 5843SOL    HW218429   2.064   3.521   2.618
 5844SOL     OW18430   1.220   6.618   5.986
 5844SOL    HW118431   1.211   6.651   6.080
 5844SOL    HW218432   1.314   6.630   5.955
 5845SOL     OW18433   0.919   0.563   2.190
 5845SOL    HW118434   0.939   0.470   2.221
 5845SOL    HW218435   0.871   0.613   2.263
 5846SOL     OW18436   0.025   2.123   3.676
 5846SOL    HW118437   0.123   2.126   3.657
 5846SOL    HW218438   0.010   2.134   3.774
 5847SOL     OW18439   2.282   2.157   1.762
 5847SOL    HW118440   2.330   2.138   1.676
 5847SOL    HW218441   2.349   2.181   1.833
 5848SOL     OW18442   2.395   5.084   2.769
 5848SOL    HW118443   2.330   5.106   2.696
 5848SOL    HW218444   2.345   5.067   2.854
 5849SOL     OW18445   0.236   0.110   6.835
 5849SOL    HW118446   0.316   0.070   6.789
 5849SOL    HW218447   0.162   0.044   6.836
 5850SOL     OW18448   0.153   4.001   2.074
 5850SOL    HW118449   0.241   4.044   2.053
 5850SOL    HW218450   0.168   3.914   2.120
 5851SOL     OW18451   5.767   3.855   3.325
 5851SOL    HW118452   5.777   3.804   3.240
 5851SOL    HW218453   5.847   3.839   3.383
 5852SOL     OW18454   6.277   6.294   3.432
 5852SOL    HW118455   6.217   6.235   3.486
 5852SOL    HW218456   6.230   6.380   3.413
 5853SOL     OW18457   3.695   5.839   4.447
 5853SOL    HW118458   3.613   5.842   4.389
 5853SOL    HW218459   3.766   5.898   4.408
 5854SOL     OW18460   6.192   4.895   6.018
 5854SOL    HW118461   6.124   4.937   6.078
 5854SOL    HW218462   6.150   4.821   5.966
 5855SOL     OW18463   0.306   1.010   4.495
 5855SOL    HW118464   0.233   1.043   4.554
 5855SOL    HW218465   0.328   1.080   4.427
 5856SOL     OW18466   2.179   5.768   4.089
 5856SOL    HW118467   2.145   5.699   4.153
 5856SOL    HW218468   2.277   5.781   4.102
 5857SOL     OW18469   6.471   2.655   5.689
 5857SOL    HW118470   6.558   2.638   5.643
 5857SOL    HW218471   6.469   2.604   5.775
 5858SOL     OW18472   1.976   2.110   2.016
 5858SOL    HW118473   2.014   2.074   1.931
 5858SOL    HW218474   2.015   2.061   2.094
 5859SOL     OW18475   5.612   6.307   1.469
 5859SOL    HW118476   5.519   6.330   1.499
 5859SOL    HW218477   5.611   6.220   1.420
 5860SOL     OW18478   1.681   4.066   1.924
 5860SOL    HW118479   1.745   4.070   2.001
 5860SOL    HW218480   1.691   3.978   1.878
 5861SOL     OW18481   4.688   1.381   4.587
 5861SOL    HW118482   4.759   1.315   4.562
 5861SOL    HW218483   4.661   1.366   4.682
 5862SOL     OW18484   4.936   5.099   2.601
 5862SOL    HW118485   4.906   5.020   2.547
 5862SOL    HW218486   4.941   5.179   2.541
 5863SOL     OW18487   2.852   0.520   4.717
 5863SOL    HW118488   2.911   0.579   4.661
 5863SOL    HW218489   2.822   0.442   4.661
 5864SOL     OW18490   3.888   3.567   1.634
 5864SOL    HW118491   3.893   3.521   1.545
 5864SOL    HW218492   3.895   3.666   1.621
 5865SOL     OW18493   5.890   0.399   5.590
 5865SOL    HW118494   5.902   0.498   5.592
 5865SOL    HW218495   5.836   0.370   5.669
 5866SOL     OW18496   4.383   5.326   0.686
 5866SOL    HW118497   4.481   5.328   0.703
 5866SOL    HW218498   4.362   5.261   0.613
 5867SOL     OW18499   0.639   4.171   1.123
 5867SOL    HW118500   0.701   4.092   1.126
 5867SOL    HW218501   0.561   4.150   1.064
 5868SOL     OW18502   0.307   1.225   4.945
 5868SOL    HW118503   0.322   1.301   5.009
 5868SOL    HW218504   0.232   1.248   4.883
 5869SOL     OW18505   3.234   6.194   3.838
 5869SOL    HW118506   3.179   6.276   3.855
 5869SOL    HW218507   3.316   6.220   3.788
 5870SOL     OW18508   5.282   5.900   4.682
 5870SOL    HW118509   5.270   5.886   4.780
 5870SOL    HW218510   5.350   5.836   4.647
 5871SOL     OW18511   4.481   3.059   0.854
 5871SOL    HW118512   4.418   2.998   0.900
 5871SOL    HW218513   4.523   3.121   0.921
 5872SOL     OW18514   4.238   5.547   0.748
 5872SOL    HW118515   4.299   5.468   0.756
 5872SOL    HW218516   4.150   5.526   0.789
 5873SOL     OW18517   2.773   2.486   1.046
 5873SOL    HW118518   2.685   2.452   1.013
 5873SOL    HW218519   2.803   2.431   1.125
 5874SOL     OW18520   3.152   3.932   0.191
 5874SOL    HW118521   3.209   4.009   0.163
 5874SOL    HW218522   3.113   3.950   0.282
 5875SOL     OW18523   4.217   1.674   0.505
 5875SOL    HW118524   4.225   1.595   0.443
 5875SOL    HW218525   4.127   1.674   0.547
 5876SOL     OW18526   3.189   3.141   6.921
 5876SOL    HW118527   3.100   3.133   6.967
 5876SOL    HW218528   3.179   3.200   6.841
 5877SOL     OW18529   0.489   6.712   0.764
 5877SOL    HW118530   0.496   6.617   0.735
 5877SOL    HW218531   0.581   6.747   0.784
 5878SOL     OW18532   5.296   4.849   3.462
 5878SOL    HW118533   5.333   4.858   3.554
 5878SOL    HW218534   5.291   4.940   3.419
 5879SOL     OW18535   1.809   3.077   6.198
 5879SOL    HW118536   1.818   3.140   6.122
 5879SOL    HW218537   1.828   2.984   6.167
 5880SOL     OW18538   4.821   4.840   6.626
 5880SOL    HW118539   4.744   4.787   6.661
 5880SOL    HW218540   4.896   4.837   6.692
 5881SOL     OW18541   1.162   0.041   1.963
 5881SOL    HW118542   1.255   0.069   1.939
 5881SOL    HW218543   1.097   0.089   1.905
 5882SOL     OW18544   1.113   6.941   6.117
 5882SOL    HW118545   1.052   6.945   6.196
 5882SOL    HW218546   1.139   0.003   6.089
 5883SOL     OW18547   1.066   1.241   0.217
 5883SOL    HW118548   1.121   1.236   0.134
 5883SOL    HW218549   0.993   1.172   0.212
 5884SOL     OW18550   5.309   0.554   4.943
 5884SOL    HW118551   5.258   0.538   4.859
 5884SOL    HW218552   5.260   0.514   5.020
 5885SOL     OW18553   0.333   5.980   2.412
 5885SOL    HW118554   0.340   6.075   2.379
 5885SOL    HW218555   0.372   5.918   2.344
 5886SOL     OW18556   1.510   2.235   4.243
 5886SOL    HW118557   1.525   2.136   4.244
 5886SOL    HW218558   1.532   2.272   4.334
 5887SOL     OW18559   2.214   2.460   1.968
 5887SOL    HW118560   2.188   2.418   2.055
 5887SOL    HW218561   2.293   2.412   1.931
 5888SOL     OW18562   2.438   6.617   1.792
 5888SOL    HW118563   2.364   6.550   1.799
 5888SOL    HW218564   2.508   6.582   1.730
 5889SOL     OW18565   5.926   1.978   6.689
 5889SOL    HW118566   5.906   2.006   6.595
 5889SOL    HW218567   6.013   1.930   6.691
 5890SOL     OW18568   1.967   6.998   3.085
 5890SOL    HW118569   1.960   0.055   3.133
 5890SOL    HW218570   1.989   6.926   3.151
 5891SOL     OW18571   2.235   4.371   0.650
 5891SOL    HW118572   2.224   4.283   0.604
 5891SOL    HW218573   2.332   4.390   0.661
 5892SOL     OW18574   6.949   5.460   1.872
 5892SOL    HW118575   7.023   5.394   1.884
 5892SOL    HW218576   6.864   5.412   1.848
 5893SOL     OW18577   2.563   4.900   1.524
 5893SOL    HW118578   2.468   4.893   1.493
 5893SOL    HW218579   2.576   4.842   1.604
 5894SOL     OW18580   1.104   5.716   5.619
 5894SOL    HW118581   1.101   5.640   5.555
 5894SOL    HW218582   1.090   5.802   5.570
 5895SOL     OW18583   5.961   3.620   3.683
 5895SOL    HW118584   6.045   3.566   3.696
 5895SOL    HW218585   5.924   3.603   3.592
 5896SOL     OW18586   5.085   1.965   0.560
 5896SOL    HW118587   5.168   1.912   0.540
 5896SOL    HW218588   5.108   2.063   0.560
 5897SOL     OW18589   3.870   1.444   1.291
 5897SOL    HW118590   3.872   1.544   1.304
 5897SOL    HW218591   3.960   1.413   1.262
 5898SOL     OW18592   2.275   1.480   5.225
 5898SOL    HW118593   2.247   1.454   5.132
 5898SOL    HW218594   2.198   1.522   5.272
 5899SOL     OW18595   6.303   6.003   6.718
 5899SOL    HW118596   6.343   6.035   6.803
 5899SOL    HW218597   6.286   6.082   6.658
 5900SOL     OW18598   6.738   4.740   3.079
 5900SOL    HW118599   6.745   4.771   2.984
 5900SOL    HW218600   6.661   4.676   3.087
 5901SOL     OW18601   2.707   1.812   0.355
 5901SOL    HW118602   2.616   1.791   0.318
 5901SOL    HW218603   2.770   1.737   0.333
 5902SOL     OW18604   5.457   3.712   5.757
 5902SOL    HW118605   5.546   3.672   5.780
 5902SOL    HW218606   5.453   3.730   5.659
 5903SOL     OW18607   4.562   3.668   6.684
 5903SOL    HW118608   4.660   3.649   6.678
 5903SOL    HW218609   4.531   3.712   6.599
 5904SOL     OW18610   1.223   4.766   1.306
 5904SOL    HW118611   1.246   4.863   1.317
 5904SOL    HW218612   1.125   4.753   1.319
 5905SOL     OW18613   6.336   1.120   3.972
 5905SOL    HW118614   6.360   1.082   3.883
 5905SOL    HW218615   6.251   1.079   4.004
 5906SOL     OW18616   4.762   1.614   5.088
 5906SOL    HW118617   4.702   1.588   5.164
 5906SOL    HW218618   4.856   1.618   5.120
 5907SOL     OW18619   1.721   6.797   0.440
 5907SOL    HW118620   1.816   6.813   0.415
 5907SOL    HW218621   1.695   6.704   0.416
 5908SOL     OW18622   6.604   4.439   6.570
 5908SOL    HW118623   6.579   4.353   6.616
 5908SOL    HW218624   6.692   4.428   6.524
 5909SOL     OW18625   6.742   5.307   6.920
 5909SOL    HW118626   6.779   5.308   7.013
 5909SOL    HW218627   6.814   5.279   6.856
 5910SOL     OW18628   0.562   4.623   0.888
 5910SOL    HW118629   0.601   4.536   0.860
 5910SOL    HW218630   0.568   4.632   0.988
 5911SOL     OW18631   6.738   5.402   6.471
 5911SOL    HW118632   6.761   5.425   6.566
 5911SOL    HW218633   6.794   5.325   6.441
 5912SOL     OW18634   6.007   3.451   0.047
 5912SOL    HW118635   5.908   3.459   0.055
 5912SOL    HW218636   6.029   3.392   7.000
 5913SOL     OW18637   2.574   2.456   5.946
 5913SOL    HW118638   2.561   2.548   5.983
 5913SOL    HW218639   2.671   2.434   5.943
 5914SOL     OW18640   2.671   5.483   6.327
 5914SOL    HW118641   2.753   5.533   6.298
 5914SOL    HW218642   2.647   5.510   6.420
 5915SOL     OW18643   6.503   3.857   1.977
 5915SOL    HW118644   6.434   3.792   1.945
 5915SOL    HW218645   6.465   3.950   1.974
 5916SOL     OW18646   4.556   6.534   5.858
 5916SOL    HW118647   4.628   6.479   5.816
 5916SOL    HW218648   4.480   6.475   5.884
 5917SOL     OW18649   4.084   3.247   4.190
 5917SOL    HW118650   4.085   3.344   4.164
 5917SOL    HW218651   4.095   3.239   4.289
 5918SOL     OW18652   2.374   3.748   5.367
 5918SOL    HW118653   2.285   3.703   5.374
 5918SOL    HW218654   2.366   3.830   5.311
 5919SOL     OW18655   2.888   2.480   0.441
 5919SOL    HW118656   2.853   2.449   0.530
 5919SOL    HW218657   2.856   2.573   0.424
 5920SOL     OW18658   3.449   0.310   0.294
 5920SOL    HW118659   3.411   0.402   0.300
 5920SOL    HW218660   3.504   0.302   0.210
 5921SOL     OW18661   3.871   5.611   5.563
 5921SOL    HW118662   3.928   5.621   5.482
 5921SOL    HW218663   3.792   5.672   5.557
 5922SOL     OW18664   6.610   5.058   4.101
 5922SOL    HW118665   6.556   4.979   4.130
 5922SOL    HW218666   6.698   5.057   4.149
 5923SOL     OW18667   5.473   0.611   1.943
 5923SOL    HW118668   5.525   0.643   1.864
 5923SOL    HW218669   5.457   0.688   2.006
 5924SOL     OW18670   6.167   2.184   5.451
 5924SOL    HW118671   6.086   2.222   5.496
 5924SOL    HW218672   6.222   2.258   5.413
 5925SOL     OW18673   4.019   5.743   3.291
 5925SOL    HW118674   3.980   5.758   3.382
 5925SOL    HW218675   4.084   5.815   3.270
 5926SOL     OW18676   3.983   5.171   1.953
 5926SOL    HW118677   3.999   5.129   2.042
 5926SOL    HW218678   3.885   5.186   1.940
 5927SOL     OW18679   1.463   4.403   3.324
 5927SOL    HW118680   1.389   4.458   3.363
 5927SOL    HW218681   1.424   4.325   3.275
 5928SOL     OW18682   3.157   0.500   1.802
 5928SOL    HW118683   3.161   0.578   1.864
 5928SOL    HW218684   3.146   0.416   1.855
 5929SOL     OW18685   0.937   6.389   5.627
 5929SOL    HW118686   0.988   6.419   5.708
 5929SOL    HW218687   0.910   6.469   5.574
 5930SOL     OW18688   6.850   0.888   3.329
 5930SOL    HW118689   6.896   0.932   3.252
 5930SOL    HW218690   6.845   0.952   3.406
 5931SOL     OW18691   5.386   5.030   3.122
 5931SOL    HW118692   5.387   5.064   3.028
 5931SOL    HW218693   5.292   5.021   3.153
 5932SOL     OW18694   2.836   6.118   1.004
 5932SOL    HW118695   2.799   6.123   1.097
 5932SOL    HW218696   2.763   6.137   0.938
 5933SOL     OW18697   0.079   5.323   3.154
 5933SOL    HW118698   0.094   5.414   3.117
 5933SOL    HW218699   0.031   5.330   3.242
 5934SOL     OW18700   4.083   3.797   4.170
 5934SOL    HW118701   4.137   3.881   4.179
 5934SOL    HW218702   4.079   3.750   4.258
 5935SOL     OW18703   4.028   3.821   4.932
 5935SOL    HW118704   3.938   3.866   4.931
 5935SOL    HW218705   4.036   3.765   5.014
 5936SOL     OW18706   4.054   3.384   6.912
 5936SOL    HW118707   4.147   3.408   6.884
 5936SOL    HW218708   4.048   3.285   6.923
 5937SOL     OW18709   0.598   4.800   2.403
 5937SOL    HW118710   0.656   4.813   2.483
 5937SOL    HW218711   0.636   4.728   2.345
 5938SOL     OW18712   1.491   5.520   4.061
 5938SOL    HW118713   1.588   5.510   4.038
 5938SOL    HW218714   1.472   5.616   4.081
 5939SOL     OW18715   3.354   0.524   3.745
 5939SOL    HW118716   3.378   0.427   3.740
 5939SOL    HW218717   3.256   0.533   3.761
 5940SOL     OW18718   4.346   5.662   2.396
 5940SOL    HW118719   4.248   5.643   2.398
 5940SOL    HW218720   4.363   5.754   2.430
 5941SOL     OW18721   6.517   3.694   2.213
 5941SOL    HW118722   6.611   3.666   2.234
 5941SOL    HW218723   6.479   3.631   2.144
 5942SOL     OW18724   4.720   2.616   6.678
 5942SOL    HW118725   4.644   2.586   6.619
 5942SOL    HW218726   4.694   2.700   6.726
 5943SOL     OW18727   3.598   5.647   0.928
 5943SOL    HW118728   3.665   5.651   1.002
 5943SOL    HW218729   3.527   5.580   0.950
 5944SOL     OW18730   5.333   1.724   1.393
 5944SOL    HW118731   5.238   1.731   1.424
 5944SOL    HW218732   5.394   1.758   1.465
 5945SOL     OW18733   7.003   5.393   5.321
 5945SOL    HW118734   7.006   5.366   5.417
 5945SOL    HW218735   0.030   5.474   5.307
 5946SOL     OW18736   3.408   3.090   5.566
 5946SOL    HW118737   3.380   3.011   5.621
 5946SOL    HW218738   3.508   3.095   5.563
 5947SOL     OW18739   3.908   2.974   1.846
 5947SOL    HW118740   3.869   2.943   1.932
 5947SOL    HW218741   3.995   3.021   1.864
 5948SOL     OW18742   3.591   4.979   3.783
 5948SOL    HW118743   3.597   4.996   3.882
 5948SOL    HW218744   3.680   4.997   3.741
 5949SOL     OW18745   3.725   3.541   1.171
 5949SOL    HW118746   3.665   3.612   1.209
 5949SOL    HW218747   3.700   3.452   1.211
 5950SOL     OW18748   5.843   3.180   5.659
 5950SOL    HW118749   5.873   3.086   5.676
 5950SOL    HW218750   5.776   3.206   5.729
 5951SOL     OW18751   1.020   5.669   4.817
 5951SOL    HW118752   0.937   5.627   4.853
 5951SOL    HW218753   1.097   5.646   4.877
 5952SOL     OW18754   5.122   5.055   4.280
 5952SOL    HW118755   5.092   5.110   4.201
 5952SOL    HW218756   5.132   5.114   4.360
 5953SOL     OW18757   0.063   2.739   5.606
 5953SOL    HW118758   0.101   2.831   5.591
 5953SOL    HW218759   0.115   2.693   5.678
 5954SOL     OW18760   0.201   4.649   5.664
 5954SOL    HW118761   0.256   4.713   5.610
 5954SOL    HW218762   0.252   4.563   5.675
 5955SOL     OW18763   5.297   5.659   2.576
 5955SOL    HW118764   5.285   5.575   2.629
 5955SOL    HW218765   5.377   5.709   2.610
 5956SOL     OW18766   3.696   1.728   0.589
 5956SOL    HW118767   3.642   1.800   0.633
 5956SOL    HW218768   3.649   1.640   0.599
 5957SOL     OW18769   5.017   0.236   5.296
 5957SOL    HW118770   5.055   0.292   5.223
 5957SOL    HW218771   4.949   0.173   5.258
 5958SOL     OW18772   6.497   6.180   2.721
 5958SOL    HW118773   6.558   6.205   2.645
 5958SOL    HW218774   6.449   6.262   2.753
 5959SOL     OW18775   3.655   1.499   5.573
 5959SOL    HW118776   3.570   1.464   5.533
 5959SOL    HW218777   3.634   1.567   5.643
 5960SOL     OW18778   3.965   6.383   4.805
 5960SOL    HW118779   4.064   6.374   4.816
 5960SOL    HW218780   3.931   6.456   4.865
 5961SOL     OW18781   4.912   1.083   3.773
 5961SOL    HW118782   4.856   1.019   3.721
 5961SOL    HW218783   4.900   1.066   3.871
 5962SOL     OW18784   5.148   5.494   2.083
 5962SOL    HW118785   5.093   5.414   2.102
 5962SOL    HW218786   5.243   5.476   2.108
 5963SOL     OW18787   3.253   2.889   4.966
 5963SOL    HW118788   3.255   2.826   5.043
 5963SOL    HW218789   3.319   2.859   4.896
 5964SOL     OW18790   0.460   5.282   5.663
 5964SOL    HW118791   0.481   5.329   5.749
 5964SOL    HW218792   0.486   5.185   5.671
 5965SOL     OW18793   1.705   2.148   6.191
 5965SOL    HW118794   1.690   2.102   6.278
 5965SOL    HW218795   1.626   2.205   6.169
 5966SOL     OW18796   3.097   5.655   5.237
 5966SOL    HW118797   3.192   5.635   5.259
 5966SOL    HW218798   3.060   5.722   5.302
 5967SOL     OW18799   4.369   6.358   1.490
 5967SOL    HW118800   4.467   6.357   1.469
 5967SOL    HW218801   4.316   6.339   1.408
 5968SOL     OW18802   4.955   1.120   2.751
 5968SOL    HW118803   4.915   1.074   2.672
 5968SOL    HW218804   5.048   1.148   2.729
 5969SOL     OW18805   6.524   1.338   6.154
 5969SOL    HW118806   6.478   1.324   6.066
 5969SOL    HW218807   6.603   1.278   6.160
 5970SOL     OW18808   0.455   4.580   2.561
 5970SOL    HW118809   0.468   4.673   2.594
 5970SOL    HW218810   0.366   4.545   2.592
 5971SOL     OW18811   2.168   0.834   3.062
 5971SOL    HW118812   2.088   0.885   3.031
 5971SOL    HW218813   2.166   0.742   3.024
 5972SOL     OW18814   5.491   6.377   0.451
 5972SOL    HW118815   5.578   6.330   0.466
 5972SOL    HW218816   5.455   6.354   0.360
 5973SOL     OW18817   1.939   5.173   2.490
 5973SOL    HW118818   1.936   5.175   2.390
 5973SOL    HW218819   1.917   5.263   2.526
 5974SOL     OW18820   5.646   4.693   6.658
 5974SOL    HW118821   5.571   4.705   6.593
 5974SOL    HW218822   5.612   4.642   6.737
 5975SOL     OW18823   3.201   2.157   0.119
 5975SOL    HW118824   3.297   2.167   0.144
 5975SOL    HW218825   3.144   2.155   0.202
 5976SOL     OW18826   3.078   3.862   4.455
 5976SOL    HW118827   3.023   3.877   4.374
 5976SOL    HW218828   3.033   3.797   4.516
 5977SOL     OW18829   2.036   4.953   1.980
 5977SOL    HW118830   1.970   4.896   2.029
 5977SOL    HW218831   2.048   4.918   1.887
 5978SOL     OW18832   5.025   5.106   3.570
 5978SOL    HW118833   4.969   5.026   3.549
 5978SOL    HW218834   5.107   5.105   3.513
 5979SOL     OW18835   6.539   0.050   3.048
 5979SOL    HW118836   6.634   0.081   3.058
 5979SOL    HW218837   6.536   6.998   2.992
 5980SOL     OW18838   3.853   3.542   0.105
 5980SOL    HW118839   3.934   3.520   0.051
 5980SOL    HW218840   3.865   3.632   0.148
 5981SOL     OW18841   6.334   0.603   2.352
 5981SOL    HW118842   6.342   0.552   2.266
 5981SOL    HW218843   6.370   0.695   2.339
 5982SOL     OW18844   6.451   2.291   0.285
 5982SOL    HW118845   6.436   2.370   0.226
 5982SOL    HW218846   6.408   2.307   0.374
 5983SOL     OW18847   1.931   1.227   4.827
 5983SOL    HW118848   1.995   1.277   4.769
 5983SOL    HW218849   1.841   1.271   4.823
 5984SOL     OW18850   6.515   6.762   4.964
 5984SOL    HW118851   6.573   6.708   5.025
 5984SOL    HW218852   6.508   6.855   4.999
 5985SOL     OW18853   5.645   3.075   4.085
 5985SOL    HW118854   5.561   3.025   4.067
 5985SOL    HW218855   5.661   3.141   4.012
 5986SOL     OW18856   3.003   3.510   3.593
 5986SOL    HW118857   2.995   3.608   3.575
 5986SOL    HW218858   3.077   3.472   3.538
 5987SOL     OW18859   4.193   1.288   4.947
 5987SOL    HW118860   4.231   1.365   4.998
 5987SOL    HW218861   4.259   1.257   4.879
 5988SOL     OW18862   4.537   6.591   5.079
 5988SOL    HW118863   4.596   6.535   5.020
 5988SOL    HW218864   4.560   6.687   5.066
 5989SOL     OW18865   2.776   5.573   6.673
 5989SOL    HW118866   2.847   5.629   6.716
 5989SOL    HW218867   2.687   5.594   6.714
 5990SOL     OW18868   3.617   4.536   0.583
 5990SOL    HW118869   3.524   4.501   0.595
 5990SOL    HW218870   3.682   4.476   0.631
 5991SOL     OW18871   4.120   5.056   5.547
 5991SOL    HW118872   4.096   5.075   5.451
 5991SOL    HW218873   4.093   5.134   5.604
 5992SOL     OW18874   3.713   0.885   3.540
 5992SOL    HW118875   3.665   0.798   3.548
 5992SOL    HW218876   3.668   0.942   3.472
 5993SOL     OW18877   3.416   6.549   6.333
 5993SOL    HW118878   3.448   6.643   6.333
 5993SOL    HW218879   3.493   6.487   6.351
 5994SOL     OW18880   6.387   1.530   1.980
 5994SOL    HW118881   6.319   1.492   2.043
 5994SOL    HW218882   6.453   1.459   1.955
 5995SOL     OW18883   6.216   3.957   2.706
 5995SOL    HW118884   6.205   3.880   2.768
 5995SOL    HW218885   6.152   4.030   2.731
 5996SOL     OW18886   1.021   5.937   0.831
 5996SOL    HW118887   0.967   5.852   0.834
 5996SOL    HW218888   0.964   6.011   0.794
 5997SOL     OW18889   0.565   6.516   2.863
 5997SOL    HW118890   0.569   6.484   2.958
 5997SOL    HW218891   0.533   6.611   2.862
 5998SOL     OW18892   5.736   2.741   1.809
 5998SOL    HW118893   5.797   2.693   1.746
 5998SOL    HW218894   5.789   2.784   1.881
 5999SOL     OW18895   0.987   2.014   2.538
 5999SOL    HW118896   1.021   2.075   2.609
 5999SOL    HW218897   0.900   2.049   2.503
 6000SOL     OW18898   4.013   6.901   1.899
 6000SOL    HW118899   3.926   6.853   1.915
 6000SOL    HW218900   4.047   6.878   1.808
 6001SOL     OW18901   0.388   4.126   6.223
 6001SOL    HW118902   0.348   4.135   6.131
 6001SOL    HW218903   0.332   4.177   6.288
 6002SOL     OW18904   0.247   0.070   1.324
 6002SOL    HW118905   0.340   0.105   1.336
 6002SOL    HW218906   0.182   0.144   1.338
 6003SOL     OW18907   6.597   1.936   4.642
 6003SOL    HW118908   6.656   1.995   4.587
 6003SOL    HW218909   6.635   1.926   4.733
 6004SOL     OW18910   6.755   4.292   2.864
 6004SOL    HW118911   6.661   4.320   2.886
 6004SOL    HW218912   6.814   4.373   2.865
 6005SOL     OW18913   4.807   4.947   4.998
 6005SOL    HW118914   4.805   5.032   4.946
 6005SOL    HW218915   4.803   4.968   5.096
 6006SOL     OW18916   3.412   0.032   6.953
 6006SOL    HW118917   3.357   7.018   7.023
 6006SOL    HW218918   3.442   6.995   6.886
 6007SOL     OW18919   5.105   3.643   4.536
 6007SOL    HW118920   5.183   3.593   4.498
 6007SOL    HW218921   5.129   3.680   4.626
 6008SOL     OW18922   2.217   5.517   6.450
 6008SOL    HW118923   2.225   5.420   6.473
 6008SOL    HW218924   2.263   5.534   6.363
 6009SOL     OW18925   3.312   0.889   4.782
 6009SOL    HW118926   3.294   0.915   4.688
 6009SOL    HW218927   3.333   0.791   4.787
 6010SOL     OW18928   1.480   4.092   2.139
 6010SOL    HW118929   1.545   4.159   2.176
 6010SOL    HW218930   1.453   4.120   2.047
 6011SOL     OW18931   4.446   2.453   2.645
 6011SOL    HW118932   4.360   2.417   2.609
 6011SOL    HW218933   4.509   2.377   2.662
 6012SOL     OW18934   6.348   1.623   0.706
 6012SOL    HW118935   6.295   1.544   0.736
 6012SOL    HW218936   6.392   1.665   0.785
 6013SOL     OW18937   5.202   1.931   3.014
 6013SOL    HW118938   5.278   1.960   3.072
 6013SOL    HW218939   5.234   1.920   2.920
 6014SOL     OW18940   4.374   1.881   0.772
 6014SOL    HW118941   4.430   1.876   0.689
 6014SOL    HW218942   4.426   1.926   0.844
 6015SOL     OW18943   5.609   2.116   5.728
 6015SOL    HW118944   5.562   2.184   5.672
 6015SOL    HW218945   5.543   2.069   5.786
 6016SOL     OW18946   0.383   1.538   6.687
 6016SOL    HW118947   0.346   1.564   6.777
 6016SOL    HW218948   0.404   1.441   6.686
 6017SOL     OW18949   6.392   4.551   2.266
 6017SOL    HW118950   6.385   4.457   2.301
 6017SOL    HW218951   6.382   4.615   2.342
 6018SOL     OW18952   3.341   1.360   0.235
 6018SOL    HW118953   3.383   1.350   0.145
 6018SOL    HW218954   3.364   1.449   0.273
 6019SOL     OW18955   5.457   1.491   4.394
 6019SOL    HW118956   5.527   1.446   4.338
 6019SOL    HW218957   5.418   1.568   4.343
 6020SOL     OW18958   1.732   6.296   2.102
 6020SOL    HW118959   1.657   6.230   2.114
 6020SOL    HW218960   1.695   6.386   2.083
 6021SOL     OW18961   3.955   0.456   2.294
 6021SOL    HW118962   3.940   0.377   2.234
 6021SOL    HW218963   3.941   0.540   2.242
 6022SOL     OW18964   4.775   0.757   4.938
 6022SOL    HW118965   4.869   0.788   4.950
 6022SOL    HW218966   4.718   0.833   4.905
 6023SOL     OW18967   5.777   1.605   2.381
 6023SOL    HW118968   5.743   1.530   2.324
 6023SOL    HW218969   5.704   1.638   2.440
 6024SOL     OW18970   0.650   4.356   2.996
 6024SOL    HW118971   0.600   4.290   3.052
 6024SOL    HW218972   0.593   4.382   2.917
 6025SOL     OW18973   3.488   0.910   2.064
 6025SOL    HW118974   3.437   0.898   1.979
 6025SOL    HW218975   3.545   0.993   2.058
 6026SOL     OW18976   6.928   3.869   3.960
 6026SOL    HW118977   6.928   3.769   3.957
 6026SOL    HW218978   7.021   3.903   3.977
 6027SOL     OW18979   1.883   4.460   5.536
 6027SOL    HW118980   1.966   4.435   5.586
 6027SOL    HW218981   1.818   4.385   5.539
 6028SOL     OW18982   1.022   3.614   0.408
 6028SOL    HW118983   1.091   3.676   0.445
 6028SOL    HW218984   0.994   3.646   0.318
 6029SOL     OW18985   1.986   6.019   5.371
 6029SOL    HW118986   1.936   6.101   5.343
 6029SOL    HW218987   2.084   6.032   5.355
 6030SOL     OW18988   3.540   6.617   2.900
 6030SOL    HW118989   3.499   6.652   2.984
 6030SOL    HW218990   3.505   6.668   2.822
 6031SOL     OW18991   4.017   4.847   4.175
 6031SOL    HW118992   3.942   4.833   4.240
 6031SOL    HW218993   4.082   4.772   4.183
 6032SOL     OW18994   1.950   3.288   2.901
 6032SOL    HW118995   1.975   3.368   2.956
 6032SOL    HW218996   1.881   3.314   2.834
 6033SOL     OW18997   2.455   1.920   2.499
 6033SOL    HW118998   2.406   1.945   2.582
 6033SOL    HW218999   2.549   1.894   2.521
 6034SOL     OW19000   1.480   6.101   5.083
 6034SOL    HW119001   1.409   6.030   5.087
 6034SOL    HW219002   1.442   6.184   5.042
 6035SOL     OW19003   6.270   0.988   3.361
 6035SOL    HW119004   6.215   1.021   3.437
 6035SOL    HW219005   6.246   0.892   3.342
 6036SOL     OW19006   6.998   6.196   4.270
 6036SOL    HW119007   0.010   6.282   4.300
 6036SOL    HW219008   0.007   6.167   4.183
 6037SOL     OW19009   4.242   4.668   6.286
 6037SOL    HW119010   4.315   4.618   6.332
 6037SOL    HW219011   4.273   4.694   6.194
 6038SOL     OW19012   1.073   3.451   6.268
 6038SOL    HW119013   1.119   3.538   6.252
 6038SOL    HW219014   0.979   3.468   6.296
 6039SOL     OW19015   3.065   3.091   2.780
 6039SOL    HW119016   3.140   3.083   2.714
 6039SOL    HW219017   3.006   3.168   2.755
 6040SOL     OW19018   0.773   1.866   6.582
 6040SOL    HW119019   0.722   1.900   6.503
 6040SOL    HW219020   0.830   1.789   6.553
 6041SOL     OW19021   2.517   1.469   5.375
 6041SOL    HW119022   2.496   1.392   5.436
 6041SOL    HW219023   2.438   1.486   5.315
 6042SOL     OW19024   5.029   5.259   2.122
 6042SOL    HW119025   5.102   5.202   2.084
 6042SOL    HW219026   4.943   5.207   2.122
 6043SOL     OW19027   0.934   4.936   5.152
 6043SOL    HW119028   0.891   4.865   5.209
 6043SOL    HW219029   1.031   4.916   5.141
 6044SOL     OW19030   0.772   2.359   1.158
 6044SOL    HW119031   0.785   2.411   1.073
 6044SOL    HW219032   0.685   2.311   1.155
 6045SOL     OW19033   5.561   5.805   1.332
 6045SOL    HW119034   5.575   5.742   1.408
 6045SOL    HW219035   5.636   5.796   1.267
 6046SOL     OW19036   3.000   1.784   0.446
 6046SOL    HW119037   2.956   1.790   0.535
 6046SOL    HW219038   2.962   1.708   0.394
 6047SOL     OW19039   6.360   1.512   2.344
 6047SOL    HW119040   6.354   1.600   2.299
 6047SOL    HW219041   6.304   1.445   2.295
 6048SOL     OW19042   4.813   6.601   3.623
 6048SOL    HW119043   4.785   6.696   3.613
 6048SOL    HW219044   4.902   6.587   3.580
 6049SOL     OW19045   5.225   4.074   5.714
 6049SOL    HW119046   5.260   4.048   5.804
 6049SOL    HW219047   5.212   4.173   5.711
 6050SOL     OW19048   3.210   4.352   5.513
 6050SOL    HW119049   3.289   4.368   5.572
 6050SOL    HW219050   3.194   4.254   5.506
 6051SOL     OW19051   2.583   1.639   3.872
 6051SOL    HW119052   2.586   1.549   3.828
 6051SOL    HW219053   2.669   1.655   3.921
 6052SOL     OW19054   6.414   6.424   0.418
 6052SOL    HW119055   6.453   6.494   0.478
 6052SOL    HW219056   6.342   6.465   0.363
 6053SOL     OW19057   3.692   0.853   6.803
 6053SOL    HW119058   3.712   0.937   6.752
 6053SOL    HW219059   3.707   0.774   6.745
 6054SOL     OW19060   2.748   4.318   0.556
 6054SOL    HW119061   2.797   4.390   0.507
 6054SOL    HW219062   2.660   4.354   0.588
 6055SOL     OW19063   5.362   1.115   5.567
 6055SOL    HW119064   5.460   1.133   5.561
 6055SOL    HW219065   5.312   1.201   5.571
 6056SOL     OW19066   5.194   3.199   5.040
 6056SOL    HW119067   5.101   3.234   5.032
 6056SOL    HW219068   5.254   3.250   4.978
 6057SOL     OW19069   4.860   2.470   4.639
 6057SOL    HW119070   4.948   2.507   4.668
 6057SOL    HW219071   4.875   2.389   4.582
 6058SOL     OW19072   5.022   2.807   2.630
 6058SOL    HW119073   4.959   2.808   2.707
 6058SOL    HW219074   4.982   2.857   2.553
 6059SOL     OW19075   4.821   5.924   5.663
 6059SOL    HW119076   4.816   5.921   5.563
 6059SOL    HW219077   4.911   5.893   5.693
 6060SOL     OW19078   2.873   4.022   6.052
 6060SOL    HW119079   2.774   4.022   6.040
 6060SOL    HW219080   2.903   3.931   6.081
 6061SOL     OW19081   4.372   2.335   0.140
 6061SOL    HW119082   4.334   2.266   0.201
 6061SOL    HW219083   4.385   2.420   0.190
 6062SOL     OW19084   1.934   0.590   4.664
 6062SOL    HW119085   1.869   0.559   4.595
 6062SOL    HW219086   2.014   0.629   4.619
 6063SOL     OW19087   4.031   1.487   6.866
 6063SOL    HW119088   3.955   1.436   6.826
 6063SOL    HW219089   4.112   1.428   6.873
 6064SOL     OW19090   2.845   6.027   2.090
 6064SOL    HW119091   2.876   6.112   2.133
 6064SOL    HW219092   2.773   5.986   2.145
 6065SOL     OW19093   5.754   0.075   2.349
 6065SOL    HW119094   5.743   0.024   2.434
 6065SOL    HW219095   5.688   0.042   2.282
 6066SOL     OW19096   4.582   1.910   0.339
 6066SOL    HW119097   4.634   1.995   0.346
 6066SOL    HW219098   4.547   1.900   0.245
 6067SOL     OW19099   5.376   2.397   6.574
 6067SOL    HW119100   5.336   2.380   6.663
 6067SOL    HW219101   5.464   2.349   6.567
 6068SOL     OW19102   5.711   2.707   4.820
 6068SOL    HW119103   5.753   2.797   4.830
 6068SOL    HW219104   5.675   2.697   4.727
 6069SOL     OW19105   0.417   3.614   5.150
 6069SOL    HW119106   0.500   3.582   5.103
 6069SOL    HW219107   0.434   3.703   5.192
 6070SOL     OW19108   1.967   1.805   6.073
 6070SOL    HW119109   2.006   1.824   5.983
 6070SOL    HW219110   2.039   1.809   6.143
 6071SOL     OW19111   4.854   5.560   4.802
 6071SOL    HW119112   4.856   5.518   4.892
 6071SOL    HW219113   4.789   5.510   4.743
 6072SOL     OW19114   0.287   0.899   1.802
 6072SOL    HW119115   0.279   0.996   1.825
 6072SOL    HW219116   0.240   0.881   1.716
 6073SOL     OW19117   6.765   3.980   0.435
 6073SOL    HW119118   6.802   3.893   0.468
 6073SOL    HW219119   6.685   4.005   0.490
 6074SOL     OW19120   1.063   6.472   4.467
 6074SOL    HW119121   1.044   6.507   4.375
 6074SOL    HW219122   1.106   6.545   4.522
 6075SOL     OW19123   0.323   2.168   6.628
 6075SOL    HW119124   0.255   2.221   6.680
 6075SOL    HW219125   0.289   2.074   6.616
 6076SOL     OW19126   2.783   5.789   5.209
 6076SOL    HW119127   2.818   5.757   5.121
 6076SOL    HW219128   2.859   5.828   5.262
 6077SOL     OW19129   4.702   5.420   1.997
 6077SOL    HW119130   4.775   5.476   2.037
 6077SOL    HW219131   4.661   5.363   2.067
 6078SOL     OW19132   3.879   4.847   1.792
 6078SOL    HW119133   3.808   4.825   1.859
 6078SOL    HW219134   3.880   4.776   1.721
 6079SOL     OW19135   3.140   3.559   6.174
 6079SOL    HW119136   3.079   3.550   6.095
 6079SOL    HW219137   3.086   3.558   6.258
 6080SOL     OW19138   0.088   1.619   1.915
 6080SOL    HW119139   0.112   1.683   1.842
 6080SOL    HW219140   0.123   1.653   2.002
 6081SOL     OW19141   6.232   3.562   4.920
 6081SOL    HW119142   6.271   3.652   4.940
 6081SOL    HW219143   6.302   3.504   4.876
 6082SOL     OW19144   3.570   1.681   3.616
 6082SOL    HW119145   3.557   1.778   3.595
 6082SOL    HW219146   3.621   1.672   3.702
 6083SOL     OW19147   0.491   6.105   6.121
 6083SOL    HW119148   0.436   6.090   6.203
 6083SOL    HW219149   0.440   6.160   6.056
 6084SOL     OW19150   0.544   5.492   3.960
 6084SOL    HW119151   0.544   5.578   4.011
 6084SOL    HW219152   0.455   5.447   3.969
 6085SOL     OW19153   6.963   4.629   0.046
 6085SOL    HW119154   0.020   4.666   0.077
 6085SOL    HW219155   6.977   4.535   0.014
 6086SOL     OW19156   3.002   1.582   5.203
 6086SOL    HW119157   2.912   1.621   5.179
 6086SOL    HW219158   3.071   1.654   5.199
 6087SOL     OW19159   5.103   6.286   6.851
 6087SOL    HW119160   5.127   6.382   6.859
 6087SOL    HW219161   5.142   6.248   6.767
 6088SOL     OW19162   6.684   5.988   4.568
 6088SOL    HW119163   6.653   5.944   4.653
 6088SOL    HW219164   6.781   5.969   4.555
 6089SOL     OW19165   0.684   3.592   1.286
 6089SOL    HW119166   0.647   3.515   1.338
 6089SOL    HW219167   0.773   3.619   1.323
 6090SOL     OW19168   1.447   6.316   6.078
 6090SOL    HW119169   1.492   6.346   6.162
 6090SOL    HW219170   1.466   6.219   6.063
 6091SOL     OW19171   1.222   1.787   2.521
 6091SOL    HW119172   1.219   1.766   2.424
 6091SOL    HW219173   1.131   1.815   2.552
 6092SOL     OW19174   2.948   0.304   3.162
 6092SOL    HW119175   2.927   0.238   3.090
 6092SOL    HW219176   2.991   0.257   3.239
 6093SOL     OW19177   1.088   2.750   2.822
 6093SOL    HW119178   0.992   2.768   2.798
 6093SOL    HW219179   1.115   2.661   2.786
 6094SOL     OW19180   3.985   1.011   0.732
 6094SOL    HW119181   4.017   0.990   0.824
 6094SOL    HW219182   4.003   0.932   0.672
 6095SOL     OW19183   5.115   2.898   6.674
 6095SOL    HW119184   5.049   2.823   6.684
 6095SOL    HW219185   5.137   2.911   6.578
 6096SOL     OW19186   5.639   0.688   3.659
 6096SOL    HW119187   5.689   0.601   3.663
 6096SOL    HW219188   5.704   0.763   3.650
 6097SOL     OW19189   1.589   0.533   2.033
 6097SOL    HW119190   1.571   0.460   2.098
 6097SOL    HW219191   1.686   0.533   2.008
 6098SOL     OW19192   1.573   2.426   6.326
 6098SOL    HW119193   1.612   2.380   6.405
 6098SOL    HW219194   1.473   2.421   6.331
 6099SOL     OW19195   6.615   5.951   0.080
 6099SOL    HW119196   6.623   5.918   7.017
 6099SOL    HW219197   6.536   5.909   0.124
 6100SOL     OW19198   5.469   2.973   6.842
 6100SOL    HW119199   5.394   3.027   6.804
 6100SOL    HW219200   5.462   2.879   6.809
 6101SOL     OW19201   6.166   1.730   5.557
 6101SOL    HW119202   6.092   1.797   5.561
 6101SOL    HW219203   6.135   1.644   5.596
 6102SOL     OW19204   4.142   1.013   4.221
 6102SOL    HW119205   4.136   1.066   4.305
 6102SOL    HW219206   4.210   0.941   4.232
 6103SOL     OW19207   0.126   1.284   3.344
 6103SOL    HW119208   0.153   1.374   3.310
 6103SOL    HW219209   0.063   1.295   3.420
 6104SOL     OW19210   6.686   2.734   6.118
 6104SOL    HW119211   6.729   2.785   6.044
 6104SOL    HW219212   6.713   2.638   6.112
 6105SOL     OW19213   2.633   6.811   6.148
 6105SOL    HW119214   2.694   6.794   6.225
 6105SOL    HW219215   2.538   6.795   6.176
 6106SOL     OW19216   1.155   4.767   5.809
 6106SOL    HW119217   1.217   4.816   5.870
 6106SOL    HW219218   1.067   4.815   5.804
 6107SOL     OW19219   2.414   5.081   4.460
 6107SOL    HW119220   2.334   5.079   4.521
 6107SOL    HW219221   2.473   5.158   4.485
 6108SOL     OW19222   0.432   2.294   3.487
 6108SOL    HW119223   0.465   2.362   3.554
 6108SOL    HW219224   0.455   2.325   3.395
 6109SOL     OW19225   5.507   3.186   6.232
 6109SOL    HW119226   5.442   3.127   6.184
 6109SOL    HW219227   5.482   3.191   6.328
 6110SOL     OW19228   3.611   3.204   6.900
 6110SOL    HW119229   3.545   3.133   6.923
 6110SOL    HW219230   3.563   3.290   6.880
 6111SOL     OW19231   2.073   4.874   2.657
 6111SOL    HW119232   2.143   4.940   2.630
 6111SOL    HW219233   2.112   4.782   2.656
 6112SOL     OW19234   3.316   1.288   3.222
 6112SOL    HW119235   3.355   1.325   3.305
 6112SOL    HW219236   3.279   1.196   3.241
 6113SOL     OW19237   0.098   0.636   5.868
 6113SOL    HW119238   0.186   0.599   5.897
 6113SOL    HW219239   0.032   0.629   5.943
 6114SOL     OW19240   5.017   4.605   1.383
 6114SOL    HW119241   5.086   4.676   1.374
 6114SOL    HW219242   4.951   4.613   1.308
 6115SOL     OW19243   5.656   6.085   2.872
 6115SOL    HW119244   5.669   6.032   2.956
 6115SOL    HW219245   5.737   6.075   2.814
 6116SOL     OW19246   2.880   1.188   1.345
 6116SOL    HW119247   2.894   1.256   1.417
 6116SOL    HW219248   2.799   1.213   1.291
 6117SOL     OW19249   0.043   0.272   5.734
 6117SOL    HW119250   6.979   0.239   5.731
 6117SOL    HW219251   0.056   0.326   5.818
 6118SOL     OW19252   6.893   1.270   1.814
 6118SOL    HW119253   6.800   1.237   1.797
 6118SOL    HW219254   6.890   1.364   1.848
 6119SOL     OW19255   0.631   3.479   3.855
 6119SOL    HW119256   0.556   3.418   3.877
 6119SOL    HW219257   0.654   3.472   3.757
 6120SOL     OW19258   3.702   6.787   3.764
 6120SOL    HW119259   3.796   6.779   3.797
 6120SOL    HW219260   3.702   6.816   3.668
 6121SOL     OW19261   0.179   3.025   4.308
 6121SOL    HW119262   0.140   3.049   4.397
 6121SOL    HW219263   0.236   2.944   4.317
 6122SOL     OW19264   3.496   6.767   1.578
 6122SOL    HW119265   3.500   6.667   1.567
 6122SOL    HW219266   3.411   6.793   1.623
 6123SOL     OW19267   6.506   0.225   0.103
 6123SOL    HW119268   6.497   0.171   0.187
 6123SOL    HW219269   6.591   0.201   0.057
 6124SOL     OW19270   3.371   0.466   5.526
 6124SOL    HW119271   3.456   0.416   5.511
 6124SOL    HW219272   3.296   0.421   5.478
 6125SOL     OW19273   2.730   5.881   1.228
 6125SOL    HW119274   2.688   5.878   1.137
 6125SOL    HW219275   2.708   5.797   1.277
 6126SOL     OW19276   5.983   6.553   4.439
 6126SOL    HW119277   6.058   6.566   4.504
 6126SOL    HW219278   5.972   6.456   4.418
 6127SOL     OW19279   2.237   0.550   2.424
 6127SOL    HW119280   2.334   0.531   2.414
 6127SOL    HW219281   2.189   0.465   2.449
 6128SOL     OW19282   6.817   3.486   0.585
 6128SOL    HW119283   6.806   3.472   0.684
 6128SOL    HW219284   6.745   3.437   0.537
 6129SOL     OW19285   6.064   4.573   3.405
 6129SOL    HW119286   5.994   4.635   3.441
 6129SOL    HW219287   6.154   4.612   3.421
 6130SOL     OW19288   5.928   1.961   4.010
 6130SOL    HW119289   5.830   1.939   4.017
 6130SOL    HW219290   5.981   1.893   4.060
 6131SOL     OW19291   6.845   1.483   5.482
 6131SOL    HW119292   6.890   1.492   5.571
 6131SOL    HW219293   6.912   1.495   5.409
 6132SOL     OW19294   4.637   1.092   0.571
 6132SOL    HW119295   4.637   1.038   0.487
 6132SOL    HW219296   4.586   1.177   0.557
 6133SOL     OW19297   0.688   2.839   2.644
 6133SOL    HW119298   0.648   2.929   2.624
 6133SOL    HW219299   0.785   2.840   2.620
 6134SOL     OW19300   3.465   4.302   0.328
 6134SOL    HW119301   3.428   4.393   0.348
 6134SOL    HW219302   3.446   4.241   0.405
 6135SOL     OW19303   0.202   6.737   2.087
 6135SOL    HW119304   0.151   6.807   2.037
 6135SOL    HW219305   0.300   6.754   2.077
 6136SOL     OW19306   0.581   2.267   2.107
 6136SOL    HW119307   0.617   2.282   2.199
 6136SOL    HW219308   0.652   2.288   2.040
 6137SOL     OW19309   4.567   1.559   5.292
 6137SOL    HW119310   4.509   1.496   5.241
 6137SOL    HW219311   4.565   1.536   5.389
 6138SOL     OW19312   3.897   6.833   2.987
 6138SOL    HW119313   3.978   6.881   2.951
 6138SOL    HW219314   3.867   6.764   2.921
 6139SOL     OW19315   2.045   3.226   4.592
 6139SOL    HW119316   2.004   3.138   4.566
 6139SOL    HW219317   2.077   3.220   4.686
 6140SOL     OW19318   0.355   6.346   1.515
 6140SOL    HW119319   0.267   6.298   1.506
 6140SOL    HW219320   0.430   6.280   1.511
 6141SOL     OW19321   6.304   5.855   5.201
 6141SOL    HW119322   6.329   5.802   5.120
 6141SOL    HW219323   6.368   5.931   5.211
 6142SOL     OW19324   7.014   5.148   0.862
 6142SOL    HW119325   0.008   5.105   0.775
 6142SOL    HW219326   6.973   5.080   0.922
 6143SOL     OW19327   6.194   4.925   0.029
 6143SOL    HW119328   6.273   4.904   7.003
 6143SOL    HW219329   6.204   5.017   0.067
 6144SOL     OW19330   6.367   4.784   2.429
 6144SOL    HW119331   6.435   4.838   2.379
 6144SOL    HW219332   6.333   4.837   2.507
 6145SOL     OW19333   4.865   5.969   4.138
 6145SOL    HW119334   4.892   5.874   4.127
 6145SOL    HW219335   4.769   5.974   4.165
 6146SOL     OW19336   3.837   1.095   3.697
 6146SOL    HW119337   3.806   1.010   3.654
 6146SOL    HW219338   3.764   1.163   3.693
 6147SOL     OW19339   1.765   4.257   4.129
 6147SOL    HW119340   1.826   4.295   4.059
 6147SOL    HW219341   1.818   4.201   4.193
 6148SOL     OW19342   6.967   0.399   4.694
 6148SOL    HW119343   6.945   0.327   4.760
 6148SOL    HW219344   6.918   0.482   4.718
 6149SOL     OW19345   3.181   4.937   2.705
 6149SOL    HW119346   3.279   4.949   2.720
 6149SOL    HW219347   3.164   4.908   2.611
 6150SOL     OW19348   4.011   4.924   6.926
 6150SOL    HW119349   4.052   5.015   6.934
 6150SOL    HW219350   4.031   4.886   6.836
 6151SOL     OW19351   6.104   4.058   4.245
 6151SOL    HW119352   6.040   3.986   4.268
 6151SOL    HW219353   6.081   4.096   4.155
 6152SOL     OW19354   5.749   5.117   5.469
 6152SOL    HW119355   5.847   5.126   5.483
 6152SOL    HW219356   5.727   5.023   5.441
 6153SOL     OW19357   4.603   3.664   1.654
 6153SOL    HW119358   4.586   3.580   1.706
 6153SOL    HW219359   4.573   3.743   1.707
 6154SOL     OW19360   5.254   1.634   2.553
 6154SOL    HW119361   5.240   1.707   2.621
 6154SOL    HW219362   5.271   1.674   2.463
 6155SOL     OW19363   1.607   2.328   4.517
 6155SOL    HW119364   1.561   2.386   4.584
 6155SOL    HW219365   1.690   2.289   4.557
 6156SOL     OW19366   4.548   4.939   2.572
 6156SOL    HW119367   4.601   4.880   2.511
 6156SOL    HW219368   4.451   4.913   2.567
 6157SOL     OW19369   1.342   1.599   4.351
 6157SOL    HW119370   1.263   1.646   4.311
 6157SOL    HW219371   1.330   1.592   4.450
 6158SOL     OW19372   4.453   0.727   6.337
 6158SOL    HW119373   4.459   0.807   6.277
 6158SOL    HW219374   4.364   0.725   6.382
 6159SOL     OW19375   4.722   2.249   0.629
 6159SOL    HW119376   4.747   2.160   0.591
 6159SOL    HW219377   4.638   2.240   0.682
 6160SOL     OW19378   5.374   6.021   0.578
 6160SOL    HW119379   5.424   6.022   0.491
 6160SOL    HW219380   5.281   5.990   0.563
 6161SOL     OW19381   6.107   2.106   5.818
 6161SOL    HW119382   6.142   2.187   5.864
 6161SOL    HW219383   6.067   2.043   5.886
 6162SOL     OW19384   0.791   5.608   4.168
 6162SOL    HW119385   0.711   5.589   4.225
 6162SOL    HW219386   0.873   5.572   4.213
 6163SOL     OW19387   5.033   5.952   1.767
 6163SOL    HW119388   5.056   5.972   1.862
 6163SOL    HW219389   5.001   6.035   1.722
 6164SOL     OW19390   1.802   3.245   1.751
 6164SOL    HW119391   1.895   3.260   1.786
 6164SOL    HW219392   1.742   3.317   1.786
 6165SOL     OW19393   3.868   6.845   6.229
 6165SOL    HW119394   3.872   6.746   6.244
 6165SOL    HW219395   3.891   6.892   6.314
 6166SOL     OW19396   3.838   0.832   5.389
 6166SOL    HW119397   3.850   0.858   5.484
 6166SOL    HW219398   3.895   0.890   5.331
 6167SOL     OW19399   6.804   4.526   2.149
 6167SOL    HW119400   6.812   4.542   2.051
 6167SOL    HW219401   6.735   4.588   2.188
 6168SOL     OW19402   0.615   3.827   0.588
 6168SOL    HW119403   0.538   3.848   0.649
 6168SOL    HW219404   0.610   3.730   0.562
 6169SOL     OW19405   0.841   3.612   2.424
 6169SOL    HW119406   0.923   3.651   2.384
 6169SOL    HW219407   0.772   3.683   2.436
 6170SOL     OW19408   0.627   3.504   4.768
 6170SOL    HW119409   0.672   3.506   4.679
 6170SOL    HW219410   0.580   3.591   4.784
 6171SOL     OW19411   0.854   1.325   6.964
 6171SOL    HW119412   0.817   1.232   6.972
 6171SOL    HW219413   0.946   1.321   6.926
 6172SOL     OW19414   1.205   3.170   2.764
 6172SOL    HW119415   1.247   3.092   2.718
 6172SOL    HW219416   1.266   3.203   2.837
 6173SOL     OW19417   6.833   5.451   3.607
 6173SOL    HW119418   6.815   5.366   3.557
 6173SOL    HW219419   6.754   5.511   3.599
 6174SOL     OW19420   4.614   5.153   4.038
 6174SOL    HW119421   4.581   5.229   3.982
 6174SOL    HW219422   4.708   5.173   4.068
 6175SOL     OW19423   3.723   0.810   4.244
 6175SOL    HW119424   3.646   0.770   4.193
 6175SOL    HW219425   3.688   0.878   4.309
 6176SOL     OW19426   4.603   3.892   5.280
 6176SOL    HW119427   4.696   3.923   5.297
 6176SOL    HW219428   4.604   3.796   5.250
 6177SOL     OW19429   5.071   2.090   2.060
 6177SOL    HW119430   5.165   2.064   2.038
 6177SOL    HW219431   5.008   2.046   1.996
 6178SOL     OW19432   4.984   3.588   2.392
 6178SOL    HW119433   5.078   3.594   2.358
 6178SOL    HW219434   4.933   3.670   2.363
 6179SOL     OW19435   6.729   4.785   1.969
 6179SOL    HW119436   6.728   4.701   1.915
 6179SOL    HW219437   6.679   4.772   2.054
 6180SOL     OW19438   3.165   5.043   0.910
 6180SOL    HW119439   3.101   5.121   0.910
 6180SOL    HW219440   3.252   5.072   0.949
 6181SOL     OW19441   5.172   6.397   5.903
 6181SOL    HW119442   5.154   6.418   5.999
 6181SOL    HW219443   5.090   6.419   5.849
 6182SOL     OW19444   4.738   3.090   6.514
 6182SOL    HW119445   4.762   2.997   6.543
 6182SOL    HW219446   4.639   3.099   6.509
 6183SOL     OW19447   2.052   1.917   1.791
 6183SOL    HW119448   1.977   1.895   1.729
 6183SOL    HW219449   2.138   1.922   1.739
 6184SOL     OW19450   3.113   0.176   6.134
 6184SOL    HW119451   3.019   0.142   6.124
 6184SOL    HW219452   3.110   0.272   6.164
 6185SOL     OW19453   1.505   4.733   5.818
 6185SOL    HW119454   1.574   4.722   5.890
 6185SOL    HW219455   1.426   4.781   5.856
 6186SOL     OW19456   6.599   1.106   1.767
 6186SOL    HW119457   6.587   1.066   1.676
 6186SOL    HW219458   6.611   1.032   1.834
 6187SOL     OW19459   4.924   3.272   4.978
 6187SOL    HW119460   4.896   3.340   5.045
 6187SOL    HW219461   4.933   3.315   4.888
 6188SOL     OW19462   1.549   1.851   5.868
 6188SOL    HW119463   1.630   1.910   5.865
 6188SOL    HW219464   1.571   1.762   5.826
 6189SOL     OW19465   3.571   5.423   2.572
 6189SOL    HW119466   3.518   5.412   2.488
 6189SOL    HW219467   3.655   5.370   2.567
 6190SOL     OW19468   6.571   3.182   5.352
 6190SOL    HW119469   6.653   3.154   5.402
 6190SOL    HW219470   6.568   3.281   5.344
 6191SOL     OW19471   2.611   3.226   6.190
 6191SOL    HW119472   2.525   3.250   6.235
 6191SOL    HW219473   2.663   3.163   6.247
 6192SOL     OW19474   2.548   2.219   6.476
 6192SOL    HW119475   2.500   2.149   6.423
 6192SOL    HW219476   2.483   2.286   6.510
 6193SOL     OW19477   4.829   5.864   0.929
 6193SOL    HW119478   4.851   5.926   1.004
 6193SOL    HW219479   4.732   5.840   0.932
 6194SOL     OW19480   6.448   0.271   6.190
 6194SOL    HW119481   6.363   0.279   6.138
 6194SOL    HW219482   6.429   0.231   6.280
 6195SOL     OW19483   5.840   6.487   4.804
 6195SOL    HW119484   5.869   6.532   4.888
 6195SOL    HW219485   5.813   6.555   4.736
 6196SOL     OW19486   4.628   4.419   2.466
 6196SOL    HW119487   4.639   4.376   2.376
 6196SOL    HW219488   4.537   4.459   2.472
 6197SOL     OW19489   2.675   5.304   2.287
 6197SOL    HW119490   2.771   5.300   2.313
 6197SOL    HW219491   2.620   5.335   2.364
 6198SOL     OW19492   5.238   6.622   0.262
 6198SOL    HW119493   5.139   6.633   0.265
 6198SOL    HW219494   5.261   6.535   0.218
 6199SOL     OW19495   0.462   1.019   0.393
 6199SOL    HW119496   0.493   1.006   0.488
 6199SOL    HW219497   0.469   0.932   0.344
 6200SOL     OW19498   0.783   1.795   3.887
 6200SOL    HW119499   0.849   1.857   3.929
 6200SOL    HW219500   0.773   1.817   3.790
 6201SOL     OW19501   0.539   3.365   4.143
 6201SOL    HW119502   0.535   3.435   4.214
 6201SOL    HW219503   0.464   3.301   4.156
 6202SOL     OW19504   5.700   1.381   2.590
 6202SOL    HW119505   5.707   1.320   2.669
 6202SOL    HW219506   5.624   1.352   2.531
 6203SOL     OW19507   5.910   5.183   2.128
 6203SOL    HW119508   6.008   5.168   2.137
 6203SOL    HW219509   5.882   5.169   2.033
 6204SOL     OW19510   1.088   6.315   5.093
 6204SOL    HW119511   1.119   6.340   5.184
 6204SOL    HW219512   1.136   6.233   5.063
 6205SOL     OW19513   5.424   4.275   1.435
 6205SOL    HW119514   5.331   4.241   1.419
 6205SOL    HW219515   5.482   4.199   1.465
 6206SOL     OW19516   5.633   1.405   3.289
 6206SOL    HW119517   5.719   1.377   3.247
 6206SOL    HW219518   5.609   1.341   3.362
 6207SOL     OW19519   2.042   6.072   4.818
 6207SOL    HW119520   1.984   6.007   4.867
 6207SOL    HW219521   2.053   6.154   4.874
 6208SOL     OW19522   3.158   2.535   5.550
 6208SOL    HW119523   3.247   2.504   5.515
 6208SOL    HW219524   3.154   2.635   5.545
 6209SOL     OW19525   3.377   5.434   0.721
 6209SOL    HW119526   3.467   5.405   0.690
 6209SOL    HW219527   3.374   5.436   0.820
 6210SOL     OW19528   5.464   3.773   2.964
 6210SOL    HW119529   5.382   3.773   2.907
 6210SOL    HW219530   5.527   3.703   2.932
 6211SOL     OW19531   4.146   5.884   5.926
 6211SOL    HW119532   4.240   5.914   5.944
 6211SOL    HW219533   4.082   5.945   5.972
 6212SOL     OW19534   2.289   4.847   4.296
 6212SOL    HW119535   2.369   4.856   4.236
 6212SOL    HW219536   2.288   4.923   4.362
 6213SOL     OW19537   4.977   6.709   0.282
 6213SOL    HW119538   4.916   6.777   0.322
 6213SOL    HW219539   4.982   6.723   0.183
 6214SOL     OW19540   5.833   5.674   5.563
 6214SOL    HW119541   5.777   5.752   5.587
 6214SOL    HW219542   5.874   5.635   5.646
 6215SOL     OW19543   4.099   3.130   6.108
 6215SOL    HW119544   4.110   3.050   6.048
 6215SOL    HW219545   4.144   3.112   6.195
 6216SOL     OW19546   5.924   2.387   3.011
 6216SOL    HW119547   5.936   2.474   2.962
 6216SOL    HW219548   5.830   2.355   3.001
 6217SOL     OW19549   1.051   5.577   2.055
 6217SOL    HW119550   1.078   5.529   2.138
 6217SOL    HW219551   1.053   5.514   1.977
 6218SOL     OW19552   3.805   6.521   0.480
 6218SOL    HW119553   3.899   6.506   0.448
 6218SOL    HW219554   3.799   6.609   0.527
 6219SOL     OW19555   1.831   0.907   5.349
 6219SOL    HW119556   1.921   0.871   5.372
 6219SOL    HW219557   1.823   1.000   5.385
 6220SOL     OW19558   3.179   1.064   6.723
 6220SOL    HW119559   3.161   0.988   6.660
 6220SOL    HW219560   3.162   1.034   6.817
 6221SOL     OW19561   6.268   6.565   6.824
 6221SOL    HW119562   6.368   6.565   6.817
 6221SOL    HW219563   6.241   6.614   6.907
 6222SOL     OW19564   6.069   0.583   2.171
 6222SOL    HW119565   6.002   0.540   2.231
 6222SOL    HW219566   6.152   0.527   2.169
 6223SOL     OW19567   0.997   5.440   3.443
 6223SOL    HW119568   1.097   5.442   3.436
 6223SOL    HW219569   0.963   5.532   3.458
 6224SOL     OW19570   4.092   1.389   5.633
 6224SOL    HW119571   3.997   1.399   5.663
 6224SOL    HW219572   4.153   1.400   5.711
 6225SOL     OW19573   4.043   2.579   6.662
 6225SOL    HW119574   4.065   2.506   6.726
 6225SOL    HW219575   3.948   2.607   6.676
 6226SOL     OW19576   1.215   1.527   3.501
 6226SOL    HW119577   1.289   1.594   3.505
 6226SOL    HW219578   1.147   1.557   3.434
 6227SOL     OW19579   3.134   4.549   5.336
 6227SOL    HW119580   3.156   4.457   5.367
 6227SOL    HW219581   3.060   4.545   5.268
 6228SOL     OW19582   0.640   2.295   4.208
 6228SOL    HW119583   0.670   2.200   4.193
 6228SOL    HW219584   0.551   2.308   4.164
 6229SOL     OW19585   0.095   2.863   5.218
 6229SOL    HW119586   0.157   2.916   5.274
 6229SOL    HW219587   0.077   2.775   5.262
 6230SOL     OW19588   1.073   2.116   3.478
 6230SOL    HW119589   1.001   2.183   3.463
 6230SOL    HW219590   1.157   2.145   3.433
 6231SOL     OW19591   5.429   5.447   0.410
 6231SOL    HW119592   5.499   5.512   0.381
 6231SOL    HW219593   5.408   5.461   0.506
 6232SOL     OW19594   5.737   1.134   0.557
 6232SOL    HW119595   5.693   1.169   0.640
 6232SOL    HW219596   5.752   1.035   0.567
 6233SOL     OW19597   0.102   3.528   2.046
 6233SOL    HW119598   0.184   3.477   2.018
 6233SOL    HW219599   0.036   3.528   1.971
 6234SOL     OW19600   0.324   0.246   5.190
 6234SOL    HW119601   0.326   0.321   5.257
 6234SOL    HW219602   0.277   0.167   5.228
 6235SOL     OW19603   6.994   0.911   1.725
 6235SOL    HW119604   6.942   0.825   1.722
 6235SOL    HW219605   6.966   0.964   1.805
 6236SOL     OW19606   6.860   4.444   0.568
 6236SOL    HW119607   6.844   4.374   0.498
 6236SOL    HW219608   6.863   4.401   0.658
 6237SOL     OW19609   3.249   6.900   0.077
 6237SOL    HW119610   3.286   6.825   0.133
 6237SOL    HW219611   3.170   6.867   0.026
 6238SOL     OW19612   3.791   6.489   3.576
 6238SOL    HW119613   3.750   6.556   3.639
 6238SOL    HW219614   3.888   6.511   3.563
 6239SOL     OW19615   3.628   0.353   1.641
 6239SOL    HW119616   3.658   0.359   1.736
 6239SOL    HW219617   3.592   0.262   1.622
 6240SOL     OW19618   3.265   4.076   4.811
 6240SOL    HW119619   3.279   4.106   4.906
 6240SOL    HW219620   3.183   4.019   4.807
 6241SOL     OW19621   4.208   0.372   4.043
 6241SOL    HW119622   4.274   0.346   3.972
 6241SOL    HW219623   4.185   0.291   4.098
 6242SOL     OW19624   2.474   1.216   3.629
 6242SOL    HW119625   2.523   1.276   3.691
 6242SOL    HW219626   2.384   1.254   3.608
 6243SOL     OW19627   6.779   0.843   5.316
 6243SOL    HW119628   6.839   0.818   5.240
 6243SOL    HW219629   6.822   0.818   5.403
 6244SOL     OW19630   5.100   4.091   3.232
 6244SOL    HW119631   5.069   4.171   3.283
 6244SOL    HW219632   5.199   4.093   3.223
 6245SOL     OW19633   0.975   5.199   1.851
 6245SOL    HW119634   1.069   5.222   1.825
 6245SOL    HW219635   0.925   5.282   1.874
 6246SOL     OW19636   0.750   0.583   4.349
 6246SOL    HW119637   0.685   0.579   4.425
 6246SOL    HW219638   0.837   0.543   4.378
 6247SOL     OW19639   1.232   5.909   3.236
 6247SOL    HW119640   1.237   5.991   3.294
 6247SOL    HW219641   1.268   5.830   3.287
 6248SOL     OW19642   3.531   3.457   0.030
 6248SOL    HW119643   3.494   3.412   0.111
 6248SOL    HW219644   3.629   3.474   0.043
 6249SOL     OW19645   6.929   2.742   1.740
 6249SOL    HW119646   6.966   2.755   1.832
 6249SOL    HW219647   6.957   2.653   1.705
 6250SOL     OW19648   6.935   6.506   0.775
 6250SOL    HW119649   7.003   6.537   0.841
 6250SOL    HW219650   6.849   6.487   0.821
 6251SOL     OW19651   3.910   6.017   4.388
 6251SOL    HW119652   3.885   6.049   4.297
 6251SOL    HW219653   3.954   6.091   4.439
 6252SOL     OW19654   2.731   5.026   0.232
 6252SOL    HW119655   2.749   5.055   0.138
 6252SOL    HW219656   2.777   5.088   0.295
 6253SOL     OW19657   2.395   4.781   4.844
 6253SOL    HW119658   2.437   4.870   4.829
 6253SOL    HW219659   2.464   4.709   4.833
 6254SOL     OW19660   0.753   6.248   1.140
 6254SOL    HW119661   0.665   6.225   1.182
 6254SOL    HW219662   0.747   6.338   1.096
 6255SOL     OW19663   1.699   2.654   0.791
 6255SOL    HW119664   1.695   2.555   0.777
 6255SOL    HW219665   1.794   2.684   0.796
 6256SOL     OW19666   4.654   5.288   2.759
 6256SOL    HW119667   4.715   5.277   2.681
 6256SOL    HW219668   4.665   5.211   2.821
 6257SOL     OW19669   4.189   3.310   0.296
 6257SOL    HW119670   4.288   3.300   0.302
 6257SOL    HW219671   4.153   3.338   0.384
 6258SOL     OW19672   3.473   0.066   5.413
 6258SOL    HW119673   3.445   0.021   5.498
 6258SOL    HW219674   3.392   0.082   5.355
 6259SOL     OW19675   1.794   1.568   5.977
 6259SOL    HW119676   1.746   1.495   6.025
 6259SOL    HW219677   1.850   1.620   6.042
 6260SOL     OW19678   1.951   0.446   0.768
 6260SOL    HW119679   2.002   0.454   0.854
 6260SOL    HW219680   1.983   0.366   0.718
 6261SOL     OW19681   5.257   6.794   1.039
 6261SOL    HW119682   5.309   6.780   0.956
 6261SOL    HW219683   5.183   6.859   1.022
 6262SOL     OW19684   0.496   6.417   3.114
 6262SOL    HW119685   0.568   6.352   3.137
 6262SOL    HW219686   0.447   6.445   3.197
 6263SOL     OW19687   6.886   6.566   4.881
 6263SOL    HW119688   6.839   6.643   4.836
 6263SOL    HW219689   6.927   6.507   4.811
 6264SOL     OW19690   1.062   6.892   1.020
 6264SOL    HW119691   0.973   6.938   1.012
 6264SOL    HW219692   1.117   6.936   1.090
 6265SOL     OW19693   4.127   2.341   0.503
 6265SOL    HW119694   4.104   2.410   0.434
 6265SOL    HW219695   4.075   2.359   0.586
 6266SOL     OW19696   3.674   6.569   3.336
 6266SOL    HW119697   3.702   6.520   3.418
 6266SOL    HW219698   3.599   6.521   3.292
 6267SOL     OW19699   1.398   6.566   5.178
 6267SOL    HW119700   1.384   6.661   5.208
 6267SOL    HW219701   1.322   6.510   5.211
 6268SOL     OW19702   3.306   0.306   2.201
 6268SOL    HW119703   3.396   0.328   2.239
 6268SOL    HW219704   3.259   0.391   2.178
 6269SOL     OW19705   5.341   6.297   1.203
 6269SOL    HW119706   5.302   6.370   1.258
 6269SOL    HW219707   5.409   6.247   1.257
 6270SOL     OW19708   0.770   6.094   0.041
 6270SOL    HW119709   0.808   6.147   6.997
 6270SOL    HW219710   0.701   6.150   0.089
 6271SOL     OW19711   6.027   2.399   6.862
 6271SOL    HW119712   6.085   2.399   6.780
 6271SOL    HW219713   6.051   2.476   6.921
 6272SOL     OW19714   0.475   0.353   0.040
 6272SOL    HW119715   0.534   0.368   0.119
 6272SOL    HW219716   0.420   0.271   0.054
 6273SOL     OW19717   0.868   6.431   3.340
 6273SOL    HW119718   0.968   6.443   3.341
 6273SOL    HW219719   0.832   6.447   3.432
 6274SOL     OW19720   2.527   6.694   4.721
 6274SOL    HW119721   2.480   6.750   4.652
 6274SOL    HW219722   2.460   6.635   4.767
 6275SOL     OW19723   2.425   6.232   0.638
 6275SOL    HW119724   2.366   6.313   0.642
 6275SOL    HW219725   2.419   6.191   0.547
 6276SOL     OW19726   3.492   5.902   3.324
 6276SOL    HW119727   3.521   5.906   3.420
 6276SOL    HW219728   3.569   5.877   3.266
 6277SOL     OW19729   4.914   1.868   1.382
 6277SOL    HW119730   4.819   1.856   1.413
 6277SOL    HW219731   4.974   1.811   1.437
 6278SOL     OW19732   3.597   0.392   5.792
 6278SOL    HW119733   3.662   0.320   5.819
 6278SOL    HW219734   3.647   0.468   5.750
 6279SOL     OW19735   3.677   6.151   0.674
 6279SOL    HW119736   3.770   6.183   0.658
 6279SOL    HW219737   3.634   6.204   0.747
 6280SOL     OW19738   0.068   1.367   6.614
 6280SOL    HW119739   7.007   1.334   6.594
 6280SOL    HW219740   0.077   1.462   6.585
 6281SOL     OW19741   5.643   4.920   3.830
 6281SOL    HW119742   5.720   4.964   3.783
 6281SOL    HW219743   5.678   4.843   3.885
 6282SOL     OW19744   5.796   3.541   5.150
 6282SOL    HW119745   5.725   3.472   5.167
 6282SOL    HW219746   5.870   3.500   5.097
 6283SOL     OW19747   0.980   5.166   4.626
 6283SOL    HW119748   0.937   5.240   4.573
 6283SOL    HW219749   0.931   5.153   4.712
 6284SOL     OW19750   1.404   5.551   6.380
 6284SOL    HW119751   1.485   5.537   6.321
 6284SOL    HW219752   1.432   5.596   6.464
 6285SOL     OW19753   1.592   3.634   3.621
 6285SOL    HW119754   1.665   3.572   3.594
 6285SOL    HW219755   1.544   3.597   3.701
 6286SOL     OW19756   6.443   3.434   4.348
 6286SOL    HW119757   6.355   3.452   4.394
 6286SOL    HW219758   6.439   3.346   4.302
 6287SOL     OW19759   4.072   4.803   5.636
 6287SOL    HW119760   4.008   4.767   5.568
 6287SOL    HW219761   4.108   4.891   5.604
 6288SOL     OW19762   4.019   4.069   1.010
 6288SOL    HW119763   3.963   4.139   0.965
 6288SOL    HW219764   3.973   4.037   1.093
 6289SOL     OW19765   2.230   4.295   7.003
 6289SOL    HW119766   2.323   4.312   0.005
 6289SOL    HW219767   2.164   4.337   0.034
 6290SOL     OW19768   6.840   5.161   6.408
 6290SOL    HW119769   6.925   5.156   6.462
 6290SOL    HW219770   6.804   5.069   6.394
 6291SOL     OW19771   3.955   3.221   3.084
 6291SOL    HW119772   3.856   3.204   3.083
 6291SOL    HW219773   3.987   3.226   3.178
 6292SOL     OW19774   2.135   2.538   4.605
 6292SOL    HW119775   2.116   2.501   4.514
 6292SOL    HW219776   2.215   2.491   4.643
 6293SOL     OW19777   4.544   1.804   0.590
 6293SOL    HW119778   4.626   1.794   0.646
 6293SOL    HW219779   4.569   1.847   0.503
 6294SOL     OW19780   4.139   0.362   3.426
 6294SOL    HW119781   4.121   0.445   3.374
 6294SOL    HW219782   4.093   0.366   3.514
 6295SOL     OW19783   5.400   5.124   4.744
 6295SOL    HW119784   5.470   5.146   4.812
 6295SOL    HW219785   5.437   5.061   4.676
 6296SOL     OW19786   0.666   4.286   5.579
 6296SOL    HW119787   0.705   4.202   5.617
 6296SOL    HW219788   0.724   4.319   5.505
 6297SOL     OW19789   6.078   0.030   5.305
 6297SOL    HW119790   6.003   0.043   5.369
 6297SOL    HW219791   6.044   0.038   5.211
 6298SOL     OW19792   6.345   5.044   6.669
 6298SOL    HW119793   6.410   5.033   6.594
 6298SOL    HW219794   6.253   5.022   6.636
 6299SOL     OW19795   5.616   2.660   2.497
 6299SOL    HW119796   5.522   2.683   2.518
 6299SOL    HW219797   5.623   2.631   2.401
 6300SOL     OW19798   4.351   1.186   6.664
 6300SOL    HW119799   4.272   1.244   6.684
 6300SOL    HW219800   4.435   1.233   6.690
 6301SOL     OW19801   3.131   6.597   6.412
 6301SOL    HW119802   3.204   6.554   6.360
 6301SOL    HW219803   3.166   6.628   6.501
 6302SOL     OW19804   2.125   1.964   5.297
 6302SOL    HW119805   2.181   1.941   5.218
 6302SOL    HW219806   2.180   2.011   5.365
 6303SOL     OW19807   1.002   6.842   5.565
 6303SOL    HW119808   1.045   6.902   5.498
 6303SOL    HW219809   1.057   6.841   5.649
 6304SOL     OW19810   3.858   1.733   3.282
 6304SOL    HW119811   3.843   1.828   3.255
 6304SOL    HW219812   3.956   1.717   3.295
 6305SOL     OW19813   6.161   6.066   0.037
 6305SOL    HW119814   6.157   6.151   0.089
 6305SOL    HW219815   6.235   6.071   7.000
 6306SOL     OW19816   0.794   3.243   3.715
 6306SOL    HW119817   0.837   3.229   3.626
 6306SOL    HW219818   0.710   3.296   3.703
 6307SOL     OW19819   3.569   3.127   4.317
 6307SOL    HW119820   3.650   3.178   4.346
 6307SOL    HW219821   3.488   3.168   4.358
 6308SOL     OW19822   0.655   1.921   5.894
 6308SOL    HW119823   0.581   1.908   5.959
 6308SOL    HW219824   0.658   2.017   5.865
 6309SOL     OW19825   0.407   6.711   4.302
 6309SOL    HW119826   0.346   6.667   4.368
 6309SOL    HW219827   0.354   6.736   4.221
 6310SOL     OW19828   1.974   6.873   2.804
 6310SOL    HW119829   2.049   6.904   2.745
 6310SOL    HW219830   1.922   6.952   2.836
 6311SOL     OW19831   4.947   1.242   6.870
 6311SOL    HW119832   4.994   1.306   6.931
 6311SOL    HW219833   4.976   1.149   6.891
 6312SOL     OW19834   1.714   6.841   6.556
 6312SOL    HW119835   1.739   6.847   6.459
 6312SOL    HW219836   1.771   6.904   6.608
 6313SOL     OW19837   5.654   6.939   3.722
 6313SOL    HW119838   5.694   6.907   3.807
 6313SOL    HW219839   5.721   6.932   3.648
 6314SOL     OW19840   3.668   0.172   1.356
 6314SOL    HW119841   3.758   0.210   1.334
 6314SOL    HW219842   3.680   0.085   1.405
 6315SOL     OW19843   2.267   2.231   4.803
 6315SOL    HW119844   2.346   2.185   4.843
 6315SOL    HW219845   2.297   2.293   4.731
 6316SOL     OW19846   4.777   1.764   5.930
 6316SOL    HW119847   4.875   1.744   5.924
 6316SOL    HW219848   4.765   1.856   5.966
 6317SOL     OW19849   5.545   4.035   2.966
 6317SOL    HW119850   5.517   3.942   2.988
 6317SOL    HW219851   5.464   4.089   2.943
 6318SOL     OW19852   5.938   0.513   6.973
 6318SOL    HW119853   5.923   0.508   0.042
 6318SOL    HW219854   5.992   0.435   6.943
 6319SOL     OW19855   5.528   1.959   4.536
 6319SOL    HW119856   5.611   2.000   4.498
 6319SOL    HW219857   5.455   2.027   4.538
 6320SOL     OW19858   7.008   0.440   3.486
 6320SOL    HW119859   6.948   0.481   3.417
 6320SOL    HW219860   0.006   0.349   3.457
 6321SOL     OW19861   5.322   3.916   0.430
 6321SOL    HW119862   5.283   3.976   0.360
 6321SOL    HW219863   5.422   3.915   0.422
 6322SOL     OW19864   2.531   1.731   0.594
 6322SOL    HW119865   2.580   1.787   0.527
 6322SOL    HW219866   2.573   1.640   0.599
 6323SOL     OW19867   1.800   3.314   1.480
 6323SOL    HW119868   1.719   3.285   1.429
 6323SOL    HW219869   1.801   3.270   1.569
 6324SOL     OW19870   4.374   1.615   0.739
 6324SOL    HW119871   4.346   1.632   0.645
 6324SOL    HW219872   4.381   1.702   0.788
 6325SOL     OW19873   1.350   2.607   2.714
 6325SOL    HW119874   1.405   2.622   2.632
 6325SOL    HW219875   1.266   2.558   2.690
 6326SOL     OW19876   4.669   5.371   5.512
 6326SOL    HW119877   4.617   5.406   5.435
 6326SOL    HW219878   4.693   5.275   5.496
 6327SOL     OW19879   0.181   1.536   3.346
 6327SOL    HW119880   0.237   1.518   3.426
 6327SOL    HW219881   0.091   1.569   3.374
 6328SOL     OW19882   5.116   3.945   6.908
 6328SOL    HW119883   5.063   3.925   6.990
 6328SOL    HW219884   5.120   3.864   6.850
 6329SOL     OW19885   0.951   2.701   4.623
 6329SOL    HW119886   0.949   2.729   4.527
 6329SOL    HW219887   0.859   2.705   4.661
 6330SOL     OW19888   5.981   0.961   3.227
 6330SOL    HW119889   6.021   0.883   3.276
 6330SOL    HW219890   6.054   1.018   3.189
 6331SOL     OW19891   6.520   2.936   4.988
 6331SOL    HW119892   6.422   2.945   5.008
 6331SOL    HW219893   6.537   2.846   4.946
 6332SOL     OW19894   1.102   1.979   1.457
 6332SOL    HW119895   1.061   2.051   1.402
 6332SOL    HW219896   1.162   1.923   1.400
 6333SOL     OW19897   5.254   0.178   6.906
 6333SOL    HW119898   5.340   0.205   6.862
 6333SOL    HW219899   5.177   0.207   6.849
 6334SOL     OW19900   2.332   1.642   1.591
 6334SOL    HW119901   2.264   1.619   1.521
 6334SOL    HW219902   2.299   1.615   1.681
 6335SOL     OW19903   4.752   1.401   0.801
 6335SOL    HW119904   4.795   1.323   0.847
 6335SOL    HW219905   4.821   1.469   0.778
 6336SOL     OW19906   6.967   4.165   6.390
 6336SOL    HW119907   0.027   4.190   6.356
 6336SOL    HW219908   6.975   4.115   6.476
 6337SOL     OW19909   4.370   5.984   5.318
 6337SOL    HW119910   4.441   5.943   5.260
 6337SOL    HW219911   4.285   5.991   5.267
 6338SOL     OW19912   2.773   1.205   4.607
 6338SOL    HW119913   2.836   1.130   4.587
 6338SOL    HW219914   2.810   1.262   4.680
 6339SOL     OW19915   1.253   3.693   3.033
 6339SOL    HW119916   1.283   3.770   2.977
 6339SOL    HW219917   1.159   3.710   3.064
 6340SOL     OW19918   2.306   3.956   1.417
 6340SOL    HW119919   2.324   3.866   1.376
 6340SOL    HW219920   2.253   4.011   1.353
 6341SOL     OW19921   0.987   3.506   3.348
 6341SOL    HW119922   1.056   3.531   3.416
 6341SOL    HW219923   0.993   3.568   3.270
 6342SOL     OW19924   3.350   1.327   1.184
 6342SOL    HW119925   3.388   1.302   1.095
 6342SOL    HW219926   3.267   1.381   1.170
 6343SOL     OW19927   4.124   6.838   6.831
 6343SOL    HW119928   4.132   6.776   6.910
 6343SOL    HW219929   4.077   6.921   6.859
 6344SOL     OW19930   6.037   2.507   3.870
 6344SOL    HW119931   5.996   2.418   3.890
 6344SOL    HW219932   6.117   2.521   3.929
 6345SOL     OW19933   5.012   3.161   1.953
 6345SOL    HW119934   4.995   3.252   1.992
 6345SOL    HW219935   4.940   3.098   1.983
 6346SOL     OW19936   6.613   4.297   5.160
 6346SOL    HW119937   6.698   4.350   5.158
 6346SOL    HW219938   6.619   4.221   5.095
 6347SOL     OW19939   2.930   1.859   2.075
 6347SOL    HW119940   2.869   1.901   2.142
 6347SOL    HW219941   2.879   1.840   1.991
 6348SOL     OW19942   0.916   1.683   5.814
 6348SOL    HW119943   0.945   1.665   5.908
 6348SOL    HW219944   0.937   1.603   5.757
 6349SOL     OW19945   1.307   0.456   0.247
 6349SOL    HW119946   1.248   0.537   0.248
 6349SOL    HW219947   1.397   0.481   0.282
 6350SOL     OW19948   0.936   5.063   3.026
 6350SOL    HW119949   0.922   5.006   2.945
 6350SOL    HW219950   0.950   5.005   3.105
 6351SOL     OW19951   6.261   3.900   3.957
 6351SOL    HW119952   6.311   3.957   3.892
 6351SOL    HW219953   6.163   3.918   3.950
 6352SOL     OW19954   2.884   1.064   4.013
 6352SOL    HW119955   2.883   1.136   3.943
 6352SOL    HW219956   2.975   1.022   4.015
 6353SOL     OW19957   2.489   5.139   0.364
 6353SOL    HW119958   2.522   5.095   0.281
 6353SOL    HW219959   2.390   5.149   0.360
 6354SOL     OW19960   4.486   5.751   2.863
 6354SOL    HW119961   4.405   5.781   2.814
 6354SOL    HW219962   4.484   5.652   2.876
 6355SOL     OW19963   2.975   5.625   0.812
 6355SOL    HW119964   2.963   5.724   0.803
 6355SOL    HW219965   3.062   5.607   0.859
 6356SOL     OW19966   5.661   4.948   7.018
 6356SOL    HW119967   5.702   4.860   0.011
 6356SOL    HW219968   5.562   4.944   0.002
 6357SOL     OW19969   5.866   2.961   1.657
 6357SOL    HW119970   5.778   3.005   1.675
 6357SOL    HW219971   5.902   2.994   1.570
 6358SOL     OW19972   0.854   2.021   6.934
 6358SOL    HW119973   0.778   2.019   6.870
 6358SOL    HW219974   0.821   2.048   7.025
 6359SOL     OW19975   5.873   6.749   0.343
 6359SOL    HW119976   5.911   6.838   0.320
 6359SOL    HW219977   5.837   6.751   0.437
 6360SOL     OW19978   0.525   3.034   3.721
 6360SOL    HW119979   0.570   2.982   3.649
 6360SOL    HW219980   0.564   3.008   3.810
 6361SOL     OW19981   0.766   0.807   0.639
 6361SOL    HW119982   0.758   0.731   0.574
 6361SOL    HW219983   0.678   0.853   0.647
 6362SOL     OW19984   1.640   6.397   6.866
 6362SOL    HW119985   1.651   6.307   6.825
 6362SOL    HW219986   1.674   6.467   6.803
 6363SOL     OW19987   2.528   4.682   4.082
 6363SOL    HW119988   2.432   4.682   4.055
 6363SOL    HW219989   2.560   4.776   4.093
 6364SOL     OW19990   2.131   1.842   4.813
 6364SOL    HW119991   2.134   1.921   4.751
 6364SOL    HW219992   2.104   1.761   4.762
 6365SOL     OW19993   6.275   5.658   4.965
 6365SOL    HW119994   6.304   5.565   4.987
 6365SOL    HW219995   6.181   5.671   4.998
 6366SOL     OW19996   6.747   6.799   4.795
 6366SOL    HW119997   6.692   6.778   4.876
 6366SOL    HW219998   6.686   6.829   4.721
 6367SOL     OW19999   3.086   1.817   2.893
 6367SOL    HW120000   3.185   1.810   2.900
 6367SOL    HW220001   3.061   1.913   2.878
 6368SOL     OW20002   4.409   4.567   4.608
 6368SOL    HW120003   4.422   4.580   4.706
 6368SOL    HW220004   4.428   4.653   4.560
 6369SOL     OW20005   2.074   6.460   5.307
 6369SOL    HW120006   1.999   6.394   5.311
 6369SOL    HW220007   2.155   6.421   5.350
 6370SOL     OW20008   4.845   4.093   3.559
 6370SOL    HW120009   4.876   4.132   3.472
 6370SOL    HW220010   4.817   3.998   3.544
 6371SOL     OW20011   5.559   4.109   1.855
 6371SOL    HW120012   5.608   4.197   1.861
 6371SOL    HW220013   5.477   4.113   1.912
 6372SOL     OW20014   0.315   0.969   2.563
 6372SOL    HW120015   0.240   1.000   2.621
 6372SOL    HW220016   0.388   1.038   2.563
 6373SOL     OW20017   5.972   3.986   2.218
 6373SOL    HW120018   5.914   4.021   2.292
 6373SOL    HW220019   5.996   3.891   2.237
 6374SOL     OW20020   4.011   2.897   0.237
 6374SOL    HW120021   3.958   2.894   0.321
 6374SOL    HW220022   4.070   2.816   0.231
 6375SOL     OW20023   0.943   2.867   2.581
 6375SOL    HW120024   0.950   2.956   2.535
 6375SOL    HW220025   1.030   2.846   2.626
 6376SOL     OW20026   4.130   1.781   5.966
 6376SOL    HW120027   4.163   1.865   5.925
 6376SOL    HW220028   4.200   1.710   5.959
 6377SOL     OW20029   6.936   1.011   5.953
 6377SOL    HW120030   6.924   1.106   5.924
 6377SOL    HW220031   6.886   0.951   5.892
 6378SOL     OW20032   4.713   5.749   3.508
 6378SOL    HW120033   4.736   5.832   3.557
 6378SOL    HW220034   4.739   5.758   3.412
 6379SOL     OW20035   1.103   4.433   5.307
 6379SOL    HW120036   1.108   4.351   5.365
 6379SOL    HW220037   1.166   4.502   5.343
 6380SOL     OW20038   0.608   3.012   4.031
 6380SOL    HW120039   0.637   2.921   4.061
 6380SOL    HW220040   0.689   3.068   4.011
 6381SOL     OW20041   3.998   2.584   0.376
 6381SOL    HW120042   4.014   2.658   0.441
 6381SOL    HW220043   4.061   2.592   0.299
 6382SOL     OW20044   2.422   1.603   1.267
 6382SOL    HW120045   2.389   1.636   1.178
 6382SOL    HW220046   2.417   1.503   1.270
 6383SOL     OW20047   1.235   2.609   2.426
 6383SOL    HW120048   1.208   2.626   2.331
 6383SOL    HW220049   1.326   2.565   2.428
 6384SOL     OW20050   5.826   2.511   2.574
 6384SOL    HW120051   5.829   2.424   2.525
 6384SOL    HW220052   5.751   2.567   2.538
 6385SOL     OW20053   6.486   4.055   1.616
 6385SOL    HW120054   6.411   3.988   1.609
 6385SOL    HW220055   6.475   4.124   1.544
 6386SOL     OW20056   1.467   4.378   0.738
 6386SOL    HW120057   1.554   4.369   0.690
 6386SOL    HW220058   1.482   4.366   0.836
 6387SOL     OW20059   6.301   1.186   0.490
 6387SOL    HW120060   6.368   1.219   0.556
 6387SOL    HW220061   6.291   1.252   0.416
 6388SOL     OW20062   6.716   4.689   2.744
 6388SOL    HW120063   6.776   4.634   2.803
 6388SOL    HW220064   6.721   4.653   2.651
 6389SOL     OW20065   1.905   6.706   0.863
 6389SOL    HW120066   1.961   6.770   0.915
 6389SOL    HW220067   1.836   6.756   0.810
 6390SOL     OW20068   6.230   0.668   6.966
 6390SOL    HW120069   6.197   0.627   0.021
 6390SOL    HW220070   6.238   0.597   6.896
 6391SOL     OW20071   1.514   1.499   6.159
 6391SOL    HW120072   1.440   1.450   6.113
 6391SOL    HW220073   1.495   1.597   6.157
 6392SOL     OW20074   3.359   5.967   3.936
 6392SOL    HW120075   3.330   5.891   3.994
 6392SOL    HW220076   3.288   6.038   3.936
 6393SOL     OW20077   5.416   6.191   1.822
 6393SOL    HW120078   5.401   6.093   1.808
 6393SOL    HW220079   5.389   6.241   1.739
 6394SOL     OW20080   1.413   4.852   1.104
 6394SOL    HW120081   1.444   4.776   1.047
 6394SOL    HW220082   1.343   4.820   1.167
 6395SOL     OW20083   0.153   3.510   2.542
 6395SOL    HW120084   0.164   3.606   2.515
 6395SOL    HW220085   0.059   3.493   2.569
 6396SOL     OW20086   6.533   3.789   6.118
 6396SOL    HW120087   6.557   3.785   6.215
 6396SOL    HW220088   6.439   3.822   6.108
 6397SOL     OW20089   6.054   1.015   2.151
 6397SOL    HW120090   6.085   0.958   2.227
 6397SOL    HW220091   6.107   0.993   2.070
 6398SOL     OW20092   1.208   6.682   1.614
 6398SOL    HW120093   1.295   6.645   1.648
 6398SOL    HW220094   1.156   6.609   1.569
 6399SOL     OW20095   1.989   0.312   6.946
 6399SOL    HW120096   2.083   0.278   6.945
 6399SOL    HW220097   1.982   0.393   6.887
 6400SOL     OW20098   2.040   5.430   2.485
 6400SOL    HW120099   2.132   5.409   2.517
 6400SOL    HW220100   2.021   5.527   2.498
 6401SOL     OW20101   4.846   4.762   3.037
 6401SOL    HW120102   4.837   4.781   2.939
 6401SOL    HW220103   4.755   4.758   3.079
 6402SOL     OW20104   1.528   2.736   3.552
 6402SOL    HW120105   1.556   2.706   3.460
 6402SOL    HW220106   1.463   2.812   3.543
 6403SOL     OW20107   5.510   6.419   4.781
 6403SOL    HW120108   5.591   6.360   4.780
 6403SOL    HW220109   5.498   6.459   4.691
 6404SOL     OW20110   3.803   1.293   2.316
 6404SOL    HW120111   3.824   1.240   2.398
 6404SOL    HW220112   3.847   1.382   2.322
 6405SOL     OW20113   4.631   1.582   3.949
 6405SOL    HW120114   4.685   1.505   3.985
 6405SOL    HW220115   4.677   1.619   3.868
 6406SOL     OW20116   1.168   3.211   2.468
 6406SOL    HW120117   1.142   3.219   2.565
 6406SOL    HW220118   1.094   3.166   2.418
 6407SOL     OW20119   1.803   6.406   3.285
 6407SOL    HW120120   1.880   6.458   3.322
 6407SOL    HW220121   1.720   6.461   3.290
 6408SOL     OW20122   6.612   0.740   1.242
 6408SOL    HW120123   6.583   0.685   1.165
 6408SOL    HW220124   6.580   0.834   1.230
 6409SOL     OW20125   6.560   4.882   3.398
 6409SOL    HW120126   6.532   4.961   3.452
 6409SOL    HW220127   6.524   4.890   3.305
 6410SOL     OW20128   2.328   1.305   6.344
 6410SOL    HW120129   2.358   1.400   6.339
 6410SOL    HW220130   2.235   1.298   6.308
 6411SOL     OW20131   0.444   2.929   2.026
 6411SOL    HW120132   0.540   2.955   2.034
 6411SOL    HW220133   0.388   3.012   2.020
 6412SOL     OW20134   3.049   0.855   6.544
 6412SOL    HW120135   2.989   0.800   6.601
 6412SOL    HW220136   2.997   0.928   6.501
 6413SOL     OW20137   4.005   4.931   4.489
 6413SOL    HW120138   3.943   4.857   4.463
 6413SOL    HW220139   4.098   4.909   4.459
 6414SOL     OW20140   7.016   6.946   6.642
 6414SOL    HW120141   7.003   6.995   6.556
 6414SOL    HW220142   7.026   6.848   6.623
 6415SOL     OW20143   1.551   3.128   3.098
 6415SOL    HW120144   1.522   3.032   3.102
 6415SOL    HW220145   1.648   3.135   3.122
 6416SOL     OW20146   3.048   6.847   6.351
 6416SOL    HW120147   2.952   6.861   6.373
 6416SOL    HW220148   3.072   6.751   6.367
 6417SOL     OW20149   5.304   2.322   1.094
 6417SOL    HW120150   5.357   2.314   1.179
 6417SOL    HW220151   5.357   2.287   1.018
 6418SOL     OW20152   5.267   4.139   2.619
 6418SOL    HW120153   5.331   4.167   2.691
 6418SOL    HW220154   5.220   4.220   2.584
 6419SOL     OW20155   0.605   5.714   5.414
 6419SOL    HW120156   0.574   5.725   5.508
 6419SOL    HW220157   0.578   5.623   5.381
 6420SOL     OW20158   1.768   2.121   4.053
 6420SOL    HW120159   1.715   2.206   4.042
 6420SOL    HW220160   1.790   2.084   3.963
 6421SOL     OW20161   5.231   0.457   0.944
 6421SOL    HW120162   5.247   0.512   0.861
 6421SOL    HW220163   5.133   0.452   0.961
 6422SOL     OW20164   6.929   1.541   5.726
 6422SOL    HW120165   6.907   1.470   5.792
 6422SOL    HW220166   6.962   1.622   5.775
 6423SOL     OW20167   4.202   5.714   4.850
 6423SOL    HW120168   4.230   5.630   4.897
 6423SOL    HW220169   4.109   5.738   4.878
 6424SOL     OW20170   0.764   3.101   4.673
 6424SOL    HW120171   0.814   3.170   4.726
 6424SOL    HW220172   0.690   3.145   4.622
 6425SOL     OW20173   0.447   5.196   2.564
 6425SOL    HW120174   0.516   5.263   2.537
 6425SOL    HW220175   0.356   5.238   2.559
 6426SOL     OW20176   5.568   5.019   4.230
 6426SOL    HW120177   5.653   4.965   4.230
 6426SOL    HW220178   5.566   5.077   4.148
 6427SOL     OW20179   3.082   4.018   3.387
 6427SOL    HW120180   3.085   3.984   3.481
 6427SOL    HW220181   3.174   4.047   3.359
 6428SOL     OW20182   5.502   2.883   0.061
 6428SOL    HW120183   5.489   2.904   6.995
 6428SOL    HW220184   5.567   2.948   0.101
 6429SOL     OW20185   1.146   0.621   5.281
 6429SOL    HW120186   1.057   0.662   5.297
 6429SOL    HW220187   1.186   0.592   5.368
 6430SOL     OW20188   6.814   0.523   5.102
 6430SOL    HW120189   6.820   0.620   5.081
 6430SOL    HW220190   6.718   0.495   5.106
 6431SOL     OW20191   4.499   5.476   2.877
 6431SOL    HW120192   4.548   5.418   2.811
 6431SOL    HW220193   4.471   5.420   2.955
 6432SOL     OW20194   3.570   3.837   6.261
 6432SOL    HW120195   3.496   3.896   6.293
 6432SOL    HW220196   3.531   3.753   6.224
 6433SOL     OW20197   2.953   5.553   0.201
 6433SOL    HW120198   2.973   5.602   0.286
 6433SOL    HW220199   3.033   5.500   0.173
 6434SOL     OW20200   2.376   6.691   6.234
 6434SOL    HW120201   2.278   6.706   6.248
 6434SOL    HW220202   2.388   6.611   6.175
 6435SOL     OW20203   6.239   0.094   0.252
 6435SOL    HW120204   6.329   0.067   0.286
 6435SOL    HW220205   6.216   0.185   0.285
 6436SOL     OW20206   0.852   3.231   3.438
 6436SOL    HW120207   0.926   3.277   3.389
 6436SOL    HW220208   0.777   3.213   3.375
 6437SOL     OW20209   0.796   1.852   5.464
 6437SOL    HW120210   0.747   1.934   5.492
 6437SOL    HW220211   0.798   1.846   5.365
 6438SOL     OW20212   1.014   4.985   6.093
 6438SOL    HW120213   0.915   4.978   6.108
 6438SOL    HW220214   1.047   5.072   6.131
 6439SOL     OW20215   6.359   1.093   2.686
 6439SOL    HW120216   6.327   1.038   2.763
 6439SOL    HW220217   6.297   1.080   2.608
 6440SOL     OW20218   2.400   0.909   6.856
 6440SOL    HW120219   2.462   0.844   6.812
 6440SOL    HW220220   2.307   0.896   6.821
 6441SOL     OW20221   7.017   0.808   2.773
 6441SOL    HW120222   6.934   0.862   2.774
 6441SOL    HW220223   6.999   0.720   2.729
 6442SOL     OW20224   2.658   1.956   4.686
 6442SOL    HW120225   2.682   1.867   4.727
 6442SOL    HW220226   2.640   2.022   4.759
 6443SOL     OW20227   3.537   2.209   6.109
 6443SOL    HW120228   3.534   2.272   6.186
 6443SOL    HW220229   3.614   2.233   6.049
 6444SOL     OW20230   0.149   2.685   5.018
 6444SOL    HW120231   0.114   2.754   5.081
 6444SOL    HW220232   0.158   2.598   5.066
 6445SOL     OW20233   3.398   3.256   2.802
 6445SOL    HW120234   3.422   3.159   2.796
 6445SOL    HW220235   3.365   3.277   2.895
 6446SOL     OW20236   0.984   1.835   0.119
 6446SOL    HW120237   1.034   1.911   0.078
 6446SOL    HW220238   1.026   1.811   0.206
 6447SOL     OW20239   6.859   4.269   1.893
 6447SOL    HW120240   6.818   4.210   1.824
 6447SOL    HW220241   6.881   4.214   1.974
 6448SOL     OW20242   5.023   5.203   1.347
 6448SOL    HW120243   4.961   5.125   1.337
 6448SOL    HW220244   4.969   5.288   1.350
 6449SOL     OW20245   2.308   5.132   1.626
 6449SOL    HW120246   2.300   5.216   1.572
 6449SOL    HW220247   2.401   5.123   1.660
 6450SOL     OW20248   1.246   4.059   0.384
 6450SOL    HW120249   1.264   3.963   0.364
 6450SOL    HW220250   1.332   4.106   0.402
 6451SOL     OW20251   3.317   1.772   6.138
 6451SOL    HW120252   3.301   1.869   6.120
 6451SOL    HW220253   3.230   1.723   6.133
 6452SOL     OW20254   4.842   3.995   2.524
 6452SOL    HW120255   4.790   4.064   2.575
 6452SOL    HW220256   4.917   3.962   2.580
 6453SOL     OW20257   3.200   6.844   1.068
 6453SOL    HW120258   3.111   6.865   1.028
 6453SOL    HW220259   3.188   6.817   1.164
 6454SOL     OW20260   0.370   1.669   2.139
 6454SOL    HW120261   0.366   1.731   2.061
 6454SOL    HW220262   0.285   1.676   2.192
 6455SOL     OW20263   6.209   3.777   3.608
 6455SOL    HW120264   6.269   3.728   3.546
 6455SOL    HW220265   6.253   3.786   3.698
 6456SOL     OW20266   0.975   0.541   3.159
 6456SOL    HW120267   1.005   0.455   3.118
 6456SOL    HW220268   0.876   0.551   3.148
 6457SOL     OW20269   4.796   6.626   1.942
 6457SOL    HW120270   4.834   6.696   1.882
 6457SOL    HW220271   4.799   6.658   2.037
 6458SOL     OW20272   1.508   4.727   4.480
 6458SOL    HW120273   1.426   4.785   4.472
 6458SOL    HW220274   1.485   4.643   4.528
 6459SOL     OW20275   6.001   2.175   2.827
 6459SOL    HW120276   5.932   2.193   2.756
 6459SOL    HW220277   5.968   2.209   2.915
 6460SOL     OW20278   6.146   5.747   5.980
 6460SOL    HW120279   6.082   5.820   6.001
 6460SOL    HW220280   6.149   5.681   6.056
 6461SOL     OW20281   3.261   4.774   0.124
 6461SOL    HW120282   3.360   4.765   0.137
 6461SOL    HW220283   3.243   4.840   0.052
 6462SOL     OW20284   1.067   2.949   4.091
 6462SOL    HW120285   1.043   3.042   4.066
 6462SOL    HW220286   0.989   2.889   4.077
 6463SOL     OW20287   5.338   0.011   0.640
 6463SOL    HW120288   5.338   6.942   0.647
 6463SOL    HW220289   5.291   0.051   0.718
 6464SOL     OW20290   1.215   5.622   5.003
 6464SOL    HW120291   1.167   5.656   5.084
 6464SOL    HW220292   1.307   5.594   5.029
 6465SOL     OW20293   5.904   2.469   2.096
 6465SOL    HW120294   5.847   2.417   2.032
 6465SOL    HW220295   5.994   2.427   2.103
 6466SOL     OW20296   6.911   2.540   6.577
 6466SOL    HW120297   6.812   2.549   6.568
 6466SOL    HW220298   6.943   2.461   6.524
 6467SOL     OW20299   4.335   1.047   0.649
 6467SOL    HW120300   4.308   0.985   0.723
 6467SOL    HW220301   4.373   1.131   0.689
 6468SOL     OW20302   3.784   6.200   1.464
 6468SOL    HW120303   3.692   6.217   1.429
 6468SOL    HW220304   3.826   6.125   1.412
 6469SOL     OW20305   3.169   2.155   4.053
 6469SOL    HW120306   3.101   2.177   3.982
 6469SOL    HW220307   3.241   2.099   4.013
 6470SOL     OW20308   5.667   2.553   0.614
 6470SOL    HW120309   5.587   2.519   0.664
 6470SOL    HW220310   5.682   2.497   0.533
 6471SOL     OW20311   0.788   6.419   4.914
 6471SOL    HW120312   0.869   6.477   4.925
 6471SOL    HW220313   0.815   6.323   4.919
 6472SOL     OW20314   6.202   5.772   2.578
 6472SOL    HW120315   6.224   5.762   2.481
 6472SOL    HW220316   6.246   5.855   2.614
 6473SOL     OW20317   1.776   1.690   4.875
 6473SOL    HW120318   1.852   1.698   4.811
 6473SOL    HW220319   1.759   1.778   4.918
 6474SOL     OW20320   3.792   5.404   5.700
 6474SOL    HW120321   3.852   5.328   5.673
 6474SOL    HW220322   3.828   5.490   5.664
 6475SOL     OW20323   5.536   5.122   3.985
 6475SOL    HW120324   5.551   5.035   3.937
 6475SOL    HW220325   5.479   5.181   3.928
 6476SOL     OW20326   4.189   2.898   6.328
 6476SOL    HW120327   4.284   2.910   6.355
 6476SOL    HW220328   4.129   2.943   6.394
 6477SOL     OW20329   6.891   5.383   0.766
 6477SOL    HW120330   6.937   5.303   0.805
 6477SOL    HW220331   6.856   5.360   0.675
 6478SOL     OW20332   2.691   6.448   2.053
 6478SOL    HW120333   2.644   6.524   2.097
 6478SOL    HW220334   2.738   6.480   1.971
 6479SOL     OW20335   3.132   5.158   4.305
 6479SOL    HW120336   3.228   5.158   4.330
 6479SOL    HW220337   3.102   5.252   4.285
 6480SOL     OW20338   2.319   1.483   0.227
 6480SOL    HW120339   2.241   1.483   0.290
 6480SOL    HW220340   2.287   1.461   0.135
 6481SOL     OW20341   3.351   2.597   1.697
 6481SOL    HW120342   3.252   2.600   1.682
 6481SOL    HW220343   3.395   2.555   1.618
 6482SOL     OW20344   6.658   2.175   5.726
 6482SOL    HW120345   6.570   2.154   5.768
 6482SOL    HW220346   6.657   2.147   5.630
 6483SOL     OW20347   0.931   6.278   4.062
 6483SOL    HW120348   0.962   6.196   4.014
 6483SOL    HW220349   0.938   6.357   4.001
 6484SOL     OW20350   2.530   1.536   2.511
 6484SOL    HW120351   2.544   1.437   2.512
 6484SOL    HW220352   2.572   1.577   2.591
 6485SOL     OW20353   2.365   5.762   4.296
 6485SOL    HW120354   2.307   5.802   4.366
 6485SOL    HW220355   2.448   5.816   4.286
 6486SOL     OW20356   0.549   5.055   2.779
 6486SOL    HW120357   0.610   5.124   2.817
 6486SOL    HW220358   0.508   5.089   2.694
 6487SOL     OW20359   1.332   6.228   4.224
 6487SOL    HW120360   1.308   6.313   4.177
 6487SOL    HW220361   1.383   6.169   4.161
 6488SOL     OW20362   4.767   5.933   5.339
 6488SOL    HW120363   4.726   5.841   5.340
 6488SOL    HW220364   4.744   5.979   5.253
 6489SOL     OW20365   2.931   3.096   6.392
 6489SOL    HW120366   2.912   3.193   6.410
 6489SOL    HW220367   3.003   3.064   6.453
 6490SOL     OW20368   2.550   1.725   6.609
 6490SOL    HW120369   2.609   1.799   6.640
 6490SOL    HW220370   2.573   1.641   6.658
 6491SOL     OW20371   2.438   0.700   1.585
 6491SOL    HW120372   2.470   0.688   1.679
 6491SOL    HW220373   2.395   0.790   1.575
 6492SOL     OW20374   3.883   4.031   4.440
 6492SOL    HW120375   3.881   3.936   4.409
 6492SOL    HW220376   3.948   4.041   4.515
 6493SOL     OW20377   1.468   4.844   6.262
 6493SOL    HW120378   1.403   4.917   6.284
 6493SOL    HW220379   1.557   4.865   6.303
 6494SOL     OW20380   6.357   6.493   2.472
 6494SOL    HW120381   6.334   6.437   2.392
 6494SOL    HW220382   6.298   6.574   2.474
 6495SOL     OW20383   0.048   7.017   4.537
 6495SOL    HW120384   0.006   6.997   4.626
 6495SOL    HW220385   0.128   0.045   4.550
 6496SOL     OW20386   5.314   6.696   1.287
 6496SOL    HW120387   5.269   6.742   1.211
 6496SOL    HW220388   5.344   6.764   1.354
 6497SOL     OW20389   1.060   0.992   1.087
 6497SOL    HW120390   1.103   0.913   1.131
 6497SOL    HW220391   1.091   0.998   0.992
 6498SOL     OW20392   0.748   3.626   4.185
 6498SOL    HW120393   0.835   3.662   4.218
 6498SOL    HW220394   0.762   3.538   4.140
 6499SOL     OW20395   5.366   3.900   4.669
 6499SOL    HW120396   5.291   3.926   4.609
 6499SOL    HW220397   5.329   3.873   4.758
 6500SOL     OW20398   0.371   4.420   2.045
 6500SOL    HW120399   0.393   4.518   2.043
 6500SOL    HW220400   0.307   4.402   2.120
 6501SOL     OW20401   0.105   1.086   1.133
 6501SOL    HW120402   0.202   1.074   1.111
 6501SOL    HW220403   0.079   1.020   1.203
 6502SOL     OW20404   6.540   3.667   1.499
 6502SOL    HW120405   6.536   3.643   1.596
 6502SOL    HW220406   6.633   3.695   1.475
 6503SOL     OW20407   5.998   0.733   4.565
 6503SOL    HW120408   5.951   0.661   4.617
 6503SOL    HW220409   6.097   0.719   4.572
 6504SOL     OW20410   5.087   6.474   6.572
 6504SOL    HW120411   5.028   6.492   6.651
 6504SOL    HW220412   5.114   6.561   6.530
 6505SOL     OW20413   5.343   6.624   6.663
 6505SOL    HW120414   5.266   6.666   6.615
 6505SOL    HW220415   5.425   6.680   6.652
 6506SOL     OW20416   0.100   3.433   3.328
 6506SOL    HW120417   0.082   3.338   3.307
 6506SOL    HW220418   0.165   3.470   3.262
 6507SOL     OW20419   2.903   5.644   6.289
 6507SOL    HW120420   2.849   5.716   6.333
 6507SOL    HW220421   2.999   5.672   6.283
 6508SOL     OW20422   2.005   0.402   2.720
 6508SOL    HW120423   2.054   0.481   2.684
 6508SOL    HW220424   2.011   0.400   2.819
 6509SOL     OW20425   5.284   1.330   5.292
 6509SOL    HW120426   5.274   1.370   5.383
 6509SOL    HW220427   5.210   1.264   5.276
 6510SOL     OW20428   4.308   5.449   6.856
 6510SOL    HW120429   4.392   5.415   6.899
 6510SOL    HW220430   4.323   5.462   6.758
 6511SOL     OW20431   4.106   0.740   5.648
 6511SOL    HW120432   4.010   0.717   5.631
 6511SOL    HW220433   4.111   0.815   5.714
 6512SOL     OW20434   3.123   6.568   2.810
 6512SOL    HW120435   3.162   6.660   2.813
 6512SOL    HW220436   3.184   6.504   2.857
 6513SOL     OW20437   2.371   6.107   3.980
 6513SOL    HW120438   2.412   6.036   4.036
 6513SOL    HW220439   2.442   6.167   3.944
 6514SOL     OW20440   5.737   0.608   4.684
 6514SOL    HW120441   5.697   0.585   4.595
 6514SOL    HW220442   5.754   0.524   4.736
 6515SOL     OW20443   1.605   3.791   2.481
 6515SOL    HW120444   1.610   3.802   2.382
 6515SOL    HW220445   1.544   3.714   2.503
 6516SOL     OW20446   6.465   3.496   2.041
 6516SOL    HW120447   6.556   3.469   2.010
 6516SOL    HW220448   6.420   3.418   2.086
 6517SOL     OW20449   0.418   1.870   1.095
 6517SOL    HW120450   0.428   1.795   1.160
 6517SOL    HW220451   0.393   1.953   1.144
 6518SOL     OW20452   6.722   0.581   2.519
 6518SOL    HW120453   6.708   0.666   2.470
 6518SOL    HW220454   6.635   0.549   2.557
 6519SOL     OW20455   0.636   0.863   3.269
 6519SOL    HW120456   0.658   0.830   3.361
 6519SOL    HW220457   0.632   0.785   3.206
 6520SOL     OW20458   0.266   5.558   6.820
 6520SOL    HW120459   0.221   5.482   6.774
 6520SOL    HW220460   0.314   5.614   6.752
 6521SOL     OW20461   1.475   2.837   3.083
 6521SOL    HW120462   1.529   2.788   3.014
 6521SOL    HW220463   1.384   2.857   3.046
 6522SOL     OW20464   2.326   4.316   5.427
 6522SOL    HW120465   2.421   4.323   5.456
 6522SOL    HW220466   2.302   4.220   5.413
 6523SOL     OW20467   4.602   6.875   0.051
 6523SOL    HW120468   4.539   6.799   0.069
 6523SOL    HW220469   4.611   6.887   6.983
 6524SOL     OW20470   2.723   2.586   1.705
 6524SOL    HW120471   2.793   2.546   1.764
 6524SOL    HW220472   2.736   2.554   1.611
 6525SOL     OW20473   2.635   5.639   3.459
 6525SOL    HW120474   2.610   5.545   3.438
 6525SOL    HW220475   2.735   5.645   3.471
 6526SOL     OW20476   0.471   0.262   1.394
 6526SOL    HW120477   0.419   0.346   1.375
 6526SOL    HW220478   0.550   0.284   1.450
 6527SOL     OW20479   0.578   1.936   0.363
 6527SOL    HW120480   0.571   1.849   0.315
 6527SOL    HW220481   0.509   2.000   0.328
 6528SOL     OW20482   6.798   1.622   6.104
 6528SOL    HW120483   6.754   1.611   6.015
 6528SOL    HW220484   6.752   1.695   6.155
 6529SOL     OW20485   0.820   0.454   2.475
 6529SOL    HW120486   0.728   0.494   2.479
 6529SOL    HW220487   0.868   0.471   2.561
 6530SOL     OW20488   0.682   1.826   0.899
 6530SOL    HW120489   0.709   1.917   0.868
 6530SOL    HW220490   0.585   1.826   0.923
 6531SOL     OW20491   4.524   3.682   5.530
 6531SOL    HW120492   4.456   3.669   5.458
 6531SOL    HW220493   4.611   3.641   5.501
 6532SOL     OW20494   2.381   1.157   0.967
 6532SOL    HW120495   2.293   1.125   0.932
 6532SOL    HW220496   2.453   1.095   0.936
 6533SOL     OW20497   4.043   6.104   0.369
 6533SOL    HW120498   4.065   6.039   0.297
 6533SOL    HW220499   4.125   6.128   0.420
 6534SOL     OW20500   4.854   5.242   1.819
 6534SOL    HW120501   4.897   5.312   1.762
 6534SOL    HW220502   4.812   5.285   1.899
 6535SOL     OW20503   6.155   4.633   4.665
 6535SOL    HW120504   6.229   4.700   4.656
 6535SOL    HW220505   6.075   4.677   4.706
 6536SOL     OW20506   0.387   2.164   4.978
 6536SOL    HW120507   0.480   2.133   4.999
 6536SOL    HW220508   0.386   2.264   4.974
 6537SOL     OW20509   6.963   4.941   4.590
 6537SOL    HW120510   0.031   4.926   4.601
 6537SOL    HW220511   6.928   4.881   4.518
 6538SOL     OW20512   1.369   3.964   5.552
 6538SOL    HW120513   1.349   4.022   5.474
 6538SOL    HW220514   1.439   3.897   5.528
 6539SOL     OW20515   4.677   0.461   6.804
 6539SOL    HW120516   4.612   0.536   6.797
 6539SOL    HW220517   4.631   0.379   6.837
 6540SOL     OW20518   2.196   2.592   6.153
 6540SOL    HW120519   2.279   2.637   6.186
 6540SOL    HW220520   2.116   2.636   6.192
 6541SOL     OW20521   5.423   2.479   5.746
 6541SOL    HW120522   5.347   2.532   5.709
 6541SOL    HW220523   5.413   2.472   5.846
 6542SOL     OW20524   1.177   3.133   4.455
 6542SOL    HW120525   1.149   3.228   4.469
 6542SOL    HW220526   1.098   3.073   4.467
 6543SOL     OW20527   3.877   2.617   5.724
 6543SOL    HW120528   3.779   2.600   5.725
 6543SOL    HW220529   3.904   2.668   5.805
 6544SOL     OW20530   0.553   6.555   2.365
 6544SOL    HW120531   0.587   6.649   2.362
 6544SOL    HW220532   0.489   6.541   2.290
 6545SOL     OW20533   3.746   0.034   0.711
 6545SOL    HW120534   3.832   7.024   0.742
 6545SOL    HW220535   3.764   0.096   0.635
 6546SOL     OW20536   4.030   4.314   6.562
 6546SOL    HW120537   4.040   4.278   6.654
 6546SOL    HW220538   3.987   4.405   6.566
 6547SOL     OW20539   4.629   0.890   5.921
 6547SOL    HW120540   4.614   0.983   5.955
 6547SOL    HW220541   4.602   0.824   5.991
 6548SOL     OW20542   1.145   3.050   0.196
 6548SOL    HW120543   1.058   3.099   0.192
 6548SOL    HW220544   1.127   2.953   0.216
 6549SOL     OW20545   4.743   0.174   1.988
 6549SOL    HW120546   4.660   0.186   1.933
 6549SOL    HW220547   4.767   0.076   1.991
 6550SOL     OW20548   0.249   0.094   3.598
 6550SOL    HW120549   0.189   0.143   3.662
 6550SOL    HW220550   0.236   7.026   3.610
 6551SOL     OW20551   2.663   3.470   1.733
 6551SOL    HW120552   2.648   3.548   1.673
 6551SOL    HW220553   2.585   3.460   1.796
 6552SOL     OW20554   2.259   0.224   0.764
 6552SOL    HW120555   2.291   0.129   0.758
 6552SOL    HW220556   2.191   0.241   0.693
 6553SOL     OW20557   0.650   1.639   3.358
 6553SOL    HW120558   0.568   1.646   3.301
 6553SOL    HW220559   0.677   1.542   3.366
 6554SOL     OW20560   2.454   0.894   5.007
 6554SOL    HW120561   2.528   0.940   5.056
 6554SOL    HW220562   2.447   0.799   5.038
 6555SOL     OW20563   5.894   1.636   3.919
 6555SOL    HW120564   5.812   1.613   3.971
 6555SOL    HW220565   5.944   1.709   3.966
 6556SOL     OW20566   5.945   2.910   2.896
 6556SOL    HW120567   5.955   2.958   2.983
 6556SOL    HW220568   5.899   2.822   2.911
 6557SOL     OW20569   2.401   0.869   2.726
 6557SOL    HW120570   2.413   0.883   2.628
 6557SOL    HW220571   2.353   0.948   2.765
 6558SOL     OW20572   5.688   5.599   0.318
 6558SOL    HW120573   5.753   5.526   0.297
 6558SOL    HW220574   5.735   5.671   0.370
 6559SOL     OW20575   0.176   3.472   6.079
 6559SOL    HW120576   0.150   3.420   5.998
 6559SOL    HW220577   0.121   3.556   6.083
 6560SOL     OW20578   3.747   4.848   0.992
 6560SOL    HW120579   3.654   4.815   1.011
 6560SOL    HW220580   3.742   4.944   0.962
 6561SOL     OW20581   3.758   4.486   1.175
 6561SOL    HW120582   3.729   4.510   1.082
 6561SOL    HW220583   3.812   4.561   1.213
 6562SOL     OW20584   5.528   2.301   1.294
 6562SOL    HW120585   5.508   2.355   1.376
 6562SOL    HW220586   5.551   2.208   1.320
 6563SOL     OW20587   5.436   0.170   5.519
 6563SOL    HW120588   5.373   0.246   5.528
 6563SOL    HW220589   5.443   0.121   5.606
 6564SOL     OW20590   6.500   3.107   2.093
 6564SOL    HW120591   6.507   3.201   2.126
 6564SOL    HW220592   6.445   3.105   2.009
 6565SOL     OW20593   6.209   6.181   2.838
 6565SOL    HW120594   6.219   6.197   2.936
 6565SOL    HW220595   6.256   6.254   2.788
 6566SOL     OW20596   3.220   5.371   2.185
 6566SOL    HW120597   3.247   5.464   2.162
 6566SOL    HW220598   3.296   5.325   2.233
 6567SOL     OW20599   4.832   1.061   1.844
 6567SOL    HW120600   4.845   0.963   1.858
 6567SOL    HW220601   4.735   1.079   1.827
 6568SOL     OW20602   3.917   2.048   3.191
 6568SOL    HW120603   3.830   2.069   3.148
 6568SOL    HW220604   3.980   2.012   3.123
 6569SOL     OW20605   1.544   3.522   6.603
 6569SOL    HW120606   1.625   3.499   6.658
 6569SOL    HW220607   1.559   3.610   6.558
 6570SOL     OW20608   3.264   1.158   2.645
 6570SOL    HW120609   3.312   1.089   2.698
 6570SOL    HW220610   3.287   1.250   2.679
 6571SOL     OW20611   2.809   4.956   2.552
 6571SOL    HW120612   2.725   5.009   2.541
 6571SOL    HW220613   2.787   4.859   2.551
 6572SOL     OW20614   0.177   3.944   3.985
 6572SOL    HW120615   0.196   3.847   3.966
 6572SOL    HW220616   0.239   4.001   3.931
 6573SOL     OW20617   1.680   1.070   3.220
 6573SOL    HW120618   1.603   1.132   3.208
 6573SOL    HW220619   1.727   1.057   3.133
 6574SOL     OW20620   2.420   6.105   3.203
 6574SOL    HW120621   2.368   6.034   3.251
 6574SOL    HW220622   2.392   6.107   3.107
 6575SOL     OW20623   0.378   0.181   3.211
 6575SOL    HW120624   0.374   0.082   3.194
 6575SOL    HW220625   0.443   0.200   3.284
 6576SOL     OW20626   2.963   5.886   0.840
 6576SOL    HW120627   3.015   5.927   0.765
 6576SOL    HW220628   2.883   5.943   0.859
 6577SOL     OW20629   1.419   1.718   3.513
 6577SOL    HW120630   1.516   1.693   3.521
 6577SOL    HW220631   1.412   1.816   3.492
 6578SOL     OW20632   1.043   6.210   2.077
 6578SOL    HW120633   1.118   6.147   2.098
 6578SOL    HW220634   0.996   6.181   1.994
 6579SOL     OW20635   0.238   2.518   4.146
 6579SOL    HW120636   0.150   2.487   4.110
 6579SOL    HW220637   0.261   2.607   4.107
 6580SOL     OW20638   0.680   1.456   0.626
 6580SOL    HW120639   0.602   1.461   0.689
 6580SOL    HW220640   0.749   1.522   0.655
 6581SOL     OW20641   1.835   0.635   1.060
 6581SOL    HW120642   1.863   0.543   1.033
 6581SOL    HW220643   1.916   0.693   1.069
 6582SOL     OW20644   0.023   0.236   2.647
 6582SOL    HW120645   0.046   0.286   2.731
 6582SOL    HW220646   6.958   0.251   2.625
 6583SOL     OW20647   5.110   6.001   5.124
 6583SOL    HW120648   5.012   6.015   5.111
 6583SOL    HW220649   5.126   5.969   5.218
 6584SOL     OW20650   3.640   2.123   0.865
 6584SOL    HW120651   3.580   2.106   0.943
 6584SOL    HW220652   3.736   2.118   0.894
 6585SOL     OW20653   6.542   6.445   6.755
 6585SOL    HW120654   6.554   6.349   6.730
 6585SOL    HW220655   6.613   6.471   6.821
 6586SOL     OW20656   6.714   1.870   5.827
 6586SOL    HW120657   6.700   1.776   5.856
 6586SOL    HW220658   6.630   1.922   5.841
 6587SOL     OW20659   1.616   4.373   6.371
 6587SOL    HW120660   1.712   4.374   6.341
 6587SOL    HW220661   1.562   4.431   6.310
 6588SOL     OW20662   0.456   3.747   1.408
 6588SOL    HW120663   0.517   3.714   1.336
 6588SOL    HW220664   0.501   3.734   1.497
 6589SOL     OW20665   4.712   1.009   2.316
 6589SOL    HW120666   4.643   1.024   2.387
 6589SOL    HW220667   4.769   1.091   2.307
 6590SOL     OW20668   0.839   0.196   5.443
 6590SOL    HW120669   0.776   0.237   5.377
 6590SOL    HW220670   0.787   0.143   5.510
 6591SOL     OW20671   5.386   6.216   3.656
 6591SOL    HW120672   5.319   6.144   3.639
 6591SOL    HW220673   5.343   6.292   3.705
 6592SOL     OW20674   4.882   0.023   2.714
 6592SOL    HW120675   4.911   7.025   2.623
 6592SOL    HW220676   4.796   7.010   2.738
 6593SOL     OW20677   2.727   2.257   2.228
 6593SOL    HW120678   2.798   2.287   2.165
 6593SOL    HW220679   2.761   2.180   2.282
 6594SOL     OW20680   3.446   1.664   5.697
 6594SOL    HW120681   3.445   1.622   5.788
 6594SOL    HW220682   3.360   1.642   5.650
 6595SOL     OW20683   1.442   3.412   5.746
 6595SOL    HW120684   1.421   3.460   5.661
 6595SOL    HW220685   1.509   3.340   5.728
 6596SOL     OW20686   3.739   6.230   3.537
 6596SOL    HW120687   3.769   6.325   3.546
 6596SOL    HW220688   3.679   6.222   3.456
 6597SOL     OW20689   1.858   5.169   2.191
 6597SOL    HW120690   1.819   5.242   2.135
 6597SOL    HW220691   1.875   5.089   2.135
 6598SOL     OW20692   2.019   4.635   4.166
 6598SOL    HW120693   1.927   4.637   4.126
 6598SOL    HW220694   2.023   4.699   4.242
 6599SOL     OW20695   4.467   6.288   6.545
 6599SOL    HW120696   4.479   6.380   6.582
 6599SOL    HW220697   4.547   6.232   6.568
 6600SOL     OW20698   4.085   6.787   4.568
 6600SOL    HW120699   4.124   6.878   4.579
 6600SOL    HW220700   4.126   6.725   4.636
 6601SOL     OW20701   0.496   1.916   3.788
 6601SOL    HW120702   0.564   1.863   3.737
 6601SOL    HW220703   0.506   2.013   3.765
 6602SOL     OW20704   2.118   0.576   1.677
 6602SOL    HW120705   2.130   0.533   1.587
 6602SOL    HW220706   2.070   0.663   1.665
 6603SOL     OW20707   0.794   2.793   3.785
 6603SOL    HW120708   0.771   2.817   3.690
 6603SOL    HW220709   0.888   2.821   3.804
 6604SOL     OW20710   1.893   0.038   1.467
 6604SOL    HW120711   1.959   7.018   1.522
 6604SOL    HW220712   1.801   0.003   1.485
 6605SOL     OW20713   6.041   5.991   2.460
 6605SOL    HW120714   6.139   6.006   2.467
 6605SOL    HW220715   6.006   5.955   2.546
 6606SOL     OW20716   6.682   4.577   2.475
 6606SOL    HW120717   6.684   4.478   2.483
 6606SOL    HW220718   6.620   4.603   2.401
 6607SOL     OW20719   7.000   5.082   3.344
 6607SOL    HW120720   6.997   4.983   3.332
 6607SOL    HW220721   0.047   5.119   3.293
 6608SOL     OW20722   0.066   6.841   0.342
 6608SOL    HW120723   0.052   6.936   0.371
 6608SOL    HW220724   0.039   6.779   0.416
 6609SOL     OW20725   5.367   1.125   6.563
 6609SOL    HW120726   5.426   1.166   6.633
 6609SOL    HW220727   5.283   1.178   6.555
 6610SOL     OW20728   2.496   6.849   0.075
 6610SOL    HW120729   2.595   6.838   0.084
 6610SOL    HW220730   2.453   6.836   0.165
 6611SOL     OW20731   5.234   3.149   3.239
 6611SOL    HW120732   5.147   3.166   3.285
 6611SOL    HW220733   5.275   3.066   3.277
 6612SOL     OW20734   7.008   2.637   6.170
 6612SOL    HW120735   6.973   2.721   6.212
 6612SOL    HW220736   0.046   2.597   6.230
 6613SOL     OW20737   5.683   6.617   5.399
 6613SOL    HW120738   5.614   6.688   5.387
 6613SOL    HW220739   5.682   6.555   5.320
 6614SOL     OW20740   4.547   6.658   0.420
 6614SOL    HW120741   4.599   6.675   0.336
 6614SOL    HW220742   4.455   6.628   0.396
 6615SOL     OW20743   1.682   5.732   0.996
 6615SOL    HW120744   1.612   5.743   1.066
 6615SOL    HW220745   1.764   5.692   1.037
 6616SOL     OW20746   4.641   0.314   6.044
 6616SOL    HW120747   4.739   0.297   6.052
 6616SOL    HW220748   4.607   0.274   5.959
 6617SOL     OW20749   4.364   6.317   3.631
 6617SOL    HW120750   4.406   6.243   3.683
 6617SOL    HW220751   4.434   6.370   3.585
 6618SOL     OW20752   1.053   1.520   2.588
 6618SOL    HW120753   0.996   1.592   2.629
 6618SOL    HW220754   1.143   1.521   2.631
 6619SOL     OW20755   4.544   0.034   3.535
 6619SOL    HW120756   4.456   0.082   3.537
 6619SOL    HW220757   4.606   0.081   3.472
 6620SOL     OW20758   2.133   3.426   4.441
 6620SOL    HW120759   2.137   3.487   4.520
 6620SOL    HW220760   2.114   3.333   4.471
 6621SOL     OW20761   3.736   2.591   5.426
 6621SOL    HW120762   3.834   2.613   5.428
 6621SOL    HW220763   3.683   2.676   5.421
 6622SOL     OW20764   6.372   5.425   1.832
 6622SOL    HW120765   6.332   5.391   1.747
 6622SOL    HW220766   6.317   5.501   1.866
 6623SOL     OW20767   3.485   3.931   4.705
 6623SOL    HW120768   3.483   3.958   4.609
 6623SOL    HW220769   3.406   3.969   4.753
 6624SOL     OW20770   0.799   3.530   5.372
 6624SOL    HW120771   0.849   3.451   5.338
 6624SOL    HW220772   0.703   3.504   5.388
 6625SOL     OW20773   5.187   1.841   5.259
 6625SOL    HW120774   5.239   1.803   5.335
 6625SOL    HW220775   5.231   1.925   5.227
 6626SOL     OW20776   3.475   7.025   5.691
 6626SOL    HW120777   3.538   7.026   5.769
 6626SOL    HW220778   3.385   6.997   5.722
 6627SOL     OW20779   2.379   6.839   4.249
 6627SOL    HW120780   2.401   6.743   4.233
 6627SOL    HW220781   2.346   6.880   4.165
 6628SOL     OW20782   5.139   4.890   4.000
 6628SOL    HW120783   5.137   4.979   3.954
 6628SOL    HW220784   5.046   4.855   4.010
 6629SOL     OW20785   4.843   5.618   6.290
 6629SOL    HW120786   4.817   5.690   6.355
 6629SOL    HW220787   4.816   5.646   6.198
 6630SOL     OW20788   3.681   1.976   1.543
 6630SOL    HW120789   3.653   1.887   1.580
 6630SOL    HW220790   3.729   2.028   1.614
 6631SOL     OW20791   2.380   5.489   4.416
 6631SOL    HW120792   2.354   5.586   4.408
 6631SOL    HW220793   2.305   5.438   4.459
 6632SOL     OW20794   1.634   1.275   0.987
 6632SOL    HW120795   1.713   1.261   1.048
 6632SOL    HW220796   1.624   1.196   0.927
 6633SOL     OW20797   2.556   4.649   5.735
 6633SOL    HW120798   2.483   4.680   5.675
 6633SOL    HW220799   2.637   4.626   5.681
 6634SOL     OW20800   4.978   1.493   5.421
 6634SOL    HW120801   4.911   1.566   5.426
 6634SOL    HW220802   5.029   1.500   5.336
 6635SOL     OW20803   4.931   4.273   3.334
 6635SOL    HW120804   4.849   4.281   3.277
 6635SOL    HW220805   4.956   4.364   3.369
 6636SOL     OW20806   3.951   1.626   0.568
 6636SOL    HW120807   3.856   1.655   0.582
 6636SOL    HW220808   3.984   1.581   0.651
 6637SOL     OW20809   2.283   6.956   6.305
 6637SOL    HW120810   2.305   6.998   6.393
 6637SOL    HW220811   2.344   6.878   6.289
 6638SOL     OW20812   3.164   3.574   3.078
 6638SOL    HW120813   3.073   3.609   3.101
 6638SOL    HW220814   3.200   3.627   3.001
 6639SOL     OW20815   3.335   3.757   6.646
 6639SOL    HW120816   3.302   3.849   6.664
 6639SOL    HW220817   3.403   3.731   6.715
 6640SOL     OW20818   6.977   2.028   4.646
 6640SOL    HW120819   6.888   2.075   4.645
 6640SOL    HW220820   0.008   2.074   4.582
 6641SOL     OW20821   3.565   1.610   6.989
 6641SOL    HW120822   3.589   1.584   0.052
 6641SOL    HW220823   3.473   1.648   6.987
 6642SOL     OW20824   2.417   5.466   6.192
 6642SOL    HW120825   2.498   5.498   6.241
 6642SOL    HW220826   2.418   5.366   6.188
 6643SOL     OW20827   6.809   6.893   0.278
 6643SOL    HW120828   6.867   6.868   0.356
 6643SOL    HW220829   6.742   6.820   0.263
 6644SOL     OW20830   2.189   6.070   2.772
 6644SOL    HW120831   2.095   6.037   2.774
 6644SOL    HW220832   2.190   6.165   2.743
 6645SOL     OW20833   5.439   3.434   0.731
 6645SOL    HW120834   5.352   3.411   0.773
 6645SOL    HW220835   5.513   3.423   0.798
 6646SOL     OW20836   4.196   1.296   5.399
 6646SOL    HW120837   4.158   1.335   5.483
 6646SOL    HW220838   4.241   1.209   5.419
 6647SOL     OW20839   4.436   6.712   0.766
 6647SOL    HW120840   4.460   6.630   0.819
 6647SOL    HW220841   4.507   6.781   0.777
 6648SOL     OW20842   2.938   6.455   4.631
 6648SOL    HW120843   2.884   6.388   4.579
 6648SOL    HW220844   2.995   6.407   4.697
 6649SOL     OW20845   5.984   2.958   6.216
 6649SOL    HW120846   5.992   2.951   6.316
 6649SOL    HW220847   5.891   2.986   6.193
 6650SOL     OW20848   3.870   1.330   4.806
 6650SOL    HW120849   3.866   1.260   4.878
 6650SOL    HW220850   3.914   1.412   4.841
 6651SOL     OW20851   1.775   1.693   6.355
 6651SOL    HW120852   1.773   1.730   6.262
 6651SOL    HW220853   1.697   1.728   6.407
 6652SOL     OW20854   0.504   4.934   0.026
 6652SOL    HW120855   0.548   5.021   0.005
 6652SOL    HW220856   0.420   4.951   0.078
 6653SOL     OW20857   4.523   2.929   0.600
 6653SOL    HW120858   4.503   2.961   0.693
 6653SOL    HW220859   4.441   2.892   0.559
 6654SOL     OW20860   0.931   5.550   2.719
 6654SOL    HW120861   0.986   5.631   2.700
 6654SOL    HW220862   0.946   5.482   2.648
 6655SOL     OW20863   0.416   6.240   2.324
 6655SOL    HW120864   0.483   6.254   2.397
 6655SOL    HW220865   0.411   6.322   2.268
 6656SOL     OW20866   5.492   2.038   2.868
 6656SOL    HW120867   5.531   2.020   2.959
 6656SOL    HW220868   5.480   1.951   2.819
 6657SOL     OW20869   5.972   3.255   5.325
 6657SOL    HW120870   5.942   3.163   5.350
 6657SOL    HW220871   5.898   3.321   5.341
 6658SOL     OW20872   6.103   6.726   5.795
 6658SOL    HW120873   6.015   6.685   5.770
 6658SOL    HW220874   6.162   6.657   5.836
 6659SOL     OW20875   1.098   3.382   1.187
 6659SOL    HW120876   1.079   3.302   1.131
 6659SOL    HW220877   1.097   3.465   1.130
 6660SOL     OW20878   2.035   4.709   1.735
 6660SOL    HW120879   1.936   4.701   1.731
 6660SOL    HW220880   2.076   4.655   1.661
 6661SOL     OW20881   2.337   0.665   5.574
 6661SOL    HW120882   2.418   0.669   5.515
 6661SOL    HW220883   2.256   0.645   5.518
 6662SOL     OW20884   1.718   0.727   0.777
 6662SOL    HW120885   1.790   0.706   0.710
 6662SOL    HW220886   1.718   0.658   0.849
 6663SOL     OW20887   0.135   6.130   5.027
 6663SOL    HW120888   0.145   6.164   4.933
 6663SOL    HW220889   0.221   6.144   5.077
 6664SOL     OW20890   2.426   0.409   0.886
 6664SOL    HW120891   2.409   0.428   0.982
 6664SOL    HW220892   2.359   0.343   0.852
 6665SOL     OW20893   1.893   6.586   5.506
 6665SOL    HW120894   1.911   6.532   5.589
 6665SOL    HW220895   1.967   6.652   5.493
 6666SOL     OW20896   6.443   5.663   5.894
 6666SOL    HW120897   6.524   5.614   5.926
 6666SOL    HW220898   6.389   5.693   5.972
 6667SOL     OW20899   6.947   6.707   5.339
 6667SOL    HW120900   6.989   6.771   5.274
 6667SOL    HW220901   6.903   6.759   5.412
 6668SOL     OW20902   6.635   6.110   1.134
 6668SOL    HW120903   6.537   6.091   1.128
 6668SOL    HW220904   6.661   6.120   1.230
 6669SOL     OW20905   3.265   2.230   1.486
 6669SOL    HW120906   3.296   2.135   1.484
 6669SOL    HW220907   3.190   2.239   1.552
 6670SOL     OW20908   3.548   0.913   6.210
 6670SOL    HW120909   3.481   0.967   6.262
 6670SOL    HW220910   3.590   0.846   6.271
 6671SOL     OW20911   5.592   6.830   6.970
 6671SOL    HW120912   5.556   6.861   0.027
 6671SOL    HW220913   5.688   6.805   6.980
 6672SOL     OW20914   0.461   2.821   0.235
 6672SOL    HW120915   0.447   2.796   0.331
 6672SOL    HW220916   0.398   2.768   0.177
 6673SOL     OW20917   4.784   4.262   3.749
 6673SOL    HW120918   4.803   4.196   3.677
 6673SOL    HW220919   4.745   4.216   3.828
 6674SOL     OW20920   0.633   3.826   0.035
 6674SOL    HW120921   0.569   3.836   6.989
 6674SOL    HW220922   0.584   3.791   0.115
 6675SOL     OW20923   6.159   2.814   0.180
 6675SOL    HW120924   6.246   2.857   0.156
 6675SOL    HW220925   6.115   2.866   0.253
 6676SOL     OW20926   0.519   3.301   3.636
 6676SOL    HW120927   0.457   3.307   3.558
 6676SOL    HW220928   0.533   3.205   3.660
 6677SOL     OW20929   0.805   0.859   6.860
 6677SOL    HW120930   0.888   0.812   6.830
 6677SOL    HW220931   0.746   0.876   6.781
 6678SOL     OW20932   2.782   4.768   0.611
 6678SOL    HW120933   2.847   4.693   0.599
 6678SOL    HW220934   2.823   4.839   0.668
 6679SOL     OW20935   3.902   0.957   4.104
 6679SOL    HW120936   3.983   0.975   4.160
 6679SOL    HW220937   3.833   0.911   4.160
 6680SOL     OW20938   4.556   6.530   6.686
 6680SOL    HW120939   4.511   6.546   6.774
 6680SOL    HW220940   4.647   6.492   6.702
 6681SOL     OW20941   4.799   5.258   1.128
 6681SOL    HW120942   4.890   5.285   1.097
 6681SOL    HW220943   4.802   5.163   1.160
 6682SOL     OW20944   2.673   5.046   6.983
 6682SOL    HW120945   2.618   5.119   7.023
 6682SOL    HW220946   2.663   5.046   6.884
 6683SOL     OW20947   6.489   3.459   5.478
 6683SOL    HW120948   6.422   3.455   5.552
 6683SOL    HW220949   6.441   3.477   5.391
 6684SOL     OW20950   4.159   6.500   2.215
 6684SOL    HW120951   4.161   6.596   2.241
 6684SOL    HW220952   4.179   6.443   2.295
 6685SOL     OW20953   5.106   2.949   5.966
 6685SOL    HW120954   5.122   2.873   5.903
 6685SOL    HW220955   5.008   2.955   5.986
 6686SOL     OW20956   5.456   5.581   3.585
 6686SOL    HW120957   5.515   5.548   3.659
 6686SOL    HW220958   5.503   5.566   3.497
 6687SOL     OW20959   0.492   2.552   2.390
 6687SOL    HW120960   0.421   2.563   2.459
 6687SOL    HW220961   0.469   2.607   2.310
 6688SOL     OW20962   3.836   4.564   0.759
 6688SOL    HW120963   3.851   4.605   0.669
 6688SOL    HW220964   3.920   4.518   0.789
 6689SOL     OW20965   4.333   3.496   5.910
 6689SOL    HW120966   4.265   3.493   5.983
 6689SOL    HW220967   4.356   3.403   5.881
 6690SOL     OW20968   0.797   6.628   0.841
 6690SOL    HW120969   0.870   6.568   0.808
 6690SOL    HW220970   0.758   6.589   0.925
 6691SOL     OW20971   1.853   0.545   2.371
 6691SOL    HW120972   1.789   0.485   2.322
 6691SOL    HW220973   1.920   0.581   2.306
 6692SOL     OW20974   4.062   3.808   2.957
 6692SOL    HW120975   4.104   3.877   2.897
 6692SOL    HW220976   3.974   3.842   2.988
 6693SOL     OW20977   4.422   2.377   4.928
 6693SOL    HW120978   4.426   2.277   4.925
 6693SOL    HW220979   4.340   2.405   4.978
 6694SOL     OW20980   4.686   6.754   1.216
 6694SOL    HW120981   4.690   6.698   1.298
 6694SOL    HW220982   4.609   6.818   1.223
 6695SOL     OW20983   2.935   2.288   6.748
 6695SOL    HW120984   2.981   2.244   6.825
 6695SOL    HW220985   2.969   2.382   6.739
 6696SOL     OW20986   3.929   3.104   3.760
 6696SOL    HW120987   4.002   3.039   3.739
 6696SOL    HW220988   3.883   3.076   3.844
 6697SOL     OW20989   4.782   2.255   3.158
 6697SOL    HW120990   4.694   2.207   3.151
 6697SOL    HW220991   4.842   2.205   3.220
 6698SOL     OW20992   3.290   3.155   1.008
 6698SOL    HW120993   3.228   3.233   0.995
 6698SOL    HW220994   3.239   3.070   0.997
 6699SOL     OW20995   2.133   6.760   5.465
 6699SOL    HW120996   2.118   6.713   5.378
 6699SOL    HW220997   2.231   6.764   5.484
 6700SOL     OW20998   6.938   1.652   1.464
 6700SOL    HW120999   6.865   1.694   1.519
 6700SOL    HW221000   6.947   1.556   1.488
 6701SOL     OW21001   5.709   6.098   1.859
 6701SOL    HW121002   5.675   6.044   1.936
 6701SOL    HW221003   5.635   6.159   1.827
 6702SOL     OW21004   1.880   2.328   2.101
 6702SOL    HW121005   1.923   2.240   2.079
 6702SOL    HW221006   1.938   2.378   2.166
 6703SOL     OW21007   0.451   0.365   0.712
 6703SOL    HW121008   0.468   0.400   0.620
 6703SOL    HW221009   0.368   0.407   0.749
 6704SOL     OW21010   4.112   2.180   4.367
 6704SOL    HW121011   4.088   2.274   4.342
 6704SOL    HW221012   4.101   2.168   4.466
 6705SOL     OW21013   6.121   2.796   0.870
 6705SOL    HW121014   6.105   2.816   0.966
 6705SOL    HW221015   6.036   2.807   0.819
 6706SOL     OW21016   0.964   5.722   0.592
 6706SOL    HW121017   0.894   5.709   0.662
 6706SOL    HW221018   0.941   5.666   0.512
 6707SOL     OW21019   5.426   6.463   3.419
 6707SOL    HW121020   5.458   6.452   3.513
 6707SOL    HW221021   5.466   6.546   3.380
 6708SOL     OW21022   5.663   5.256   1.218
 6708SOL    HW121023   5.724   5.267   1.296
 6708SOL    HW221024   5.714   5.272   1.133
 6709SOL     OW21025   0.711   5.226   2.913
 6709SOL    HW121026   0.793   5.169   2.926
 6709SOL    HW221027   0.731   5.319   2.943
 6710SOL     OW21028   3.928   0.747   6.940
 6710SOL    HW121029   3.836   0.778   6.920
 6710SOL    HW221030   3.951   0.769   0.004
 6711SOL     OW21031   4.790   6.294   5.878
 6711SOL    HW121032   4.813   6.320   5.972
 6711SOL    HW221033   4.843   6.350   5.814
 6712SOL     OW21034   5.910   3.141   1.094
 6712SOL    HW121035   5.845   3.211   1.123
 6712SOL    HW221036   5.860   3.063   1.055
 6713SOL     OW21037   1.441   0.607   3.163
 6713SOL    HW121038   1.355   0.608   3.215
 6713SOL    HW221039   1.517   0.627   3.225
 6714SOL     OW21040   5.948   1.573   0.185
 6714SOL    HW121041   5.888   1.527   0.250
 6714SOL    HW221042   6.004   1.640   0.234
 6715SOL     OW21043   1.674   0.530   1.565
 6715SOL    HW121044   1.722   0.591   1.627
 6715SOL    HW221045   1.697   0.553   1.470
 6716SOL     OW21046   0.660   5.745   2.169
 6716SOL    HW121047   0.704   5.720   2.256
 6716SOL    HW221048   0.561   5.736   2.178
 6717SOL     OW21049   2.498   2.601   6.537
 6717SOL    HW121050   2.471   2.666   6.608
 6717SOL    HW221051   2.435   2.523   6.539
 6718SOL     OW21052   4.875   7.019   0.771
 6718SOL    HW121053   4.782   6.983   0.770
 6718SOL    HW221054   4.906   0.002   0.677
 6719SOL     OW21055   2.393   0.013   0.539
 6719SOL    HW121056   2.449   0.079   0.488
 6719SOL    HW221057   2.435   7.026   0.628
 6720SOL     OW21058   2.628   0.550   3.408
 6720SOL    HW121059   2.669   0.524   3.321
 6720SOL    HW221060   2.583   0.639   3.398
 6721SOL     OW21061   0.120   6.787   0.666
 6721SOL    HW121062   0.170   6.751   0.745
 6721SOL    HW221063   0.071   6.713   0.620
 6722SOL     OW21064   0.037   2.929   0.171
 6722SOL    HW121065   7.028   2.939   0.262
 6722SOL    HW221066   7.012   2.866   0.117
 6723SOL     OW21067   1.436   6.854   5.160
 6723SOL    HW121068   1.414   6.871   5.065
 6723SOL    HW221069   1.513   6.913   5.187
 6724SOL     OW21070   2.081   3.015   6.288
 6724SOL    HW121071   2.095   3.033   6.191
 6724SOL    HW221072   2.008   3.075   6.323
 6725SOL     OW21073   6.947   2.323   2.181
 6725SOL    HW121074   6.950   2.410   2.231
 6725SOL    HW221075   0.010   2.293   2.162
 6726SOL     OW21076   0.132   2.455   3.674
 6726SOL    HW121077   0.127   2.454   3.574
 6726SOL    HW221078   0.218   2.499   3.703
 6727SOL     OW21079   0.418   4.774   5.523
 6727SOL    HW121080   0.446   4.756   5.429
 6727SOL    HW221081   0.427   4.872   5.543
 6728SOL     OW21082   4.237   2.235   2.894
 6728SOL    HW121083   4.218   2.152   2.841
 6728SOL    HW221084   4.209   2.315   2.841
 6729SOL     OW21085   0.223   1.160   0.364
 6729SOL    HW121086   0.176   1.163   0.452
 6729SOL    HW221087   0.303   1.100   0.370
 6730SOL     OW21088   2.267   6.935   1.395
 6730SOL    HW121089   2.294   7.001   1.466
 6730SOL    HW221090   2.279   6.976   1.305
 6731SOL     OW21091   1.733   6.880   0.717
 6731SOL    HW121092   1.741   6.850   0.622
 6731SOL    HW221093   1.714   6.978   0.720
 6732SOL     OW21094   5.820   4.690   4.716
 6732SOL    HW121095   5.771   4.617   4.764
 6732SOL    HW221096   5.763   4.725   4.642
 6733SOL     OW21097   3.880   5.566   6.441
 6733SOL    HW121098   3.957   5.506   6.462
 6733SOL    HW221099   3.853   5.616   6.523
 6734SOL     OW21100   5.784   2.440   5.603
 6734SOL    HW121101   5.840   2.463   5.523
 6734SOL    HW221102   5.725   2.518   5.626
 6735SOL     OW21103   5.959   3.694   4.644
 6735SOL    HW121104   5.926   3.788   4.639
 6735SOL    HW221105   5.884   3.631   4.627
 6736SOL     OW21106   2.527   3.626   6.184
 6736SOL    HW121107   2.573   3.564   6.120
 6736SOL    HW221108   2.430   3.603   6.188
 6737SOL     OW21109   1.322   2.935   0.798
 6737SOL    HW121110   1.248   2.906   0.858
 6737SOL    HW221111   1.360   3.022   0.831
 6738SOL     OW21112   2.097   5.621   4.297
 6738SOL    HW121113   2.039   5.550   4.340
 6738SOL    HW221114   2.155   5.663   4.367
 6739SOL     OW21115   5.778   6.125   3.799
 6739SOL    HW121116   5.704   6.058   3.805
 6739SOL    HW221117   5.749   6.200   3.740
 6740SOL     OW21118   6.826   0.475   5.477
 6740SOL    HW121119   6.871   0.503   5.562
 6740SOL    HW221120   6.727   0.468   5.494
 6741SOL     OW21121   3.609   2.345   5.465
 6741SOL    HW121122   3.654   2.434   5.455
 6741SOL    HW221123   3.653   2.278   5.404
 6742SOL     OW21124   5.952   5.606   3.224
 6742SOL    HW121125   5.966   5.506   3.223
 6742SOL    HW221126   5.874   5.628   3.281
 6743SOL     OW21127   3.631   4.127   6.286
 6743SOL    HW121128   3.612   4.215   6.241
 6743SOL    HW221129   3.554   4.065   6.273
 6744SOL     OW21130   0.446   6.144   5.407
 6744SOL    HW121131   0.351   6.144   5.438
 6744SOL    HW221132   0.492   6.227   5.439
 6745SOL     OW21133   6.792   6.343   3.444
 6745SOL    HW121134   6.839   6.315   3.360
 6745SOL    HW221135   6.843   6.310   3.523
 6746SOL     OW21136   1.221   0.228   3.695
 6746SOL    HW121137   1.151   0.232   3.765
 6746SOL    HW221138   1.214   0.141   3.645
 6747SOL     OW21139   5.975   0.744   6.863
 6747SOL    HW121140   6.074   0.751   6.865
 6747SOL    HW221141   5.944   0.670   6.922
 6748SOL     OW21142   3.802   1.602   3.016
 6748SOL    HW121143   3.746   1.625   3.095
 6748SOL    HW221144   3.857   1.521   3.036
 6749SOL     OW21145   3.592   4.555   0.934
 6749SOL    HW121146   3.668   4.589   0.879
 6749SOL    HW221147   3.535   4.632   0.963
 6750SOL     OW21148   3.354   1.701   4.215
 6750SOL    HW121149   3.381   1.757   4.293
 6750SOL    HW221150   3.402   1.613   4.218
 6751SOL     OW21151   5.031   0.911   3.436
 6751SOL    HW121152   5.051   0.876   3.528
 6751SOL    HW221153   4.967   0.851   3.390
 6752SOL     OW21154   2.294   0.163   2.556
 6752SOL    HW121155   2.358   0.137   2.630
 6752SOL    HW221156   2.344   0.216   2.487
 6753SOL     OW21157   3.549   1.261   6.180
 6753SOL    HW121158   3.592   1.285   6.093
 6753SOL    HW221159   3.564   1.334   6.246
 6754SOL     OW21160   6.783   0.743   0.903
 6754SOL    HW121161   6.729   0.685   0.964
 6754SOL    HW221162   6.722   0.791   0.840
 6755SOL     OW21163   4.096   3.146   1.216
 6755SOL    HW121164   4.061   3.067   1.165
 6755SOL    HW221165   4.145   3.115   1.297
 6756SOL     OW21166   4.165   6.449   5.398
 6756SOL    HW121167   4.093   6.487   5.340
 6756SOL    HW221168   4.138   6.357   5.427
 6757SOL     OW21169   3.145   2.152   6.903
 6757SOL    HW121170   3.226   2.175   6.848
 6757SOL    HW221171   3.163   2.173   6.999
 6758SOL     OW21172   6.064   3.087   1.821
 6758SOL    HW121173   6.022   3.155   1.880
 6758SOL    HW221174   5.995   3.021   1.791
 6759SOL     OW21175   0.429   3.567   2.953
 6759SOL    HW121176   0.435   3.662   2.922
 6759SOL    HW221177   0.447   3.506   2.877
 6760SOL     OW21178   6.541   3.361   2.335
 6760SOL    HW121179   6.546   3.262   2.348
 6760SOL    HW221180   6.471   3.399   2.395
 6761SOL     OW21181   6.260   2.616   5.013
 6761SOL    HW121182   6.175   2.666   5.026
 6761SOL    HW221183   6.239   2.521   4.987
 6762SOL     OW21184   0.482   4.043   4.053
 6762SOL    HW121185   0.544   4.114   4.085
 6762SOL    HW221186   0.410   4.083   3.996
 6763SOL     OW21187   6.406   5.216   3.994
 6763SOL    HW121188   6.343   5.221   4.071
 6763SOL    HW221189   6.481   5.153   4.015
 6764SOL     OW21190   2.054   5.856   1.731
 6764SOL    HW121191   1.978   5.888   1.674
 6764SOL    HW221192   2.021   5.835   1.823
 6765SOL     OW21193   5.624   4.895   3.398
 6765SOL    HW121194   5.608   4.802   3.365
 6765SOL    HW221195   5.653   4.891   3.494
 6766SOL     OW21196   5.482   6.261   5.369
 6766SOL    HW121197   5.398   6.271   5.423
 6766SOL    HW221198   5.459   6.256   5.272
 6767SOL     OW21199   2.716   0.968   1.698
 6767SOL    HW121200   2.724   0.869   1.702
 6767SOL    HW221201   2.642   0.994   1.635
 6768SOL     OW21202   1.751   0.647   5.417
 6768SOL    HW121203   1.765   0.644   5.516
 6768SOL    HW221204   1.773   0.739   5.384
 6769SOL     OW21205   3.626   1.042   7.011
 6769SOL    HW121206   3.569   1.117   6.977
 6769SOL    HW221207   3.639   0.975   6.937
 6770SOL     OW21208   6.766   0.757   2.302
 6770SOL    HW121209   6.791   0.726   2.211
 6770SOL    HW221210   6.848   0.778   2.355
 6771SOL     OW21211   4.961   2.139   3.360
 6771SOL    HW121212   5.039   2.159   3.419
 6771SOL    HW221213   4.979   2.055   3.309
 6772SOL     OW21214   3.913   1.863   2.963
 6772SOL    HW121215   3.890   1.765   2.960
 6772SOL    HW221216   4.012   1.874   2.970
 6773SOL     OW21217   6.926   4.902   2.546
 6773SOL    HW121218   6.897   4.908   2.642
 6773SOL    HW221219   6.847   4.917   2.487
 6774SOL     OW21220   0.974   2.788   5.509
 6774SOL    HW121221   1.071   2.802   5.487
 6774SOL    HW221222   0.955   2.826   5.600
 6775SOL     OW21223   2.050   2.460   1.735
 6775SOL    HW121224   2.113   2.453   1.658
 6775SOL    HW221225   2.103   2.460   1.820
 6776SOL     OW21226   4.688   4.897   6.929
 6776SOL    HW121227   4.608   4.842   6.902
 6776SOL    HW221228   4.746   4.842   6.989
 6777SOL     OW21229   4.321   4.593   0.548
 6777SOL    HW121230   4.377   4.520   0.589
 6777SOL    HW221231   4.245   4.553   0.497
 6778SOL     OW21232   6.010   5.047   1.695
 6778SOL    HW121233   6.080   5.070   1.627
 6778SOL    HW221234   6.045   4.976   1.756
 6779SOL     OW21235   6.162   5.507   6.533
 6779SOL    HW121236   6.148   5.598   6.573
 6779SOL    HW221237   6.147   5.437   6.603
 6780SOL     OW21238   1.191   2.946   2.173
 6780SOL    HW121239   1.247   2.934   2.255
 6780SOL    HW221240   1.246   2.989   2.102
 6781SOL     OW21241   6.695   1.682   4.420
 6781SOL    HW121242   6.628   1.699   4.348
 6781SOL    HW221243   6.760   1.758   4.425
 6782SOL     OW21244   6.837   0.776   3.694
 6782SOL    HW121245   6.930   0.802   3.667
 6782SOL    HW221246   6.780   0.858   3.701
 6783SOL     OW21247   6.396   2.155   5.853
 6783SOL    HW121248   6.340   2.198   5.783
 6783SOL    HW221249   6.383   2.202   5.940
 6784SOL     OW21250   2.277   3.595   0.973
 6784SOL    HW121251   2.271   3.684   0.927
 6784SOL    HW221252   2.340   3.536   0.923
 6785SOL     OW21253   5.863   5.081   3.726
 6785SOL    HW121254   5.954   5.058   3.691
 6785SOL    HW221255   5.829   5.163   3.680
 6786SOL     OW21256   1.943   2.130   0.057
 6786SOL    HW121257   1.892   2.137   0.143
 6786SOL    HW221258   2.040   2.146   0.075
 6787SOL     OW21259   1.573   2.780   1.291
 6787SOL    HW121260   1.662   2.824   1.305
 6787SOL    HW221261   1.545   2.793   1.196
 6788SOL     OW21262   1.986   4.545   1.405
 6788SOL    HW121263   1.956   4.456   1.370
 6788SOL    HW221264   2.034   4.531   1.492
 6789SOL     OW21265   0.325   5.539   3.441
 6789SOL    HW121266   0.249   5.603   3.427
 6789SOL    HW221267   0.295   5.466   3.503
 6790SOL     OW21268   0.730   3.973   1.430
 6790SOL    HW121269   0.669   3.938   1.501
 6790SOL    HW221270   0.702   3.937   1.341
 6791SOL     OW21271   3.905   2.343   1.437
 6791SOL    HW121272   3.934   2.408   1.507
 6791SOL    HW221273   3.975   2.273   1.424
 6792SOL     OW21274   6.638   5.779   5.063
 6792SOL    HW121275   6.641   5.688   5.104
 6792SOL    HW221276   6.730   5.818   5.061
 6793SOL     OW21277   1.236   2.218   0.910
 6793SOL    HW121278   1.254   2.216   1.008
 6793SOL    HW221279   1.282   2.296   0.869
 6794SOL     OW21280   5.097   1.859   6.125
 6794SOL    HW121281   5.155   1.796   6.175
 6794SOL    HW221282   5.001   1.837   6.143
 6795SOL     OW21283   2.715   6.808   1.659
 6795SOL    HW121284   2.619   6.802   1.633
 6795SOL    HW221285   2.770   6.828   1.577
 6796SOL     OW21286   6.388   0.497   2.089
 6796SOL    HW121287   6.336   0.480   2.005
 6796SOL    HW221288   6.480   0.528   2.065
 6797SOL     OW21289   5.739   2.336   1.936
 6797SOL    HW121290   5.707   2.376   1.850
 6797SOL    HW221291   5.725   2.237   1.934
 6798SOL     OW21292   4.832   6.693   2.209
 6798SOL    HW121293   4.797   6.610   2.252
 6798SOL    HW221294   4.783   6.772   2.245
 6799SOL     OW21295   6.141   6.161   1.517
 6799SOL    HW121296   6.085   6.091   1.562
 6799SOL    HW221297   6.087   6.206   1.446
 6800SOL     OW21298   2.077   3.713   1.591
 6800SOL    HW121299   2.163   3.743   1.630
 6800SOL    HW221300   2.083   3.617   1.566
 6801SOL     OW21301   0.772   7.024   3.001
 6801SOL    HW121302   0.843   0.006   2.931
 6801SOL    HW221303   0.810   0.015   3.091
 6802SOL     OW21304   3.136   6.025   1.068
 6802SOL    HW121305   3.072   6.017   0.992
 6802SOL    HW221306   3.219   5.974   1.048
 6803SOL     OW21307   4.778   2.697   5.922
 6803SOL    HW121308   4.696   2.701   5.865
 6803SOL    HW221309   4.809   2.790   5.942
 6804SOL     OW21310   3.469   5.277   3.552
 6804SOL    HW121311   3.516   5.265   3.639
 6804SOL    HW221312   3.410   5.358   3.556
 6805SOL     OW21313   6.987   4.892   6.308
 6805SOL    HW121314   6.896   4.852   6.294
 6805SOL    HW221315   7.013   4.945   6.227
 6806SOL     OW21316   5.755   0.417   3.694
 6806SOL    HW121317   5.816   0.385   3.621
 6806SOL    HW221318   5.770   0.362   3.776
 6807SOL     OW21319   3.256   2.870   0.360
 6807SOL    HW121320   3.196   2.841   0.435
 6807SOL    HW221321   3.317   2.794   0.336
 6808SOL     OW21322   6.815   2.093   5.152
 6808SOL    HW121323   6.787   1.998   5.167
 6808SOL    HW221324   6.734   2.151   5.144
 6809SOL     OW21325   0.931   2.931   1.610
 6809SOL    HW121326   0.843   2.930   1.563
 6809SOL    HW221327   0.999   2.977   1.553
 6810SOL     OW21328   1.672   0.984   2.432
 6810SOL    HW121329   1.755   0.933   2.456
 6810SOL    HW221330   1.620   0.933   2.363
 6811SOL     OW21331   5.888   3.792   1.194
 6811SOL    HW121332   5.930   3.803   1.104
 6811SOL    HW221333   5.860   3.697   1.207
 6812SOL     OW21334   3.202   3.368   3.480
 6812SOL    HW121335   3.298   3.389   3.500
 6812SOL    HW221336   3.196   3.281   3.433
 6813SOL     OW21337   4.951   2.536   2.426
 6813SOL    HW121338   4.942   2.442   2.458
 6813SOL    HW221339   4.973   2.596   2.503
 6814SOL     OW21340   3.035   1.354   6.161
 6814SOL    HW121341   3.101   1.412   6.209
 6814SOL    HW221342   3.042   1.369   6.062
 6815SOL     OW21343   3.517   6.756   1.312
 6815SOL    HW121344   3.423   6.778   1.283
 6815SOL    HW221345   3.520   6.752   1.412
 6816SOL     OW21346   0.022   7.015   6.895
 6816SOL    HW121347   0.013   7.018   6.795
 6816SOL    HW221348   6.964   0.005   6.936
 6817SOL     OW21349   1.915   2.121   2.892
 6817SOL    HW121350   1.872   2.210   2.879
 6817SOL    HW221351   1.858   2.050   2.850
 6818SOL     OW21352   3.318   5.915   2.197
 6818SOL    HW121353   3.289   6.010   2.204
 6818SOL    HW221354   3.286   5.864   2.277
 6819SOL     OW21355   5.494   1.131   4.093
 6819SOL    HW121356   5.478   1.081   4.008
 6819SOL    HW221357   5.508   1.228   4.072
 6820SOL     OW21358   2.310   5.367   2.532
 6820SOL    HW121359   2.353   5.362   2.443
 6820SOL    HW221360   2.350   5.442   2.585
 6821SOL     OW21361   4.068   2.260   4.638
 6821SOL    HW121362   4.099   2.236   4.730
 6821SOL    HW221363   4.046   2.358   4.635
 6822SOL     OW21364   5.803   2.539   6.745
 6822SOL    HW121365   5.713   2.530   6.787
 6822SOL    HW221366   5.871   2.494   6.803
 6823SOL     OW21367   4.041   3.183   5.130
 6823SOL    HW121368   4.038   3.257   5.197
 6823SOL    HW221369   3.994   3.211   5.047
 6824SOL     OW21370   0.914   2.247   6.157
 6824SOL    HW121371   1.002   2.279   6.190
 6824SOL    HW221372   0.857   2.324   6.131
 6825SOL     OW21373   5.218   6.455   1.843
 6825SOL    HW121374   5.241   6.448   1.746
 6825SOL    HW221375   5.301   6.452   1.898
 6826SOL     OW21376   1.800   3.817   2.918
 6826SOL    HW121377   1.824   3.720   2.917
 6826SOL    HW221378   1.880   3.872   2.895
 6827SOL     OW21379   4.663   5.531   5.951
 6827SOL    HW121380   4.576   5.575   5.976
 6827SOL    HW221381   4.663   5.437   5.982
 6828SOL     OW21382   2.702   1.909   1.411
 6828SOL    HW121383   2.614   1.864   1.393
 6828SOL    HW221384   2.754   1.854   1.475
 6829SOL     OW21385   4.506   6.879   4.187
 6829SOL    HW121386   4.472   6.969   4.160
 6829SOL    HW221387   4.564   6.888   4.268
 6830SOL     OW21388   5.315   0.938   3.943
 6830SOL    HW121389   5.350   0.844   3.951
 6830SOL    HW221390   5.255   0.958   4.021
 6831SOL     OW21391   1.599   0.789   0.139
 6831SOL    HW121392   1.552   0.738   0.211
 6831SOL    HW221393   1.683   0.741   0.114
 6832SOL     OW21394   3.024   4.248   1.140
 6832SOL    HW121395   2.973   4.226   1.057
 6832SOL    HW221396   3.023   4.346   1.155
 6833SOL     OW21397   3.495   4.331   6.448
 6833SOL    HW121398   3.522   4.404   6.386
 6833SOL    HW221399   3.559   4.255   6.440
 6834SOL     OW21400   5.178   6.449   0.888
 6834SOL    HW121401   5.171   6.549   0.894
 6834SOL    HW221402   5.144   6.419   0.799
 6835SOL     OW21403   4.038   0.139   4.561
 6835SOL    HW121404   3.977   0.157   4.638
 6835SOL    HW221405   4.124   0.100   4.595
 6836SOL     OW21406   2.585   5.289   0.066
 6836SOL    HW121407   2.496   5.307   0.106
 6836SOL    HW221408   2.656   5.299   0.135
 6837SOL     OW21409   0.535   1.903   2.376
 6837SOL    HW121410   0.530   1.900   2.276
 6837SOL    HW221411   0.606   1.840   2.408
 6838SOL     OW21412   2.968   6.113   0.382
 6838SOL    HW121413   2.952   6.211   0.368
 6838SOL    HW221414   2.881   6.064   0.379
 6839SOL     OW21415   5.270   0.741   6.957
 6839SOL    HW121416   5.326   0.752   6.875
 6839SOL    HW221417   5.327   0.707   0.002
 6840SOL     OW21418   3.163   0.762   5.184
 6840SOL    HW121419   3.233   0.832   5.176
 6840SOL    HW221420   3.160   0.728   5.279
 6841SOL     OW21421   4.401   4.297   6.782
 6841SOL    HW121422   4.398   4.227   6.711
 6841SOL    HW221423   4.381   4.257   6.871
 6842SOL     OW21424   2.057   4.283   0.834
 6842SOL    HW121425   2.092   4.340   0.760
 6842SOL    HW221426   2.015   4.201   0.795
 6843SOL     OW21427   6.385   7.001   0.800
 6843SOL    HW121428   6.386   0.017   0.712
 6843SOL    HW221429   6.452   0.013   0.861
 6844SOL     OW21430   5.485   0.532   4.198
 6844SOL    HW121431   5.520   0.501   4.110
 6844SOL    HW221432   5.479   0.632   4.198
 6845SOL     OW21433   6.490   3.315   3.071
 6845SOL    HW121434   6.436   3.252   3.127
 6845SOL    HW221435   6.549   3.263   3.010
 6846SOL     OW21436   3.741   3.123   0.112
 6846SOL    HW121437   3.694   3.162   0.034
 6846SOL    HW221438   3.837   3.154   0.112
 6847SOL     OW21439   0.338   3.387   4.480
 6847SOL    HW121440   0.392   3.443   4.417
 6847SOL    HW221441   0.241   3.402   4.462
 6848SOL     OW21442   4.776   4.865   3.766
 6848SOL    HW121443   4.817   4.911   3.687
 6848SOL    HW221444   4.761   4.769   3.744
 6849SOL     OW21445   4.721   4.286   5.482
 6849SOL    HW121446   4.626   4.283   5.513
 6849SOL    HW221447   4.741   4.205   5.426
 6850SOL     OW21448   5.541   3.453   3.255
 6850SOL    HW121449   5.547   3.550   3.277
 6850SOL    HW221450   5.480   3.439   3.177
 6851SOL     OW21451   6.684   2.014   3.500
 6851SOL    HW121452   6.724   2.078   3.434
 6851SOL    HW221453   6.688   2.054   3.592
 6852SOL     OW21454   2.552   4.607   1.406
 6852SOL    HW121455   2.491   4.663   1.350
 6852SOL    HW221456   2.499   4.534   1.450
 6853SOL     OW21457   5.657   4.627   0.290
 6853SOL    HW121458   5.678   4.670   0.202
 6853SOL    HW221459   5.707   4.675   0.363
 6854SOL     OW21460   4.877   0.763   5.361
 6854SOL    HW121461   4.954   0.747   5.423
 6854SOL    HW221462   4.881   0.856   5.326
 6855SOL     OW21463   4.172   6.498   3.970
 6855SOL    HW121464   4.244   6.544   4.022
 6855SOL    HW221465   4.180   6.522   3.873
 6856SOL     OW21466   0.068   2.278   4.845
 6856SOL    HW121467   0.006   2.239   4.778
 6856SOL    HW221468   0.128   2.206   4.881
 6857SOL     OW21469   1.643   2.789   6.423
 6857SOL    HW121470   1.567   2.833   6.375
 6857SOL    HW221471   1.675   2.710   6.370
 6858SOL     OW21472   4.179   3.972   1.751
 6858SOL    HW121473   4.236   4.052   1.729
 6858SOL    HW221474   4.109   3.998   1.817
 6859SOL     OW21475   1.059   1.252   1.256
 6859SOL    HW121476   1.144   1.243   1.309
 6859SOL    HW221477   1.055   1.179   1.188
 6860SOL     OW21478   0.312   5.415   1.463
 6860SOL    HW121479   0.354   5.345   1.521
 6860SOL    HW221480   0.215   5.394   1.452
 6861SOL     OW21481   4.335   4.285   0.032
 6861SOL    HW121482   4.292   4.199   0.060
 6861SOL    HW221483   4.396   4.316   0.104
 6862SOL     OW21484   0.976   5.703   5.888
 6862SOL    HW121485   0.932   5.790   5.914
 6862SOL    HW221486   1.032   5.718   5.806
 6863SOL     OW21487   6.062   6.458   6.033
 6863SOL    HW121488   6.145   6.415   5.999
 6863SOL    HW221489   6.080   6.555   6.052
 6864SOL     OW21490   2.179   4.731   4.991
 6864SOL    HW121491   2.261   4.737   4.935
 6864SOL    HW221492   2.124   4.652   4.962
 6865SOL     OW21493   0.722   6.247   4.595
 6865SOL    HW121494   0.804   6.255   4.650
 6865SOL    HW221495   0.737   6.291   4.506
 6866SOL     OW21496   5.723   5.376   3.130
 6866SOL    HW121497   5.807   5.354   3.180
 6866SOL    HW221498   5.744   5.392   3.034
 6867SOL     OW21499   1.954   3.811   2.264
 6867SOL    HW121500   1.983   3.747   2.192
 6867SOL    HW221501   2.026   3.878   2.279
 6868SOL     OW21502   1.879   6.476   6.420
 6868SOL    HW121503   1.956   6.426   6.459
 6868SOL    HW221504   1.911   6.530   6.342
 6869SOL     OW21505   4.511   0.975   6.217
 6869SOL    HW121506   4.498   1.026   6.302
 6869SOL    HW221507   4.566   1.029   6.154
 6870SOL     OW21508   0.290   4.303   1.076
 6870SOL    HW121509   0.242   4.382   1.039
 6870SOL    HW221510   0.364   4.334   1.136
 6871SOL     OW21511   6.224   4.234   3.133
 6871SOL    HW121512   6.131   4.200   3.146
 6871SOL    HW221513   6.223   4.334   3.133
 6872SOL     OW21514   7.028   2.499   1.616
 6872SOL    HW121515   0.092   2.492   1.647
 6872SOL    HW221516   6.976   2.421   1.651
 6873SOL     OW21517   0.306   3.512   3.698
 6873SOL    HW121518   0.400   3.491   3.672
 6873SOL    HW221519   0.276   3.449   3.770
 6874SOL     OW21520   6.591   5.168   3.296
 6874SOL    HW121521   6.651   5.232   3.248
 6874SOL    HW221522   6.559   5.098   3.231
 6875SOL     OW21523   2.174   2.168   2.480
 6875SOL    HW121524   2.168   2.154   2.579
 6875SOL    HW221525   2.229   2.250   2.461
 6876SOL     OW21526   4.212   6.982   3.694
 6876SOL    HW121527   4.130   0.009   3.694
 6876SOL    HW221528   4.213   6.926   3.777
 6877SOL     OW21529   3.115   4.225   1.406
 6877SOL    HW121530   3.096   4.262   1.314
 6877SOL    HW221531   3.062   4.141   1.419
 6878SOL     OW21532   3.561   1.452   4.479
 6878SOL    HW121533   3.548   1.445   4.578
 6878SOL    HW221534   3.656   1.434   4.456
 6879SOL     OW21535   1.270   2.945   0.518
 6879SOL    HW121536   1.280   2.957   0.617
 6879SOL    HW221537   1.216   3.020   0.481
 6880SOL     OW21538   1.743   5.395   5.827
 6880SOL    HW121539   1.705   5.456   5.897
 6880SOL    HW221540   1.805   5.447   5.768
 6881SOL     OW21541   1.585   3.955   1.509
 6881SOL    HW121542   1.521   3.892   1.553
 6881SOL    HW221543   1.610   3.920   1.419
 6882SOL     OW21544   2.773   0.582   0.359
 6882SOL    HW121545   2.770   0.592   0.459
 6882SOL    HW221546   2.684   0.607   0.321
 6883SOL     OW21547   5.150   2.563   0.356
 6883SOL    HW121548   5.171   2.542   0.451
 6883SOL    HW221549   5.230   2.605   0.313
 6884SOL     OW21550   1.280   4.541   3.420
 6884SOL    HW121551   1.206   4.601   3.390
 6884SOL    HW221552   1.298   4.557   3.517
 6885SOL     OW21553   4.389   4.902   3.456
 6885SOL    HW121554   4.358   4.826   3.513
 6885SOL    HW221555   4.487   4.892   3.438
 6886SOL     OW21556   6.792   1.457   4.483
 6886SOL    HW121557   6.766   1.550   4.458
 6886SOL    HW221558   6.816   1.406   4.400
 6887SOL     OW21559   4.419   5.361   6.576
 6887SOL    HW121560   4.386   5.292   6.641
 6887SOL    HW221561   4.500   5.326   6.530
 6888SOL     OW21562   5.576   5.308   6.395
 6888SOL    HW121563   5.604   5.376   6.327
 6888SOL    HW221564   5.634   5.226   6.385
 6889SOL     OW21565   0.894   3.058   5.706
 6889SOL    HW121566   0.809   3.108   5.724
 6889SOL    HW221567   0.899   2.978   5.765
 6890SOL     OW21568   4.046   6.230   2.169
 6890SOL    HW121569   4.047   6.316   2.118
 6890SOL    HW221570   4.044   6.249   2.267
 6891SOL     OW21571   2.098   4.380   2.202
 6891SOL    HW121572   2.048   4.421   2.279
 6891SOL    HW221573   2.085   4.436   2.120
 6892SOL     OW21574   3.532   1.835   3.993
 6892SOL    HW121575   3.462   1.797   4.054
 6892SOL    HW221576   3.585   1.761   3.952
 6893SOL     OW21577   4.333   3.987   0.335
 6893SOL    HW121578   4.395   4.066   0.333
 6893SOL    HW221579   4.245   4.016   0.372
 6894SOL     OW21580   5.915   4.457   1.127
 6894SOL    HW121581   5.848   4.421   1.192
 6894SOL    HW221582   5.992   4.496   1.177
 6895SOL     OW21583   2.427   5.076   1.221
 6895SOL    HW121584   2.478   4.990   1.226
 6895SOL    HW221585   2.329   5.055   1.212
 6896SOL     OW21586   2.927   1.946   4.222
 6896SOL    HW121587   2.828   1.951   4.209
 6896SOL    HW221588   2.953   2.007   4.297
 6897SOL     OW21589   4.930   3.779   4.863
 6897SOL    HW121590   4.966   3.815   4.949
 6897SOL    HW221591   4.880   3.694   4.880
 6898SOL     OW21592   3.940   1.740   1.261
 6898SOL    HW121593   3.844   1.741   1.290
 6898SOL    HW221594   3.959   1.822   1.207
 6899SOL     OW21595   4.544   6.124   2.256
 6899SOL    HW121596   4.609   6.175   2.312
 6899SOL    HW221597   4.505   6.184   2.186
 6900SOL     OW21598   6.235   5.150   4.874
 6900SOL    HW121599   6.335   5.143   4.878
 6900SOL    HW221600   6.205   5.144   4.779
 6901SOL     OW21601   6.344   6.212   6.442
 6901SOL    HW121602   6.304   6.304   6.440
 6901SOL    HW221603   6.425   6.209   6.384
 6902SOL     OW21604   6.676   5.576   5.996
 6902SOL    HW121605   6.706   5.499   6.052
 6902SOL    HW221606   6.731   5.656   6.017
 6903SOL     OW21607   3.261   5.049   5.245
 6903SOL    HW121608   3.174   5.096   5.236
 6903SOL    HW221609   3.246   4.951   5.256
 6904SOL     OW21610   5.956   0.637   5.934
 6904SOL    HW121611   5.971   0.723   5.884
 6904SOL    HW221612   5.865   0.639   5.975
 6905SOL     OW21613   5.520   6.001   0.042
 6905SOL    HW121614   5.485   5.950   6.994
 6905SOL    HW221615   5.511   6.099   0.025
 6906SOL     OW21616   3.717   1.677   3.857
 6906SOL    HW121617   3.741   1.594   3.907
 6906SOL    HW221618   3.799   1.734   3.848
 6907SOL     OW21619   5.591   2.411   1.741
 6907SOL    HW121620   5.519   2.466   1.783
 6907SOL    HW221621   5.562   2.315   1.737
 6908SOL     OW21622   1.557   5.782   6.731
 6908SOL    HW121623   1.641   5.727   6.726
 6908SOL    HW221624   1.545   5.816   6.824
 6909SOL     OW21625   5.256   3.867   0.902
 6909SOL    HW121626   5.202   3.950   0.890
 6909SOL    HW221627   5.282   3.856   0.998
 6910SOL     OW21628   1.383   3.691   3.436
 6910SOL    HW121629   1.411   3.644   3.352
 6910SOL    HW221630   1.454   3.681   3.505
 6911SOL     OW21631   4.210   6.893   3.989
 6911SOL    HW121632   4.218   6.966   4.057
 6911SOL    HW221633   4.270   6.817   4.014
 6912SOL     OW21634   2.695   3.433   6.034
 6912SOL    HW121635   2.794   3.444   6.047
 6912SOL    HW221636   2.666   3.347   6.076
 6913SOL     OW21637   5.576   5.872   4.423
 6913SOL    HW121638   5.598   5.780   4.455
 6913SOL    HW221639   5.578   5.936   4.500
 6914SOL     OW21640   5.606   4.562   3.737
 6914SOL    HW121641   5.662   4.479   3.740
 6914SOL    HW221642   5.569   4.581   3.828
 6915SOL     OW21643   6.296   2.861   1.689
 6915SOL    HW121644   6.250   2.865   1.600
 6915SOL    HW221645   6.337   2.950   1.710
 6916SOL     OW21646   5.263   1.629   0.343
 6916SOL    HW121647   5.357   1.627   0.309
 6916SOL    HW221648   5.229   1.535   0.353
 6917SOL     OW21649   3.918   6.739   1.017
 6917SOL    HW121650   3.913   6.803   1.094
 6917SOL    HW221651   3.840   6.676   1.021
 6918SOL     OW21652   0.675   2.407   4.465
 6918SOL    HW121653   0.585   2.411   4.422
 6918SOL    HW221654   0.741   2.371   4.400
 6919SOL     OW21655   5.676   5.633   4.466
 6919SOL    HW121656   5.743   5.663   4.398
 6919SOL    HW221657   5.622   5.557   4.430
 6920SOL     OW21658   4.773   0.056   5.498
 6920SOL    HW121659   4.779   0.155   5.482
 6920SOL    HW221660   4.838   0.009   5.439
 6921SOL     OW21661   4.546   6.028   4.166
 6921SOL    HW121662   4.509   5.935   4.159
 6921SOL    HW221663   4.509   6.084   4.092
 6922SOL     OW21664   2.127   5.647   5.493
 6922SOL    HW121665   2.217   5.615   5.464
 6922SOL    HW221666   2.081   5.693   5.417
 6923SOL     OW21667   5.340   5.413   2.863
 6923SOL    HW121668   5.266   5.470   2.899
 6923SOL    HW221669   5.304   5.350   2.795
 6924SOL     OW21670   1.780   4.471   0.301
 6924SOL    HW121671   1.744   4.381   0.281
 6924SOL    HW221672   1.824   4.508   0.219
 6925SOL     OW21673   4.684   5.811   4.504
 6925SOL    HW121674   4.740   5.886   4.538
 6925SOL    HW221675   4.718   5.782   4.414
 6926SOL     OW21676   2.622   2.979   0.808
 6926SOL    HW121677   2.662   3.027   0.886
 6926SOL    HW221678   2.524   2.965   0.824
 6927SOL     OW21679   3.461   2.885   6.185
 6927SOL    HW121680   3.363   2.866   6.181
 6927SOL    HW221681   3.512   2.806   6.153
 6928SOL     OW21682   5.739   5.409   0.974
 6928SOL    HW121683   5.769   5.345   0.904
 6928SOL    HW221684   5.671   5.472   0.935
 6929SOL     OW21685   4.815   5.605   2.209
 6929SOL    HW121686   4.725   5.610   2.166
 6929SOL    HW221687   4.804   5.593   2.308
 6930SOL     OW21688   1.850   0.935   1.692
 6930SOL    HW121689   1.830   0.842   1.723
 6930SOL    HW221690   1.767   0.991   1.701
 6931SOL     OW21691   1.554   1.226   2.456
 6931SOL    HW121692   1.585   1.131   2.457
 6931SOL    HW221693   1.461   1.230   2.419
 6932SOL     OW21694   4.428   0.189   0.387
 6932SOL    HW121695   4.414   0.239   0.301
 6932SOL    HW221696   4.378   0.234   0.461
 6933SOL     OW21697   3.663   6.280   5.651
 6933SOL    HW121698   3.627   6.200   5.601
 6933SOL    HW221699   3.592   6.315   5.713
 6934SOL     OW21700   4.413   3.173   6.103
 6934SOL    HW121701   4.355   3.202   6.027
 6934SOL    HW221702   4.451   3.254   6.148
 6935SOL     OW21703   4.807   5.874   2.849
 6935SOL    HW121704   4.742   5.798   2.846
 6935SOL    HW221705   4.895   5.841   2.883
 6936SOL     OW21706   6.210   3.228   4.279
 6936SOL    HW121707   6.254   3.199   4.364
 6936SOL    HW221708   6.260   3.190   4.201
 6937SOL     OW21709   6.245   5.958   0.878
 6937SOL    HW121710   6.232   5.913   0.790
 6937SOL    HW221711   6.217   6.053   0.872
 6938SOL     OW21712   6.511   2.677   4.907
 6938SOL    HW121713   6.427   2.685   4.961
 6938SOL    HW221714   6.577   2.620   4.956
 6939SOL     OW21715   0.106   5.267   2.274
 6939SOL    HW121716   0.122   5.182   2.324
 6939SOL    HW221717   0.170   5.274   2.197
 6940SOL     OW21718   4.041   0.508   6.922
 6940SOL    HW121719   3.962   0.451   6.900
 6940SOL    HW221720   4.011   0.602   6.938
 6941SOL     OW21721   3.054   3.839   1.997
 6941SOL    HW121722   3.056   3.859   2.095
 6941SOL    HW221723   3.033   3.922   1.946
 6942SOL     OW21724   6.149   6.692   2.463
 6942SOL    HW121725   6.049   6.701   2.457
 6942SOL    HW221726   6.190   6.783   2.469
 6943SOL     OW21727   3.996   5.905   0.931
 6943SOL    HW121728   4.034   5.829   0.982
 6943SOL    HW221729   3.898   5.912   0.948
 6944SOL     OW21730   1.271   5.031   6.315
 6944SOL    HW121731   1.193   5.056   6.373
 6944SOL    HW221732   1.329   5.112   6.302
 6945SOL     OW21733   0.033   1.602   0.485
 6945SOL    HW121734   6.970   1.593   0.452
 6945SOL    HW221735   0.046   1.694   0.522
 6946SOL     OW21736   4.454   6.932   1.244
 6946SOL    HW121737   4.493   6.967   1.329
 6946SOL    HW221738   4.357   6.915   1.257
 6947SOL     OW21739   3.498   5.299   0.226
 6947SOL    HW121740   3.442   5.288   0.144
 6947SOL    HW221741   3.592   5.273   0.206
 6948SOL     OW21742   1.265   6.457   0.819
 6948SOL    HW121743   1.272   6.470   0.720
 6948SOL    HW221744   1.344   6.501   0.864
 6949SOL     OW21745   3.998   0.021   3.388
 6949SOL    HW121746   4.070   7.001   3.341
 6949SOL    HW221747   3.914   0.016   3.333
 6950SOL     OW21748   1.849   1.264   5.092
 6950SOL    HW121749   1.889   1.257   5.001
 6950SOL    HW221750   1.803   1.178   5.116
 6951SOL     OW21751   6.986   5.581   5.939
 6951SOL    HW121752   0.028   5.545   5.997
 6951SOL    HW221753   6.906   5.602   5.996
 6952SOL     OW21754   0.961   5.344   3.143
 6952SOL    HW121755   1.013   5.349   3.228
 6952SOL    HW221756   0.912   5.257   3.139
 6953SOL     OW21757   4.822   6.735   0.989
 6953SOL    HW121758   4.906   6.790   0.990
 6953SOL    HW221759   4.779   6.739   1.079
 6954SOL     OW21760   0.872   4.196   1.874
 6954SOL    HW121761   0.905   4.108   1.909
 6954SOL    HW221762   0.908   4.210   1.782
 6955SOL     OW21763   5.411   0.829   2.131
 6955SOL    HW121764   5.328   0.882   2.152
 6955SOL    HW221765   5.439   0.779   2.213
 6956SOL     OW21766   5.072   5.641   3.529
 6956SOL    HW121767   4.982   5.629   3.571
 6956SOL    HW221768   5.143   5.615   3.595
 6957SOL     OW21769   6.458   6.065   0.607
 6957SOL    HW121770   6.498   6.080   0.697
 6957SOL    HW221771   6.389   5.993   0.612
 6958SOL     OW21772   3.914   3.271   4.905
 6958SOL    HW121773   3.930   3.198   4.838
 6958SOL    HW221774   3.983   3.342   4.893
 6959SOL     OW21775   1.986   3.012   2.886
 6959SOL    HW121776   1.897   2.984   2.849
 6959SOL    HW221777   1.987   3.111   2.901
 6960SOL     OW21778   2.161   4.019   1.665
 6960SOL    HW121779   2.196   3.978   1.581
 6960SOL    HW221780   2.232   4.015   1.736
 6961SOL     OW21781   6.057   0.387   4.626
 6961SOL    HW121782   6.055   0.287   4.628
 6961SOL    HW221783   6.052   0.422   4.719
 6962SOL     OW21784   4.341   5.858   1.572
 6962SOL    HW121785   4.352   5.834   1.668
 6962SOL    HW221786   4.425   5.902   1.539
 6963SOL     OW21787   5.227   5.643   1.055
 6963SOL    HW121788   5.292   5.679   1.121
 6963SOL    HW221789   5.230   5.698   0.971
 6964SOL     OW21790   3.699   1.405   5.968
 6964SOL    HW121791   3.773   1.356   5.923
 6964SOL    HW221792   3.734   1.492   6.004
 6965SOL     OW21793   2.170   1.272   0.026
 6965SOL    HW121794   2.076   1.271   7.023
 6965SOL    HW221795   2.233   1.262   6.980
 6966SOL     OW21796   0.552   1.269   2.751
 6966SOL    HW121797   0.629   1.232   2.804
 6966SOL    HW221798   0.540   1.215   2.668
 6967SOL     OW21799   3.135   1.046   6.275
 6967SOL    HW121800   3.193   0.984   6.328
 6967SOL    HW221801   3.187   1.128   6.251
 6968SOL     OW21802   3.785   0.797   3.816
 6968SOL    HW121803   3.839   0.866   3.863
 6968SOL    HW221804   3.830   0.708   3.826
 6969SOL     OW21805   2.808   2.425   1.501
 6969SOL    HW121806   2.823   2.359   1.428
 6969SOL    HW221807   2.883   2.492   1.501
 6970SOL     OW21808   3.796   3.797   5.670
 6970SOL    HW121809   3.856   3.766   5.596
 6970SOL    HW221810   3.762   3.888   5.649
 6971SOL     OW21811   6.427   4.779   0.625
 6971SOL    HW121812   6.336   4.822   0.627
 6971SOL    HW221813   6.417   4.680   0.613
 6972SOL     OW21814   5.185   4.493   3.034
 6972SOL    HW121815   5.258   4.467   3.098
 6972SOL    HW221816   5.136   4.411   3.005
 6973SOL     OW21817   0.589   2.823   3.256
 6973SOL    HW121818   0.643   2.739   3.255
 6973SOL    HW221819   0.492   2.800   3.248
 6974SOL     OW21820   2.961   3.758   2.438
 6974SOL    HW121821   2.918   3.808   2.363
 6974SOL    HW221822   3.054   3.732   2.412
 6975SOL     OW21823   1.640   6.441   5.233
 6975SOL    HW121824   1.548   6.481   5.234
 6975SOL    HW221825   1.707   6.512   5.217
 6976SOL     OW21826   6.760   4.844   5.893
 6976SOL    HW121827   6.853   4.833   5.859
 6976SOL    HW221828   6.756   4.923   5.955
 6977SOL     OW21829   3.369   3.118   0.685
 6977SOL    HW121830   3.430   3.186   0.724
 6977SOL    HW221831   3.371   3.035   0.742
 6978SOL     OW21832   5.067   2.415   2.021
 6978SOL    HW121833   5.111   2.336   2.064
 6978SOL    HW221834   5.040   2.390   1.927
 6979SOL     OW21835   1.197   4.095   1.383
 6979SOL    HW121836   1.239   4.186   1.394
 6979SOL    HW221837   1.125   4.100   1.315
 6980SOL     OW21838   2.300   0.722   3.294
 6980SOL    HW121839   2.246   0.642   3.315
 6980SOL    HW221840   2.258   0.773   3.219
 6981SOL     OW21841   3.334   3.895   5.697
 6981SOL    HW121842   3.365   3.801   5.710
 6981SOL    HW221843   3.237   3.900   5.717
 6982SOL     OW21844   1.267   1.194   4.779
 6982SOL    HW121845   1.172   1.186   4.808
 6982SOL    HW221846   1.322   1.232   4.853
 6983SOL     OW21847   4.524   1.567   4.914
 6983SOL    HW121848   4.531   1.626   4.833
 6983SOL    HW221849   4.615   1.555   4.954
 6984SOL     OW21850   2.376   1.638   3.464
 6984SOL    HW121851   2.378   1.717   3.403
 6984SOL    HW221852   2.403   1.666   3.556
 6985SOL     OW21853   6.117   5.393   0.891
 6985SOL    HW121854   6.069   5.305   0.898
 6985SOL    HW221855   6.119   5.437   0.980
 6986SOL     OW21856   3.132   0.235   6.506
 6986SOL    HW121857   3.159   0.152   6.458
 6986SOL    HW221858   3.035   0.232   6.527
 6987SOL     OW21859   6.455   1.564   6.305
 6987SOL    HW121860   6.472   1.489   6.240
 6987SOL    HW221861   6.411   1.528   6.387
 6988SOL     OW21862   1.153   7.022   6.752
 6988SOL    HW121863   1.250   0.003   6.728
 6988SOL    HW221864   1.125   6.928   6.733
 6989SOL     OW21865   0.450   4.355   2.787
 6989SOL    HW121866   0.456   4.269   2.737
 6989SOL    HW221867   0.376   4.411   2.748
 6990SOL     OW21868   4.279   2.866   0.906
 6990SOL    HW121869   4.277   2.775   0.863
 6990SOL    HW221870   4.221   2.928   0.854
 6991SOL     OW21871   4.729   4.520   3.620
 6991SOL    HW121872   4.800   4.557   3.560
 6991SOL    HW221873   4.755   4.428   3.650
 6992SOL     OW21874   6.010   0.410   6.373
 6992SOL    HW121875   6.061   0.495   6.363
 6992SOL    HW221876   6.055   0.338   6.319
 6993SOL     OW21877   5.902   6.902   2.179
 6993SOL    HW121878   5.815   6.939   2.149
 6993SOL    HW221879   5.975   6.966   2.158
 6994SOL     OW21880   0.008   2.022   3.945
 6994SOL    HW121881   6.965   1.974   3.992
 6994SOL    HW221882   7.026   2.121   3.956
 6995SOL     OW21883   0.909   3.892   6.439
 6995SOL    HW121884   0.912   3.916   6.537
 6995SOL    HW221885   0.830   3.833   6.422
 6996SOL     OW21886   2.520   0.375   0.198
 6996SOL    HW121887   2.542   0.327   0.283
 6996SOL    HW221888   2.421   0.390   0.193
 6997SOL     OW21889   0.572   5.059   4.855
 6997SOL    HW121890   0.541   5.151   4.881
 6997SOL    HW221891   0.493   4.999   4.845
 6998SOL     OW21892   1.451   1.732   1.323
 6998SOL    HW121893   1.469   1.637   1.348
 6998SOL    HW221894   1.461   1.790   1.403
 6999SOL     OW21895   1.451   3.374   6.159
 6999SOL    HW121896   1.511   3.346   6.234
 6999SOL    HW221897   1.390   3.299   6.135
 7000SOL     OW21898   5.793   6.379   2.052
 7000SOL    HW121899   5.860   6.311   2.026
 7000SOL    HW221900   5.797   6.457   1.989
 7001SOL     OW21901   1.195   3.241   5.025
 7001SOL    HW121902   1.116   3.195   4.984
 7001SOL    HW221903   1.273   3.178   5.026
 7002SOL     OW21904   1.948   5.432   4.475
 7002SOL    HW121905   1.879   5.447   4.405
 7002SOL    HW221906   1.915   5.364   4.541
 7003SOL     OW21907   4.202   5.882   1.317
 7003SOL    HW121908   4.283   5.905   1.264
 7003SOL    HW221909   4.229   5.858   1.410
 7004SOL     OW21910   0.595   5.886   1.106
 7004SOL    HW121911   0.632   5.795   1.126
 7004SOL    HW221912   0.585   5.898   1.008
 7005SOL     OW21913   1.076   0.201   1.031
 7005SOL    HW121914   1.104   0.165   0.942
 7005SOL    HW221915   1.009   0.275   1.017
 7006SOL     OW21916   5.561   5.482   3.355
 7006SOL    HW121917   5.525   5.391   3.371
 7006SOL    HW221918   5.600   5.486   3.263
 7007SOL     OW21919   3.926   0.862   4.680
 7007SOL    HW121920   3.952   0.894   4.589
 7007SOL    HW221921   3.981   0.909   4.749
 7008SOL     OW21922   0.711   4.217   4.090
 7008SOL    HW121923   0.755   4.144   4.038
 7008SOL    HW221924   0.779   4.286   4.115
 7009SOL     OW21925   4.014   6.543   2.809
 7009SOL    HW121926   3.998   6.502   2.899
 7009SOL    HW221927   3.929   6.585   2.777
 7010SOL     OW21928   5.396   4.123   3.904
 7010SOL    HW121929   5.430   4.029   3.913
 7010SOL    HW221930   5.471   4.183   3.874
 7011SOL     OW21931   3.463   6.859   6.784
 7011SOL    HW121932   3.494   6.784   6.726
 7011SOL    HW221933   3.365   6.875   6.769
 7012SOL     OW21934   1.041   1.846   1.092
 7012SOL    HW121935   1.042   1.901   1.008
 7012SOL    HW221936   0.971   1.776   1.085
 7013SOL     OW21937   1.185   6.720   6.719
 7013SOL    HW121938   1.233   6.632   6.731
 7013SOL    HW221939   1.211   6.759   6.630
 7014SOL     OW21940   4.939   3.401   0.596
 7014SOL    HW121941   4.996   3.352   0.662
 7014SOL    HW221942   4.873   3.458   0.645
 7015SOL     OW21943   5.850   4.134   1.175
 7015SOL    HW121944   5.776   4.190   1.139
 7015SOL    HW221945   5.816   4.078   1.250
 7016SOL     OW21946   3.895   4.724   1.207
 7016SOL    HW121947   3.854   4.752   1.121
 7016SOL    HW221948   3.934   4.804   1.253
 7017SOL     OW21949   3.140   5.404   3.327
 7017SOL    HW121950   3.109   5.394   3.421
 7017SOL    HW221951   3.189   5.321   3.298
 7018SOL     OW21952   5.202   3.782   4.184
 7018SOL    HW121953   5.276   3.848   4.197
 7018SOL    HW221954   5.230   3.712   4.118
 7019SOL     OW21955   3.557   4.786   0.664
 7019SOL    HW121956   3.608   4.840   0.596
 7019SOL    HW221957   3.586   4.690   0.658
 7020SOL     OW21958   6.947   3.732   5.024
 7020SOL    HW121959   6.898   3.789   4.957
 7020SOL    HW221960   0.014   3.734   5.003
 7021SOL     OW21961   1.971   2.396   4.387
 7021SOL    HW121962   1.904   2.351   4.446
 7021SOL    HW221963   1.933   2.483   4.354
 7022SOL     OW21964   4.856   6.794   6.815
 7022SOL    HW121965   4.852   6.894   6.813
 7022SOL    HW221966   4.914   6.762   6.740
 7023SOL     OW21967   0.745   2.911   2.258
 7023SOL    HW121968   0.763   2.817   2.289
 7023SOL    HW221969   0.740   2.911   2.158
 7024SOL     OW21970   3.107   3.440   4.477
 7024SOL    HW121971   3.049   3.359   4.479
 7024SOL    HW221972   3.093   3.489   4.391
 7025SOL     OW21973   4.056   1.152   1.200
 7025SOL    HW121974   4.084   1.248   1.196
 7025SOL    HW221975   3.957   1.145   1.188
 7026SOL     OW21976   3.581   2.097   2.239
 7026SOL    HW121977   3.595   2.133   2.146
 7026SOL    HW221978   3.484   2.106   2.263
 7027SOL     OW21979   2.703   5.731   4.406
 7027SOL    HW121980   2.664   5.767   4.490
 7027SOL    HW221981   2.631   5.690   4.350
 7028SOL     OW21982   3.626   1.026   3.299
 7028SOL    HW121983   3.544   1.070   3.336
 7028SOL    HW221984   3.599   0.963   3.226
 7029SOL     OW21985   4.339   4.193   5.293
 7029SOL    HW121986   4.290   4.268   5.249
 7029SOL    HW221987   4.283   4.110   5.289
 7030SOL     OW21988   6.962   1.006   4.430
 7030SOL    HW121989   6.950   0.940   4.355
 7030SOL    HW221990   6.954   0.958   4.517
 7031SOL     OW21991   4.002   6.428   0.069
 7031SOL    HW121992   4.026   6.332   0.054
 7031SOL    HW221993   3.904   6.437   0.084
 7032SOL     OW21994   3.659   1.320   3.672
 7032SOL    HW121995   3.728   1.370   3.620
 7032SOL    HW221996   3.592   1.384   3.709
 7033SOL     OW21997   1.437   2.547   3.139
 7033SOL    HW121998   1.456   2.490   3.060
 7033SOL    HW221999   1.457   2.643   3.117
 7034SOL     OW22000   6.868   1.415   2.802
 7034SOL    HW122001   6.871   1.496   2.861
 7034SOL    HW222002   6.865   1.332   2.858
 7035SOL     OW22003   1.631   0.119   0.666
 7035SOL    HW122004   1.670   0.194   0.613
 7035SOL    HW222005   1.541   0.145   0.701
 7036SOL     OW22006   6.663   1.198   2.268
 7036SOL    HW122007   6.721   1.123   2.301
 7036SOL    HW222008   6.721   1.270   2.230
 7037SOL     OW22009   1.201   1.049   6.846
 7037SOL    HW122010   1.230   1.075   6.754
 7037SOL    HW222011   1.149   0.964   6.841
 7038SOL     OW22012   2.407   4.465   4.927
 7038SOL    HW122013   2.397   4.437   5.023
 7038SOL    HW222014   2.361   4.399   4.868
 7039SOL     OW22015   0.208   6.250   3.125
 7039SOL    HW122016   0.164   6.181   3.066
 7039SOL    HW222017   0.232   6.330   3.071
 7040SOL     OW22018   5.455   2.946   6.063
 7040SOL    HW122019   5.362   2.983   6.065
 7040SOL    HW222020   5.487   2.941   5.969
 7041SOL     OW22021   6.933   1.645   2.316
 7041SOL    HW122022   6.844   1.687   2.298
 7041SOL    HW222023   6.934   1.609   2.409
 7042SOL     OW22024   4.571   6.195   4.405
 7042SOL    HW122025   4.552   6.143   4.321
 7042SOL    HW222026   4.620   6.137   4.470
 7043SOL     OW22027   2.340   4.874   3.709
 7043SOL    HW122028   2.354   4.888   3.611
 7043SOL    HW222029   2.378   4.786   3.737
 7044SOL     OW22030   5.501   5.399   5.284
 7044SOL    HW122031   5.542   5.387   5.375
 7044SOL    HW222032   5.485   5.496   5.267
 7045SOL     OW22033   5.092   5.659   2.365
 7045SOL    HW122034   5.162   5.603   2.409
 7045SOL    HW222035   5.081   5.745   2.414
 7046SOL     OW22036   3.548   1.507   3.173
 7046SOL    HW122037   3.484   1.583   3.178
 7046SOL    HW222038   3.525   1.439   3.242
 7047SOL     OW22039   6.539   0.838   1.875
 7047SOL    HW122040   6.493   0.845   1.964
 7047SOL    HW222041   6.524   0.747   1.837
 7048SOL     OW22042   5.788   6.683   4.612
 7048SOL    HW122043   5.850   6.634   4.551
 7048SOL    HW222044   5.704   6.706   4.563
 7049SOL     OW22045   3.932   2.106   0.876
 7049SOL    HW122046   3.955   2.188   0.823
 7049SOL    HW222047   3.976   2.027   0.834
 7050SOL     OW22048   3.981   3.453   1.397
 7050SOL    HW122049   4.064   3.509   1.398
 7050SOL    HW222050   3.992   3.379   1.330
 7051SOL     OW22051   0.034   6.441   1.364
 7051SOL    HW122052   6.993   6.396   1.312
 7051SOL    HW222053   0.096   6.373   1.402
 7052SOL     OW22054   6.576   0.911   4.248
 7052SOL    HW122055   6.598   0.837   4.186
 7052SOL    HW222056   6.587   0.999   4.201
 7053SOL     OW22057   1.444   3.734   4.366
 7053SOL    HW122058   1.517   3.669   4.346
 7053SOL    HW222059   1.392   3.703   4.446
 7054SOL     OW22060   6.880   6.858   0.746
 7054SOL    HW122061   6.980   6.861   0.741
 7054SOL    HW222062   6.853   6.827   0.837
 7055SOL     OW22063   2.987   0.250   0.088
 7055SOL    HW122064   3.008   0.170   0.145
 7055SOL    HW222065   2.888   0.256   0.075
 7056SOL     OW22066   6.624   5.110   1.434
 7056SOL    HW122067   6.605   5.205   1.411
 7056SOL    HW222068   6.717   5.103   1.471
 7057SOL     OW22069   2.765   4.911   3.916
 7057SOL    HW122070   2.716   4.920   3.829
 7057SOL    HW222071   2.862   4.898   3.898
 7058SOL     OW22072   5.461   2.459   6.047
 7058SOL    HW122073   5.558   2.439   6.058
 7058SOL    HW222074   5.424   2.494   6.133
 7059SOL     OW22075   1.299   1.043   4.010
 7059SOL    HW122076   1.335   1.123   4.057
 7059SOL    HW222077   1.341   0.960   4.047
 7060SOL     OW22078   3.519   0.378   0.886
 7060SOL    HW122079   3.567   0.348   0.969
 7060SOL    HW222080   3.429   0.414   0.911
 7061SOL     OW22081   0.008   2.730   3.497
 7061SOL    HW122082   6.979   2.693   3.568
 7061SOL    HW222083   0.044   2.818   3.526
 7062SOL     OW22084   3.682   2.193   5.207
 7062SOL    HW122085   3.748   2.214   5.134
 7062SOL    HW222086   3.589   2.196   5.170
 7063SOL     OW22087   1.426   0.070   1.919
 7063SOL    HW122088   1.477   7.019   1.945
 7063SOL    HW222089   1.457   0.102   1.830
 7064SOL     OW22090   4.109   2.341   6.794
 7064SOL    HW122091   4.104   2.318   6.697
 7064SOL    HW222092   4.178   2.283   6.838
 7065SOL     OW22093   3.062   3.916   5.102
 7065SOL    HW122094   3.046   3.907   5.003
 7065SOL    HW222095   3.160   3.922   5.120
 7066SOL     OW22096   4.277   0.071   6.052
 7066SOL    HW122097   4.215   0.045   5.978
 7066SOL    HW222098   4.269   0.169   6.069
 7067SOL     OW22099   0.797   3.686   5.613
 7067SOL    HW122100   0.889   3.722   5.626
 7067SOL    HW222101   0.784   3.660   5.517
 7068SOL     OW22102   5.651   4.279   4.514
 7068SOL    HW122103   5.636   4.213   4.441
 7068SOL    HW222104   5.730   4.252   4.569
 7069SOL     OW22105   5.924   1.300   5.482
 7069SOL    HW122106   5.994   1.229   5.488
 7069SOL    HW222107   5.864   1.282   5.404
 7070SOL     OW22108   1.233   6.486   4.149
 7070SOL    HW122109   1.141   6.478   4.186
 7070SOL    HW222110   1.296   6.511   4.223
 7071SOL     OW22111   3.690   5.681   0.175
 7071SOL    HW122112   3.770   5.623   0.159
 7071SOL    HW222113   3.648   5.658   0.263
 7072SOL     OW22114   2.297   4.841   0.084
 7072SOL    HW122115   2.368   4.841   0.013
 7072SOL    HW222116   2.293   4.750   0.126
 7073SOL     OW22117   3.714   0.311   3.455
 7073SOL    HW122118   3.738   0.347   3.364
 7073SOL    HW222119   3.738   0.378   3.525
 7074SOL     OW22120   6.294   2.934   3.048
 7074SOL    HW122121   6.373   2.990   3.070
 7074SOL    HW222122   6.270   2.947   2.951
 7075SOL     OW22123   2.558   4.885   4.542
 7075SOL    HW122124   2.528   4.791   4.529
 7075SOL    HW222125   2.507   4.945   4.481
 7076SOL     OW22126   5.562   3.079   0.290
 7076SOL    HW122127   5.581   3.144   0.364
 7076SOL    HW222128   5.495   3.012   0.321
 7077SOL     OW22129   2.210   3.966   3.774
 7077SOL    HW122130   2.220   3.870   3.747
 7077SOL    HW222131   2.254   3.980   3.863
 7078SOL     OW22132   6.374   6.156   1.111
 7078SOL    HW122133   6.429   6.178   1.031
 7078SOL    HW222134   6.306   6.229   1.126
 7079SOL     OW22135   1.015   6.810   3.552
 7079SOL    HW122136   0.928   6.834   3.510
 7079SOL    HW222137   1.075   6.767   3.484
 7080SOL     OW22138   3.957   1.789   3.916
 7080SOL    HW122139   4.006   1.766   4.000
 7080SOL    HW222140   4.023   1.799   3.841
 7081SOL     OW22141   1.134   5.386   0.423
 7081SOL    HW122142   1.153   5.366   0.326
 7081SOL    HW222143   1.213   5.358   0.478
 7082SOL     OW22144   6.844   4.249   0.373
 7082SOL    HW122145   6.807   4.157   0.375
 7082SOL    HW222146   6.855   4.279   0.278
 7083SOL     OW22147   0.042   1.289   2.496
 7083SOL    HW122148   7.008   1.354   2.536
 7083SOL    HW222149   0.061   1.216   2.561
 7084SOL     OW22150   0.756   5.370   5.725
 7084SOL    HW122151   0.811   5.370   5.642
 7084SOL    HW222152   0.816   5.369   5.805
 7085SOL     OW22153   6.783   2.478   2.597
 7085SOL    HW122154   6.801   2.483   2.499
 7085SOL    HW222155   6.832   2.399   2.636
 7086SOL     OW22156   5.467   0.841   6.022
 7086SOL    HW122157   5.492   0.757   5.973
 7086SOL    HW222158   5.547   0.878   6.068
 7087SOL     OW22159   5.815   4.066   2.907
 7087SOL    HW122160   5.715   4.062   2.909
 7087SOL    HW222161   5.852   3.974   2.899
 7088SOL     OW22162   5.199   2.595   5.642
 7088SOL    HW122163   5.179   2.501   5.668
 7088SOL    HW222164   5.138   2.658   5.692
 7089SOL     OW22165   2.114   3.288   3.348
 7089SOL    HW122166   2.120   3.342   3.431
 7089SOL    HW222167   2.057   3.336   3.281
 7090SOL     OW22168   2.447   1.717   0.271
 7090SOL    HW122169   2.399   1.629   0.280
 7090SOL    HW222170   2.398   1.774   0.204
 7091SOL     OW22171   0.471   0.858   1.315
 7091SOL    HW122172   0.561   0.825   1.286
 7091SOL    HW222173   0.465   0.855   1.415
 7092SOL     OW22174   3.694   3.095   5.528
 7092SOL    HW122175   3.692   3.097   5.628
 7092SOL    HW222176   3.785   3.121   5.496
 7093SOL     OW22177   3.276   4.400   1.563
 7093SOL    HW122178   3.203   4.379   1.498
 7093SOL    HW222179   3.348   4.331   1.556
 7094SOL     OW22180   0.796   0.452   5.727
 7094SOL    HW122181   0.772   0.510   5.650
 7094SOL    HW222182   0.724   0.384   5.742
 7095SOL     OW22183   3.002   4.758   5.864
 7095SOL    HW122184   2.961   4.668   5.880
 7095SOL    HW222185   2.930   4.826   5.850
 7096SOL     OW22186   6.332   0.166   1.705
 7096SOL    HW122187   6.297   0.161   1.611
 7096SOL    HW222188   6.426   0.198   1.705
 7097SOL     OW22189   5.427   0.903   1.724
 7097SOL    HW122190   5.480   0.940   1.800
 7097SOL    HW222191   5.346   0.855   1.760
 7098SOL     OW22192   1.540   5.744   5.771
 7098SOL    HW122193   1.625   5.751   5.719
 7098SOL    HW222194   1.472   5.806   5.731
 7099SOL     OW22195   3.485   1.898   4.359
 7099SOL    HW122196   3.518   1.949   4.280
 7099SOL    HW222197   3.540   1.921   4.439
 7100SOL     OW22198   6.151   2.930   0.508
 7100SOL    HW122199   6.233   2.874   0.493
 7100SOL    HW222200   6.140   2.946   0.606
 7101SOL     OW22201   2.124   0.937   5.170
 7101SOL    HW122202   2.146   0.852   5.123
 7101SOL    HW222203   2.025   0.946   5.180
 7102SOL     OW22204   5.577   0.173   0.667
 7102SOL    HW122205   5.500   0.113   0.644
 7102SOL    HW222206   5.579   0.188   0.766
 7103SOL     OW22207   5.575   5.299   1.537
 7103SOL    HW122208   5.537   5.387   1.508
 7103SOL    HW222209   5.674   5.308   1.549
 7104SOL     OW22210   6.305   3.639   2.686
 7104SOL    HW122211   6.361   3.713   2.722
 7104SOL    HW222212   6.314   3.559   2.745
 7105SOL     OW22213   3.476   3.294   4.798
 7105SOL    HW122214   3.508   3.214   4.748
 7105SOL    HW222215   3.400   3.336   4.749
 7106SOL     OW22216   3.444   2.839   1.338
 7106SOL    HW122217   3.408   2.932   1.342
 7106SOL    HW222218   3.468   2.809   1.430
 7107SOL     OW22219   4.311   0.542   0.652
 7107SOL    HW122220   4.336   0.578   0.562
 7107SOL    HW222221   4.259   0.457   0.640
 7108SOL     OW22222   3.004   5.718   2.966
 7108SOL    HW122223   3.025   5.653   3.039
 7108SOL    HW222224   3.028   5.676   2.878
 7109SOL     OW22225   1.774   1.093   6.854
 7109SOL    HW122226   1.838   1.153   6.807
 7109SOL    HW222227   1.737   1.026   6.789
 7110SOL     OW22228   3.058   5.901   4.130
 7110SOL    HW122229   2.995   5.932   4.058
 7110SOL    HW222230   3.007   5.848   4.198
 7111SOL     OW22231   1.931   2.122   4.315
 7111SOL    HW122232   1.880   2.126   4.229
 7111SOL    HW222233   1.963   2.213   4.339
 7112SOL     OW22234   1.653   5.052   4.650
 7112SOL    HW122235   1.597   4.984   4.603
 7112SOL    HW222236   1.598   5.135   4.666
 7113SOL     OW22237   3.356   4.096   5.097
 7113SOL    HW122238   3.333   4.097   5.194
 7113SOL    HW222239   3.440   4.149   5.082
 7114SOL     OW22240   4.551   5.041   1.396
 7114SOL    HW122241   4.512   5.009   1.482
 7114SOL    HW222242   4.530   5.138   1.384
 7115SOL     OW22243   5.460   3.344   6.516
 7115SOL    HW122244   5.391   3.380   6.453
 7115SOL    HW222245   5.452   3.389   6.605
 7116SOL     OW22246   5.373   4.102   3.241
 7116SOL    HW122247   5.452   4.103   3.180
 7116SOL    HW222248   5.403   4.123   3.334
 7117SOL     OW22249   0.355   0.029   4.706
 7117SOL    HW122250   0.314   0.059   4.620
 7117SOL    HW222251   0.388   6.966   4.698
 7118SOL     OW22252   3.787   4.142   5.563
 7118SOL    HW122253   3.740   4.070   5.512
 7118SOL    HW222254   3.746   4.231   5.541
 7119SOL     OW22255   5.451   0.729   5.125
 7119SOL    HW122256   5.447   0.722   5.026
 7119SOL    HW222257   5.436   0.639   5.166
 7120SOL     OW22258   3.709   1.666   1.369
 7120SOL    HW122259   3.654   1.582   1.369
 7120SOL    HW222260   3.780   1.660   1.439
 7121SOL     OW22261   0.460   6.813   2.809
 7121SOL    HW122262   0.516   6.835   2.888
 7121SOL    HW222263   0.476   6.879   2.736
 7122SOL     OW22264   1.474   0.707   5.682
 7122SOL    HW122265   1.436   0.710   5.774
 7122SOL    HW222266   1.517   0.795   5.660
 7123SOL     OW22267   0.779   5.378   3.881
 7123SOL    HW122268   0.698   5.427   3.914
 7123SOL    HW222269   0.854   5.389   3.947
 7124SOL     OW22270   0.866   2.689   1.719
 7124SOL    HW122271   0.880   2.781   1.684
 7124SOL    HW222272   0.927   2.673   1.797
 7125SOL     OW22273   1.344   1.029   0.866
 7125SOL    HW122274   1.441   1.003   0.864
 7125SOL    HW222275   1.337   1.128   0.869
 7126SOL     OW22276   4.277   6.188   0.496
 7126SOL    HW122277   4.294   6.117   0.565
 7126SOL    HW222278   4.262   6.276   0.542
 7127SOL     OW22279   2.597   6.208   6.184
 7127SOL    HW122280   2.603   6.168   6.275
 7127SOL    HW222281   2.549   6.146   6.122
 7128SOL     OW22282   3.777   4.145   6.661
 7128SOL    HW122283   3.682   4.118   6.644
 7128SOL    HW222284   3.833   4.064   6.677
 7129SOL     OW22285   1.859   1.225   1.165
 7129SOL    HW122286   1.857   1.267   1.256
 7129SOL    HW222287   1.916   1.143   1.167
 7130SOL     OW22288   3.816   6.515   4.604
 7130SOL    HW122289   3.723   6.479   4.617
 7130SOL    HW222290   3.879   6.466   4.665
 7131SOL     OW22291   3.228   0.950   1.637
 7131SOL    HW122292   3.137   0.989   1.650
 7131SOL    HW222293   3.234   0.909   1.546
 7132SOL     OW22294   4.577   4.122   0.387
 7132SOL    HW122295   4.581   4.108   0.486
 7132SOL    HW222296   4.624   4.046   0.341
 7133SOL     OW22297   4.277   4.845   4.990
 7133SOL    HW122298   4.212   4.830   5.065
 7133SOL    HW222299   4.226   4.870   4.907
 7134SOL     OW22300   5.062   6.525   2.393
 7134SOL    HW122301   5.020   6.582   2.463
 7134SOL    HW222302   5.095   6.440   2.435
 7135SOL     OW22303   2.225   2.857   2.877
 7135SOL    HW122304   2.138   2.906   2.884
 7135SOL    HW222305   2.239   2.803   2.959
 7136SOL     OW22306   3.148   2.009   0.896
 7136SOL    HW122307   3.205   1.957   0.960
 7136SOL    HW222308   3.110   2.089   0.943
 7137SOL     OW22309   2.954   2.022   0.272
 7137SOL    HW122310   2.884   2.075   0.319
 7137SOL    HW222311   2.983   1.947   0.331
 7138SOL     OW22312   1.962   1.423   0.982
 7138SOL    HW122313   1.929   1.363   1.055
 7138SOL    HW222314   1.994   1.509   1.022
 7139SOL     OW22315   5.407   4.679   2.371
 7139SOL    HW122316   5.411   4.697   2.272
 7139SOL    HW222317   5.409   4.766   2.420
 7140SOL     OW22318   6.303   4.123   0.822
 7140SOL    HW122319   6.372   4.069   0.871
 7140SOL    HW222320   6.216   4.074   0.823
 7141SOL     OW22321   4.510   7.013   0.991
 7141SOL    HW122322   4.506   6.981   1.086
 7141SOL    HW222323   4.419   7.007   0.950
 7142SOL     OW22324   3.840   6.895   4.177
 7142SOL    HW122325   3.742   6.873   4.177
 7142SOL    HW222326   3.891   6.819   4.219
 7143SOL     OW22327   1.821   3.769   0.135
 7143SOL    HW122328   1.738   3.754   0.189
 7143SOL    HW222329   1.803   3.746   0.039
 7144SOL     OW22330   0.940   0.815   3.305
 7144SOL    HW122331   0.948   0.856   3.214
 7144SOL    HW222332   1.020   0.841   3.360
 7145SOL     OW22333   4.302   0.926   6.826
 7145SOL    HW122334   4.389   0.923   6.875
 7145SOL    HW222335   4.306   0.999   6.758
 7146SOL     OW22336   1.739   1.368   6.167
 7146SOL    HW122337   1.656   1.425   6.170
 7146SOL    HW222338   1.769   1.348   6.260
 7147SOL     OW22339   6.683   6.060   3.300
 7147SOL    HW122340   6.666   6.111   3.216
 7147SOL    HW222341   6.781   6.051   3.316
 7148SOL     OW22342   5.978   5.970   1.626
 7148SOL    HW122343   6.028   5.896   1.582
 7148SOL    HW222344   5.880   5.953   1.620
 7149SOL     OW22345   0.585   5.201   3.733
 7149SOL    HW122346   0.502   5.234   3.688
 7149SOL    HW222347   0.657   5.271   3.727
 7150SOL     OW22348   3.420   3.105   0.437
 7150SOL    HW122349   3.409   3.116   0.536
 7150SOL    HW222350   3.365   3.027   0.407
 7151SOL     OW22351   3.042   6.556   1.152
 7151SOL    HW122352   3.031   6.486   1.081
 7151SOL    HW222353   3.058   6.645   1.109
 7152SOL     OW22354   6.276   0.517   6.743
 7152SOL    HW122355   6.197   0.477   6.696
 7152SOL    HW222356   6.353   0.453   6.738
 7153SOL     OW22357   3.850   5.330   1.671
 7153SOL    HW122358   3.839   5.246   1.724
 7153SOL    HW222359   3.898   5.398   1.726
 7154SOL     OW22360   4.513   6.914   3.228
 7154SOL    HW122361   4.494   7.011   3.210
 7154SOL    HW222362   4.584   6.882   3.165
 7155SOL     OW22363   3.317   3.104   1.309
 7155SOL    HW122364   3.343   3.195   1.339
 7155SOL    HW222365   3.326   3.098   1.209
 7156SOL     OW22366   4.926   3.637   2.670
 7156SOL    HW122367   4.911   3.724   2.718
 7156SOL    HW222368   4.923   3.653   2.571
 7157SOL     OW22369   6.769   4.532   1.867
 7157SOL    HW122370   6.800   4.437   1.863
 7157SOL    HW222371   6.767   4.570   1.774
 7158SOL     OW22372   0.228   6.662   2.801
 7158SOL    HW122373   0.303   6.725   2.819
 7158SOL    HW222374   0.151   6.712   2.762
 7159SOL     OW22375   1.141   4.466   4.206
 7159SOL    HW122376   1.203   4.394   4.239
 7159SOL    HW222377   1.117   4.526   4.283
 7160SOL     OW22378   5.958   6.209   2.324
 7160SOL    HW122379   5.876   6.238   2.373
 7160SOL    HW222380   5.963   6.109   2.324
 7161SOL     OW22381   3.108   4.012   2.911
 7161SOL    HW122382   3.076   3.967   2.995
 7161SOL    HW222383   3.147   3.944   2.849
 7162SOL     OW22384   0.524   4.900   6.567
 7162SOL    HW122385   0.548   4.845   6.647
 7162SOL    HW222386   0.545   4.849   6.484
 7163SOL     OW22387   2.973   0.525   2.611
 7163SOL    HW122388   2.989   0.570   2.523
 7163SOL    HW222389   2.965   0.595   2.683
 7164SOL     OW22390   1.553   0.383   5.037
 7164SOL    HW122391   1.517   0.463   5.085
 7164SOL    HW222392   1.481   0.315   5.025
 7165SOL     OW22393   5.684   5.977   1.597
 7165SOL    HW122394   5.704   6.062   1.647
 7165SOL    HW222395   5.620   5.922   1.651
 7166SOL     OW22396   5.085   1.244   6.573
 7166SOL    HW122397   5.027   1.180   6.522
 7166SOL    HW222398   5.040   1.270   6.658
 7167SOL     OW22399   4.905   2.944   5.205
 7167SOL    HW122400   4.898   2.863   5.264
 7167SOL    HW222401   4.842   2.933   5.128
 7168SOL     OW22402   3.007   2.079   3.002
 7168SOL    HW122403   3.030   2.175   3.021
 7168SOL    HW222404   3.060   2.019   3.062
 7169SOL     OW22405   0.255   4.109   4.527
 7169SOL    HW122406   0.320   4.172   4.571
 7169SOL    HW222407   0.275   4.103   4.429
 7170SOL     OW22408   4.060   6.540   2.544
 7170SOL    HW122409   3.973   6.563   2.500
 7170SOL    HW222410   4.047   6.538   2.643
 7171SOL     OW22411   6.146   3.822   0.743
 7171SOL    HW122412   6.150   3.805   0.841
 7171SOL    HW222413   6.215   3.766   0.697
 7172SOL     OW22414   2.155   1.745   5.476
 7172SOL    HW122415   2.163   1.839   5.443
 7172SOL    HW222416   2.127   1.745   5.572
 7173SOL     OW22417   6.205   5.291   6.776
 7173SOL    HW122418   6.238   5.199   6.758
 7173SOL    HW222419   6.278   5.346   6.817
 7174SOL     OW22420   0.127   4.796   0.796
 7174SOL    HW122421   0.104   4.855   0.718
 7174SOL    HW222422   0.057   4.726   0.808
 7175SOL     OW22423   0.225   3.478   5.279
 7175SOL    HW122424   0.290   3.502   5.207
 7175SOL    HW222425   0.228   3.379   5.295
 7176SOL     OW22426   6.811   1.389   4.733
 7176SOL    HW122427   6.716   1.410   4.758
 7176SOL    HW222428   6.827   1.415   4.638
 7177SOL     OW22429   1.323   4.958   5.414
 7177SOL    HW122430   1.232   4.925   5.438
 7177SOL    HW222431   1.390   4.922   5.479
 7178SOL     OW22432   0.644   1.358   6.214
 7178SOL    HW122433   0.564   1.308   6.249
 7178SOL    HW222434   0.680   1.310   6.134
 7179SOL     OW22435   1.834   3.681   4.519
 7179SOL    HW122436   1.767   3.639   4.457
 7179SOL    HW222437   1.841   3.626   4.602
 7180SOL     OW22438   2.261   3.828   0.850
 7180SOL    HW122439   2.336   3.875   0.803
 7180SOL    HW222440   2.181   3.822   0.789
 7181SOL     OW22441   2.272   1.277   6.696
 7181SOL    HW122442   2.307   1.230   6.615
 7181SOL    HW222443   2.332   1.259   6.774
 7182SOL     OW22444   0.715   3.579   3.518
 7182SOL    HW122445   0.804   3.613   3.549
 7182SOL    HW222446   0.726   3.528   3.433
 7183SOL     OW22447   1.834   6.541   2.303
 7183SOL    HW122448   1.928   6.539   2.267
 7183SOL    HW222449   1.771   6.562   2.228
 7184SOL     OW22450   6.413   0.807   3.958
 7184SOL    HW122451   6.429   0.722   3.908
 7184SOL    HW222452   6.498   0.861   3.959
 7185SOL     OW22453   5.323   0.756   5.525
 7185SOL    HW122454   5.389   0.754   5.601
 7185SOL    HW222455   5.334   0.842   5.475
 7186SOL     OW22456   6.973   1.373   1.489
 7186SOL    HW122457   0.014   1.364   1.419
 7186SOL    HW222458   7.008   1.342   1.577
 7187SOL     OW22459   2.759   3.697   5.362
 7187SOL    HW122460   2.771   3.693   5.461
 7187SOL    HW222461   2.709   3.780   5.337
 7188SOL     OW22462   4.920   5.492   0.030
 7188SOL    HW122463   4.835   5.526   7.021
 7188SOL    HW222464   4.913   5.393   0.045
 7189SOL     OW22465   6.565   3.210   5.684
 7189SOL    HW122466   6.536   3.125   5.640
 7189SOL    HW222467   6.544   3.288   5.624
 7190SOL     OW22468   6.145   5.948   1.151
 7190SOL    HW122469   6.234   5.945   1.198
 7190SOL    HW222470   6.160   5.944   1.052
 7191SOL     OW22471   0.312   4.460   3.011
 7191SOL    HW122472   0.388   4.488   3.069
 7191SOL    HW222473   0.347   4.407   2.933
 7192SOL     OW22474   1.521   4.097   6.343
 7192SOL    HW122475   1.566   4.185   6.355
 7192SOL    HW222476   1.422   4.112   6.333
 7193SOL     OW22477   2.456   1.729   2.910
 7193SOL    HW122478   2.522   1.748   2.982
 7193SOL    HW222479   2.505   1.697   2.828
 7194SOL     OW22480   1.931   2.893   0.364
 7194SOL    HW122481   1.963   2.887   0.270
 7194SOL    HW222482   1.853   2.831   0.377
 7195SOL     OW22483   6.517   4.689   6.701
 7195SOL    HW122484   6.474   4.725   6.617
 7195SOL    HW222485   6.584   4.620   6.676
 7196SOL     OW22486   2.994   4.039   1.853
 7196SOL    HW122487   3.011   4.135   1.835
 7196SOL    HW222488   2.992   3.988   1.766
 7197SOL     OW22489   0.897   3.449   5.036
 7197SOL    HW122490   0.916   3.374   5.099
 7197SOL    HW222491   0.806   3.486   5.053
 7198SOL     OW22492   0.784   1.040   0.028
 7198SOL    HW122493   0.786   0.993   0.116
 7198SOL    HW222494   0.793   0.973   6.985
 7199SOL     OW22495   1.239   0.151   3.111
 7199SOL    HW122496   1.284   0.235   3.080
 7199SOL    HW222497   1.204   0.164   3.204
 7200SOL     OW22498   1.776   3.242   6.915
 7200SOL    HW122499   1.872   3.232   6.942
 7200SOL    HW222500   1.734   3.151   6.906
 7201SOL     OW22501   0.478   5.773   4.175
 7201SOL    HW122502   0.470   5.861   4.221
 7201SOL    HW222503   0.507   5.704   4.241
 7202SOL     OW22504   5.016   6.336   6.352
 7202SOL    HW122505   5.029   6.385   6.439
 7202SOL    HW222506   5.092   6.272   6.339
 7203SOL     OW22507   0.157   1.148   1.921
 7203SOL    HW122508   0.060   1.173   1.919
 7203SOL    HW222509   0.212   1.228   1.898
 7204SOL     OW22510   6.850   1.276   6.550
 7204SOL    HW122511   6.795   1.198   6.521
 7204SOL    HW222512   6.827   1.355   6.494
 7205SOL     OW22513   1.899   3.650   4.950
 7205SOL    HW122514   1.988   3.637   4.994
 7205SOL    HW222515   1.868   3.744   4.965
 7206SOL     OW22516   1.310   1.274   1.362
 7206SOL    HW122517   1.351   1.183   1.364
 7206SOL    HW222518   1.374   1.339   1.319
 7207SOL     OW22519   2.759   0.911   4.730
 7207SOL    HW122520   2.794   0.818   4.740
 7207SOL    HW222521   2.680   0.911   4.669
 7208SOL     OW22522   4.969   0.762   3.660
 7208SOL    HW122523   4.883   0.813   3.671
 7208SOL    HW222524   5.011   0.749   3.750
 7209SOL     OW22525   2.193   2.901   1.967
 7209SOL    HW122526   2.191   2.922   1.869
 7209SOL    HW222527   2.237   2.812   1.982
 7210SOL     OW22528   3.811   2.081   4.290
 7210SOL    HW122529   3.886   2.146   4.278
 7210SOL    HW222530   3.750   2.085   4.211
 7211SOL     OW22531   2.943   6.106   5.101
 7211SOL    HW122532   3.011   6.063   5.041
 7211SOL    HW222533   2.951   6.068   5.193
 7212SOL     OW22534   0.632   6.016   5.674
 7212SOL    HW122535   0.651   6.093   5.734
 7212SOL    HW222536   0.558   6.040   5.611
 7213SOL     OW22537   3.340   6.301   6.139
 7213SOL    HW122538   3.370   6.247   6.060
 7213SOL    HW222539   3.314   6.240   6.214
 7214SOL     OW22540   6.636   1.052   5.455
 7214SOL    HW122541   6.682   0.976   5.407
 7214SOL    HW222542   6.610   1.122   5.389
 7215SOL     OW22543   5.399   2.877   4.526
 7215SOL    HW122544   5.381   2.878   4.624
 7215SOL    HW222545   5.328   2.930   4.479
 7216SOL     OW22546   3.070   6.436   2.574
 7216SOL    HW122547   3.107   6.476   2.658
 7216SOL    HW222548   3.071   6.336   2.582
 7217SOL     OW22549   1.804   3.181   3.230
 7217SOL    HW122550   1.827   3.276   3.208
 7217SOL    HW222551   1.887   3.126   3.231
 7218SOL     OW22552   6.730   2.676   4.367
 7218SOL    HW122553   6.822   2.651   4.338
 7218SOL    HW222554   6.735   2.740   4.443
 7219SOL     OW22555   2.867   0.271   1.920
 7219SOL    HW122556   2.843   0.250   1.826
 7219SOL    HW222557   2.891   0.368   1.928
 7220SOL     OW22558   6.320   4.278   4.028
 7220SOL    HW122559   6.311   4.375   4.004
 7220SOL    HW222560   6.339   4.225   3.946
 7221SOL     OW22561   3.789   6.145   4.746
 7221SOL    HW122562   3.828   6.217   4.804
 7221SOL    HW222563   3.692   6.136   4.764
 7222SOL     OW22564   6.076   6.172   3.574
 7222SOL    HW122565   6.093   6.079   3.606
 7222SOL    HW222566   6.069   6.233   3.653
 7223SOL     OW22567   2.913   0.948   1.190
 7223SOL    HW122568   2.853   0.879   1.231
 7223SOL    HW222569   2.906   1.032   1.243
 7224SOL     OW22570   4.842   3.005   4.850
 7224SOL    HW122571   4.830   3.090   4.900
 7224SOL    HW222572   4.939   2.988   4.835
 7225SOL     OW22573   2.059   6.478   0.929
 7225SOL    HW122574   2.028   6.571   0.909
 7225SOL    HW222575   1.983   6.414   0.913
 7226SOL     OW22576   5.821   6.906   1.202
 7226SOL    HW122577   5.733   6.924   1.158
 7226SOL    HW222578   5.814   6.827   1.262
 7227SOL     OW22579   2.609   1.904   1.972
 7227SOL    HW122580   2.522   1.898   1.923
 7227SOL    HW222581   2.647   1.996   1.961
 7228SOL     OW22582   1.304   1.328   2.860
 7228SOL    HW122583   1.375   1.257   2.851
 7228SOL    HW222584   1.215   1.289   2.837
 7229SOL     OW22585   0.864   6.721   4.496
 7229SOL    HW122586   0.954   6.730   4.537
 7229SOL    HW222587   0.806   6.664   4.555
 7230SOL     OW22588   3.246   5.980   3.673
 7230SOL    HW122589   3.242   6.067   3.722
 7230SOL    HW222590   3.330   5.931   3.698
 7231SOL     OW22591   4.167   0.520   6.616
 7231SOL    HW122592   4.246   0.486   6.667
 7231SOL    HW222593   4.146   0.613   6.646
 7232SOL     OW22594   4.922   6.060   3.120
 7232SOL    HW122595   4.878   6.090   3.205
 7232SOL    HW222596   4.903   6.125   3.047
 7233SOL     OW22597   1.282   0.846   5.124
 7233SOL    HW122598   1.208   0.792   5.164
 7233SOL    HW222599   1.293   0.930   5.177
 7234SOL     OW22600   5.689   2.952   3.378
 7234SOL    HW122601   5.702   3.045   3.343
 7234SOL    HW222602   5.622   2.904   3.323
 7235SOL     OW22603   6.423   4.104   2.219
 7235SOL    HW122604   6.417   4.006   2.201
 7235SOL    HW222605   6.513   4.125   2.256
 7236SOL     OW22606   2.792   2.358   2.589
 7236SOL    HW122607   2.777   2.298   2.511
 7236SOL    HW222608   2.827   2.306   2.666
 7237SOL     OW22609   4.272   6.999   6.332
 7237SOL    HW122610   4.276   6.991   6.233
 7237SOL    HW222611   4.335   6.932   6.373
 7238SOL     OW22612   4.441   2.161   6.126
 7238SOL    HW122613   4.444   2.077   6.072
 7238SOL    HW222614   4.458   2.239   6.067
 7239SOL     OW22615   0.723   2.718   2.002
 7239SOL    HW122616   0.658   2.650   2.039
 7239SOL    HW222617   0.806   2.671   1.973
 7240SOL     OW22618   0.085   1.671   6.485
 7240SOL    HW122619   0.105   1.640   6.391
 7240SOL    HW222620   0.144   1.747   6.508
 7241SOL     OW22621   2.646   0.264   0.814
 7241SOL    HW122622   2.586   0.338   0.844
 7241SOL    HW222623   2.673   0.279   0.719
 7242SOL     OW22624   6.810   5.715   6.382
 7242SOL    HW122625   6.796   5.742   6.286
 7242SOL    HW222626   6.806   5.615   6.389
 7243SOL     OW22627   6.970   4.391   6.007
 7243SOL    HW122628   6.918   4.377   5.922
 7243SOL    HW222629   6.907   4.391   6.084
 7244SOL     OW22630   0.365   0.505   1.334
 7244SOL    HW122631   0.290   0.554   1.378
 7244SOL    HW222632   0.374   0.535   1.239
 7245SOL     OW22633   1.322   3.174   5.406
 7245SOL    HW122634   1.327   3.168   5.307
 7245SOL    HW222635   1.258   3.106   5.441
 7246SOL     OW22636   1.838   0.072   3.439
 7246SOL    HW122637   1.762   0.136   3.429
 7246SOL    HW222638   1.840   0.009   3.361
 7247SOL     OW22639   2.693   1.410   4.993
 7247SOL    HW122640   2.737   1.496   5.020
 7247SOL    HW222641   2.754   1.359   4.933
 7248SOL     OW22642   3.049   1.021   2.521
 7248SOL    HW122643   3.109   1.079   2.575
 7248SOL    HW222644   3.069   1.034   2.424
 7249SOL     OW22645   5.208   4.942   1.807
 7249SOL    HW122646   5.248   4.919   1.896
 7249SOL    HW222647   5.199   4.859   1.752
 7250SOL     OW22648   5.459   5.617   5.739
 7250SOL    HW122649   5.532   5.574   5.792
 7250SOL    HW222650   5.495   5.697   5.692
 7251SOL     OW22651   1.088   6.753   5.137
 7251SOL    HW122652   1.003   6.804   5.127
 7251SOL    HW222653   1.134   6.780   5.221
 7252SOL     OW22654   3.268   3.760   1.865
 7252SOL    HW122655   3.275   3.675   1.813
 7252SOL    HW222656   3.180   3.763   1.912
 7253SOL     OW22657   1.637   5.521   6.904
 7253SOL    HW122658   1.676   5.445   6.956
 7253SOL    HW222659   1.623   5.599   6.966
 7254SOL     OW22660   5.631   5.354   4.659
 7254SOL    HW122661   5.538   5.386   4.639
 7254SOL    HW222662   5.632   5.306   4.747
 7255SOL     OW22663   4.500   3.914   0.039
 7255SOL    HW122664   4.442   3.994   0.028
 7255SOL    HW222665   4.468   3.841   7.009
 7256SOL     OW22666   3.271   5.934   5.297
 7256SOL    HW122667   3.322   5.905   5.378
 7256SOL    HW222668   3.311   6.018   5.261
 7257SOL     OW22669   6.941   1.880   3.560
 7257SOL    HW122670   6.976   1.972   3.577
 7257SOL    HW222671   6.843   1.884   3.542
 7258SOL     OW22672   4.896   2.551   3.162
 7258SOL    HW122673   4.985   2.539   3.205
 7258SOL    HW222674   4.846   2.464   3.163
 7259SOL     OW22675   1.708   3.487   1.883
 7259SOL    HW122676   1.792   3.537   1.862
 7259SOL    HW222677   1.635   3.552   1.904
 7260SOL     OW22678   5.491   1.620   1.871
 7260SOL    HW122679   5.555   1.647   1.943
 7260SOL    HW222680   5.452   1.530   1.892
 7261SOL     OW22681   1.292   4.419   1.964
 7261SOL    HW122682   1.328   4.430   2.056
 7261SOL    HW222683   1.322   4.332   1.926
 7262SOL     OW22684   5.630   2.316   6.536
 7262SOL    HW122685   5.667   2.402   6.500
 7262SOL    HW222686   5.677   2.294   6.622
 7263SOL     OW22687   0.628   7.021   6.969
 7263SOL    HW122688   0.595   6.930   6.942
 7263SOL    HW222689   0.594   0.059   6.904
 7264SOL     OW22690   5.275   1.525   0.644
 7264SOL    HW122691   5.326   1.476   0.574
 7264SOL    HW222692   5.294   1.623   0.637
 7265SOL     OW22693   5.408   5.008   6.481
 7265SOL    HW122694   5.391   4.935   6.547
 7265SOL    HW222695   5.442   5.089   6.528
 7266SOL     OW22696   5.521   0.381   2.848
 7266SOL    HW122697   5.517   0.409   2.944
 7266SOL    HW222698   5.500   0.459   2.789
 7267SOL     OW22699   6.415   6.154   4.872
 7267SOL    HW122700   6.504   6.118   4.845
 7267SOL    HW222701   6.352   6.079   4.888
 7268SOL     OW22702   6.571   5.527   4.168
 7268SOL    HW122703   6.495   5.559   4.111
 7268SOL    HW222704   6.638   5.480   4.110
 7269SOL     OW22705   1.537   6.061   5.763
 7269SOL    HW122706   1.476   5.992   5.723
 7269SOL    HW222707   1.501   6.152   5.744
 7270SOL     OW22708   0.799   2.722   5.090
 7270SOL    HW122709   0.899   2.723   5.089
 7270SOL    HW222710   0.764   2.762   5.005
 7271SOL     OW22711   1.353   5.104   3.983
 7271SOL    HW122712   1.378   5.186   4.035
 7271SOL    HW222713   1.324   5.132   3.891
 7272SOL     OW22714   6.285   5.512   2.651
 7272SOL    HW122715   6.342   5.450   2.597
 7272SOL    HW222716   6.258   5.591   2.596
 7273SOL     OW22717   6.597   4.288   1.014
 7273SOL    HW122718   6.551   4.372   0.986
 7273SOL    HW222719   6.680   4.276   0.958
 7274SOL     OW22720   0.576   5.350   6.442
 7274SOL    HW122721   0.523   5.268   6.464
 7274SOL    HW222722   0.521   5.410   6.383
 7275SOL     OW22723   0.122   5.802   2.872
 7275SOL    HW122724   0.061   5.881   2.863
 7275SOL    HW222725   0.137   5.761   2.782
 7276SOL     OW22726   4.758   0.265   3.144
 7276SOL    HW122727   4.771   0.259   3.243
 7276SOL    HW222728   4.810   0.192   3.100
 7277SOL     OW22729   5.237   0.484   4.321
 7277SOL    HW122730   5.330   0.516   4.303
 7277SOL    HW222731   5.207   0.425   4.246
 7278SOL     OW22732   4.038   2.686   1.116
 7278SOL    HW122733   4.109   2.620   1.092
 7278SOL    HW222734   3.956   2.638   1.147
 7279SOL     OW22735   3.910   4.873   6.649
 7279SOL    HW122736   3.874   4.791   6.604
 7279SOL    HW222737   3.853   4.952   6.627
 7280SOL     OW22738   0.306   1.705   3.816
 7280SOL    HW122739   0.231   1.748   3.765
 7280SOL    HW222740   0.386   1.766   3.815
 7281SOL     OW22741   2.685   1.946   6.773
 7281SOL    HW122742   2.619   1.953   6.847
 7281SOL    HW222743   2.745   2.026   6.774
 7282SOL     OW22744   5.550   5.130   3.325
 7282SOL    HW122745   5.514   5.134   3.232
 7282SOL    HW222746   5.571   5.035   3.349
 7283SOL     OW22747   4.468   1.333   2.616
 7283SOL    HW122748   4.382   1.383   2.627
 7283SOL    HW222749   4.509   1.315   2.706
 7284SOL     OW22750   0.462   2.645   6.241
 7284SOL    HW122751   0.523   2.665   6.318
 7284SOL    HW222752   0.368   2.637   6.275
 7285SOL     OW22753   5.277   3.386   2.388
 7285SOL    HW122754   5.196   3.369   2.445
 7285SOL    HW222755   5.252   3.375   2.292
 7286SOL     OW22756   2.679   0.913   0.637
 7286SOL    HW122757   2.628   0.998   0.634
 7286SOL    HW222758   2.669   0.865   0.550
 7287SOL     OW22759   0.280   2.462   6.030
 7287SOL    HW122760   0.246   2.388   6.090
 7287SOL    HW222761   0.376   2.480   6.050
 7288SOL     OW22762   2.733   0.982   0.905
 7288SOL    HW122763   2.661   0.932   0.953
 7288SOL    HW222764   2.718   0.975   0.806
 7289SOL     OW22765   4.711   2.711   4.623
 7289SOL    HW122766   4.711   2.611   4.616
 7289SOL    HW222767   4.709   2.751   4.531
 7290SOL     OW22768   3.674   6.988   5.268
 7290SOL    HW122769   3.614   0.006   5.333
 7290SOL    HW222770   3.762   0.005   5.262
 7291SOL     OW22771   2.260   6.698   0.738
 7291SOL    HW122772   2.186   6.641   0.703
 7291SOL    HW222773   2.346   6.647   0.736
 7292SOL     OW22774   3.459   1.088   3.536
 7292SOL    HW122775   3.367   1.124   3.553
 7292SOL    HW222776   3.484   1.025   3.610
 7293SOL     OW22777   1.262   1.955   4.799
 7293SOL    HW122778   1.338   2.000   4.846
 7293SOL    HW222779   1.239   1.870   4.846
 7294SOL     OW22780   2.592   4.979   6.680
 7294SOL    HW122781   2.672   4.921   6.698
 7294SOL    HW222782   2.590   5.003   6.583
 7295SOL     OW22783   0.280   2.879   0.979
 7295SOL    HW122784   0.208   2.810   0.964
 7295SOL    HW222785   0.309   2.877   1.074
 7296SOL     OW22786   3.284   5.636   2.109
 7296SOL    HW122787   3.298   5.725   2.151
 7296SOL    HW222788   3.194   5.632   2.066
 7297SOL     OW22789   4.017   0.227   1.682
 7297SOL    HW122790   4.047   0.320   1.705
 7297SOL    HW222791   3.930   0.208   1.728
 7298SOL     OW22792   5.373   4.751   5.592
 7298SOL    HW122793   5.315   4.772   5.513
 7298SOL    HW222794   5.319   4.704   5.662
 7299SOL     OW22795   1.149   2.078   0.022
 7299SOL    HW122796   1.221   2.081   6.983
 7299SOL    HW222797   1.070   2.129   7.020
 7300SOL     OW22798   0.443   6.206   3.409
 7300SOL    HW122799   0.385   6.280   3.444
 7300SOL    HW222800   0.385   6.137   3.365
 7301SOL     OW22801   5.304   1.113   4.901
 7301SOL    HW122802   5.344   1.204   4.904
 7301SOL    HW222803   5.365   1.051   4.850
 7302SOL     OW22804   0.864   2.188   5.137
 7302SOL    HW122805   0.926   2.123   5.093
 7302SOL    HW222806   0.861   2.272   5.083
 7303SOL     OW22807   3.870   0.489   0.288
 7303SOL    HW122808   3.840   0.560   0.352
 7303SOL    HW222809   3.950   0.521   0.237
 7304SOL     OW22810   3.675   5.368   1.292
 7304SOL    HW122811   3.750   5.348   1.230
 7304SOL    HW222812   3.705   5.433   1.362
 7305SOL     OW22813   4.601   1.212   0.102
 7305SOL    HW122814   4.637   1.296   0.062
 7305SOL    HW222815   4.664   1.177   0.171
 7306SOL     OW22816   5.000   1.583   0.720
 7306SOL    HW122817   4.960   1.648   0.656
 7306SOL    HW222818   5.087   1.549   0.684
 7307SOL     OW22819   2.320   6.841   2.441
 7307SOL    HW122820   2.287   6.878   2.527
 7307SOL    HW222821   2.404   6.887   2.414
 7308SOL     OW22822   0.219   2.969   5.525
 7308SOL    HW122823   0.254   2.979   5.432
 7308SOL    HW222824   0.160   3.047   5.548
 7309SOL     OW22825   4.445   5.788   1.824
 7309SOL    HW122826   4.543   5.802   1.837
 7309SOL    HW222827   4.423   5.692   1.839
 7310SOL     OW22828   2.683   4.107   1.244
 7310SOL    HW122829   2.696   4.203   1.223
 7310SOL    HW222830   2.620   4.098   1.321
 7311SOL     OW22831   2.394   1.831   1.406
 7311SOL    HW122832   2.318   1.876   1.358
 7311SOL    HW222833   2.399   1.735   1.378
 7312SOL     OW22834   0.515   3.559   4.370
 7312SOL    HW122835   0.526   3.616   4.289
 7312SOL    HW222836   0.600   3.560   4.423
 7313SOL     OW22837   2.444   1.179   6.891
 7313SOL    HW122838   2.424   1.085   6.917
 7313SOL    HW222839   2.530   1.208   6.933
 7314SOL     OW22840   0.261   5.852   5.914
 7314SOL    HW122841   0.282   5.758   5.886
 7314SOL    HW222842   0.165   5.871   5.896
 7315SOL     OW22843   6.561   0.097   2.316
 7315SOL    HW122844   6.490   0.135   2.256
 7315SOL    HW222845   6.551   7.029   2.322
 7316SOL     OW22846   2.652   4.279   6.539
 7316SOL    HW122847   2.631   4.362   6.487
 7316SOL    HW222848   2.623   4.199   6.488
 7317SOL     OW22849   5.037   1.417   2.961
 7317SOL    HW122850   5.068   1.323   2.976
 7317SOL    HW222851   5.112   1.480   2.979
 7318SOL     OW22852   2.274   0.922   1.512
 7318SOL    HW122853   2.232   0.849   1.458
 7318SOL    HW222854   2.214   0.947   1.588
 7319SOL     OW22855   0.384   3.870   6.400
 7319SOL    HW122856   0.371   3.965   6.372
 7319SOL    HW222857   0.296   3.822   6.397
 7320SOL     OW22858   6.738   3.555   2.385
 7320SOL    HW122859   6.664   3.488   2.382
 7320SOL    HW222860   6.814   3.520   2.439
 7321SOL     OW22861   1.939   0.762   6.072
 7321SOL    HW122862   1.952   0.838   6.008
 7321SOL    HW222863   2.021   0.751   6.128
 7322SOL     OW22864   6.903   2.801   3.264
 7322SOL    HW122865   6.950   2.792   3.352
 7322SOL    HW222866   6.816   2.752   3.267
 7323SOL     OW22867   1.474   2.382   1.901
 7323SOL    HW122868   1.408   2.329   1.848
 7323SOL    HW222869   1.562   2.335   1.901
 7324SOL     OW22870   4.881   6.030   2.430
 7324SOL    HW122871   4.866   6.016   2.332
 7324SOL    HW222872   4.847   6.120   2.457
 7325SOL     OW22873   3.481   6.828   0.612
 7325SOL    HW122874   3.474   6.906   0.549
 7325SOL    HW222875   3.391   6.786   0.624
 7326SOL     OW22876   3.116   6.203   5.692
 7326SOL    HW122877   3.167   6.251   5.620
 7326SOL    HW222878   3.111   6.261   5.773
 7327SOL     OW22879   6.024   1.378   6.439
 7327SOL    HW122880   5.968   1.459   6.459
 7327SOL    HW222881   6.017   1.357   6.342
 7328SOL     OW22882   2.891   0.965   6.155
 7328SOL    HW122883   2.976   0.993   6.199
 7328SOL    HW222884   2.870   1.028   6.080
 7329SOL     OW22885   6.323   3.845   1.519
 7329SOL    HW122886   6.272   3.859   1.434
 7329SOL    HW222887   6.394   3.776   1.504
 7330SOL     OW22888   2.479   2.602   0.260
 7330SOL    HW122889   2.402   2.645   0.214
 7330SOL    HW222890   2.447   2.520   0.307
 7331SOL     OW22891   5.388   6.379   1.607
 7331SOL    HW122892   5.419   6.472   1.624
 7331SOL    HW222893   5.302   6.381   1.557
 7332SOL     OW22894   2.689   6.333   0.310
 7332SOL    HW122895   2.626   6.256   0.322
 7332SOL    HW222896   2.647   6.403   0.254
 7333SOL     OW22897   0.545   3.103   2.345
 7333SOL    HW122898   0.594   3.185   2.317
 7333SOL    HW222899   0.597   3.022   2.316
 7334SOL     OW22900   2.573   5.771   6.162
 7334SOL    HW122901   2.645   5.802   6.100
 7334SOL    HW222902   2.490   5.752   6.110
 7335SOL     OW22903   1.866   2.375   2.830
 7335SOL    HW122904   1.954   2.412   2.801
 7335SOL    HW222905   1.796   2.400   2.763
 7336SOL     OW22906   1.754   6.557   2.859
 7336SOL    HW122907   1.794   6.615   2.930
 7336SOL    HW222908   1.806   6.568   2.774
 7337SOL     OW22909   6.914   3.218   1.859
 7337SOL    HW122910   6.936   3.153   1.785
 7337SOL    HW222911   6.963   3.303   1.844
 7338SOL     OW22912   6.335   1.576   1.716
 7338SOL    HW122913   6.249   1.622   1.698
 7338SOL    HW222914   6.346   1.562   1.814
 7339SOL     OW22915   5.669   6.447   4.150
 7339SOL    HW122916   5.671   6.444   4.250
 7339SOL    HW222917   5.579   6.416   4.117
 7340SOL     OW22918   2.920   1.624   1.218
 7340SOL    HW122919   2.824   1.620   1.246
 7340SOL    HW222920   2.931   1.698   1.151
 7341SOL     OW22921   0.394   3.433   6.421
 7341SOL    HW122922   0.412   3.365   6.349
 7341SOL    HW222923   0.480   3.475   6.450
 7342SOL     OW22924   0.383   2.088   1.281
 7342SOL    HW122925   0.291   2.125   1.279
 7342SOL    HW222926   0.404   2.054   1.373
 7343SOL     OW22927   6.128   3.783   1.026
 7343SOL    HW122928   6.144   3.687   1.049
 7343SOL    HW222929   6.177   3.841   1.091
 7344SOL     OW22930   0.840   1.216   6.336
 7344SOL    HW122931   0.779   1.295   6.327
 7344SOL    HW222932   0.827   1.155   6.257
 7345SOL     OW22933   3.901   4.422   5.769
 7345SOL    HW122934   3.970   4.462   5.828
 7345SOL    HW222935   3.882   4.328   5.798
 7346SOL     OW22936   4.092   5.362   2.271
 7346SOL    HW122937   4.079   5.271   2.231
 7346SOL    HW222938   4.075   5.357   2.370
 7347SOL     OW22939   1.043   1.543   0.689
 7347SOL    HW122940   1.030   1.462   0.633
 7347SOL    HW222941   0.960   1.598   0.689
 7348SOL     OW22942   1.506   4.181   4.077
 7348SOL    HW122943   1.516   4.095   4.129
 7348SOL    HW222944   1.590   4.235   4.087
 7349SOL     OW22945   4.706   1.326   1.569
 7349SOL    HW122946   4.733   1.247   1.513
 7349SOL    HW222947   4.615   1.309   1.608
 7350SOL     OW22948   2.739   2.374   5.498
 7350SOL    HW122949   2.745   2.421   5.410
 7350SOL    HW222950   2.653   2.399   5.544
 7351SOL     OW22951   5.511   5.699   4.675
 7351SOL    HW122952   5.563   5.701   4.590
 7351SOL    HW222953   5.574   5.701   4.753
 7352SOL     OW22954   1.604   1.564   2.909
 7352SOL    HW122955   1.578   1.536   2.817
 7352SOL    HW222956   1.651   1.489   2.955
 7353SOL     OW22957   0.051   0.219   6.051
 7353SOL    HW122958   0.050   0.157   6.130
 7353SOL    HW222959   0.119   0.188   5.985
 7354SOL     OW22960   1.024   1.652   4.445
 7354SOL    HW122961   0.943   1.705   4.470
 7354SOL    HW222962   1.077   1.704   4.377
 7355SOL     OW22963   1.528   0.419   0.867
 7355SOL    HW122964   1.488   0.343   0.816
 7355SOL    HW222965   1.502   0.413   0.963
 7356SOL     OW22966   3.760   3.480   6.242
 7356SOL    HW122967   3.729   3.402   6.296
 7356SOL    HW222968   3.808   3.545   6.301
 7357SOL     OW22969   3.263   6.878   1.682
 7357SOL    HW122970   3.268   6.900   1.780
 7357SOL    HW222971   3.274   6.962   1.629
 7358SOL     OW22972   6.194   2.971   2.821
 7358SOL    HW122973   6.100   2.961   2.851
 7358SOL    HW222974   6.226   2.885   2.781
 7359SOL     OW22975   4.181   1.988   5.797
 7359SOL    HW122976   4.223   2.078   5.804
 7359SOL    HW222977   4.221   1.938   5.721
 7360SOL     OW22978   3.013   3.065   5.513
 7360SOL    HW122979   3.015   3.045   5.415
 7360SOL    HW222980   2.918   3.074   5.543
 7361SOL     OW22981   5.168   0.890   2.402
 7361SOL    HW122982   5.263   0.907   2.430
 7361SOL    HW222983   5.144   0.952   2.327
 7362SOL     OW22984   1.454   5.898   6.513
 7362SOL    HW122985   1.477   5.859   6.602
 7362SOL    HW222986   1.354   5.905   6.505
 7363SOL     OW22987   4.537   1.914   1.361
 7363SOL    HW122988   4.538   1.841   1.293
 7363SOL    HW222989   4.462   1.977   1.340
 7364SOL     OW22990   4.636   0.679   1.983
 7364SOL    HW122991   4.537   0.668   1.988
 7364SOL    HW222992   4.671   0.635   1.900
 7365SOL     OW22993   0.627   6.080   2.234
 7365SOL    HW122994   0.601   6.019   2.159
 7365SOL    HW222995   0.551   6.141   2.255
 7366SOL     OW22996   2.116   6.427   6.144
 7366SOL    HW122997   2.137   6.469   6.056
 7366SOL    HW222998   2.107   6.499   6.213
 7367SOL     OW22999   4.800   2.885   1.294
 7367SOL    HW123000   4.734   2.946   1.249
 7367SOL    HW223001   4.883   2.936   1.315
 7368SOL     OW23002   3.912   3.004   2.822
 7368SOL    HW123003   3.919   3.032   2.918
 7368SOL    HW223004   3.953   3.074   2.763
 7369SOL     OW23005   3.200   1.978   0.496
 7369SOL    HW123006   3.120   1.933   0.457
 7369SOL    HW223007   3.172   2.043   0.566
 7370SOL     OW23008   2.306   1.106   5.285
 7370SOL    HW123009   2.229   1.047   5.258
 7370SOL    HW223010   2.329   1.167   5.210
 7371SOL     OW23011   2.638   6.905   3.549
 7371SOL    HW123012   2.581   6.823   3.538
 7371SOL    HW223013   2.734   6.880   3.537
 7372SOL     OW23014   4.494   0.648   4.010
 7372SOL    HW123015   4.396   0.644   4.028
 7372SOL    HW223016   4.520   0.574   3.947
 7373SOL     OW23017   6.037   1.423   3.836
 7373SOL    HW123018   6.011   1.403   3.742
 7373SOL    HW223019   5.993   1.509   3.865
 7374SOL     OW23020   2.533   1.837   4.974
 7374SOL    HW123021   2.584   1.799   4.896
 7374SOL    HW223022   2.590   1.834   5.056
 7375SOL     OW23023   2.074   2.041   2.259
 7375SOL    HW123024   2.115   2.092   2.335
 7375SOL    HW223025   2.034   1.956   2.293
 7376SOL     OW23026   1.560   1.765   1.066
 7376SOL    HW123027   1.519   1.782   1.156
 7376SOL    HW223028   1.568   1.667   1.051
 7377SOL     OW23029   5.367   4.936   0.508
 7377SOL    HW123030   5.302   4.878   0.458
 7377SOL    HW223031   5.422   4.988   0.444
 7378SOL     OW23032   0.165   0.570   5.213
 7378SOL    HW123033   0.140   0.494   5.273
 7378SOL    HW223034   0.099   0.578   5.139
 7379SOL     OW23035   3.226   1.760   2.402
 7379SOL    HW123036   3.308   1.716   2.437
 7379SOL    HW223037   3.206   1.724   2.310
 7380SOL     OW23038   0.206   4.394   3.827
 7380SOL    HW123039   0.217   4.458   3.902
 7380SOL    HW223040   0.244   4.433   3.743
 7381SOL     OW23041   4.466   3.251   0.652
 7381SOL    HW123042   4.485   3.197   0.734
 7381SOL    HW223043   4.377   3.224   0.615
 7382SOL     OW23044   0.507   1.054   4.935
 7382SOL    HW123045   0.426   1.113   4.942
 7382SOL    HW223046   0.589   1.109   4.947
 7383SOL     OW23047   2.910   6.562   0.810
 7383SOL    HW123048   2.994   6.549   0.862
 7383SOL    HW223049   2.900   6.489   0.742
 7384SOL     OW23050   6.653   6.575   2.469
 7384SOL    HW123051   6.556   6.561   2.452
 7384SOL    HW223052   6.705   6.549   2.387
 7385SOL     OW23053   3.430   5.231   2.297
 7385SOL    HW123054   3.394   5.202   2.385
 7385SOL    HW223055   3.423   5.156   2.231
 7386SOL     OW23056   0.040   2.445   7.007
 7386SOL    HW123057   7.020   2.401   0.051
 7386SOL    HW223058   0.045   2.543   7.024
 7387SOL     OW23059   6.536   5.310   5.691
 7387SOL    HW123060   6.602   5.385   5.690
 7387SOL    HW223061   6.540   5.262   5.778
 7388SOL     OW23062   1.141   5.440   1.841
 7388SOL    HW123063   1.192   5.521   1.869
 7388SOL    HW223064   1.206   5.368   1.815
 7389SOL     OW23065   6.204   4.099   6.221
 7389SOL    HW123066   6.287   4.152   6.204
 7389SOL    HW223067   6.127   4.161   6.239
 7390SOL     OW23068   1.845   2.613   1.906
 7390SOL    HW123069   1.901   2.605   1.824
 7390SOL    HW223070   1.875   2.546   1.974
 7391SOL     OW23071   4.092   3.524   3.731
 7391SOL    HW123072   4.112   3.600   3.793
 7391SOL    HW223073   4.108   3.437   3.778
 7392SOL     OW23074   3.194   5.911   6.499
 7392SOL    HW123075   3.103   5.926   6.539
 7392SOL    HW223076   3.262   5.905   6.571
 7393SOL     OW23077   6.486   4.381   2.781
 7393SOL    HW123078   6.412   4.315   2.795
 7393SOL    HW223079   6.509   4.384   2.684
 7394SOL     OW23080   1.786   3.024   5.869
 7394SOL    HW123081   1.803   2.949   5.933
 7394SOL    HW223082   1.848   3.015   5.791
 7395SOL     OW23083   1.922   3.636   1.304
 7395SOL    HW123084   1.930   3.735   1.289
 7395SOL    HW223085   2.012   3.594   1.290
 7396SOL     OW23086   2.299   6.531   1.415
 7396SOL    HW123087   2.326   6.442   1.451
 7396SOL    HW223088   2.251   6.519   1.329
 7397SOL     OW23089   4.768   5.888   4.813
 7397SOL    HW123090   4.687   5.831   4.805
 7397SOL    HW223091   4.849   5.834   4.791
 7398SOL     OW23092   1.444   4.837   3.362
 7398SOL    HW123093   1.347   4.859   3.372
 7398SOL    HW223094   1.474   4.782   3.440
 7399SOL     OW23095   0.657   2.728   4.629
 7399SOL    HW123096   0.614   2.788   4.561
 7399SOL    HW223097   0.619   2.635   4.620
 7400SOL     OW23098   3.915   2.762   5.943
 7400SOL    HW123099   3.995   2.793   5.994
 7400SOL    HW223100   3.833   2.810   5.975
 7401SOL     OW23101   1.212   2.733   3.425
 7401SOL    HW123102   1.288   2.791   3.455
 7401SOL    HW223103   1.240   2.679   3.346
 7402SOL     OW23104   3.309   4.504   6.023
 7402SOL    HW123105   3.382   4.564   5.990
 7402SOL    HW223106   3.267   4.457   5.945
 7403SOL     OW23107   1.450   4.464   2.199
 7403SOL    HW123108   1.488   4.415   2.278
 7403SOL    HW223109   1.523   4.514   2.153
 7404SOL     OW23110   2.958   4.558   1.569
 7404SOL    HW123111   3.033   4.621   1.550
 7404SOL    HW223112   2.947   4.547   1.667
 7405SOL     OW23113   3.433   5.138   4.301
 7405SOL    HW123114   3.502   5.093   4.358
 7405SOL    HW223115   3.477   5.177   4.221
 7406SOL     OW23116   0.388   2.219   3.834
 7406SOL    HW123117   0.479   2.199   3.798
 7406SOL    HW223118   0.320   2.171   3.780
 7407SOL     OW23119   0.790   6.902   5.056
 7407SOL    HW123120   0.714   6.949   5.102
 7407SOL    HW223121   0.767   6.888   4.960
 7408SOL     OW23122   3.368   4.007   6.319
 7408SOL    HW123123   3.340   4.077   6.385
 7408SOL    HW223124   3.287   3.966   6.278
 7409SOL     OW23125   5.204   3.357   6.858
 7409SOL    HW123126   5.172   3.404   6.940
 7409SOL    HW223127   5.186   3.414   6.778
 7410SOL     OW23128   0.394   0.578   0.512
 7410SOL    HW123129   0.354   0.637   0.583
 7410SOL    HW223130   0.490   0.601   0.500
 7411SOL     OW23131   2.338   1.144   0.223
 7411SOL    HW123132   2.419   1.096   0.189
 7411SOL    HW223133   2.288   1.184   0.147
 7412SOL     OW23134   4.146   0.599   1.352
 7412SOL    HW123135   4.082   0.606   1.429
 7412SOL    HW223136   4.236   0.630   1.382
 7413SOL     OW23137   4.454   4.892   4.006
 7413SOL    HW123138   4.530   4.957   4.012
 7413SOL    HW223139   4.371   4.933   4.043
 7414SOL     OW23140   1.880   0.732   3.191
 7414SOL    HW123141   1.894   0.745   3.290
 7414SOL    HW223142   1.939   0.795   3.141
 7415SOL     OW23143   2.025   4.427   4.505
 7415SOL    HW123144   1.957   4.354   4.512
 7415SOL    HW223145   2.094   4.402   4.437
 7416SOL     OW23146   2.124   0.586   2.037
 7416SOL    HW123147   2.169   0.665   1.995
 7416SOL    HW223148   2.188   0.510   2.044
 7417SOL     OW23149   2.139   2.411   1.089
 7417SOL    HW123150   2.220   2.451   1.045
 7417SOL    HW223151   2.078   2.374   1.019
 7418SOL     OW23152   1.554   5.214   0.372
 7418SOL    HW123153   1.488   5.174   0.309
 7418SOL    HW223154   1.539   5.313   0.379
 7419SOL     OW23155   6.539   4.068   4.251
 7419SOL    HW123156   6.470   4.140   4.238
 7419SOL    HW223157   6.612   4.079   4.184
 7420SOL     OW23158   0.206   6.645   1.522
 7420SOL    HW123159   0.278   6.698   1.568
 7420SOL    HW223160   0.246   6.562   1.483
 7421SOL     OW23161   4.589   3.565   0.968
 7421SOL    HW123162   4.656   3.595   1.037
 7421SOL    HW223163   4.528   3.497   1.009
 7422SOL     OW23164   0.048   4.421   1.934
 7422SOL    HW123165   7.004   4.361   1.904
 7422SOL    HW223166   0.035   4.445   2.030
 7423SOL     OW23167   5.796   2.780   5.855
 7423SOL    HW123168   5.720   2.823   5.806
 7423SOL    HW223169   5.852   2.851   5.899
 7424SOL     OW23170   6.665   1.589   5.856
 7424SOL    HW123171   6.719   1.601   5.773
 7424SOL    HW223172   6.568   1.594   5.832
 7425SOL     OW23173   5.103   0.047   0.332
 7425SOL    HW123174   5.008   0.076   0.319
 7425SOL    HW223175   5.149   0.046   0.244
 7426SOL     OW23176   3.007   1.885   5.192
 7426SOL    HW123177   3.053   1.871   5.279
 7426SOL    HW223178   2.992   1.982   5.176
 7427SOL     OW23179   5.121   0.992   4.149
 7427SOL    HW123180   5.125   0.931   4.228
 7427SOL    HW223181   5.027   0.996   4.114
 7428SOL     OW23182   4.033   1.246   5.159
 7428SOL    HW123183   4.082   1.268   5.244
 7428SOL    HW223184   4.096   1.256   5.081
 7429SOL     OW23185   0.671   6.348   4.116
 7429SOL    HW123186   0.695   6.430   4.064
 7429SOL    HW223187   0.741   6.278   4.103
 7430SOL     OW23188   0.775   3.931   1.129
 7430SOL    HW123189   0.849   3.865   1.141
 7430SOL    HW223190   0.711   3.897   1.061
 7431SOL     OW23191   0.469   2.340   3.194
 7431SOL    HW123192   0.523   2.258   3.178
 7431SOL    HW223193   0.522   2.421   3.171
 7432SOL     OW23194   2.182   0.492   3.414
 7432SOL    HW123195   2.090   0.460   3.438
 7432SOL    HW223196   2.247   0.416   3.421
 7433SOL     OW23197   3.943   6.335   6.485
 7433SOL    HW123198   4.037   6.323   6.453
 7433SOL    HW223199   3.944   6.350   6.584
 7434SOL     OW23200   5.079   5.314   5.401
 7434SOL    HW123201   5.118   5.340   5.312
 7434SOL    HW223202   5.007   5.246   5.387
 7435SOL     OW23203   4.629   6.213   1.162
 7435SOL    HW123204   4.652   6.160   1.080
 7435SOL    HW223205   4.684   6.296   1.165
 7436SOL     OW23206   4.485   4.513   6.340
 7436SOL    HW123207   4.579   4.534   6.316
 7436SOL    HW223208   4.465   4.417   6.317
 7437SOL     OW23209   2.552   6.146   0.117
 7437SOL    HW123210   2.507   6.085   0.052
 7437SOL    HW223211   2.651   6.130   0.115
 7438SOL     OW23212   0.871   6.513   0.054
 7438SOL    HW123213   0.939   6.521   0.126
 7438SOL    HW223214   0.903   6.448   7.015
 7439SOL     OW23215   1.837   6.589   6.170
 7439SOL    HW123216   1.737   6.593   6.177
 7439SOL    HW223217   1.863   6.523   6.100
 7440SOL     OW23218   6.853   2.642   3.661
 7440SOL    HW123219   6.858   2.563   3.723
 7440SOL    HW223220   6.822   2.722   3.712
 7441SOL     OW23221   5.675   0.515   4.438
 7441SOL    HW123222   5.612   0.496   4.363
 7441SOL    HW223223   5.769   0.493   4.410
 7442SOL     OW23224   5.772   1.879   6.901
 7442SOL    HW123225   5.862   1.876   6.944
 7442SOL    HW223226   5.771   1.950   6.830
 7443SOL     OW23227   6.332   5.823   1.383
 7443SOL    HW123228   6.376   5.902   1.424
 7443SOL    HW223229   6.388   5.742   1.399
 7444SOL     OW23230   5.305   2.403   6.825
 7444SOL    HW123231   5.237   2.332   6.803
 7444SOL    HW223232   5.261   2.475   6.878
 7445SOL     OW23233   3.191   0.594   1.268
 7445SOL    HW123234   3.190   0.563   1.363
 7445SOL    HW223235   3.181   0.515   1.207
 7446SOL     OW23236   5.787   3.072   0.134
 7446SOL    HW123237   5.832   2.993   0.176
 7446SOL    HW223238   5.699   3.087   0.179
 7447SOL     OW23239   6.594   4.971   6.560
 7447SOL    HW123240   6.666   5.024   6.605
 7447SOL    HW223241   6.541   4.921   6.629
 7448SOL     OW23242   6.275   6.668   4.867
 7448SOL    HW123243   6.364   6.709   4.890
 7448SOL    HW223244   6.278   6.570   4.887
 7449SOL     OW23245   0.856   4.928   1.143
 7449SOL    HW123246   0.872   4.946   1.045
 7449SOL    HW223247   0.805   5.004   1.183
 7450SOL     OW23248   5.311   2.472   4.702
 7450SOL    HW123249   5.386   2.511   4.756
 7450SOL    HW223250   5.279   2.540   4.636
 7451SOL     OW23251   6.647   6.251   2.504
 7451SOL    HW123252   6.698   6.336   2.491
 7451SOL    HW223253   6.601   6.227   2.419
 7452SOL     OW23254   5.587   5.670   4.094
 7452SOL    HW123255   5.539   5.753   4.067
 7452SOL    HW223256   5.657   5.692   4.162
 7453SOL     OW23257   5.158   4.983   4.804
 7453SOL    HW123258   5.119   4.892   4.793
 7453SOL    HW223259   5.250   4.984   4.764
 7454SOL     OW23260   1.798   2.215   0.960
 7454SOL    HW123261   1.862   2.291   0.946
 7454SOL    HW223262   1.786   2.165   0.874
 7455SOL     OW23263   6.662   2.970   1.879
 7455SOL    HW123264   6.658   2.874   1.909
 7455SOL    HW223265   6.589   3.021   1.924
 7456SOL     OW23266   2.042   0.969   4.817
 7456SOL    HW123267   1.981   1.047   4.833
 7456SOL    HW223268   2.015   0.894   4.877
 7457SOL     OW23269   3.015   0.403   4.968
 7457SOL    HW123270   2.973   0.468   5.031
 7457SOL    HW223271   2.970   0.409   4.879
 7458SOL     OW23272   1.831   0.547   6.289
 7458SOL    HW123273   1.831   0.621   6.222
 7458SOL    HW223274   1.885   0.470   6.255
 7459SOL     OW23275   5.505   0.922   2.438
 7459SOL    HW123276   5.515   0.906   2.537
 7459SOL    HW223277   5.550   0.848   2.388
 7460SOL     OW23278   0.723   5.521   0.497
 7460SOL    HW123279   0.695   5.449   0.560
 7460SOL    HW223280   0.737   5.482   0.406
 7461SOL     OW23281   6.192   0.125   6.565
 7461SOL    HW123282   6.157   0.212   6.598
 7461SOL    HW223283   6.207   0.063   6.642
 7462SOL     OW23284   1.518   4.721   2.411
 7462SOL    HW123285   1.460   4.701   2.332
 7462SOL    HW223286   1.467   4.703   2.495
 7463SOL     OW23287   2.869   4.072   0.348
 7463SOL    HW123288   2.784   4.101   0.392
 7463SOL    HW223289   2.925   4.153   0.330
 7464SOL     OW23290   5.623   6.978   5.649
 7464SOL    HW123291   5.711   6.996   5.605
 7464SOL    HW223292   5.557   6.950   5.579
 7465SOL     OW23293   2.633   5.259   6.753
 7465SOL    HW123294   2.703   5.270   6.682
 7465SOL    HW223295   2.578   5.178   6.733
 7466SOL     OW23296   6.925   0.786   5.094
 7466SOL    HW123297   6.903   0.845   5.016
 7466SOL    HW223298   7.024   0.779   5.104
 7467SOL     OW23299   0.205   2.067   5.894
 7467SOL    HW123300   0.269   2.084   5.969
 7467SOL    HW223301   0.197   1.969   5.878
 7468SOL     OW23302   5.398   2.888   4.103
 7468SOL    HW123303   5.403   2.806   4.160
 7468SOL    HW223304   5.391   2.861   4.007
 7469SOL     OW23305   7.001   0.362   6.517
 7469SOL    HW123306   6.940   0.343   6.441
 7469SOL    HW223307   0.050   0.301   6.512
 7470SOL     OW23308   5.399   3.336   3.662
 7470SOL    HW123309   5.366   3.416   3.613
 7470SOL    HW223310   5.380   3.254   3.609
 7471SOL     OW23311   5.058   6.809   6.058
 7471SOL    HW123312   5.015   6.835   5.972
 7471SOL    HW223313   5.157   6.800   6.044
 7472SOL     OW23314   6.502   1.027   5.720
 7472SOL    HW123315   6.588   0.980   5.741
 7472SOL    HW223316   6.494   1.038   5.621
 7473SOL     OW23317   5.053   5.468   3.861
 7473SOL    HW123318   5.134   5.485   3.804
 7473SOL    HW223319   4.972   5.465   3.803
 7474SOL     OW23320   7.010   1.992   6.415
 7474SOL    HW123321   7.017   1.987   6.315
 7474SOL    HW223322   6.915   2.010   6.441
 7475SOL     OW23323   4.390   2.391   1.967
 7475SOL    HW123324   4.461   2.342   1.916
 7475SOL    HW223325   4.333   2.442   1.903
 7476SOL     OW23326   3.101   0.996   3.021
 7476SOL    HW123327   3.103   1.056   3.100
 7476SOL    HW223328   3.190   0.998   2.974
 7477SOL     OW23329   6.172   2.358   5.053
 7477SOL    HW123330   6.225   2.346   5.137
 7477SOL    HW223331   6.121   2.274   5.034
 7478SOL     OW23332   6.214   3.700   5.528
 7478SOL    HW123333   6.183   3.622   5.474
 7478SOL    HW223334   6.175   3.695   5.620
 7479SOL     OW23335   4.289   2.091   1.961
 7479SOL    HW123336   4.341   2.166   2.001
 7479SOL    HW223337   4.262   2.027   2.034
 7480SOL     OW23338   1.431   4.982   2.401
 7480SOL    HW123339   1.455   4.886   2.415
 7480SOL    HW223340   1.335   4.995   2.421
 7481SOL     OW23341   5.979   5.194   1.058
 7481SOL    HW123342   5.982   5.146   0.971
 7481SOL    HW223343   5.996   5.130   1.133
 7482SOL     OW23344   4.550   2.544   2.946
 7482SOL    HW123345   4.638   2.529   2.900
 7482SOL    HW223346   4.477   2.545   2.878
 7483SOL     OW23347   4.913   3.439   4.751
 7483SOL    HW123348   4.899   3.463   4.655
 7483SOL    HW223349   4.857   3.499   4.809
 7484SOL     OW23350   1.922   6.131   4.563
 7484SOL    HW123351   1.841   6.182   4.593
 7484SOL    HW223352   1.991   6.133   4.636
 7485SOL     OW23353   2.603   0.474   4.910
 7485SOL    HW123354   2.520   0.481   4.855
 7485SOL    HW223355   2.683   0.471   4.850
 7486SOL     OW23356   1.418   6.534   6.911
 7486SOL    HW123357   1.499   6.477   6.898
 7486SOL    HW223358   1.405   6.551   7.008
 7487SOL     OW23359   2.733   0.860   3.351
 7487SOL    HW123360   2.737   0.955   3.321
 7487SOL    HW223361   2.806   0.808   3.306
 7488SOL     OW23362   2.426   5.216   5.019
 7488SOL    HW123363   2.369   5.246   5.095
 7488SOL    HW223364   2.473   5.131   5.043
 7489SOL     OW23365   6.646   3.319   6.324
 7489SOL    HW123366   6.580   3.245   6.336
 7489SOL    HW223367   6.607   3.388   6.262
 7490SOL     OW23368   1.484   0.536   3.523
 7490SOL    HW123369   1.574   0.561   3.487
 7490SOL    HW223370   1.476   0.568   3.618
 7491SOL     OW23371   4.537   3.334   6.638
 7491SOL    HW123372   4.548   3.357   6.734
 7491SOL    HW223373   4.602   3.386   6.583
 7492SOL     OW23374   2.408   0.529   3.609
 7492SOL    HW123375   2.497   0.536   3.564
 7492SOL    HW223376   2.336   0.522   3.540
 7493SOL     OW23377   0.177   2.293   6.236
 7493SOL    HW123378   0.270   2.291   6.273
 7493SOL    HW223379   0.116   2.336   6.303
 7494SOL     OW23380   6.014   1.559   3.529
 7494SOL    HW123381   6.023   1.461   3.510
 7494SOL    HW223382   5.918   1.581   3.547
 7495SOL     OW23383   0.889   3.081   6.468
 7495SOL    HW123384   0.951   3.152   6.502
 7495SOL    HW223385   0.833   3.118   6.394
 7496SOL     OW23386   5.977   3.533   4.053
 7496SOL    HW123387   5.916   3.464   4.012
 7496SOL    HW223388   6.071   3.499   4.052
 7497SOL     OW23389   1.754   4.678   1.588
 7497SOL    HW123390   1.735   4.721   1.499
 7497SOL    HW223391   1.706   4.590   1.592
 7498SOL     OW23392   3.252   0.997   4.525
 7498SOL    HW123393   3.154   1.001   4.543
 7498SOL    HW223394   3.290   1.090   4.523
 7499SOL     OW23395   4.563   2.447   3.215
 7499SOL    HW123396   4.649   2.398   3.212
 7499SOL    HW223397   4.547   2.492   3.126
 7500SOL     OW23398   3.855   5.674   3.069
 7500SOL    HW123399   3.842   5.575   3.079
 7500SOL    HW223400   3.912   5.708   3.143
 7501SOL     OW23401   5.079   4.383   4.372
 7501SOL    HW123402   4.995   4.355   4.418
 7501SOL    HW223403   5.158   4.358   4.428
 7502SOL     OW23404   3.599   0.669   4.607
 7502SOL    HW123405   3.520   0.692   4.551
 7502SOL    HW223406   3.645   0.753   4.637
 7503SOL     OW23407   2.459   6.723   1.501
 7503SOL    HW123408   2.398   6.802   1.501
 7503SOL    HW223409   2.406   6.640   1.482
 7504SOL     OW23410   0.881   6.476   3.635
 7504SOL    HW123411   0.916   6.383   3.633
 7504SOL    HW223412   0.906   6.519   3.722
 7505SOL     OW23413   1.240   2.304   6.176
 7505SOL    HW123414   1.274   2.358   6.253
 7505SOL    HW223415   1.266   2.208   6.188
 7506SOL     OW23416   5.255   2.261   3.827
 7506SOL    HW123417   5.248   2.350   3.871
 7506SOL    HW223418   5.345   2.222   3.843
 7507SOL     OW23419   5.946   1.815   2.332
 7507SOL    HW123420   5.879   1.885   2.304
 7507SOL    HW223421   5.898   1.739   2.374
 7508SOL     OW23422   2.168   5.618   0.646
 7508SOL    HW123423   2.107   5.586   0.573
 7508SOL    HW223424   2.119   5.681   0.706
 7509SOL     OW23425   6.135   4.153   0.569
 7509SOL    HW123426   6.214   4.096   0.588
 7509SOL    HW223427   6.071   4.103   0.510
 7510SOL     OW23428   3.757   3.620   4.723
 7510SOL    HW123429   3.814   3.688   4.678
 7510SOL    HW223430   3.687   3.666   4.778
 7511SOL     OW23431   3.113   6.028   3.423
 7511SOL    HW123432   3.146   6.004   3.515
 7511SOL    HW223433   3.133   6.124   3.404
 7512SOL     OW23434   2.790   1.011   6.479
 7512SOL    HW123435   2.798   1.056   6.569
 7512SOL    HW223436   2.807   1.078   6.407
 7513SOL     OW23437   1.397   1.065   1.651
 7513SOL    HW123438   1.384   1.064   1.552
 7513SOL    HW223439   1.309   1.082   1.696
 7514SOL     OW23440   2.419   4.844   2.665
 7514SOL    HW123441   2.493   4.795   2.619
 7514SOL    HW223442   2.455   4.925   2.710
 7515SOL     OW23443   6.803   4.847   4.375
 7515SOL    HW123444   6.711   4.882   4.390
 7515SOL    HW223445   6.841   4.889   4.292
 7516SOL     OW23446   0.151   5.513   6.134
 7516SOL    HW123447   0.117   5.426   6.171
 7516SOL    HW223448   0.246   5.501   6.104
 7517SOL     OW23449   0.721   2.123   0.127
 7517SOL    HW123450   0.713   2.068   0.210
 7517SOL    HW223451   0.659   2.201   0.133
 7518SOL     OW23452   4.878   3.498   4.479
 7518SOL    HW123453   4.957   3.559   4.483
 7518SOL    HW223454   4.844   3.495   4.385
 7519SOL     OW23455   6.767   6.263   5.259
 7519SOL    HW123456   6.799   6.193   5.195
 7519SOL    HW223457   6.811   6.350   5.238
 7520SOL     OW23458   2.420   0.378   2.978
 7520SOL    HW123459   2.367   0.462   2.963
 7520SOL    HW223460   2.378   0.325   3.052
 7521SOL     OW23461   5.391   2.706   5.469
 7521SOL    HW123462   5.345   2.749   5.391
 7521SOL    HW223463   5.331   2.637   5.509
 7522SOL     OW23464   1.252   0.995   6.071
 7522SOL    HW123465   1.344   1.006   6.108
 7522SOL    HW223466   1.257   0.986   5.972
 7523SOL     OW23467   4.974   0.799   6.605
 7523SOL    HW123468   5.046   0.827   6.540
 7523SOL    HW223469   4.908   0.741   6.557
 7524SOL     OW23470   0.648   2.627   5.299
 7524SOL    HW123471   0.725   2.644   5.237
 7524SOL    HW223472   0.651   2.533   5.332
 7525SOL     OW23473   4.100   6.887   0.227
 7525SOL    HW123474   4.086   6.983   0.203
 7525SOL    HW223475   4.107   6.878   0.326
 7526SOL     OW23476   2.876   3.055   1.773
 7526SOL    HW123477   2.855   3.144   1.815
 7526SOL    HW223478   2.949   3.010   1.824
 7527SOL     OW23479   3.285   5.772   4.099
 7527SOL    HW123480   3.196   5.814   4.118
 7527SOL    HW223481   3.275   5.673   4.094
 7528SOL     OW23482   6.172   2.299   6.171
 7528SOL    HW123483   6.214   2.210   6.191
 7528SOL    HW223484   6.211   2.337   6.088
 7529SOL     OW23485   5.958   1.763   4.864
 7529SOL    HW123486   5.903   1.723   4.790
 7529SOL    HW223487   6.054   1.738   4.851
 7530SOL     OW23488   6.105   1.826   1.921
 7530SOL    HW123489   6.108   1.778   2.009
 7530SOL    HW223490   6.164   1.906   1.925
 7531SOL     OW23491   5.333   3.121   4.239
 7531SOL    HW123492   5.375   3.203   4.200
 7531SOL    HW223493   5.378   3.040   4.201
 7532SOL     OW23494   4.868   6.097   0.570
 7532SOL    HW123495   4.870   6.126   0.666
 7532SOL    HW223496   4.816   6.165   0.517
 7533SOL     OW23497   3.567   1.969   1.939
 7533SOL    HW123498   3.625   2.051   1.937
 7533SOL    HW223499   3.472   1.996   1.957
 7534SOL     OW23500   4.817   5.686   4.258
 7534SOL    HW123501   4.750   5.611   4.258
 7534SOL    HW223502   4.882   5.672   4.332
 7535SOL     OW23503   1.730   6.798   4.934
 7535SOL    HW123504   1.754   6.765   4.843
 7535SOL    HW223505   1.745   6.725   5.001
 7536SOL     OW23506   4.881   5.157   4.162
 7536SOL    HW123507   4.955   5.224   4.153
 7536SOL    HW223508   4.829   5.176   4.245
 7537SOL     OW23509   1.653   5.075   2.777
 7537SOL    HW123510   1.568   5.032   2.808
 7537SOL    HW223511   1.635   5.127   2.694
 7538SOL     OW23512   1.710   2.363   1.610
 7538SOL    HW123513   1.667   2.451   1.592
 7538SOL    HW223514   1.795   2.356   1.558
 7539SOL     OW23515   1.538   3.948   4.213
 7539SOL    HW123516   1.567   3.875   4.152
 7539SOL    HW223517   1.513   3.909   4.302
 7540SOL     OW23518   4.219   0.523   4.731
 7540SOL    HW123519   4.122   0.541   4.713
 7540SOL    HW223520   4.268   0.515   4.645
 7541SOL     OW23521   0.484   4.041   5.461
 7541SOL    HW123522   0.524   4.090   5.539
 7541SOL    HW223523   0.518   4.082   5.376
 7542SOL     OW23524   7.012   6.172   0.381
 7542SOL    HW123525   0.041   6.101   0.343
 7542SOL    HW223526   7.000   6.158   0.479
 7543SOL     OW23527   3.437   1.102   5.498
 7543SOL    HW123528   3.349   1.110   5.450
 7543SOL    HW223529   3.480   1.015   5.473
 7544SOL     OW23530   6.200   2.536   4.710
 7544SOL    HW123531   6.287   2.569   4.675
 7544SOL    HW223532   6.173   2.590   4.790
 7545SOL     OW23533   0.904   6.145   6.244
 7545SOL    HW123534   0.930   6.190   6.159
 7545SOL    HW223535   0.882   6.213   6.313
 7546SOL     OW23536   4.899   2.119   1.319
 7546SOL    HW123537   4.919   2.024   1.345
 7546SOL    HW223538   4.812   2.122   1.270
 7547SOL     OW23539   5.183   1.465   1.158
 7547SOL    HW123540   5.274   1.489   1.123
 7547SOL    HW223541   5.113   1.492   1.092
 7548SOL     OW23542   4.912   2.370   6.088
 7548SOL    HW123543   4.840   2.366   6.157
 7548SOL    HW223544   4.931   2.279   6.052
 7549SOL     OW23545   3.342   3.421   6.303
 7549SOL    HW123546   3.257   3.425   6.250
 7549SOL    HW223547   3.386   3.511   6.301
 7550SOL     OW23548   1.662   4.462   3.768
 7550SOL    HW123549   1.743   4.412   3.798
 7550SOL    HW223550   1.614   4.499   3.847
 7551SOL     OW23551   6.092   2.894   5.235
 7551SOL    HW123552   6.015   2.952   5.262
 7551SOL    HW223553   6.141   2.864   5.317
 7552SOL     OW23554   1.695   5.737   3.920
 7552SOL    HW123555   1.754   5.657   3.929
 7552SOL    HW223556   1.619   5.716   3.858
 7553SOL     OW23557   4.634   6.972   5.758
 7553SOL    HW123558   4.631   6.967   5.658
 7553SOL    HW223559   4.602   0.032   5.788
 7554SOL     OW23560   4.717   0.950   6.492
 7554SOL    HW123561   4.721   0.857   6.455
 7554SOL    HW223562   4.737   0.948   6.590
 7555SOL     OW23563   3.295   5.501   6.514
 7555SOL    HW123564   3.220   5.513   6.580
 7555SOL    HW223565   3.382   5.499   6.563
 7556SOL     OW23566   2.513   2.009   7.001
 7556SOL    HW123567   2.464   2.090   6.968
 7556SOL    HW223568   2.598   2.037   0.015
 7557SOL     OW23569   4.839   0.802   6.086
 7557SOL    HW123570   4.809   0.713   6.050
 7557SOL    HW223571   4.779   0.873   6.051
 7558SOL     OW23572   2.253   3.072   4.245
 7558SOL    HW123573   2.334   3.016   4.264
 7558SOL    HW223574   2.197   3.078   4.327
 7559SOL     OW23575   3.658   3.101   5.802
 7559SOL    HW123576   3.688   3.031   5.867
 7559SOL    HW223577   3.582   3.153   5.841
 7560SOL     OW23578   5.559   0.101   0.085
 7560SOL    HW123579   5.622   0.035   0.126
 7560SOL    HW223580   5.467   0.063   0.083
 7561SOL     OW23581   7.027   3.141   5.552
 7561SOL    HW123582   0.000   3.236   5.584
 7561SOL    HW223583   6.942   3.126   5.502
 7562SOL     OW23584   0.502   4.739   5.269
 7562SOL    HW123585   0.549   4.651   5.278
 7562SOL    HW223586   0.546   4.794   5.198
 7563SOL     OW23587   3.061   6.705   1.488
 7563SOL    HW123588   2.967   6.708   1.452
 7563SOL    HW223589   3.063   6.748   1.579
 7564SOL     OW23590   3.820   0.207   4.737
 7564SOL    HW123591   3.821   0.168   4.829
 7564SOL    HW223592   3.726   0.216   4.706
 7565SOL     OW23593   5.553   3.993   6.168
 7565SOL    HW123594   5.526   3.932   6.093
 7565SOL    HW223595   5.542   3.946   6.255
 7566SOL     OW23596   5.639   5.155   2.214
 7566SOL    HW123597   5.731   5.152   2.176
 7566SOL    HW223598   5.574   5.118   2.147
 7567SOL     OW23599   1.511   1.022   6.148
 7567SOL    HW123600   1.554   0.976   6.226
 7567SOL    HW223601   1.582   1.056   6.086
 7568SOL     OW23602   5.731   4.693   2.221
 7568SOL    HW123603   5.722   4.736   2.311
 7568SOL    HW223604   5.718   4.595   2.230
 7569SOL     OW23605   2.639   4.829   5.951
 7569SOL    HW123606   2.610   4.768   5.877
 7569SOL    HW223607   2.648   4.777   6.036
 7570SOL     OW23608   5.283   4.043   4.224
 7570SOL    HW123609   5.354   4.091   4.276
 7570SOL    HW223610   5.194   4.084   4.243
 7571SOL     OW23611   4.817   3.865   3.424
 7571SOL    HW123612   4.723   3.836   3.442
 7571SOL    HW223613   4.880   3.794   3.454
 7572SOL     OW23614   5.020   0.688   3.084
 7572SOL    HW123615   5.064   0.655   3.001
 7572SOL    HW223616   4.954   0.620   3.115
 7573SOL     OW23617   6.419   0.319   5.270
 7573SOL    HW123618   6.385   0.390   5.333
 7573SOL    HW223619   6.342   0.276   5.225
 7574SOL     OW23620   5.738   0.814   4.861
 7574SOL    HW123621   5.721   0.746   4.790
 7574SOL    HW223622   5.825   0.794   4.906
 7575SOL     OW23623   5.711   0.100   6.863
 7575SOL    HW123624   5.703   0.004   6.890
 7575SOL    HW223625   5.665   0.157   6.931
 7576SOL     OW23626   4.859   3.258   0.324
 7576SOL    HW123627   4.787   3.190   0.335
 7576SOL    HW223628   4.872   3.308   0.410
 7577SOL     OW23629   0.336   6.393   6.408
 7577SOL    HW123630   0.252   6.447   6.419
 7577SOL    HW223631   0.358   6.348   6.494
 7578SOL     OW23632   2.917   5.301   2.379
 7578SOL    HW123633   2.954   5.283   2.471
 7578SOL    HW223634   2.976   5.257   2.311
 7579SOL     OW23635   0.216   1.579   1.393
 7579SOL    HW123636   0.186   1.500   1.340
 7579SOL    HW223637   0.230   1.552   1.488
 7580SOL     OW23638   0.588   4.155   3.388
 7580SOL    HW123639   0.651   4.218   3.431
 7580SOL    HW223640   0.587   4.068   3.439
 7581SOL     OW23641   0.928   1.685   1.428
 7581SOL    HW123642   0.878   1.765   1.396
 7581SOL    HW223643   1.018   1.683   1.385
 7582SOL     OW23644   4.134   1.829   3.702
 7582SOL    HW123645   4.217   1.780   3.729
 7582SOL    HW223646   4.157   1.923   3.678
 7583SOL     OW23647   5.238   2.913   2.137
 7583SOL    HW123648   5.234   2.988   2.072
 7583SOL    HW223649   5.223   2.826   2.090
 7584SOL     OW23650   1.508   0.174   2.783
 7584SOL    HW123651   1.577   0.197   2.715
 7584SOL    HW223652   1.496   0.250   2.846
 7585SOL     OW23653   1.472   2.782   5.859
 7585SOL    HW123654   1.445   2.879   5.860
 7585SOL    HW223655   1.526   2.762   5.941
 7586SOL     OW23656   1.890   6.631   3.468
 7586SOL    HW123657   1.888   6.536   3.501
 7586SOL    HW223658   1.802   6.674   3.490
 7587SOL     OW23659   2.885   1.618   6.611
 7587SOL    HW123660   2.984   1.614   6.602
 7587SOL    HW223661   2.843   1.567   6.536
 7588SOL     OW23662   2.428   2.339   3.358
 7588SOL    HW123663   2.451   2.282   3.280
 7588SOL    HW223664   2.446   2.435   3.336
 7589SOL     OW23665   0.605   0.622   2.834
 7589SOL    HW123666   0.570   0.529   2.835
 7589SOL    HW223667   0.536   0.683   2.796
 7590SOL     OW23668   5.021   1.738   6.860
 7590SOL    HW123669   5.064   1.763   6.773
 7590SOL    HW223670   5.080   1.766   6.935
 7591SOL     OW23671   5.150   4.400   0.077
 7591SOL    HW123672   5.071   4.352   0.115
 7591SOL    HW223673   5.196   4.451   0.150
 7592SOL     OW23674   6.169   5.297   4.138
 7592SOL    HW123675   6.158   5.396   4.139
 7592SOL    HW223676   6.132   5.259   4.223
 7593SOL     OW23677   6.884   2.955   6.825
 7593SOL    HW123678   6.822   3.015   6.875
 7593SOL    HW223679   6.882   2.979   6.728
 7594SOL     OW23680   2.191   4.525   1.603
 7594SOL    HW123681   2.162   4.429   1.603
 7594SOL    HW223682   2.260   4.540   1.673
 7595SOL     OW23683   6.344   3.568   6.291
 7595SOL    HW123684   6.293   3.643   6.250
 7595SOL    HW223685   6.417   3.539   6.229
 7596SOL     OW23686   3.134   6.930   4.398
 7596SOL    HW123687   3.130   6.842   4.446
 7596SOL    HW223688   3.226   6.967   4.404
 7597SOL     OW23689   2.147   6.517   3.065
 7597SOL    HW123690   2.209   6.517   2.987
 7597SOL    HW223691   2.090   6.435   3.062
 7598SOL     OW23692   5.928   0.356   3.515
 7598SOL    HW123693   5.911   0.448   3.480
 7598SOL    HW223694   6.026   0.337   3.512
 7599SOL     OW23695   5.502   1.778   1.604
 7599SOL    HW123696   5.547   1.867   1.615
 7599SOL    HW223697   5.513   1.724   1.688
 7600SOL     OW23698   0.969   0.956   4.225
 7600SOL    HW123699   0.885   0.915   4.259
 7600SOL    HW223700   0.994   1.034   4.282
 7601SOL     OW23701   2.588   4.659   2.148
 7601SOL    HW123702   2.536   4.576   2.163
 7601SOL    HW223703   2.664   4.640   2.087
 7602SOL     OW23704   1.139   3.121   6.797
 7602SOL    HW123705   1.039   3.116   6.799
 7602SOL    HW223706   1.171   3.173   6.876
 7603SOL     OW23707   2.429   6.138   6.763
 7603SOL    HW123708   2.376   6.222   6.750
 7603SOL    HW223709   2.393   6.067   6.702
 7604SOL     OW23710   0.840   2.409   4.978
 7604SOL    HW123711   0.882   2.496   5.003
 7604SOL    HW223712   0.821   2.407   4.880
 7605SOL     OW23713   1.193   0.552   0.614
 7605SOL    HW123714   1.230   0.564   0.706
 7605SOL    HW223715   1.230   0.468   0.574
 7606SOL     OW23716   5.426   3.035   4.845
 7606SOL    HW123717   5.380   3.122   4.830
 7606SOL    HW223718   5.518   3.038   4.804
 7607SOL     OW23719   4.604   5.351   0.287
 7607SOL    HW123720   4.597   5.440   0.242
 7607SOL    HW223721   4.687   5.348   0.343
 7608SOL     OW23722   5.157   3.079   0.812
 7608SOL    HW123723   5.087   3.039   0.872
 7608SOL    HW223724   5.200   3.007   0.758
 7609SOL     OW23725   1.579   3.505   4.353
 7609SOL    HW123726   1.648   3.447   4.396
 7609SOL    HW223727   1.576   3.485   4.255
 7610SOL     OW23728   4.037   4.867   6.067
 7610SOL    HW123729   3.970   4.798   6.095
 7610SOL    HW223730   4.005   4.912   5.984
 7611SOL     OW23731   5.230   4.115   1.157
 7611SOL    HW123732   5.323   4.104   1.191
 7611SOL    HW223733   5.165   4.096   1.231
 7612SOL     OW23734   4.798   2.816   2.784
 7612SOL    HW123735   4.770   2.756   2.859
 7612SOL    HW223736   4.758   2.782   2.698
 7613SOL     OW23737   0.442   1.677   1.273
 7613SOL    HW123738   0.360   1.645   1.321
 7613SOL    HW223739   0.514   1.607   1.279
 7614SOL     OW23740   5.640   3.343   1.424
 7614SOL    HW123741   5.672   3.290   1.502
 7614SOL    HW223742   5.555   3.390   1.448
 7615SOL     OW23743   4.755   4.452   6.467
 7615SOL    HW123744   4.722   4.456   6.562
 7615SOL    HW223745   4.845   4.496   6.461
 7616SOL     OW23746   6.746   6.716   4.366
 7616SOL    HW123747   6.680   6.770   4.418
 7616SOL    HW223748   6.699   6.643   4.316
 7617SOL     OW23749   4.564   6.489   3.546
 7617SOL    HW123750   4.547   6.574   3.496
 7617SOL    HW223751   4.648   6.498   3.599
 7618SOL     OW23752   0.990   2.867   6.604
 7618SOL    HW123753   1.085   2.898   6.612
 7618SOL    HW223754   0.937   2.935   6.553
 7619SOL     OW23755   0.114   3.192   4.553
 7619SOL    HW123756   0.093   3.269   4.493
 7619SOL    HW223757   0.104   3.220   4.648
 7620SOL     OW23758   4.078   5.920   1.632
 7620SOL    HW123759   4.171   5.923   1.596
 7620SOL    HW223760   4.051   6.011   1.664
 7621SOL     OW23761   0.160   0.882   0.911
 7621SOL    HW123762   0.212   0.963   0.884
 7621SOL    HW223763   0.083   0.869   0.847
 7622SOL     OW23764   4.974   4.838   6.396
 7622SOL    HW123765   4.932   4.847   6.487
 7622SOL    HW223766   5.064   4.795   6.405
 7623SOL     OW23767   4.415   4.554   1.104
 7623SOL    HW123768   4.321   4.589   1.108
 7623SOL    HW223769   4.474   4.608   1.164
 7624SOL     OW23770   7.018   3.690   3.645
 7624SOL    HW123771   0.038   3.649   3.569
 7624SOL    HW223772   0.042   3.763   3.686
 7625SOL     OW23773   5.902   1.587   6.755
 7625SOL    HW123774   5.851   1.664   6.794
 7625SOL    HW223775   5.943   1.533   6.828
 7626SOL     OW23776   6.591   0.664   5.892
 7626SOL    HW123777   6.568   0.623   5.804
 7626SOL    HW223778   6.579   0.596   5.964
 7627SOL     OW23779   3.227   2.495   0.250
 7627SOL    HW123780   3.258   2.415   0.199
 7627SOL    HW223781   3.143   2.473   0.300
 7628SOL     OW23782   3.649   3.001   1.722
 7628SOL    HW123783   3.741   3.003   1.760
 7628SOL    HW223784   3.604   3.089   1.739
 7629SOL     OW23785   0.204   4.109   3.219
 7629SOL    HW123786   0.160   4.131   3.131
 7629SOL    HW223787   0.193   4.012   3.238
 7630SOL     OW23788   1.200   0.552   6.892
 7630SOL    HW123789   1.228   0.467   6.935
 7630SOL    HW223790   1.278   0.614   6.886
 7631SOL     OW23791   1.215   1.269   5.439
 7631SOL    HW123792   1.117   1.282   5.455
 7631SOL    HW223793   1.254   1.352   5.398
 7632SOL     OW23794   4.554   4.426   0.899
 7632SOL    HW123795   4.603   4.494   0.844
 7632SOL    HW223796   4.520   4.469   0.982
 7633SOL     OW23797   5.222   0.717   1.476
 7633SOL    HW123798   5.171   0.660   1.411
 7633SOL    HW223799   5.167   0.795   1.503
 7634SOL     OW23800   2.619   1.290   1.438
 7634SOL    HW123801   2.625   1.374   1.492
 7634SOL    HW223802   2.562   1.306   1.358
 7635SOL     OW23803   3.260   4.952   4.527
 7635SOL    HW123804   3.168   4.962   4.567
 7635SOL    HW223805   3.258   4.979   4.431
 7636SOL     OW23806   1.074   3.395   3.696
 7636SOL    HW123807   1.089   3.477   3.641
 7636SOL    HW223808   0.981   3.362   3.683
 7637SOL     OW23809   2.600   5.996   2.772
 7637SOL    HW123810   2.542   6.033   2.844
 7637SOL    HW223811   2.634   5.906   2.800
 7638SOL     OW23812   1.650   5.688   2.640
 7638SOL    HW123813   1.574   5.699   2.705
 7638SOL    HW223814   1.635   5.605   2.586
 7639SOL     OW23815   0.339   1.083   0.803
 7639SOL    HW123816   0.366   1.082   0.899
 7639SOL    HW223817   0.380   1.162   0.757
 7640SOL     OW23818   2.450   2.856   6.662
 7640SOL    HW123819   2.380   2.884   6.596
 7640SOL    HW223820   2.535   2.907   6.644
 7641SOL     OW23821   6.925   3.478   2.613
 7641SOL    HW123822   6.850   3.542   2.620
 7641SOL    HW223823   6.899   3.391   2.654
 7642SOL     OW23824   4.928   1.200   2.233
 7642SOL    HW123825   4.961   1.217   2.140
 7642SOL    HW223826   4.982   1.253   2.298
 7643SOL     OW23827   5.037   1.436   2.687
 7643SOL    HW123828   5.106   1.491   2.640
 7643SOL    HW223829   5.060   1.429   2.784
 7644SOL     OW23830   4.940   2.830   1.992
 7644SOL    HW123831   5.002   2.815   2.069
 7644SOL    HW223832   4.868   2.894   2.019
 7645SOL     OW23833   4.786   3.757   5.959
 7645SOL    HW123834   4.743   3.717   6.039
 7645SOL    HW223835   4.872   3.800   5.985
 7646SOL     OW23836   0.514   2.500   3.645
 7646SOL    HW123837   0.505   2.584   3.698
 7646SOL    HW223838   0.610   2.471   3.643
 7647SOL     OW23839   0.081   2.629   4.719
 7647SOL    HW123840   0.101   2.634   4.817
 7647SOL    HW223841   0.024   2.707   4.693
 7648SOL     OW23842   2.154   1.643   2.303
 7648SOL    HW123843   2.077   1.598   2.349
 7648SOL    HW223844   2.232   1.648   2.366
 7649SOL     OW23845   1.723   0.967   4.105
 7649SOL    HW123846   1.692   1.007   4.191
 7649SOL    HW223847   1.784   0.890   4.124
 7650SOL     OW23848   6.092   0.527   0.742
 7650SOL    HW123849   6.002   0.573   0.741
 7650SOL    HW223850   6.157   0.582   0.690
 7651SOL     OW23851   2.163   6.767   4.946
 7651SOL    HW123852   2.253   6.774   4.904
 7651SOL    HW223853   2.124   6.858   4.959
 7652SOL     OW23854   5.343   2.026   5.119
 7652SOL    HW123855   5.378   2.048   5.028
 7652SOL    HW223856   5.411   2.051   5.188
 7653SOL     OW23857   1.271   1.517   0.522
 7653SOL    HW123858   1.204   1.548   0.589
 7653SOL    HW223859   1.225   1.494   0.436
 7654SOL     OW23860   5.128   3.036   4.371
 7654SOL    HW123861   5.193   3.101   4.332
 7654SOL    HW223862   5.046   3.086   4.400
 7655SOL     OW23863   3.975   0.109   3.637
 7655SOL    HW123864   3.987   0.208   3.631
 7655SOL    HW223865   3.972   0.070   3.545
 7656SOL     OW23866   4.398   3.745   6.454
 7656SOL    HW123867   4.323   3.714   6.395
 7656SOL    HW223868   4.380   3.839   6.483
 7657SOL     OW23869   2.261   2.355   3.717
 7657SOL    HW123870   2.190   2.320   3.655
 7657SOL    HW223871   2.231   2.343   3.812
 7658SOL     OW23872   2.470   0.443   0.601
 7658SOL    HW123873   2.444   0.421   0.695
 7658SOL    HW223874   2.476   0.543   0.590
 7659SOL     OW23875   4.556   4.593   0.323
 7659SOL    HW123876   4.530   4.558   0.413
 7659SOL    HW223877   4.563   4.516   0.259
 7660SOL     OW23878   6.893   5.871   4.106
 7660SOL    HW123879   6.837   5.917   4.175
 7660SOL    HW223880   6.843   5.867   4.020
 7661SOL     OW23881   5.507   2.310   5.544
 7661SOL    HW123882   5.593   2.343   5.504
 7661SOL    HW223883   5.475   2.376   5.613
 7662SOL     OW23884   1.049   2.464   3.301
 7662SOL    HW123885   1.142   2.426   3.295
 7662SOL    HW223886   0.985   2.391   3.324
 7663SOL     OW23887   5.409   5.036   6.214
 7663SOL    HW123888   5.502   5.007   6.192
 7663SOL    HW223889   5.400   5.047   6.313
 7664SOL     OW23890   4.118   1.254   2.365
 7664SOL    HW123891   4.129   1.204   2.279
 7664SOL    HW223892   4.021   1.264   2.386
 7665SOL     OW23893   5.625   0.972   5.049
 7665SOL    HW123894   5.674   0.925   4.976
 7665SOL    HW223895   5.551   0.913   5.082
 7666SOL     OW23896   0.779   4.873   3.446
 7666SOL    HW123897   0.728   4.958   3.435
 7666SOL    HW223898   0.815   4.868   3.540
 7667SOL     OW23899   4.284   0.276   2.307
 7667SOL    HW123900   4.271   0.243   2.214
 7667SOL    HW223901   4.381   0.273   2.331
 7668SOL     OW23902   2.757   5.122   0.969
 7668SOL    HW123903   2.838   5.171   0.937
 7668SOL    HW223904   2.684   5.188   0.990
 7669SOL     OW23905   4.400   1.044   5.466
 7669SOL    HW123906   4.400   1.000   5.377
 7669SOL    HW223907   4.404   0.975   5.538
 7670SOL     OW23908   1.251   5.719   0.606
 7670SOL    HW123909   1.152   5.726   0.610
 7670SOL    HW223910   1.284   5.670   0.687
 7671SOL     OW23911   3.912   0.678   2.118
 7671SOL    HW123912   3.813   0.665   2.116
 7671SOL    HW223913   3.940   0.736   2.042
 7672SOL     OW23914   6.965   5.451   3.353
 7672SOL    HW123915   6.906   5.504   3.292
 7672SOL    HW223916   6.961   5.489   3.445
 7673SOL     OW23917   1.648   5.516   2.332
 7673SOL    HW123918   1.669   5.471   2.245
 7673SOL    HW223919   1.604   5.604   2.315
 7674SOL     OW23920   4.835   1.022   4.063
 7674SOL    HW123921   4.822   1.024   4.162
 7674SOL    HW223922   4.749   0.999   4.018
 7675SOL     OW23923   5.907   6.382   3.340
 7675SOL    HW123924   5.895   6.288   3.373
 7675SOL    HW223925   5.876   6.446   3.410
 7676SOL     OW23926   3.217   2.569   6.382
 7676SOL    HW123927   3.267   2.590   6.298
 7676SOL    HW223928   3.148   2.499   6.363
 7677SOL     OW23929   0.865   4.323   1.092
 7677SOL    HW123930   0.878   4.329   0.993
 7677SOL    HW223931   0.776   4.282   1.111
 7678SOL     OW23932   2.393   2.644   5.492
 7678SOL    HW123933   2.322   2.620   5.425
 7678SOL    HW223934   2.483   2.643   5.448
 7679SOL     OW23935   2.286   5.430   5.766
 7679SOL    HW123936   2.333   5.484   5.836
 7679SOL    HW223937   2.300   5.474   5.677
 7680SOL     OW23938   1.574   0.562   0.591
 7680SOL    HW123939   1.617   0.475   0.614
 7680SOL    HW223940   1.614   0.635   0.647
 7681SOL     OW23941   2.967   1.164   0.329
 7681SOL    HW123942   2.970   1.240   0.264
 7681SOL    HW223943   3.059   1.144   0.362
 7682SOL     OW23944   4.656   0.728   2.254
 7682SOL    HW123945   4.689   0.820   2.276
 7682SOL    HW223946   4.624   0.725   2.160
 7683SOL     OW23947   0.260   1.645   4.848
 7683SOL    HW123948   0.247   1.732   4.801
 7683SOL    HW223949   0.180   1.587   4.833
 7684SOL     OW23950   4.396   2.039   1.006
 7684SOL    HW123951   4.365   1.944   1.005
 7684SOL    HW223952   4.380   2.078   1.097
 7685SOL     OW23953   3.065   1.724   6.340
 7685SOL    HW123954   3.047   1.717   6.242
 7685SOL    HW223955   3.069   1.821   6.366
 7686SOL     OW23956   6.789   0.022   3.912
 7686SOL    HW123957   6.689   0.020   3.900
 7686SOL    HW223958   6.817   6.973   3.966
 7687SOL     OW23959   5.204   5.175   4.533
 7687SOL    HW123960   5.241   5.265   4.555
 7687SOL    HW223961   5.187   5.124   4.618
 7688SOL     OW23962   0.185   6.166   5.521
 7688SOL    HW123963   0.203   6.256   5.560
 7688SOL    HW223964   0.087   6.155   5.507
 7689SOL     OW23965   5.455   6.219   2.775
 7689SOL    HW123966   5.532   6.179   2.825
 7689SOL    HW223967   5.472   6.316   2.759
 7690SOL     OW23968   4.882   5.399   0.707
 7690SOL    HW123969   4.919   5.491   0.694
 7690SOL    HW223970   4.930   5.354   0.782
 7691SOL     OW23971   5.730   3.766   2.433
 7691SOL    HW123972   5.784   3.683   2.443
 7691SOL    HW223973   5.649   3.760   2.492
 7692SOL     OW23974   0.805   5.992   1.952
 7692SOL    HW123975   0.860   5.937   2.015
 7692SOL    HW223976   0.827   6.088   1.964
 7693SOL     OW23977   2.795   0.620   1.130
 7693SOL    HW123978   2.824   0.627   1.225
 7693SOL    HW223979   2.866   0.658   1.071
 7694SOL     OW23980   5.865   2.719   3.765
 7694SOL    HW123981   5.784   2.686   3.715
 7694SOL    HW223982   5.929   2.644   3.778
 7695SOL     OW23983   5.754   0.867   1.498
 7695SOL    HW123984   5.762   0.916   1.584
 7695SOL    HW223985   5.663   0.826   1.491
 7696SOL     OW23986   6.647   1.829   6.215
 7696SOL    HW123987   6.571   1.775   6.252
 7696SOL    HW223988   6.621   1.866   6.126
 7697SOL     OW23989   2.712   1.072   2.784
 7697SOL    HW123990   2.650   1.043   2.857
 7697SOL    HW223991   2.710   1.006   2.710
 7698SOL     OW23992   6.241   1.283   4.721
 7698SOL    HW123993   6.256   1.184   4.710
 7698SOL    HW223994   6.291   1.333   4.651
 7699SOL     OW23995   2.689   5.222   6.229
 7699SOL    HW123996   2.696   5.315   6.265
 7699SOL    HW223997   2.594   5.203   6.206
 7700SOL     OW23998   4.414   5.797   3.446
 7700SOL    HW123999   4.370   5.719   3.491
 7700SOL    HW224000   4.510   5.803   3.475
 7701SOL     OW24001   0.443   2.545   6.760
 7701SOL    HW124002   0.347   2.523   6.744
 7701SOL    HW224003   0.467   2.522   6.855
 7702SOL     OW24004   4.834   5.613   5.144
 7702SOL    HW124005   4.828   5.602   5.243
 7702SOL    HW224006   4.744   5.601   5.102
 7703SOL     OW24007   6.524   6.205   6.237
 7703SOL    HW124008   6.596   6.273   6.242
 7703SOL    HW224009   6.563   6.114   6.253
 7704SOL     OW24010   6.012   1.291   3.416
 7704SOL    HW124011   5.934   1.263   3.472
 7704SOL    HW224012   5.981   1.303   3.321
 7705SOL     OW24013   2.532   6.077   1.490
 7705SOL    HW124014   2.478   6.002   1.450
 7705SOL    HW224015   2.609   6.039   1.541
 7706SOL     OW24016   4.027   3.210   4.453
 7706SOL    HW124017   3.947   3.264   4.426
 7706SOL    HW224018   4.013   3.114   4.426
 7707SOL     OW24019   0.574   4.570   6.488
 7707SOL    HW124020   0.670   4.547   6.473
 7707SOL    HW224021   0.550   4.651   6.436
 7708SOL     OW24022   1.905   6.453   4.603
 7708SOL    HW124023   1.905   6.443   4.504
 7708SOL    HW224024   1.818   6.420   4.640
 7709SOL     OW24025   6.954   4.946   1.978
 7709SOL    HW124026   7.016   4.909   2.047
 7709SOL    HW224027   6.873   4.888   1.971
 7710SOL     OW24028   1.599   2.383   0.670
 7710SOL    HW124029   1.555   2.380   0.760
 7710SOL    HW224030   1.534   2.351   0.601
 7711SOL     OW24031   5.650   5.866   5.640
 7711SOL    HW124032   5.637   5.873   5.738
 7711SOL    HW224033   5.586   5.926   5.593
 7712SOL     OW24034   6.235   5.202   0.515
 7712SOL    HW124035   6.155   5.236   0.465
 7712SOL    HW224036   6.303   5.168   0.450
 7713SOL     OW24037   1.693   3.443   0.636
 7713SOL    HW124038   1.777   3.439   0.581
 7713SOL    HW224039   1.704   3.386   0.718
 7714SOL     OW24040   0.506   5.548   4.648
 7714SOL    HW124041   0.487   5.462   4.602
 7714SOL    HW224042   0.420   5.596   4.667
 7715SOL     OW24043   2.737   2.736   6.504
 7715SOL    HW124044   2.644   2.699   6.502
 7715SOL    HW224045   2.772   2.743   6.410
 7716SOL     OW24046   6.688   4.805   0.718
 7716SOL    HW124047   6.709   4.758   0.632
 7716SOL    HW224048   6.589   4.808   0.731
 7717SOL     OW24049   1.347   1.906   5.662
 7717SOL    HW124050   1.247   1.909   5.665
 7717SOL    HW224051   1.383   2.000   5.670
 7718SOL     OW24052   6.495   4.140   3.175
 7718SOL    HW124053   6.410   4.190   3.163
 7718SOL    HW224054   6.556   4.193   3.235
 7719SOL     OW24055   1.333   3.815   4.615
 7719SOL    HW124056   1.318   3.740   4.679
 7719SOL    HW224057   1.272   3.891   4.638
 7720SOL     OW24058   6.449   2.506   5.941
 7720SOL    HW124059   6.432   2.588   5.996
 7720SOL    HW224060   6.547   2.484   5.943
 7721SOL     OW24061   0.735   5.994   2.490
 7721SOL    HW124062   0.696   5.994   2.398
 7721SOL    HW224063   0.720   6.083   2.533
 7722SOL     OW24064   1.830   4.653   3.456
 7722SOL    HW124065   1.804   4.703   3.373
 7722SOL    HW224066   1.850   4.558   3.433
 7723SOL     OW24067   3.931   3.914   6.693
 7723SOL    HW124068   3.873   3.845   6.652
 7723SOL    HW224069   3.993   3.871   6.758
 7724SOL     OW24070   3.249   4.535   0.355
 7724SOL    HW124071   3.214   4.628   0.347
 7724SOL    HW224072   3.177   4.469   0.334
 7725SOL     OW24073   6.160   1.928   2.918
 7725SOL    HW124074   6.217   1.891   2.845
 7725SOL    HW224075   6.127   2.019   2.893
 7726SOL     OW24076   1.594   3.836   6.489
 7726SOL    HW124077   1.596   3.915   6.428
 7726SOL    HW224078   1.626   3.863   6.580
 7727SOL     OW24079   5.963   2.752   2.039
 7727SOL    HW124080   5.941   2.655   2.052
 7727SOL    HW224081   5.932   2.804   2.119
 7728SOL     OW24082   2.221   3.007   4.777
 7728SOL    HW124083   2.258   2.999   4.870
 7728SOL    HW224084   2.151   2.937   4.763
 7729SOL     OW24085   5.708   1.415   2.206
 7729SOL    HW124086   5.754   1.329   2.228
 7729SOL    HW224087   5.609   1.401   2.204
 7730SOL     OW24088   0.317   4.504   6.440
 7730SOL    HW124089   0.383   4.523   6.513
 7730SOL    HW224090   0.359   4.524   6.351
 7731SOL     OW24091   6.842   0.033   0.082
 7731SOL    HW124092   6.818   6.990   0.146
 7731SOL    HW224093   6.890   0.106   0.131
 7732SOL     OW24094   4.135   0.523   0.244
 7732SOL    HW124095   4.178   0.495   0.158
 7732SOL    HW224096   4.205   0.557   0.306
 7733SOL     OW24097   6.295   5.476   2.161
 7733SOL    HW124098   6.290   5.376   2.158
 7733SOL    HW224099   6.389   5.505   2.179
 7734SOL     OW24100   1.817   4.848   4.706
 7734SOL    HW124101   1.786   4.941   4.689
 7734SOL    HW224102   1.816   4.830   4.805
 7735SOL     OW24103   6.129   5.730   6.670
 7735SOL    HW124104   6.170   5.795   6.606
 7735SOL    HW224105   6.078   5.780   6.740
 7736SOL     OW24106   2.007   3.203   0.332
 7736SOL    HW124107   2.051   3.206   0.243
 7736SOL    HW224108   2.014   3.110   0.369
 7737SOL     OW24109   3.780   6.772   1.957
 7737SOL    HW124110   3.735   6.813   2.036
 7737SOL    HW224111   3.799   6.675   1.975
 7738SOL     OW24112   2.767   5.363   0.277
 7738SOL    HW124113   2.825   5.305   0.334
 7738SOL    HW224114   2.824   5.433   0.234
 7739SOL     OW24115   1.784   1.953   1.708
 7739SOL    HW124116   1.826   2.044   1.709
 7739SOL    HW224117   1.687   1.960   1.732
 7740SOL     OW24118   1.808   1.160   2.658
 7740SOL    HW124119   1.797   1.110   2.744
 7740SOL    HW224120   1.784   1.100   2.581
 7741SOL     OW24121   0.190   3.714   5.017
 7741SOL    HW124122   0.242   3.707   4.931
 7741SOL    HW224123   0.215   3.638   5.077
 7742SOL     OW24124   4.649   1.826   3.709
 7742SOL    HW124125   4.702   1.779   3.639
 7742SOL    HW224126   4.706   1.893   3.755
 7743SOL     OW24127   4.551   1.743   6.591
 7743SOL    HW124128   4.608   1.667   6.560
 7743SOL    HW224129   4.458   1.710   6.609
 7744SOL     OW24130   1.359   6.430   3.497
 7744SOL    HW124131   1.386   6.336   3.517
 7744SOL    HW224132   1.338   6.478   3.582
 7745SOL     OW24133   2.512   6.960   0.820
 7745SOL    HW124134   2.461   6.903   0.885
 7745SOL    HW224135   2.571   7.024   0.870
 7746SOL     OW24136   1.064   6.924   0.636
 7746SOL    HW124137   0.993   6.856   0.654
 7746SOL    HW224138   1.086   6.924   0.539
 7747SOL     OW24139   6.733   5.851   1.403
 7747SOL    HW124140   6.694   5.791   1.333
 7747SOL    HW224141   6.832   5.838   1.406
 7748SOL     OW24142   3.487   4.067   3.576
 7748SOL    HW124143   3.467   3.970   3.568
 7748SOL    HW224144   3.440   4.105   3.656
 7749SOL     OW24145   3.611   3.588   3.721
 7749SOL    HW124146   3.607   3.642   3.805
 7749SOL    HW224147   3.702   3.597   3.680
 7750SOL     OW24148   6.540   5.904   6.590
 7750SOL    HW124149   6.507   5.811   6.570
 7750SOL    HW224150   6.469   5.953   6.641
 7751SOL     OW24151   0.439   2.147   2.780
 7751SOL    HW124152   0.436   2.083   2.703
 7751SOL    HW224153   0.533   2.155   2.813
 7752SOL     OW24154   5.625   5.962   5.072
 7752SOL    HW124155   5.683   5.952   5.152
 7752SOL    HW224156   5.552   5.894   5.075
 7753SOL     OW24157   2.704   0.838   4.261
 7753SOL    HW124158   2.746   0.913   4.313
 7753SOL    HW224159   2.631   0.875   4.203
 7754SOL     OW24160   5.418   6.653   1.652
 7754SOL    HW124161   5.396   6.716   1.578
 7754SOL    HW224162   5.451   6.706   1.731
 7755SOL     OW24163   1.349   1.995   5.989
 7755SOL    HW124164   1.279   2.024   5.924
 7755SOL    HW224165   1.428   1.959   5.940
 7756SOL     OW24166   3.373   5.138   2.780
 7756SOL    HW124167   3.445   5.192   2.824
 7756SOL    HW224168   3.345   5.184   2.695
 7757SOL     OW24169   4.963   6.118   3.924
 7757SOL    HW124170   4.916   6.202   3.896
 7757SOL    HW224171   4.927   6.086   4.011
 7758SOL     OW24172   1.864   2.128   6.627
 7758SOL    HW124173   1.820   2.066   6.692
 7758SOL    HW224174   1.938   2.081   6.581
 7759SOL     OW24175   1.177   1.734   4.997
 7759SOL    HW124176   1.147   1.812   5.052
 7759SOL    HW224177   1.229   1.671   5.055
 7760SOL     OW24178   5.651   2.744   2.779
 7760SOL    HW124179   5.635   2.716   2.685
 7760SOL    HW224180   5.637   2.842   2.788
 7761SOL     OW24181   1.512   0.013   6.228
 7761SOL    HW124182   1.604   0.053   6.220
 7761SOL    HW224183   1.457   0.039   6.149
 7762SOL     OW24184   4.365   0.929   4.430
 7762SOL    HW124185   4.314   1.013   4.453
 7762SOL    HW224186   4.300   0.853   4.421
 7763SOL     OW24187   0.867   1.399   1.358
 7763SOL    HW124188   0.932   1.466   1.394
 7763SOL    HW224189   0.916   1.317   1.328
 7764SOL     OW24190   3.675   2.898   2.803
 7764SOL    HW124191   3.755   2.936   2.850
 7764SOL    HW224192   3.696   2.883   2.707
 7765SOL     OW24193   5.901   2.902   4.127
 7765SOL    HW124194   5.942   2.859   4.046
 7765SOL    HW224195   5.829   2.965   4.098
 7766SOL     OW24196   5.183   1.857   0.234
 7766SOL    HW124197   5.090   1.872   0.268
 7766SOL    HW224198   5.215   1.767   0.263
 7767SOL     OW24199   4.001   6.097   3.539
 7767SOL    HW124200   3.916   6.142   3.569
 7767SOL    HW224201   4.047   6.155   3.472
 7768SOL     OW24202   4.454   5.186   2.453
 7768SOL    HW124203   4.359   5.174   2.482
 7768SOL    HW224204   4.513   5.127   2.509
 7769SOL     OW24205   4.829   2.300   2.528
 7769SOL    HW124206   4.761   2.288   2.455
 7769SOL    HW224207   4.798   2.253   2.610
 7770SOL     OW24208   1.164   3.691   2.667
 7770SOL    HW124209   1.074   3.648   2.672
 7770SOL    HW224210   1.233   3.628   2.703
 7771SOL     OW24211   2.421   2.543   5.048
 7771SOL    HW124212   2.453   2.512   4.959
 7771SOL    HW224213   2.381   2.634   5.040
 7772SOL     OW24214   4.988   1.221   3.417
 7772SOL    HW124215   4.892   1.227   3.392
 7772SOL    HW224216   5.020   1.127   3.404
 7773SOL     OW24217   3.125   5.325   5.381
 7773SOL    HW124218   3.098   5.251   5.320
 7773SOL    HW224219   3.219   5.353   5.361
 7774SOL     OW24220   6.386   2.809   6.509
 7774SOL    HW124221   6.339   2.869   6.574
 7774SOL    HW224222   6.319   2.749   6.464
 7775SOL     OW24223   4.136   6.942   2.912
 7775SOL    HW124224   4.193   6.972   2.989
 7775SOL    HW224225   4.161   6.994   2.830
 7776SOL     OW24226   3.239   4.002   6.691
 7776SOL    HW124227   3.188   4.060   6.628
 7776SOL    HW224228   3.211   4.022   6.785
 7777SOL     OW24229   1.740   1.020   5.076
 7777SOL    HW124230   1.659   1.037   5.019
 7777SOL    HW224231   1.766   0.923   5.069
 7778SOL     OW24232   4.738   6.194   0.186
 7778SOL    HW124233   4.688   6.128   0.242
 7778SOL    HW224234   4.686   6.213   0.103
 7779SOL     OW24235   2.988   3.113   0.902
 7779SOL    HW124236   3.043   3.038   0.940
 7779SOL    HW224237   3.014   3.128   0.807
 7780SOL     OW24238   1.447   5.217   5.008
 7780SOL    HW124239   1.375   5.189   4.945
 7780SOL    HW224240   1.535   5.215   4.961
 7781SOL     OW24241   1.613   5.096   0.019
 7781SOL    HW124242   1.658   5.020   7.003
 7781SOL    HW224243   1.552   5.061   0.090
 7782SOL     OW24244   1.280   4.324   5.664
 7782SOL    HW124245   1.274   4.238   5.713
 7782SOL    HW224246   1.353   4.380   5.703
 7783SOL     OW24247   2.010   5.766   5.300
 7783SOL    HW124248   1.998   5.865   5.313
 7783SOL    HW224249   1.940   5.731   5.239
 7784SOL     OW24250   3.120   2.885   0.098
 7784SOL    HW124251   3.181   2.885   0.177
 7784SOL    HW224252   3.149   2.814   0.034
 7785SOL     OW24253   1.892   6.538   4.228
 7785SOL    HW124254   1.964   6.475   4.257
 7785SOL    HW224255   1.931   6.607   4.168
 7786SOL     OW24256   2.982   5.750   6.796
 7786SOL    HW124257   2.956   5.828   6.740
 7786SOL    HW224258   2.945   5.762   6.889
 7787SOL     OW24259   2.563   2.710   6.040
 7787SOL    HW124260   2.647   2.764   6.044
 7787SOL    HW224261   2.516   2.716   6.128
 7788SOL     OW24262   1.883   6.819   2.064
 7788SOL    HW124263   1.906   6.914   2.083
 7788SOL    HW224264   1.933   6.760   2.127
 7789SOL     OW24265   3.030   7.027   0.232
 7789SOL    HW124266   3.067   6.970   0.158
 7789SOL    HW224267   3.092   7.023   0.311
 7790SOL     OW24268   5.640   5.023   2.457
 7790SOL    HW124269   5.677   5.083   2.527
 7790SOL    HW224270   5.647   5.068   2.368
 7791SOL     OW24271   2.589   6.266   3.953
 7791SOL    HW124272   2.625   6.264   3.860
 7791SOL    HW224273   2.663   6.244   4.017
 7792SOL     OW24274   1.793   4.972   6.100
 7792SOL    HW124275   1.890   4.980   6.078
 7792SOL    HW224276   1.740   5.027   6.035
 7793SOL     OW24277   2.932   0.509   6.602
 7793SOL    HW124278   2.872   0.566   6.546
 7793SOL    HW224279   2.893   0.499   6.693
 7794SOL     OW24280   5.500   5.152   3.595
 7794SOL    HW124281   5.493   5.059   3.631
 7794SOL    HW224282   5.549   5.150   3.508
 7795SOL     OW24283   2.085   3.294   5.495
 7795SOL    HW124284   2.001   3.312   5.443
 7795SOL    HW224285   2.164   3.310   5.436
 7796SOL     OW24286   3.319   3.840   3.329
 7796SOL    HW124287   3.325   3.937   3.307
 7796SOL    HW224288   3.240   3.800   3.282
 7797SOL     OW24289   0.920   6.712   2.907
 7797SOL    HW124290   0.820   6.711   2.909
 7797SOL    HW224291   0.952   6.697   2.813
 7798SOL     OW24292   1.336   4.885   5.972
 7798SOL    HW124293   1.282   4.858   6.052
 7798SOL    HW224294   1.330   4.985   5.960
 7799SOL     OW24295   0.395   6.507   1.806
 7799SOL    HW124296   0.421   6.451   1.728
 7799SOL    HW224297   0.325   6.458   1.860
 7800SOL     OW24298   1.424   5.245   0.763
 7800SOL    HW124299   1.467   5.327   0.802
 7800SOL    HW224300   1.385   5.190   0.836
 7801SOL     OW24301   1.711   2.257   1.851
 7801SOL    HW124302   1.801   2.267   1.894
 7801SOL    HW224303   1.711   2.304   1.763
 7802SOL     OW24304   5.697   2.059   1.287
 7802SOL    HW124305   5.752   2.066   1.203
 7802SOL    HW224306   5.757   2.065   1.367
 7803SOL     OW24307   4.211   2.257   6.238
 7803SOL    HW124308   4.298   2.213   6.217
 7803SOL    HW224309   4.196   2.333   6.175
 7804SOL     OW24310   5.347   1.163   4.562
 7804SOL    HW124311   5.325   1.130   4.470
 7804SOL    HW224312   5.416   1.235   4.556
 7805SOL     OW24313   5.381   1.425   0.929
 7805SOL    HW124314   5.337   1.463   0.847
 7805SOL    HW224315   5.430   1.498   0.977
 7806SOL     OW24316   5.750   2.418   6.139
 7806SOL    HW124317   5.792   2.368   6.216
 7806SOL    HW224318   5.805   2.499   6.119
 7807SOL     OW24319   0.367   4.392   5.518
 7807SOL    HW124320   0.297   4.349   5.575
 7807SOL    HW224321   0.457   4.356   5.544
 7808SOL     OW24322   6.994   2.915   4.676
 7808SOL    HW124323   6.899   2.926   4.648
 7808SOL    HW224324   0.019   2.987   4.633
 7809SOL     OW24325   2.492   5.593   4.699
 7809SOL    HW124326   2.465   5.506   4.657
 7809SOL    HW224327   2.463   5.594   4.794
 7810SOL     OW24328   3.603   6.911   5.033
 7810SOL    HW124329   3.680   6.902   4.970
 7810SOL    HW224330   3.638   6.919   5.127
 7811SOL     OW24331   0.594   5.176   3.416
 7811SOL    HW124332   0.516   5.116   3.396
 7811SOL    HW224333   0.605   5.242   3.342
 7812SOL     OW24334   1.726   2.087   3.757
 7812SOL    HW124335   1.674   2.155   3.809
 7812SOL    HW224336   1.742   2.120   3.664
 7813SOL     OW24337   3.801   2.700   6.748
 7813SOL    HW124338   3.773   2.795   6.739
 7813SOL    HW224339   3.769   2.664   6.836
 7814SOL     OW24340   6.636   3.004   3.727
 7814SOL    HW124341   6.664   3.090   3.685
 7814SOL    HW224342   6.683   2.993   3.814
 7815SOL     OW24343   5.026   0.458   6.340
 7815SOL    HW124344   5.104   0.403   6.310
 7815SOL    HW224345   4.986   0.417   6.422
 7816SOL     OW24346   1.449   2.826   6.770
 7816SOL    HW124347   1.423   2.897   6.704
 7816SOL    HW224348   1.465   2.740   6.721
 7817SOL     OW24349   5.281   4.401   3.681
 7817SOL    HW124350   5.238   4.317   3.646
 7817SOL    HW224351   5.365   4.418   3.629
 7818SOL     OW24352   4.214   1.037   3.237
 7818SOL    HW124353   4.212   1.037   3.137
 7818SOL    HW224354   4.205   1.131   3.269
 7819SOL     OW24355   6.494   2.819   2.109
 7819SOL    HW124356   6.498   2.918   2.122
 7819SOL    HW224357   6.408   2.795   2.063
 7820SOL     OW24358   1.047   2.424   4.560
 7820SOL    HW124359   1.006   2.502   4.608
 7820SOL    HW224360   0.983   2.391   4.491
 7821SOL     OW24361   4.934   6.057   1.099
 7821SOL    HW124362   4.940   6.011   1.188
 7821SOL    HW224363   4.975   6.148   1.106
 7822SOL     OW24364   0.532   0.804   5.669
 7822SOL    HW124365   0.461   0.785   5.603
 7822SOL    HW224366   0.571   0.894   5.652
 7823SOL     OW24367   2.679   3.958   5.329
 7823SOL    HW124368   2.658   4.024   5.402
 7823SOL    HW224369   2.606   3.959   5.261
 7824SOL     OW24370   6.072   1.475   4.477
 7824SOL    HW124371   6.058   1.569   4.509
 7824SOL    HW224372   6.170   1.460   4.460
 7825SOL     OW24373   1.017   2.609   0.767
 7825SOL    HW124374   1.098   2.550   0.763
 7825SOL    HW224375   0.986   2.630   0.674
 7826SOL     OW24376   6.264   1.249   1.172
 7826SOL    HW124377   6.205   1.204   1.104
 7826SOL    HW224378   6.350   1.277   1.128
 7827SOL     OW24379   1.974   5.780   1.339
 7827SOL    HW124380   2.015   5.826   1.418
 7827SOL    HW224381   1.878   5.761   1.358
 7828SOL     OW24382   6.892   4.854   6.922
 7828SOL    HW124383   6.869   4.756   6.919
 7828SOL    HW224384   6.894   4.884   7.018
 7829SOL     OW24385   2.144   3.443   1.578
 7829SOL    HW124386   2.123   3.392   1.662
 7829SOL    HW224387   2.191   3.383   1.514
 7830SOL     OW24388   2.609   5.032   5.467
 7830SOL    HW124389   2.534   4.988   5.418
 7830SOL    HW224390   2.655   5.097   5.406
 7831SOL     OW24391   1.616   7.022   1.481
 7831SOL    HW124392   1.579   6.933   1.455
 7831SOL    HW224393   1.591   0.059   1.412
 7832SOL     OW24394   6.022   0.790   4.198
 7832SOL    HW124395   5.995   0.801   4.294
 7832SOL    HW224396   6.117   0.761   4.194
 7833SOL     OW24397   0.661   0.699   5.218
 7833SOL    HW124398   0.592   0.637   5.181
 7833SOL    HW224399   0.617   0.786   5.243
 7834SOL     OW24400   6.595   1.216   3.789
 7834SOL    HW124401   6.523   1.280   3.764
 7834SOL    HW224402   6.658   1.259   3.854
 7835SOL     OW24403   3.481   1.933   5.526
 7835SOL    HW124404   3.516   1.915   5.435
 7835SOL    HW224405   3.518   1.865   5.590
 7836SOL     OW24406   3.282   3.473   4.701
 7836SOL    HW124407   3.241   3.508   4.617
 7836SOL    HW224408   3.286   3.547   4.769
 7837SOL     OW24409   4.516   5.344   7.011
 7837SOL    HW124410   4.463   5.301   0.053
 7837SOL    HW224411   4.582   5.278   6.974
 7838SOL     OW24412   3.979   6.950   0.847
 7838SOL    HW124413   4.075   6.952   0.818
 7838SOL    HW224414   3.961   6.867   0.899
 7839SOL     OW24415   5.757   4.186   4.788
 7839SOL    HW124416   5.841   4.225   4.825
 7839SOL    HW224417   5.678   4.220   4.839
 7840SOL     OW24418   6.535   3.335   4.070
 7840SOL    HW124419   6.527   3.415   4.130
 7840SOL    HW224420   6.630   3.326   4.039
 7841SOL     OW24421   3.557   1.662   6.136
 7841SOL    HW124422   3.485   1.731   6.145
 7841SOL    HW224423   3.636   1.688   6.191
 7842SOL     OW24424   2.314   1.920   2.753
 7842SOL    HW124425   2.370   1.860   2.811
 7842SOL    HW224426   2.247   1.865   2.703
 7843SOL     OW24427   0.786   5.900   3.062
 7843SOL    HW124428   0.724   5.976   3.040
 7843SOL    HW224429   0.735   5.829   3.111
 7844SOL     OW24430   2.810   0.890   2.557
 7844SOL    HW124431   2.887   0.952   2.542
 7844SOL    HW224432   2.839   0.814   2.616
 7845SOL     OW24433   5.123   1.878   2.667
 7845SOL    HW124434   5.032   1.839   2.659
 7845SOL    HW224435   5.116   1.975   2.690
 7846SOL     OW24436   0.307   2.518   0.949
 7846SOL    HW124437   0.333   2.508   0.853
 7846SOL    HW224438   0.326   2.433   0.998
 7847SOL     OW24439   6.715   1.067   3.537
 7847SOL    HW124440   6.652   1.036   3.465
 7847SOL    HW224441   6.667   1.130   3.598
 7848SOL     OW24442   3.447   5.174   0.588
 7848SOL    HW124443   3.522   5.239   0.599
 7848SOL    HW224444   3.429   5.159   0.491
 7849SOL     OW24445   6.457   4.349   4.739
 7849SOL    HW124446   6.476   4.401   4.823
 7849SOL    HW224447   6.362   4.319   4.739
 7850SOL     OW24448   0.428   1.364   3.947
 7850SOL    HW124449   0.428   1.284   4.007
 7850SOL    HW224450   0.522   1.386   3.920
 7851SOL     OW24451   6.971   2.039   1.261
 7851SOL    HW124452   6.906   2.043   1.337
 7851SOL    HW224453   7.029   1.957   1.271
 7852SOL     OW24454   3.360   1.831   6.969
 7852SOL    HW124455   3.282   1.827   6.906
 7852SOL    HW224456   3.434   1.884   6.928
 7853SOL     OW24457   4.893   2.610   1.279
 7853SOL    HW124458   4.960   2.577   1.346
 7853SOL    HW224459   4.873   2.706   1.296
 7854SOL     OW24460   3.445   3.259   5.892
 7854SOL    HW124461   3.403   3.256   5.983
 7854SOL    HW224462   3.506   3.338   5.887
 7855SOL     OW24463   4.405   6.794   4.769
 7855SOL    HW124464   4.459   6.850   4.832
 7855SOL    HW224465   4.466   6.744   4.708
 7856SOL     OW24466   6.555   5.512   5.111
 7856SOL    HW124467   6.586   5.450   5.183
 7856SOL    HW224468   6.457   5.498   5.095
 7857SOL     OW24469   4.523   2.819   0.143
 7857SOL    HW124470   4.603   2.846   0.089
 7857SOL    HW224471   4.440   2.836   0.090
 7858SOL     OW24472   6.637   6.250   4.548
 7858SOL    HW124473   6.640   6.151   4.538
 7858SOL    HW224474   6.672   6.293   4.464
 7859SOL     OW24475   4.319   3.341   6.437
 7859SOL    HW124476   4.369   3.364   6.354
 7859SOL    HW224477   4.378   3.354   6.516
 7860SOL     OW24478   4.358   1.036   4.030
 7860SOL    HW124479   4.268   1.045   4.071
 7860SOL    HW224480   4.413   1.117   4.052
 7861SOL     OW24481   3.346   4.650   1.676
 7861SOL    HW124482   3.429   4.633   1.730
 7861SOL    HW224483   3.326   4.570   1.620
 7862SOL     OW24484   2.306   4.995   2.084
 7862SOL    HW124485   2.318   5.044   2.170
 7862SOL    HW224486   2.212   4.963   2.076
 7863SOL     OW24487   0.136   3.863   4.294
 7863SOL    HW124488   0.078   3.940   4.322
 7863SOL    HW224489   0.212   3.898   4.238
 7864SOL     OW24490   0.705   4.871   5.564
 7864SOL    HW124491   0.702   4.783   5.611
 7864SOL    HW224492   0.700   4.945   5.632
 7865SOL     OW24493   6.743   5.873   3.882
 7865SOL    HW124494   6.694   5.884   3.796
 7865SOL    HW224495   6.678   5.869   3.957
 7866SOL     OW24496   0.665   0.597   5.513
 7866SOL    HW124497   0.700   0.643   5.432
 7866SOL    HW224498   0.589   0.650   5.551
 7867SOL     OW24499   6.258   5.852   3.456
 7867SOL    HW124500   6.323   5.910   3.407
 7867SOL    HW224501   6.174   5.844   3.404
 7868SOL     OW24502   4.563   5.757   1.280
 7868SOL    HW124503   4.613   5.688   1.227
 7868SOL    HW224504   4.588   5.750   1.376
 7869SOL     OW24505   5.182   4.242   6.309
 7869SOL    HW124506   5.112   4.214   6.243
 7869SOL    HW224507   5.236   4.317   6.271
 7870SOL     OW24508   5.232   6.128   4.187
 7870SOL    HW124509   5.237   6.122   4.087
 7870SOL    HW224510   5.140   6.154   4.215
 7871SOL     OW24511   4.544   2.083   1.632
 7871SOL    HW124512   4.624   2.126   1.590
 7871SOL    HW224513   4.519   2.001   1.580
 7872SOL     OW24514   2.132   3.827   3.201
 7872SOL    HW124515   2.133   3.789   3.293
 7872SOL    HW224516   2.191   3.907   3.197
 7873SOL     OW24517   6.158   6.707   7.010
 7873SOL    HW124518   6.157   6.665   0.071
 7873SOL    HW224519   6.155   6.807   7.020
 7874SOL     OW24520   5.066   2.359   0.643
 7874SOL    HW124521   5.061   2.323   0.550
 7874SOL    HW224522   5.158   2.345   0.679
 7875SOL     OW24523   4.550   2.608   6.454
 7875SOL    HW124524   4.502   2.524   6.480
 7875SOL    HW224525   4.484   2.682   6.444
 7876SOL     OW24526   1.185   6.487   3.298
 7876SOL    HW124527   1.223   6.437   3.376
 7876SOL    HW224528   1.212   6.583   3.303
 7877SOL     OW24529   0.577   1.807   2.748
 7877SOL    HW124530   0.498   1.850   2.704
 7877SOL    HW224531   0.581   1.711   2.722
 7878SOL     OW24532   4.832   4.612   4.726
 7878SOL    HW124533   4.790   4.555   4.796
 7878SOL    HW224534   4.789   4.595   4.638
 7879SOL     OW24535   3.923   5.007   3.082
 7879SOL    HW124536   3.984   5.025   3.160
 7879SOL    HW224537   3.842   4.957   3.114
 7880SOL     OW24538   1.942   4.118   2.066
 7880SOL    HW124539   2.026   4.074   2.035
 7880SOL    HW224540   1.958   4.216   2.076
 7881SOL     OW24541   5.830   4.487   5.267
 7881SOL    HW124542   5.743   4.537   5.267
 7881SOL    HW224543   5.878   4.506   5.181
 7882SOL     OW24544   1.659   3.824   1.790
 7882SOL    HW124545   1.604   3.834   1.707
 7882SOL    HW224546   1.615   3.758   1.851
 7883SOL     OW24547   0.957   0.392   6.808
 7883SOL    HW124548   0.899   0.386   6.889
 7883SOL    HW224549   1.032   0.456   6.825
 7884SOL     OW24550   1.983   4.150   4.782
 7884SOL    HW124551   1.960   4.102   4.697
 7884SOL    HW224552   1.900   4.188   4.822
 7885SOL     OW24553   6.816   5.381   1.181
 7885SOL    HW124554   6.902   5.329   1.183
 7885SOL    HW224555   6.764   5.357   1.100
 7886SOL     OW24556   3.897   5.519   0.129
 7886SOL    HW124557   3.931   5.603   0.171
 7886SOL    HW224558   3.957   5.494   0.053
 7887SOL     OW24559   2.882   2.398   5.918
 7887SOL    HW124560   2.913   2.348   5.838
 7887SOL    HW224561   2.926   2.361   6.000
 7888SOL     OW24562   6.497   0.510   5.689
 7888SOL    HW124563   6.451   0.530   5.602
 7888SOL    HW224564   6.447   0.439   5.738
 7889SOL     OW24565   1.805   4.005   2.567
 7889SOL    HW124566   1.796   4.093   2.520
 7889SOL    HW224567   1.743   3.939   2.526
 7890SOL     OW24568   1.720   3.209   2.419
 7890SOL    HW124569   1.778   3.129   2.408
 7890SOL    HW224570   1.636   3.183   2.466
 7891SOL     OW24571   1.688   3.257   3.475
 7891SOL    HW124572   1.730   3.343   3.503
 7891SOL    HW224573   1.730   3.226   3.389
 7892SOL     OW24574   2.241   1.990   4.325
 7892SOL    HW124575   2.316   1.945   4.374
 7892SOL    HW224576   2.267   2.005   4.230
 7893SOL     OW24577   6.818   6.488   2.687
 7893SOL    HW124578   6.898   6.458   2.635
 7893SOL    HW224579   6.743   6.507   2.624
 7894SOL     OW24580   2.881   0.079   1.248
 7894SOL    HW124581   2.972   0.066   1.210
 7894SOL    HW224582   2.844   0.167   1.216
 7895SOL     OW24583   6.422   1.247   5.914
 7895SOL    HW124584   6.496   1.233   5.849
 7895SOL    HW224585   6.343   1.192   5.887
 7896SOL     OW24586   4.806   3.922   6.708
 7896SOL    HW124587   4.878   3.987   6.686
 7896SOL    HW224588   4.802   3.908   6.807
 7897SOL     OW24589   2.621   4.042   6.957
 7897SOL    HW124590   2.591   4.132   6.989
 7897SOL    HW224591   2.661   3.991   0.002
 7898SOL     OW24592   5.112   1.755   3.827
 7898SOL    HW124593   5.065   1.776   3.741
 7898SOL    HW224594   5.152   1.663   3.821
 7899SOL     OW24595   5.919   1.200   1.372
 7899SOL    HW124596   5.844   1.209   1.307
 7899SOL    HW224597   5.977   1.280   1.368
 7900SOL     OW24598   1.554   5.909   1.400
 7900SOL    HW124599   1.613   5.987   1.417
 7900SOL    HW224600   1.458   5.938   1.396
 7901SOL     OW24601   4.789   1.336   6.507
 7901SOL    HW124602   4.695   1.305   6.519
 7901SOL    HW224603   4.841   1.266   6.457
 7902SOL     OW24604   5.397   5.581   1.592
 7902SOL    HW124605   5.493   5.582   1.563
 7902SOL    HW224606   5.392   5.555   1.689
 7903SOL     OW24607   5.991   1.713   0.635
 7903SOL    HW124608   6.042   1.641   0.588
 7903SOL    HW224609   6.026   1.803   0.608
 7904SOL     OW24610   5.649   6.998   3.319
 7904SOL    HW124611   5.586   6.921   3.306
 7904SOL    HW224612   5.717   6.998   3.246
 7905SOL     OW24613   4.527   2.457   0.465
 7905SOL    HW124614   4.592   2.382   0.477
 7905SOL    HW224615   4.545   2.528   0.533
 7906SOL     OW24616   0.349   5.732   0.517
 7906SOL    HW124617   0.292   5.812   0.538
 7906SOL    HW224618   0.445   5.759   0.521
 7907SOL     OW24619   5.888   1.855   3.738
 7907SOL    HW124620   5.882   1.760   3.767
 7907SOL    HW224621   5.977   1.892   3.762
 7908SOL     OW24622   0.476   1.360   4.648
 7908SOL    HW124623   0.515   1.438   4.600
 7908SOL    HW224624   0.544   1.287   4.653
 7909SOL     OW24625   5.336   3.713   5.231
 7909SOL    HW124626   5.392   3.784   5.188
 7909SOL    HW224627   5.248   3.752   5.258
 7910SOL     OW24628   2.748   3.120   5.575
 7910SOL    HW124629   2.707   3.055   5.638
 7910SOL    HW224630   2.719   3.100   5.481
 7911SOL     OW24631   1.381   3.116   6.375
 7911SOL    HW124632   1.456   3.181   6.390
 7911SOL    HW224633   1.343   3.130   6.283
 7912SOL     OW24634   0.236   5.359   0.347
 7912SOL    HW124635   0.300   5.328   0.417
 7912SOL    HW224636   0.202   5.450   0.372
 7913SOL     OW24637   1.309   5.262   1.091
 7913SOL    HW124638   1.385   5.201   1.070
 7913SOL    HW224639   1.223   5.212   1.082
 7914SOL     OW24640   0.259   4.807   6.227
 7914SOL    HW124641   0.258   4.747   6.148
 7914SOL    HW224642   0.184   4.783   6.289
 7915SOL     OW24643   4.927   2.961   2.438
 7915SOL    HW124644   4.875   3.040   2.471
 7915SOL    HW224645   4.871   2.908   2.375
 7916SOL     OW24646   6.976   3.874   5.808
 7916SOL    HW124647   6.897   3.843   5.860
 7916SOL    HW224648   0.028   3.832   5.845
 7917SOL     OW24649   3.107   3.285   3.753
 7917SOL    HW124650   3.202   3.277   3.723
 7917SOL    HW224651   3.059   3.349   3.693
 7918SOL     OW24652   0.440   1.653   0.394
 7918SOL    HW124653   0.350   1.613   0.414
 7918SOL    HW224654   0.494   1.588   0.340
 7919SOL     OW24655   0.940   4.504   3.255
 7919SOL    HW124656   0.910   4.550   3.171
 7919SOL    HW224657   0.971   4.412   3.233
 7920SOL     OW24658   0.740   5.176   1.221
 7920SOL    HW124659   0.671   5.247   1.207
 7920SOL    HW224660   0.831   5.213   1.203
 7921SOL     OW24661   4.204   5.804   0.650
 7921SOL    HW124662   4.205   5.717   0.699
 7921SOL    HW224663   4.234   5.877   0.712
 7922SOL     OW24664   6.568   5.600   0.398
 7922SOL    HW124665   6.570   5.700   0.401
 7922SOL    HW224666   6.474   5.568   0.408
 7923SOL     OW24667   3.008   0.430   2.232
 7923SOL    HW124668   3.006   0.518   2.281
 7923SOL    HW224669   3.019   0.447   2.134
 7924SOL     OW24670   4.075   6.238   2.875
 7924SOL    HW124671   4.174   6.229   2.884
 7924SOL    HW224672   4.046   6.328   2.909
 7925SOL     OW24673   0.609   2.000   6.352
 7925SOL    HW124674   0.533   1.943   6.323
 7925SOL    HW224675   0.588   2.096   6.334
 7926SOL     OW24676   4.897   1.198   4.868
 7926SOL    HW124677   4.889   1.106   4.905
 7926SOL    HW224678   4.931   1.194   4.774
 7927SOL     OW24679   4.217   5.661   4.596
 7927SOL    HW124680   4.243   5.688   4.688
 7927SOL    HW224681   4.149   5.725   4.560
 7928SOL     OW24682   1.475   2.995   4.311
 7928SOL    HW124683   1.454   3.072   4.371
 7928SOL    HW224684   1.449   3.018   4.217
 7929SOL     OW24685   4.086   4.047   5.508
 7929SOL    HW124686   4.001   4.078   5.552
 7929SOL    HW224687   4.135   3.987   5.571
 7930SOL     OW24688   4.466   5.963   3.791
 7930SOL    HW124689   4.537   6.005   3.735
 7930SOL    HW224690   4.506   5.890   3.846
 7931SOL     OW24691   1.095   1.474   6.131
 7931SOL    HW124692   1.120   1.490   6.226
 7931SOL    HW224693   1.070   1.561   6.088
 7932SOL     OW24694   3.317   6.366   6.971
 7932SOL    HW124695   3.268   6.366   0.028
 7932SOL    HW224696   3.410   6.401   6.986
 7933SOL     OW24697   0.406   6.657   0.080
 7933SOL    HW124698   0.443   6.714   0.007
 7933SOL    HW224699   0.476   6.592   0.110
 7934SOL     OW24700   2.362   4.594   6.924
 7934SOL    HW124701   2.349   4.571   7.020
 7934SOL    HW224702   2.417   4.524   6.879
 7935SOL     OW24703   5.751   5.842   0.119
 7935SOL    HW124704   5.674   5.897   0.086
 7935SOL    HW224705   5.758   5.850   0.219
 7936SOL     OW24706   3.695   4.889   2.690
 7936SOL    HW124707   3.622   4.827   2.718
 7936SOL    HW224708   3.784   4.848   2.708
 7937SOL     OW24709   5.880   6.617   3.859
 7937SOL    HW124710   5.851   6.526   3.887
 7937SOL    HW224711   5.932   6.610   3.774
 7938SOL     OW24712   5.919   4.793   5.669
 7938SOL    HW124713   5.840   4.758   5.619
 7938SOL    HW224714   5.897   4.884   5.705
 7939SOL     OW24715   0.685   2.190   5.816
 7939SOL    HW124716   0.761   2.249   5.843
 7939SOL    HW224717   0.600   2.242   5.820
 7940SOL     OW24718   2.052   3.834   2.574
 7940SOL    HW124719   1.953   3.838   2.585
 7940SOL    HW224720   2.075   3.851   2.478
 7941SOL     OW24721   6.826   0.123   0.930
 7941SOL    HW124722   6.915   0.128   0.976
 7941SOL    HW224723   6.829   0.051   0.861
 7942SOL     OW24724   6.585   5.947   2.882
 7942SOL    HW124725   6.512   5.879   2.882
 7942SOL    HW224726   6.565   6.018   2.814
 7943SOL     OW24727   5.716   2.449   0.393
 7943SOL    HW124728   5.633   2.417   0.346
 7943SOL    HW224729   5.751   2.531   0.349
 7944SOL     OW24730   0.327   3.200   1.130
 7944SOL    HW124731   0.280   3.174   1.045
 7944SOL    HW224732   0.300   3.293   1.155
 7945SOL     OW24733   5.495   6.737   2.580
 7945SOL    HW124734   5.416   6.775   2.628
 7945SOL    HW224735   5.529   6.657   2.629
 7946SOL     OW24736   2.253   2.439   5.647
 7946SOL    HW124737   2.338   2.491   5.652
 7946SOL    HW224738   2.178   2.493   5.685
 7947SOL     OW24739   3.824   3.130   6.223
 7947SOL    HW124740   3.793   3.190   6.296
 7947SOL    HW224741   3.918   3.154   6.199
 7948SOL     OW24742   0.359   6.418   1.105
 7948SOL    HW124743   0.351   6.329   1.150
 7948SOL    HW224744   0.349   6.491   1.172
 7949SOL     OW24745   4.471   4.485   4.240
 7949SOL    HW124746   4.540   4.433   4.190
 7949SOL    HW224747   4.480   4.468   4.338
 7950SOL     OW24748   4.852   5.552   3.672
 7950SOL    HW124749   4.855   5.455   3.649
 7950SOL    HW224750   4.803   5.602   3.601
 7951SOL     OW24751   1.889   3.881   1.144
 7951SOL    HW124752   1.874   3.839   1.054
 7951SOL    HW224753   1.803   3.886   1.193
 7952SOL     OW24754   0.627   3.535   6.547
 7952SOL    HW124755   0.589   3.612   6.597
 7952SOL    HW224756   0.604   3.450   6.595
 7953SOL     OW24757   2.163   2.740   3.178
 7953SOL    HW124758   2.069   2.773   3.168
 7953SOL    HW224759   2.184   2.676   3.104
 7954SOL     OW24760   4.455   4.483   5.410
 7954SOL    HW124761   4.373   4.531   5.441
 7954SOL    HW224762   4.522   4.480   5.484
 7955SOL     OW24763   1.247   6.744   6.204
 7955SOL    HW124764   1.301   6.771   6.283
 7955SOL    HW224765   1.206   6.825   6.162
 7956SOL     OW24766   1.735   6.153   2.685
 7956SOL    HW124767   1.796   6.198   2.620
 7956SOL    HW224768   1.728   6.209   2.768
 7957SOL     OW24769   2.187   1.298   0.409
 7957SOL    HW124770   2.266   1.244   0.383
 7957SOL    HW224771   2.202   1.337   0.500
 7958SOL     OW24772   3.243   5.661   4.510
 7958SOL    HW124773   3.305   5.612   4.449
 7958SOL    HW224774   3.257   5.629   4.604
 7959SOL     OW24775   4.339   5.553   1.355
 7959SOL    HW124776   4.304   5.571   1.447
 7959SOL    HW224777   4.379   5.637   1.318
 7960SOL     OW24778   3.443   1.746   0.948
 7960SOL    HW124779   3.501   1.732   1.028
 7960SOL    HW224780   3.372   1.675   0.945
 7961SOL     OW24781   0.818   5.828   0.147
 7961SOL    HW124782   0.790   5.919   0.119
 7961SOL    HW224783   0.913   5.831   0.178
 7962SOL     OW24784   1.623   0.276   0.292
 7962SOL    HW124785   1.646   0.275   0.195
 7962SOL    HW224786   1.572   0.359   0.314
 7963SOL     OW24787   6.493   0.548   3.579
 7963SOL    HW124788   6.554   0.622   3.552
 7963SOL    HW224789   6.464   0.561   3.674
 7964SOL     OW24790   6.403   5.144   3.477
 7964SOL    HW124791   6.470   5.150   3.403
 7964SOL    HW224792   6.446   5.108   3.559
 7965SOL     OW24793   3.131   3.013   6.536
 7965SOL    HW124794   3.219   3.038   6.578
 7965SOL    HW224795   3.133   2.915   6.513
 7966SOL     OW24796   0.530   3.479   5.383
 7966SOL    HW124797   0.506   3.384   5.402
 7966SOL    HW224798   0.489   3.508   5.297
 7967SOL     OW24799   3.092   6.335   4.061
 7967SOL    HW124800   3.147   6.252   4.076
 7967SOL    HW224801   3.126   6.409   4.118
 7968SOL     OW24802   1.959   2.476   3.445
 7968SOL    HW124803   1.944   2.490   3.347
 7968SOL    HW224804   2.005   2.388   3.459
 7969SOL     OW24805   4.406   6.998   2.472
 7969SOL    HW124806   4.462   0.039   2.430
 7969SOL    HW224807   4.451   6.965   2.555
 7970SOL     OW24808   0.275   3.220   3.205
 7970SOL    HW124809   0.320   3.139   3.167
 7970SOL    HW224810   0.249   3.281   3.130
 7971SOL     OW24811   3.681   1.467   0.883
 7971SOL    HW124812   3.672   1.565   0.903
 7971SOL    HW224813   3.777   1.439   0.895
 7972SOL     OW24814   0.997   3.954   1.560
 7972SOL    HW124815   0.899   3.957   1.541
 7972SOL    HW224816   1.040   4.038   1.527
 7973SOL     OW24817   5.229   3.717   3.178
 7973SOL    HW124818   5.210   3.659   3.099
 7973SOL    HW224819   5.306   3.777   3.157
 7974SOL     OW24820   5.572   0.256   4.765
 7974SOL    HW124821   5.569   0.318   4.843
 7974SOL    HW224822   5.552   0.308   4.681
 7975SOL     OW24823   5.922   0.573   3.347
 7975SOL    HW124824   5.991   0.516   3.302
 7975SOL    HW224825   5.965   0.655   3.383
 7976SOL     OW24826   0.419   0.566   5.833
 7976SOL    HW124827   0.468   0.559   5.920
 7976SOL    HW224828   0.437   0.656   5.792
 7977SOL     OW24829   4.513   5.104   1.728
 7977SOL    HW124830   4.607   5.136   1.713
 7977SOL    HW224831   4.496   5.096   1.826
 7978SOL     OW24832   5.645   3.569   6.176
 7978SOL    HW124833   5.602   3.615   6.253
 7978SOL    HW224834   5.635   3.625   6.094
 7979SOL     OW24835   3.470   0.764   5.628
 7979SOL    HW124836   3.384   0.813   5.615
 7979SOL    HW224837   3.450   0.668   5.651
 7980SOL     OW24838   2.796   6.059   0.072
 7980SOL    HW124839   2.790   6.022   7.010
 7980SOL    HW224840   2.891   6.086   0.091
 7981SOL     OW24841   0.521   6.266   2.754
 7981SOL    HW124842   0.593   6.213   2.799
 7981SOL    HW224843   0.527   6.361   2.783
 7982SOL     OW24844   6.784   1.757   0.083
 7982SOL    HW124845   6.816   1.717   7.027
 7982SOL    HW224846   6.859   1.809   0.125
 7983SOL     OW24847   5.615   2.123   2.518
 7983SOL    HW124848   5.552   2.193   2.552
 7983SOL    HW224849   5.691   2.166   2.470
 7984SOL     OW24850   1.483   2.206   1.554
 7984SOL    HW124851   1.568   2.234   1.597
 7984SOL    HW224852   1.476   2.247   1.463
 7985SOL     OW24853   2.468   0.073   3.625
 7985SOL    HW124854   2.531   0.147   3.647
 7985SOL    HW224855   2.516   0.004   3.571
 7986SOL     OW24856   3.068   0.698   6.803
 7986SOL    HW124857   3.095   0.683   6.898
 7986SOL    HW224858   3.122   0.638   6.743
 7987SOL     OW24859   0.874   3.484   6.671
 7987SOL    HW124860   0.792   3.429   6.688
 7987SOL    HW224861   0.910   3.463   6.580
 7988SOL     OW24862   1.627   1.750   4.505
 7988SOL    HW124863   1.668   1.831   4.462
 7988SOL    HW224864   1.536   1.773   4.539
 7989SOL     OW24865   3.369   2.502   5.339
 7989SOL    HW124866   3.458   2.463   5.317
 7989SOL    HW224867   3.297   2.449   5.294
 7990SOL     OW24868   6.015   3.774   3.906
 7990SOL    HW124869   5.989   3.702   3.971
 7990SOL    HW224870   5.998   3.742   3.813
 7991SOL     OW24871   6.534   0.412   5.033
 7991SOL    HW124872   6.465   0.434   4.964
 7991SOL    HW224873   6.490   0.400   5.121
 7992SOL     OW24874   1.532   6.801   0.888
 7992SOL    HW124875   1.447   6.815   0.836
 7992SOL    HW224876   1.610   6.814   0.827
 7993SOL     OW24877   1.691   6.159   6.728
 7993SOL    HW124878   1.652   6.172   6.637
 7993SOL    HW224879   1.659   6.072   6.766
 7994SOL     OW24880   4.380   0.432   3.094
 7994SOL    HW124881   4.408   0.427   3.189
 7994SOL    HW224882   4.433   0.502   3.047
 7995SOL     OW24883   4.005   5.143   3.374
 7995SOL    HW124884   4.093   5.117   3.333
 7995SOL    HW224885   4.007   5.241   3.396
 7996SOL     OW24886   3.140   6.793   4.804
 7996SOL    HW124887   3.067   6.730   4.828
 7996SOL    HW224888   3.106   6.887   4.808
 7997SOL     OW24889   0.093   1.198   0.886
 7997SOL    HW124890   0.182   1.233   0.855
 7997SOL    HW224891   0.103   1.156   0.976
 7998SOL     OW24892   3.906   5.267   1.160
 7998SOL    HW124893   3.985   5.329   1.160
 7998SOL    HW224894   3.933   5.179   1.198
 7999SOL     OW24895   1.632   0.481   6.458
 7999SOL    HW124896   1.710   0.515   6.405
 7999SOL    HW224897   1.547   0.508   6.412
 8000SOL     OW24898   5.460   1.104   6.886
 8000SOL    HW124899   5.436   1.077   6.980
 8000SOL    HW224900   5.421   1.194   6.867
 8001SOL     OW24901   3.540   6.265   1.348
 8001SOL    HW124902   3.537   6.336   1.277
 8001SOL    HW224903   3.479   6.291   1.423
 8002SOL     OW24904   0.495   2.572   5.712
 8002SOL    HW124905   0.551   2.552   5.631
 8002SOL    HW224906   0.514   2.665   5.743
 8003SOL     OW24907   2.137   4.705   2.236
 8003SOL    HW124908   2.073   4.768   2.279
 8003SOL    HW224909   2.127   4.711   2.136
 8004SOL     OW24910   1.687   4.299   3.162
 8004SOL    HW124911   1.650   4.295   3.255
 8004SOL    HW224912   1.653   4.220   3.110
 8005SOL     OW24913   3.641   1.776   2.136
 8005SOL    HW124914   3.602   1.712   2.070
 8005SOL    HW224915   3.608   1.869   2.115
 8006SOL     OW24916   3.008   6.636   0.418
 8006SOL    HW124917   2.935   6.703   0.402
 8006SOL    HW224918   2.968   6.548   0.442
 8007SOL     OW24919   1.307   6.924   4.415
 8007SOL    HW124920   1.247   7.002   4.396
 8007SOL    HW224921   1.345   6.890   4.329
 8008SOL     OW24922   4.739   6.891   6.012
 8008SOL    HW124923   4.785   6.802   6.008
 8008SOL    HW224924   4.719   6.922   5.919
 8009SOL     OW24925   6.379   0.486   3.192
 8009SOL    HW124926   6.435   0.445   3.264
 8009SOL    HW224927   6.285   0.453   3.199
 8010SOL     OW24928   1.492   1.570   0.345
 8010SOL    HW124929   1.445   1.567   0.433
 8010SOL    HW224930   1.494   1.664   0.312
 8011SOL     OW24931   2.562   2.844   1.274
 8011SOL    HW124932   2.492   2.889   1.218
 8011SOL    HW224933   2.554   2.745   1.263
 8012SOL     OW24934   2.808   6.273   1.614
 8012SOL    HW124935   2.845   6.234   1.699
 8012SOL    HW224936   2.757   6.357   1.636
 8013SOL     OW24937   0.468   5.009   4.487
 8013SOL    HW124938   0.542   4.949   4.518
 8013SOL    HW224939   0.473   5.020   4.387
 8014SOL     OW24940   0.878   6.116   5.330
 8014SOL    HW124941   0.799   6.056   5.347
 8014SOL    HW224942   0.882   6.138   5.232
 8015SOL     OW24943   2.906   1.404   6.797
 8015SOL    HW124944   2.889   1.475   6.730
 8015SOL    HW224945   3.004   1.383   6.800
 8016SOL     OW24946   4.516   0.444   6.263
 8016SOL    HW124947   4.544   0.405   6.175
 8016SOL    HW224948   4.530   0.543   6.263
 8017SOL     OW24949   0.161   5.632   6.436
 8017SOL    HW124950   0.227   5.686   6.488
 8017SOL    HW224951   0.139   5.679   6.351
 8018SOL     OW24952   4.016   2.593   6.282
 8018SOL    HW124953   3.961   2.626   6.358
 8018SOL    HW224954   4.014   2.661   6.208
 8019SOL     OW24955   2.267   3.599   6.961
 8019SOL    HW124956   2.362   3.587   6.990
 8019SOL    HW224957   2.226   3.675   7.012
 8020SOL     OW24958   6.642   5.824   0.778
 8020SOL    HW124959   6.600   5.734   0.763
 8020SOL    HW224960   6.682   5.857   0.693
 8021SOL     OW24961   1.097   2.279   1.965
 8021SOL    HW124962   1.171   2.294   1.900
 8021SOL    HW224963   1.129   2.300   2.058
 8022SOL     OW24964   4.247   0.333   2.562
 8022SOL    HW124965   4.221   0.429   2.574
 8022SOL    HW224966   4.263   0.314   2.465
 8023SOL     OW24967   5.752   5.678   3.372
 8023SOL    HW124968   5.701   5.591   3.373
 8023SOL    HW224969   5.688   5.754   3.382
 8024SOL     OW24970   3.303   5.105   0.084
 8024SOL    HW124971   3.231   5.159   0.129
 8024SOL    HW224972   3.265   5.060   0.004
 8025SOL     OW24973   2.320   5.895   6.029
 8025SOL    HW124974   2.232   5.941   6.020
 8025SOL    HW224975   2.394   5.962   6.018
 8026SOL     OW24976   0.545   4.774   6.819
 8026SOL    HW124977   0.565   4.823   6.904
 8026SOL    HW224978   0.551   4.676   6.835
 8027SOL     OW24979   4.214   1.982   5.498
 8027SOL    HW124980   4.286   1.923   5.460
 8027SOL    HW224981   4.149   2.005   5.426
 8028SOL     OW24982   3.377   5.081   5.463
 8028SOL    HW124983   3.342   5.085   5.369
 8028SOL    HW224984   3.382   5.174   5.500
 8029SOL     OW24985   5.678   3.635   0.338
 8029SOL    HW124986   5.583   3.623   0.367
 8029SOL    HW224987   5.737   3.573   0.391
 8030SOL     OW24988   5.251   4.190   6.929
 8030SOL    HW124989   5.185   4.121   6.959
 8030SOL    HW224990   5.233   4.276   6.977
 8031SOL     OW24991   4.853   6.159   2.859
 8031SOL    HW124992   4.808   6.243   2.826
 8031SOL    HW224993   4.803   6.080   2.824
 8032SOL     OW24994   6.050   4.444   6.019
 8032SOL    HW124995   5.963   4.394   6.019
 8032SOL    HW224996   6.066   4.481   6.111
 8033SOL     OW24997   5.151   3.726   6.766
 8033SOL    HW124998   5.126   3.640   6.719
 8033SOL    HW224999   5.219   3.707   6.836
 8034SOL     OW25000   6.093   1.268   4.952
 8034SOL    HW125001   6.147   1.271   4.867
 8034SOL    HW225002   6.024   1.341   4.950
 8035SOL     OW25003   4.773   0.483   5.022
 8035SOL    HW125004   4.675   0.468   5.010
 8035SOL    HW225005   4.797   0.574   4.987
 8036SOL     OW25006   0.754   3.878   2.349
 8036SOL    HW125007   0.828   3.893   2.284
 8036SOL    HW225008   0.709   3.965   2.369
 8037SOL     OW25009   1.337   3.790   2.281
 8037SOL    HW125010   1.400   3.713   2.286
 8037SOL    HW225011   1.348   3.837   2.194
 8038SOL     OW25012   4.747   0.981   2.876
 8038SOL    HW125013   4.774   0.919   2.950
 8038SOL    HW225014   4.828   1.026   2.839
 8039SOL     OW25015   1.158   0.154   3.361
 8039SOL    HW125016   1.142   0.111   3.450
 8039SOL    HW225017   1.196   0.246   3.375
 8040SOL     OW25018   1.532   5.899   0.696
 8040SOL    HW125019   1.473   5.975   0.725
 8040SOL    HW225020   1.590   5.871   0.773
 8041SOL     OW25021   3.057   2.142   2.126
 8041SOL    HW125022   2.996   2.065   2.108
 8041SOL    HW225023   3.011   2.227   2.102
 8042SOL     OW25024   3.701   3.088   3.112
 8042SOL    HW125025   3.627   3.060   3.051
 8042SOL    HW225026   3.680   3.063   3.206
 8043SOL     OW25027   3.954   6.397   1.314
 8043SOL    HW125028   3.901   6.482   1.317
 8043SOL    HW225029   3.924   6.337   1.387
 8044SOL     OW25030   3.392   3.811   0.485
 8044SOL    HW125031   3.384   3.787   0.582
 8044SOL    HW225032   3.460   3.752   0.441
 8045SOL     OW25033   5.376   0.377   1.636
 8045SOL    HW125034   5.354   0.366   1.733
 8045SOL    HW225035   5.306   0.432   1.591
 8046SOL     OW25036   6.766   5.036   6.748
 8046SOL    HW125037   6.805   4.960   6.800
 8046SOL    HW225038   6.690   5.076   6.799
 8047SOL     OW25039   3.732   5.022   5.110
 8047SOL    HW125040   3.705   4.932   5.143
 8047SOL    HW225041   3.772   5.014   5.018
 8048SOL     OW25042   5.084   0.809   5.968
 8048SOL    HW125043   4.996   0.805   6.015
 8048SOL    HW225044   5.073   0.857   5.881
 8049SOL     OW25045   1.480   0.409   1.217
 8049SOL    HW125046   1.458   0.373   1.308
 8049SOL    HW225047   1.550   0.480   1.226
 8050SOL     OW25048   0.530   4.888   2.077
 8050SOL    HW125049   0.465   4.936   2.019
 8050SOL    HW225050   0.480   4.824   2.136
 8051SOL     OW25051   4.975   6.372   3.384
 8051SOL    HW125052   5.063   6.346   3.343
 8051SOL    HW225053   4.923   6.428   3.319
 8052SOL     OW25054   3.778   1.497   1.779
 8052SOL    HW125055   3.860   1.469   1.730
 8052SOL    HW225056   3.764   1.595   1.766
 8053SOL     OW25057   3.840   3.902   3.044
 8053SOL    HW125058   3.868   3.923   3.138
 8053SOL    HW225059   3.743   3.924   3.033
 8054SOL     OW25060   5.529   6.606   4.501
 8054SOL    HW125061   5.479   6.557   4.429
 8054SOL    HW225062   5.491   6.698   4.511
 8055SOL     OW25063   0.241   0.391   5.935
 8055SOL    HW125064   0.258   0.305   5.886
 8055SOL    HW225065   0.302   0.462   5.901
 8056SOL     OW25066   4.006   0.952   3.865
 8056SOL    HW125067   3.971   1.029   3.811
 8056SOL    HW225068   3.982   0.965   3.961
 8057SOL     OW25069   2.495   2.233   2.735
 8057SOL    HW125070   2.593   2.217   2.719
 8057SOL    HW225071   2.454   2.152   2.776
 8058SOL     OW25072   3.717   0.468   2.779
 8058SOL    HW125073   3.799   0.455   2.834
 8058SOL    HW225074   3.636   0.449   2.834
 8059SOL     OW25075   4.487   2.300   4.630
 8059SOL    HW125076   4.449   2.208   4.628
 8059SOL    HW225077   4.463   2.345   4.716
 8060SOL     OW25078   0.313   1.170   4.252
 8060SOL    HW125079   0.394   1.176   4.194
 8060SOL    HW225080   0.305   1.255   4.305
 8061SOL     OW25081   6.461   0.054   1.316
 8061SOL    HW125082   6.390   7.026   1.277
 8061SOL    HW225083   6.548   0.004   1.320
 8062SOL     OW25084   2.988   5.004   4.587
 8062SOL    HW125085   2.931   5.059   4.526
 8062SOL    HW225086   2.947   4.914   4.598
 8063SOL     OW25087   1.968   2.702   0.844
 8063SOL    HW125088   1.952   2.781   0.784
 8063SOL    HW225089   2.014   2.733   0.927
 8064SOL     OW25090   0.019   5.055   1.754
 8064SOL    HW125091   0.003   5.022   1.847
 8064SOL    HW225092   0.088   4.998   1.710
 8065SOL     OW25093   4.506   6.725   3.911
 8065SOL    HW125094   4.476   6.630   3.918
 8065SOL    HW225095   4.526   6.761   4.003
 8066SOL     OW25096   0.803   1.719   6.290
 8066SOL    HW125097   0.836   1.810   6.267
 8066SOL    HW225098   0.868   1.674   6.352
 8067SOL     OW25099   4.763   3.046   1.668
 8067SOL    HW125100   4.711   3.038   1.753
 8067SOL    HW225101   4.743   2.968   1.609
 8068SOL     OW25102   5.893   4.625   6.752
 8068SOL    HW125103   5.801   4.656   6.730
 8068SOL    HW225104   5.947   4.702   6.786
 8069SOL     OW25105   2.017   6.074   1.241
 8069SOL    HW125106   2.066   6.053   1.326
 8069SOL    HW225107   2.081   6.069   1.164
 8070SOL     OW25108   2.600   3.617   0.631
 8070SOL    HW125109   2.582   3.530   0.586
 8070SOL    HW225110   2.603   3.604   0.730
 8071SOL     OW25111   3.081   6.304   4.809
 8071SOL    HW125112   3.041   6.333   4.895
 8071SOL    HW225113   3.098   6.205   4.812
 8072SOL     OW25114   3.237   0.866   0.025
 8072SOL    HW125115   3.325   0.823   0.006
 8072SOL    HW225116   3.165   0.797   0.026
 8073SOL     OW25117   4.390   6.609   6.330
 8073SOL    HW125118   4.376   6.657   6.244
 8073SOL    HW225119   4.379   6.511   6.317
 8074SOL     OW25120   2.917   2.999   6.750
 8074SOL    HW125121   2.936   3.080   6.805
 8074SOL    HW225122   2.989   2.985   6.683
 8075SOL     OW25123   6.473   0.999   1.245
 8075SOL    HW125124   6.548   1.064   1.231
 8075SOL    HW225125   6.415   0.998   1.163
 8076SOL     OW25126   4.735   2.260   5.553
 8076SOL    HW125127   4.794   2.222   5.624
 8076SOL    HW225128   4.749   2.209   5.467
 8077SOL     OW25129   1.391   6.068   1.815
 8077SOL    HW125130   1.455   6.040   1.744
 8077SOL    HW225131   1.319   5.999   1.823
 8078SOL     OW25132   6.110   1.469   0.541
 8078SOL    HW125133   6.023   1.438   0.502
 8078SOL    HW225134   6.119   1.433   0.634
 8079SOL     OW25135   5.401   1.572   3.602
 8079SOL    HW125136   5.355   1.632   3.536
 8079SOL    HW225137   5.493   1.608   3.620
 8080SOL     OW25138   0.974   4.099   0.143
 8080SOL    HW125139   0.878   4.123   0.159
 8080SOL    HW225140   1.031   4.143   0.211
 8081SOL     OW25141   5.078   0.317   5.026
 8081SOL    HW125142   4.999   0.373   5.050
 8081SOL    HW225143   5.078   0.300   4.927
 8082SOL     OW25144   5.597   0.633   1.701
 8082SOL    HW125145   5.550   0.701   1.645
 8082SOL    HW225146   5.634   0.561   1.642
 8083SOL     OW25147   5.195   2.932   2.412
 8083SOL    HW125148   5.205   2.916   2.314
 8083SOL    HW225149   5.100   2.919   2.439
 8084SOL     OW25150   5.548   6.944   1.045
 8084SOL    HW125151   5.547   6.847   1.021
 8084SOL    HW225152   5.487   6.959   1.123
 8085SOL     OW25153   5.943   0.297   2.832
 8085SOL    HW125154   5.904   0.218   2.786
 8085SOL    HW225155   6.034   0.316   2.793
 8086SOL     OW25156   4.605   0.898   3.971
 8086SOL    HW125157   4.593   0.801   3.991
 8086SOL    HW225158   4.518   0.946   3.984
 8087SOL     OW25159   2.187   1.907   1.249
 8087SOL    HW125160   2.126   1.829   1.239
 8087SOL    HW225161   2.141   1.979   1.301
 8088SOL     OW25162   5.889   1.560   1.660
 8088SOL    HW125163   5.862   1.513   1.576
 8088SOL    HW225164   5.810   1.607   1.699
 8089SOL     OW25165   5.298   2.815   0.679
 8089SOL    HW125166   5.215   2.761   0.687
 8089SOL    HW225167   5.372   2.771   0.731
 8090SOL     OW25168   4.442   2.356   6.575
 8090SOL    HW125169   4.485   2.301   6.646
 8090SOL    HW225170   4.351   2.321   6.556
 8091SOL     OW25171   2.575   3.849   6.778
 8091SOL    HW125172   2.610   3.912   6.847
 8091SOL    HW225173   2.475   3.848   6.781
 8092SOL     OW25174   0.971   2.022   4.954
 8092SOL    HW125175   0.899   2.029   4.884
 8092SOL    HW225176   1.057   1.997   4.910
 8093SOL     OW25177   4.925   5.668   1.897
 8093SOL    HW125178   4.838   5.656   1.849
 8093SOL    HW225179   4.986   5.592   1.876
 8094SOL     OW25180   2.221   3.968   4.344
 8094SOL    HW125181   2.257   4.013   4.426
 8094SOL    HW225182   2.223   3.869   4.355
 8095SOL     OW25183   5.468   4.286   4.156
 8095SOL    HW125184   5.368   4.279   4.154
 8095SOL    HW225185   5.499   4.292   4.251
 8096SOL     OW25186   3.448   5.637   3.819
 8096SOL    HW125187   3.463   5.599   3.910
 8096SOL    HW225188   3.513   5.712   3.803
 8097SOL     OW25189   5.003   0.237   3.477
 8097SOL    HW125190   5.015   0.314   3.540
 8097SOL    HW225191   5.082   0.229   3.417
 8098SOL     OW25192   2.132   6.853   4.608
 8098SOL    HW125193   2.093   6.929   4.661
 8098SOL    HW225194   2.079   6.841   4.523
 8099SOL     OW25195   5.928   0.441   4.025
 8099SOL    HW125196   6.016   0.472   4.062
 8099SOL    HW225197   5.913   0.346   4.050
 8100SOL     OW25198   0.521   6.782   6.886
 8100SOL    HW125199   0.555   6.694   6.851
 8100SOL    HW225200   0.447   6.814   6.828
 8101SOL     OW25201   2.427   0.579   4.403
 8101SOL    HW125202   2.451   0.625   4.488
 8101SOL    HW225203   2.447   0.481   4.411
 8102SOL     OW25204   1.203   5.205   5.508
 8102SOL    HW125205   1.235   5.270   5.577
 8102SOL    HW225206   1.265   5.126   5.506
 8103SOL     OW25207   4.417   1.030   0.393
 8103SOL    HW125208   4.406   1.021   0.492
 8103SOL    HW225209   4.423   1.127   0.369
 8104SOL     OW25210   2.803   6.319   5.925
 8104SOL    HW125211   2.896   6.355   5.925
 8104SOL    HW225212   2.746   6.376   5.985
 8105SOL     OW25213   1.700   1.912   3.065
 8105SOL    HW125214   1.610   1.867   3.061
 8105SOL    HW225215   1.725   1.943   2.973
 8106SOL     OW25216   2.310   5.979   3.714
 8106SOL    HW125217   2.352   5.994   3.804
 8106SOL    HW225218   2.297   6.067   3.668
 8107SOL     OW25219   1.503   5.725   5.423
 8107SOL    HW125220   1.465   5.634   5.404
 8107SOL    HW225221   1.589   5.715   5.473
 8108SOL     OW25222   5.598   2.674   5.295
 8108SOL    HW125223   5.546   2.639   5.218
 8108SOL    HW225224   5.548   2.657   5.380
 8109SOL     OW25225   0.967   3.795   4.305
 8109SOL    HW125226   0.944   3.879   4.255
 8109SOL    HW225227   1.061   3.768   4.283
 8110SOL     OW25228   3.650   6.700   1.082
 8110SOL    HW125229   3.619   6.723   1.174
 8110SOL    HW225230   3.617   6.768   1.017
 8111SOL     OW25231   3.983   0.187   6.110
 8111SOL    HW125232   4.076   0.172   6.144
 8111SOL    HW225233   3.939   0.099   6.093
 8112SOL     OW25234   1.384   1.119   5.127
 8112SOL    HW125235   1.329   1.202   5.132
 8112SOL    HW225236   1.425   1.111   5.036
 8113SOL     OW25237   2.542   3.292   6.935
 8113SOL    HW125238   2.581   3.369   6.884
 8113SOL    HW225239   2.450   3.273   6.902
 8114SOL     OW25240   2.007   3.016   2.120
 8114SOL    HW125241   2.062   2.956   2.062
 8114SOL    HW225242   2.043   3.110   2.115
 8115SOL     OW25243   4.011   1.451   1.646
 8115SOL    HW125244   3.974   1.369   1.601
 8115SOL    HW225245   4.110   1.455   1.631
 8116SOL     OW25246   4.660   6.809   4.436
 8116SOL    HW125247   4.596   6.756   4.491
 8116SOL    HW225248   4.720   6.747   4.386
 8117SOL     OW25249   2.349   1.452   4.171
 8117SOL    HW125250   2.377   1.545   4.150
 8117SOL    HW225251   2.375   1.429   4.265
 8118SOL     OW25252   0.083   3.350   5.795
 8118SOL    HW125253   0.044   3.406   5.723
 8118SOL    HW225254   0.173   3.317   5.767
 8119SOL     OW25255   0.102   5.682   5.090
 8119SOL    HW125256   0.124   5.635   5.004
 8119SOL    HW225257   0.140   5.630   5.166
 8120SOL     OW25258   3.713   4.770   6.865
 8120SOL    HW125259   3.783   4.811   6.807
 8120SOL    HW225260   3.630   4.825   6.861
 8121SOL     OW25261   6.766   5.293   3.133
 8121SOL    HW125262   6.855   5.282   3.176
 8121SOL    HW225263   6.769   5.257   3.040
 8122SOL     OW25264   0.616   5.415   2.546
 8122SOL    HW125265   0.710   5.400   2.514
 8122SOL    HW225266   0.617   5.469   2.630
 8123SOL     OW25267   0.213   6.906   0.110
 8123SOL    HW125268   0.151   6.912   0.032
 8123SOL    HW225269   0.164   6.872   0.189
 8124SOL     OW25270   0.447   6.127   1.136
 8124SOL    HW125271   0.472   6.148   1.041
 8124SOL    HW225272   0.467   6.031   1.155
 8125SOL     OW25273   0.272   5.987   3.260
 8125SOL    HW125274   0.347   5.930   3.291
 8125SOL    HW225275   0.276   5.998   3.161
 8126SOL     OW25276   6.222   3.828   2.475
 8126SOL    HW125277   6.224   3.878   2.561
 8126SOL    HW225278   6.228   3.730   2.494
 8127SOL     OW25279   2.280   5.836   0.930
 8127SOL    HW125280   2.315   5.881   0.847
 8127SOL    HW225281   2.187   5.804   0.914
 8128SOL     OW25282   3.062   2.844   0.574
 8128SOL    HW125283   2.966   2.871   0.569
 8128SOL    HW225284   3.070   2.754   0.616
 8129SOL     OW25285   4.810   1.479   5.728
 8129SOL    HW125286   4.793   1.428   5.813
 8129SOL    HW225287   4.725   1.484   5.676
 8130SOL     OW25288   0.762   4.912   6.160
 8130SOL    HW125289   0.763   4.835   6.096
 8130SOL    HW225290   0.784   4.880   6.252
 8131SOL     OW25291   2.434   0.730   0.638
 8131SOL    HW125292   2.372   0.809   0.640
 8131SOL    HW225293   2.504   0.740   0.709
 8132SOL     OW25294   5.962   6.362   6.286
 8132SOL    HW125295   5.938   6.273   6.249
 8132SOL    HW225296   5.976   6.427   6.212
 8133SOL     OW25297   3.505   4.986   2.005
 8133SOL    HW125298   3.582   4.923   2.007
 8133SOL    HW225299   3.443   4.965   2.080
 8134SOL     OW25300   1.787   1.359   4.471
 8134SOL    HW125301   1.855   1.298   4.430
 8134SOL    HW225302   1.761   1.430   4.405
 8135SOL     OW25303   2.398   5.413   2.228
 8135SOL    HW125304   2.384   5.468   2.146
 8135SOL    HW225305   2.417   5.318   2.202
 8136SOL     OW25306   4.738   4.543   2.707
 8136SOL    HW125307   4.709   4.522   2.614
 8136SOL    HW225308   4.816   4.605   2.704
 8137SOL     OW25309   2.332   1.341   4.431
 8137SOL    HW125310   2.345   1.319   4.528
 8137SOL    HW225311   2.268   1.277   4.390
 8138SOL     OW25312   5.872   2.082   1.057
 8138SOL    HW125313   5.906   2.043   0.971
 8138SOL    HW225314   5.791   2.138   1.038
 8139SOL     OW25315   1.863   2.473   3.119
 8139SOL    HW125316   1.862   2.438   3.026
 8139SOL    HW225317   1.777   2.448   3.165
 8140SOL     OW25318   3.469   0.086   0.458
 8140SOL    HW125319   3.481   0.166   0.400
 8140SOL    HW225320   3.442   0.115   0.550
 8141SOL     OW25321   4.892   6.694   5.590
 8141SOL    HW125322   4.807   6.745   5.575
 8141SOL    HW225323   4.945   6.692   5.506
 8142SOL     OW25324   2.139   5.179   0.957
 8142SOL    HW125325   2.099   5.147   0.871
 8142SOL    HW225326   2.121   5.113   1.030
 8143SOL     OW25327   5.049   5.061   0.814
 8143SOL    HW125328   5.026   5.076   0.718
 8143SOL    HW225329   4.999   4.983   0.850
 8144SOL     OW25330   1.123   5.706   5.242
 8144SOL    HW125331   1.182   5.763   5.299
 8144SOL    HW225332   1.030   5.708   5.278
 8145SOL     OW25333   4.908   4.618   0.714
 8145SOL    HW125334   4.904   4.629   0.615
 8145SOL    HW225335   4.820   4.644   0.754
 8146SOL     OW25336   6.440   7.012   5.661
 8146SOL    HW125337   6.481   6.932   5.703
 8146SOL    HW225338   6.371   6.983   5.594
 8147SOL     OW25339   6.788   0.415   0.408
 8147SOL    HW125340   6.773   0.438   0.312
 8147SOL    HW225341   6.819   0.496   0.457
 8148SOL     OW25342   4.304   4.895   6.718
 8148SOL    HW125343   4.276   4.883   6.623
 8148SOL    HW225344   4.302   4.807   6.765
 8149SOL     OW25345   1.823   5.972   3.947
 8149SOL    HW125346   1.892   5.977   4.019
 8149SOL    HW225347   1.773   5.886   3.955
 8150SOL     OW25348   1.050   3.816   1.179
 8150SOL    HW125349   1.037   3.906   1.139
 8150SOL    HW225350   1.137   3.814   1.230
 8151SOL     OW25351   5.587   5.361   3.756
 8151SOL    HW125352   5.684   5.357   3.734
 8151SOL    HW225353   5.537   5.293   3.701
 8152SOL     OW25354   5.704   2.680   3.522
 8152SOL    HW125355   5.614   2.705   3.559
 8152SOL    HW225356   5.717   2.727   3.434
 8153SOL     OW25357   0.672   1.097   3.117
 8153SOL    HW125358   0.652   1.184   3.160
 8153SOL    HW225359   0.696   1.029   3.187
 8154SOL     OW25360   3.530   0.060   2.947
 8154SOL    HW125361   3.486   0.060   3.036
 8154SOL    HW225362   3.614   0.005   2.951
 8155SOL     OW25363   1.221   4.186   2.220
 8155SOL    HW125364   1.310   4.147   2.246
 8155SOL    HW225365   1.230   4.285   2.209
 8156SOL     OW25366   4.956   6.191   1.668
 8156SOL    HW125367   4.882   6.181   1.734
 8156SOL    HW225368   4.924   6.242   1.588
 8157SOL     OW25369   6.451   4.411   6.006
 8157SOL    HW125370   6.417   4.498   5.968
 8157SOL    HW225371   6.482   4.426   6.100
 8158SOL     OW25372   5.015   4.819   6.805
 8158SOL    HW125373   5.000   4.827   6.904
 8158SOL    HW225374   5.072   4.895   6.774
 8159SOL     OW25375   3.502   6.082   5.532
 8159SOL    HW125376   3.422   6.087   5.472
 8159SOL    HW225377   3.518   5.987   5.559
 8160SOL     OW25378   4.579   0.401   3.924
 8160SOL    HW125379   4.665   0.374   3.880
 8160SOL    HW225380   4.504   0.347   3.885
 8161SOL     OW25381   5.942   4.023   6.696
 8161SOL    HW125382   5.897   4.093   6.639
 8161SOL    HW225383   5.873   3.977   6.751
 8162SOL     OW25384   6.925   5.335   6.712
 8162SOL    HW125385   6.954   5.426   6.682
 8162SOL    HW225386   6.987   5.266   6.673
 8163SOL     OW25387   2.146   5.161   5.610
 8163SOL    HW125388   2.236   5.193   5.642
 8163SOL    HW225389   2.113   5.089   5.671
 8164SOL     OW25390   4.486   1.501   6.993
 8164SOL    HW125391   4.580   1.467   6.992
 8164SOL    HW225392   4.471   1.554   0.046
 8165SOL     OW25393   6.894   3.836   6.287
 8165SOL    HW125394   6.961   3.828   6.360
 8165SOL    HW225395   6.802   3.820   6.324
 8166SOL     OW25396   2.489   0.985   3.522
 8166SOL    HW125397   2.494   1.073   3.569
 8166SOL    HW225398   2.429   0.993   3.442
 8167SOL     OW25399   0.286   0.895   3.485
 8167SOL    HW125400   0.278   0.928   3.391
 8167SOL    HW225401   0.352   0.820   3.488
 8168SOL     OW25402   2.661   0.093   1.523
 8168SOL    HW125403   2.717   0.010   1.519
 8168SOL    HW225404   2.713   0.167   1.565
 8169SOL     OW25405   3.947   1.961   0.383
 8169SOL    HW125406   3.911   2.027   0.449
 8169SOL    HW225407   3.905   1.977   0.294
 8170SOL     OW25408   6.435   4.631   1.364
 8170SOL    HW125409   6.431   4.571   1.443
 8170SOL    HW225410   6.414   4.579   1.281
 8171SOL     OW25411   1.899   1.529   6.692
 8171SOL    HW125412   1.893   1.602   6.761
 8171SOL    HW225413   1.903   1.570   6.601
 8172SOL     OW25414   0.142   2.022   1.560
 8172SOL    HW125415   0.085   2.103   1.577
 8172SOL    HW225416   0.120   1.951   1.627
 8173SOL     OW25417   5.674   1.931   2.209
 8173SOL    HW125418   5.660   1.833   2.221
 8173SOL    HW225419   5.587   1.979   2.215
 8174SOL     OW25420   0.855   7.015   2.573
 8174SOL    HW125421   0.925   0.018   2.511
 8174SOL    HW225422   0.764   0.007   2.538
 8175SOL     OW25423   0.283   2.753   4.586
 8175SOL    HW125424   0.249   2.768   4.493
 8175SOL    HW225425   0.220   2.694   4.636
 8176SOL     OW25426   2.602   4.506   1.823
 8176SOL    HW125427   2.639   4.444   1.753
 8176SOL    HW225428   2.675   4.532   1.886
 8177SOL     OW25429   4.358   1.189   3.566
 8177SOL    HW125430   4.267   1.208   3.528
 8177SOL    HW225431   4.363   1.093   3.594
 8178SOL     OW25432   3.497   6.463   1.117
 8178SOL    HW125433   3.419   6.491   1.173
 8178SOL    HW225434   3.564   6.537   1.113
 8179SOL     OW25435   5.847   1.492   5.064
 8179SOL    HW125436   5.763   1.547   5.067
 8179SOL    HW225437   5.867   1.467   4.969
 8180SOL     OW25438   5.863   0.887   0.073
 8180SOL    HW125439   5.881   0.847   7.014
 8180SOL    HW225440   5.832   0.981   0.062
 8181SOL     OW25441   1.642   1.006   0.808
 8181SOL    HW125442   1.666   1.078   0.744
 8181SOL    HW225443   1.662   0.917   0.767
 8182SOL     OW25444   3.580   3.738   4.890
 8182SOL    HW125445   3.514   3.738   4.965
 8182SOL    HW225446   3.551   3.803   4.820
 8183SOL     OW25447   6.028   2.131   4.538
 8183SOL    HW125448   6.082   2.197   4.589
 8183SOL    HW225449   6.087   2.077   4.479
 8184SOL     OW25450   0.596   0.177   0.846
 8184SOL    HW125451   0.673   0.202   0.786
 8184SOL    HW225452   0.516   0.232   0.821
 8185SOL     OW25453   2.025   0.272   0.584
 8185SOL    HW125454   2.000   0.194   0.526
 8185SOL    HW225455   2.049   0.350   0.526
 8186SOL     OW25456   2.599   4.417   5.450
 8186SOL    HW125457   2.683   4.406   5.395
 8186SOL    HW225458   2.540   4.485   5.407
 8187SOL     OW25459   2.167   0.713   5.042
 8187SOL    HW125460   2.103   0.661   4.985
 8187SOL    HW225461   2.259   0.706   5.003
 8188SOL     OW25462   4.732   2.886   3.711
 8188SOL    HW125463   4.697   2.802   3.753
 8188SOL    HW225464   4.694   2.895   3.619
 8189SOL     OW25465   5.410   5.538   2.146
 8189SOL    HW125466   5.471   5.536   2.066
 8189SOL    HW225467   5.425   5.455   2.200
 8190SOL     OW25468   4.915   4.249   4.104
 8190SOL    HW125469   5.001   4.291   4.074
 8190SOL    HW225470   4.936   4.167   4.158
 8191SOL     OW25471   4.529   5.460   2.455
 8191SOL    HW125472   4.462   5.534   2.454
 8191SOL    HW225473   4.483   5.373   2.437
 8192SOL     OW25474   1.344   5.867   2.567
 8192SOL    HW125475   1.349   5.818   2.654
 8192SOL    HW225476   1.425   5.923   2.555
 8193SOL     OW25477   5.982   4.892   5.305
 8193SOL    HW125478   6.024   4.952   5.373
 8193SOL    HW225479   6.014   4.799   5.319
 8194SOL     OW25480   4.725   1.099   0.826
 8194SOL    HW125481   4.668   1.080   0.745
 8194SOL    HW225482   4.666   1.130   0.900
 8195SOL     OW25483   6.668   0.291   2.894
 8195SOL    HW125484   6.632   0.364   2.953
 8195SOL    HW225485   6.725   0.230   2.948
 8196SOL     OW25486   4.616   6.354   6.989
 8196SOL    HW125487   4.571   6.441   6.968
 8196SOL    HW225488   4.547   6.281   6.994
 8197SOL     OW25489   3.457   1.295   0.942
 8197SOL    HW125490   3.393   1.330   0.873
 8197SOL    HW225491   3.540   1.352   0.941
 8198SOL     OW25492   3.767   6.635   2.756
 8198SOL    HW125493   3.734   6.595   2.671
 8198SOL    HW225494   3.697   6.628   2.826
 8199SOL     OW25495   5.564   3.493   5.576
 8199SOL    HW125496   5.546   3.586   5.546
 8199SOL    HW225497   5.488   3.433   5.547
 8200SOL     OW25498   5.560   4.494   1.542
 8200SOL    HW125499   5.646   4.452   1.571
 8200SOL    HW225500   5.499   4.423   1.505
 8201SOL     OW25501   6.702   1.038   4.912
 8201SOL    HW125502   6.733   1.096   4.837
 8201SOL    HW225503   6.728   1.079   4.999
 8202SOL     OW25504   0.578   5.538   3.681
 8202SOL    HW125505   0.483   5.536   3.651
 8202SOL    HW225506   0.584   5.515   3.778
 8203SOL     OW25507   2.355   2.223   6.946
 8203SOL    HW125508   2.400   2.312   6.935
 8203SOL    HW225509   2.311   2.197   6.860
 8204SOL     OW25510   3.895   4.176   0.145
 8204SOL    HW125511   3.844   4.231   0.211
 8204SOL    HW225512   3.854   4.184   0.055
 8205SOL     OW25513   6.821   4.295   6.824
 8205SOL    HW125514   6.880   4.371   6.797
 8205SOL    HW225515   6.754   4.278   6.751
 8206SOL     OW25516   4.748   2.362   6.756
 8206SOL    HW125517   4.704   2.359   6.846
 8206SOL    HW225518   4.735   2.453   6.716
 8207SOL     OW25519   3.324   3.272   4.444
 8207SOL    HW125520   3.305   3.308   4.353
 8207SOL    HW225521   3.260   3.310   4.510
 8208SOL     OW25522   1.163   0.826   0.835
 8208SOL    HW125523   1.230   0.900   0.838
 8208SOL    HW225524   1.211   0.738   0.841
 8209SOL     OW25525   0.320   0.721   4.801
 8209SOL    HW125526   0.280   0.714   4.710
 8209SOL    HW225527   0.382   0.799   4.805
 8210SOL     OW25528   2.401   2.461   0.646
 8210SOL    HW125529   2.446   2.372   0.637
 8210SOL    HW225530   2.345   2.478   0.566
 8211SOL     OW25531   3.815   4.295   1.377
 8211SOL    HW125532   3.799   4.334   1.286
 8211SOL    HW225533   3.747   4.331   1.441
 8212SOL     OW25534   1.107   2.230   2.725
 8212SOL    HW125535   1.204   2.214   2.742
 8212SOL    HW225536   1.094   2.323   2.692
 8213SOL     OW25537   0.092   4.577   1.531
 8213SOL    HW125538   7.030   4.578   1.495
 8213SOL    HW225539   0.095   4.525   1.616
 8214SOL     OW25540   6.489   4.897   3.805
 8214SOL    HW125541   6.553   4.839   3.854
 8214SOL    HW225542   6.533   4.982   3.778
 8215SOL     OW25543   3.646   5.803   5.585
 8215SOL    HW125544   3.550   5.786   5.610
 8215SOL    HW225545   3.692   5.850   5.661
 8216SOL     OW25546   5.466   5.455   3.977
 8216SOL    HW125547   5.506   5.416   3.893
 8216SOL    HW225548   5.522   5.532   4.007
 8217SOL     OW25549   1.509   4.905   0.507
 8217SOL    HW125550   1.565   4.983   0.534
 8217SOL    HW225551   1.551   4.821   0.542
 8218SOL     OW25552   6.897   0.044   6.432
 8218SOL    HW125553   6.900   7.016   6.351
 8218SOL    HW225554   6.823   0.110   6.423
 8219SOL     OW25555   4.255   2.161   0.304
 8219SOL    HW125556   4.191   2.214   0.361
 8219SOL    HW225557   4.249   2.065   0.328
 8220SOL     OW25558   3.681   2.908   3.378
 8220SOL    HW125559   3.730   2.985   3.417
 8220SOL    HW225560   3.745   2.833   3.361
 8221SOL     OW25561   5.390   6.198   4.425
 8221SOL    HW125562   5.435   6.119   4.467
 8221SOL    HW225563   5.345   6.169   4.341
 8222SOL     OW25564   5.424   1.407   2.236
 8222SOL    HW125565   5.330   1.441   2.231
 8222SOL    HW225566   5.439   1.365   2.326
 8223SOL     OW25567   1.167   4.759   6.195
 8223SOL    HW125568   1.099   4.830   6.178
 8223SOL    HW225569   1.234   4.792   6.262
 8224SOL     OW25570   6.609   1.182   2.632
 8224SOL    HW125571   6.518   1.142   2.640
 8224SOL    HW225572   6.602   1.281   2.629
 8225SOL     OW25573   3.872   1.126   0.045
 8225SOL    HW125574   3.881   1.219   0.082
 8225SOL    HW225575   3.776   1.104   0.032
 8226SOL     OW25576   4.309   6.538   1.982
 8226SOL    HW125577   4.250   6.535   1.901
 8226SOL    HW225578   4.253   6.530   2.064
 8227SOL     OW25579   6.086   2.153   3.521
 8227SOL    HW125580   6.168   2.140   3.466
 8227SOL    HW225581   6.005   2.133   3.466
 8228SOL     OW25582   6.777   1.935   5.578
 8228SOL    HW125583   6.861   1.885   5.558
 8228SOL    HW225584   6.748   1.917   5.672
 8229SOL     OW25585   3.837   4.211   0.880
 8229SOL    HW125586   3.820   4.283   0.814
 8229SOL    HW225587   3.787   4.128   0.854
 8230SOL     OW25588   3.933   0.094   4.992
 8230SOL    HW125589   3.998   0.169   4.980
 8230SOL    HW225590   3.932   0.066   5.088
 8231SOL     OW25591   3.993   5.048   0.594
 8231SOL    HW125592   3.973   4.992   0.675
 8231SOL    HW225593   3.998   5.144   0.621
 8232SOL     OW25594   4.816   1.538   1.405
 8232SOL    HW125595   4.759   1.464   1.439
 8232SOL    HW225596   4.909   1.505   1.391
 8233SOL     OW25597   1.339   6.084   6.704
 8233SOL    HW125598   1.406   6.128   6.644
 8233SOL    HW225599   1.286   6.017   6.651
 8234SOL     OW25600   2.907   4.425   6.709
 8234SOL    HW125601   2.920   4.432   6.610
 8234SOL    HW225602   2.866   4.336   6.731
 8235SOL     OW25603   1.136   3.662   0.129
 8235SOL    HW125604   1.058   3.723   0.144
 8235SOL    HW225605   1.138   3.636   0.032
 8236SOL     OW25606   0.208   4.654   0.154
 8236SOL    HW125607   0.207   4.559   0.187
 8236SOL    HW225608   0.255   4.657   0.066
 8237SOL     OW25609   4.210   6.599   4.757
 8237SOL    HW125610   4.289   6.645   4.798
 8237SOL    HW225611   4.157   6.552   4.828
 8238SOL     OW25612   1.004   5.151   6.756
 8238SOL    HW125613   0.910   5.169   6.727
 8238SOL    HW225614   1.056   5.236   6.757
 8239SOL     OW25615   6.285   0.851   5.255
 8239SOL    HW125616   6.380   0.837   5.229
 8239SOL    HW225617   6.227   0.849   5.174
 8240SOL     OW25618   3.320   4.137   2.689
 8240SOL    HW125619   3.328   4.120   2.591
 8240SOL    HW225620   3.227   4.168   2.709
 8241SOL     OW25621   4.280   0.454   0.009
 8241SOL    HW125622   4.347   0.527   7.025
 8241SOL    HW225623   4.201   0.469   6.980
 8242SOL     OW25624   0.257   5.047   5.636
 8242SOL    HW125625   0.323   5.045   5.561
 8242SOL    HW225626   0.293   4.994   5.713
 8243SOL     OW25627   0.420   3.139   0.660
 8243SOL    HW125628   0.371   3.129   0.574
 8243SOL    HW225629   0.495   3.073   0.663
 8244SOL     OW25630   0.743   0.127   4.675
 8244SOL    HW125631   0.816   0.105   4.610
 8244SOL    HW225632   0.680   0.193   4.634
 8245SOL     OW25633   4.118   2.290   3.147
 8245SOL    HW125634   4.022   2.264   3.158
 8245SOL    HW225635   4.142   2.286   3.050
 8246SOL     OW25636   0.681   2.784   5.754
 8246SOL    HW125637   0.772   2.775   5.793
 8246SOL    HW225638   0.658   2.881   5.745
 8247SOL     OW25639   1.122   6.852   2.374
 8247SOL    HW125640   1.216   6.826   2.399
 8247SOL    HW225641   1.111   6.843   2.275
 8248SOL     OW25642   6.106   5.267   4.402
 8248SOL    HW125643   6.129   5.363   4.422
 8248SOL    HW225644   6.090   5.219   4.488
 8249SOL     OW25645   1.604   2.822   4.734
 8249SOL    HW125646   1.687   2.803   4.787
 8249SOL    HW225647   1.593   2.921   4.725
 8250SOL     OW25648   3.387   4.118   2.375
 8250SOL    HW125649   3.446   4.198   2.363
 8250SOL    HW225650   3.308   4.125   2.314
 8251SOL     OW25651   5.860   3.366   3.483
 8251SOL    HW125652   5.886   3.290   3.544
 8251SOL    HW225653   5.788   3.420   3.526
 8252SOL     OW25654   3.229   1.577   5.547
 8252SOL    HW125655   3.279   1.498   5.513
 8252SOL    HW225656   3.134   1.551   5.566
 8253SOL     OW25657   4.439   4.215   5.554
 8253SOL    HW125658   4.398   4.209   5.463
 8253SOL    HW225659   4.450   4.123   5.592
 8254SOL     OW25660   4.741   4.507   5.239
 8254SOL    HW125661   4.776   4.597   5.265
 8254SOL    HW225662   4.809   4.437   5.261
 8255SOL     OW25663   1.984   6.976   5.199
 8255SOL    HW125664   1.997   6.877   5.193
 8255SOL    HW225665   1.941   7.010   5.116
 8256SOL     OW25666   6.309   6.950   2.440
 8256SOL    HW125667   6.395   6.935   2.393
 8256SOL    HW225668   6.321   7.019   2.511
 8257SOL     OW25669   6.191   3.469   3.728
 8257SOL    HW125670   6.192   3.450   3.827
 8257SOL    HW225671   6.281   3.448   3.690
 8258SOL     OW25672   5.646   2.156   0.538
 8258SOL    HW125673   5.572   2.222   0.530
 8258SOL    HW225674   5.707   2.183   0.612
 8259SOL     OW25675   4.035   2.230   3.721
 8259SOL    HW125676   4.033   2.298   3.795
 8259SOL    HW225677   4.111   2.248   3.660
 8260SOL     OW25678   2.835   6.653   1.286
 8260SOL    HW125679   2.913   6.596   1.258
 8260SOL    HW225680   2.764   6.595   1.325
 8261SOL     OW25681   5.803   0.440   2.023
 8261SOL    HW125682   5.836   0.518   1.970
 8261SOL    HW225683   5.837   0.447   2.117
 8262SOL     OW25684   0.194   2.810   6.888
 8262SOL    HW125685   0.145   2.891   6.857
 8262SOL    HW225686   0.293   2.828   6.883
 8263SOL     OW25687   1.423   2.263   6.654
 8263SOL    HW125688   1.393   2.223   6.740
 8263SOL    HW225689   1.368   2.225   6.579
 8264SOL     OW25690   3.028   6.110   2.876
 8264SOL    HW125691   2.934   6.087   2.900
 8264SOL    HW225692   3.090   6.041   2.914
 8265SOL     OW25693   0.748   6.873   0.744
 8265SOL    HW125694   0.783   6.794   0.795
 8265SOL    HW225695   0.749   6.953   0.803
 8266SOL     OW25696   2.251   1.196   3.370
 8266SOL    HW125697   2.160   1.172   3.336
 8266SOL    HW225698   2.243   1.262   3.444
 8267SOL     OW25699   1.138   2.724   1.213
 8267SOL    HW125700   1.202   2.779   1.266
 8267SOL    HW225701   1.044   2.745   1.242
 8268SOL     OW25702   1.855   6.368   6.002
 8268SOL    HW125703   1.804   6.314   5.935
 8268SOL    HW225704   1.936   6.317   6.031
 8269SOL     OW25705   4.089   1.917   2.066
 8269SOL    HW125706   4.044   2.002   2.038
 8269SOL    HW225707   4.022   1.843   2.067
 8270SOL     OW25708   2.755   6.846   5.505
 8270SOL    HW125709   2.828   6.811   5.563
 8270SOL    HW225710   2.790   6.864   5.413
 8271SOL     OW25711   0.265   0.513   3.515
 8271SOL    HW125712   0.166   0.502   3.523
 8271SOL    HW225713   0.292   0.500   3.420
 8272SOL     OW25714   4.838   1.972   2.401
 8272SOL    HW125715   4.909   1.902   2.406
 8272SOL    HW225716   4.877   2.055   2.362
 8273SOL     OW25717   2.979   0.794   0.389
 8273SOL    HW125718   2.949   0.724   0.324
 8273SOL    HW225719   2.933   0.778   0.477
 8274SOL     OW25720   5.377   4.896   3.724
 8274SOL    HW125721   5.470   4.900   3.761
 8274SOL    HW225722   5.316   4.860   3.794
 8275SOL     OW25723   5.104   1.282   5.796
 8275SOL    HW125724   5.164   1.213   5.836
 8275SOL    HW225725   5.117   1.368   5.845
 8276SOL     OW25726   1.071   1.899   4.016
 8276SOL    HW125727   1.046   1.972   3.952
 8276SOL    HW225728   1.087   1.814   3.965
 8277SOL     OW25729   0.309   0.135   0.065
 8277SOL    HW125730   0.285   0.039   0.080
 8277SOL    HW225731   0.261   0.170   7.016
 8278SOL     OW25732   2.638   1.902   5.625
 8278SOL    HW125733   2.580   1.982   5.607
 8278SOL    HW225734   2.728   1.933   5.654
 8279SOL     OW25735   1.824   6.704   4.698
 8279SOL    HW125736   1.900   6.639   4.693
 8279SOL    HW225737   1.745   6.667   4.650
 8280SOL     OW25738   2.024   3.830   0.694
 8280SOL    HW125739   1.981   3.919   0.676
 8280SOL    HW225740   2.033   3.779   0.609
 8281SOL     OW25741   2.922   4.840   1.807
 8281SOL    HW125742   3.022   4.834   1.815
 8281SOL    HW225743   2.880   4.756   1.840
 8282SOL     OW25744   4.801   3.629   6.808
 8282SOL    HW125745   4.878   3.687   6.783
 8282SOL    HW225746   4.725   3.686   6.839
 8283SOL     OW25747   1.713   5.503   6.282
 8283SOL    HW125748   1.748   5.531   6.371
 8283SOL    HW225749   1.754   5.559   6.211
 8284SOL     OW25750   1.084   3.840   0.830
 8284SOL    HW125751   1.165   3.797   0.790
 8284SOL    HW225752   1.028   3.880   0.758
 8285SOL     OW25753   2.955   3.812   4.217
 8285SOL    HW125754   2.991   3.719   4.221
 8285SOL    HW225755   2.956   3.843   4.122
 8286SOL     OW25756   6.042   2.577   6.433
 8286SOL    HW125757   5.976   2.619   6.495
 8286SOL    HW225758   6.072   2.644   6.365
 8287SOL     OW25759   2.051   5.390   3.994
 8287SOL    HW125760   2.066   5.467   3.931
 8287SOL    HW225761   2.114   5.397   4.071
 8288SOL     OW25762   3.215   1.926   1.749
 8288SOL    HW125763   3.269   1.845   1.726
 8288SOL    HW225764   3.254   1.972   1.828
 8289SOL     OW25765   0.853   5.601   0.819
 8289SOL    HW125766   0.824   5.657   0.896
 8289SOL    HW225767   0.780   5.538   0.794
 8290SOL     OW25768   6.265   1.386   1.408
 8290SOL    HW125769   6.266   1.330   1.326
 8290SOL    HW225770   6.174   1.383   1.450
 8291SOL     OW25771   5.352   6.266   5.752
 8291SOL    HW125772   5.291   6.308   5.819
 8291SOL    HW225773   5.320   6.288   5.660
 8292SOL     OW25774   2.638   6.473   6.856
 8292SOL    HW125775   2.538   6.470   6.844
 8292SOL    HW225776   2.679   6.394   6.810
 8293SOL     OW25777   3.319   6.009   0.060
 8293SOL    HW125778   3.361   5.999   0.150
 8293SOL    HW225779   3.370   6.076   0.007
 8294SOL     OW25780   5.145   3.978   4.534
 8294SOL    HW125781   5.051   3.983   4.567
 8294SOL    HW225782   5.157   3.895   4.479
 8295SOL     OW25783   5.178   5.196   1.668
 8295SOL    HW125784   5.165   5.170   1.572
 8295SOL    HW225785   5.243   5.134   1.711
 8296SOL     OW25786   1.444   5.259   6.368
 8296SOL    HW125787   1.416   5.347   6.407
 8296SOL    HW225788   1.468   5.270   6.272
 8297SOL     OW25789   6.163   2.701   2.612
 8297SOL    HW125790   6.129   2.672   2.701
 8297SOL    HW225791   6.254   2.742   2.623
 8298SOL     OW25792   6.482   1.304   1.010
 8298SOL    HW125793   6.558   1.305   1.075
 8298SOL    HW225794   6.517   1.295   0.917
 8299SOL     OW25795   6.844   3.269   1.446
 8299SOL    HW125796   6.919   3.308   1.392
 8299SOL    HW225797   6.776   3.230   1.384
 8300SOL     OW25798   0.372   5.877   4.522
 8300SOL    HW125799   0.316   5.955   4.495
 8300SOL    HW225800   0.317   5.814   4.576
 8301SOL     OW25801   3.963   1.968   1.096
 8301SOL    HW125802   3.904   1.998   1.170
 8301SOL    HW225803   3.948   2.025   1.015
 8302SOL     OW25804   5.705   6.543   0.259
 8302SOL    HW125805   5.656   6.523   0.344
 8302SOL    HW225806   5.779   6.607   0.279
 8303SOL     OW25807   6.400   0.536   3.845
 8303SOL    HW125808   6.312   0.494   3.864
 8303SOL    HW225809   6.469   0.501   3.909
 8304SOL     OW25810   0.130   3.742   0.815
 8304SOL    HW125811   0.032   3.756   0.833
 8304SOL    HW225812   0.153   3.646   0.832
 8305SOL     OW25813   4.263   5.242   4.450
 8305SOL    HW125814   4.168   5.222   4.424
 8305SOL    HW225815   4.320   5.245   4.368
 8306SOL     OW25816   0.154   2.561   6.711
 8306SOL    HW125817   0.063   2.527   6.686
 8306SOL    HW225818   0.145   2.644   6.766
 8307SOL     OW25819   3.756   5.573   1.464
 8307SOL    HW125820   3.849   5.605   1.479
 8307SOL    HW225821   3.693   5.623   1.523
 8308SOL     OW25822   3.994   5.684   1.491
 8308SOL    HW125823   4.048   5.752   1.541
 8308SOL    HW225824   4.036   5.667   1.402
 8309SOL     OW25825   6.563   5.377   3.852
 8309SOL    HW125826   6.645   5.414   3.895
 8309SOL    HW225827   6.499   5.345   3.922
 8310SOL     OW25828   0.273   4.591   0.514
 8310SOL    HW125829   0.240   4.552   0.600
 8310SOL    HW225830   0.216   4.558   0.438
 8311SOL     OW25831   0.544   2.075   4.422
 8311SOL    HW125832   0.527   2.114   4.513
 8311SOL    HW225833   0.641   2.088   4.399
 8312SOL     OW25834   4.696   0.552   0.037
 8312SOL    HW125835   4.705   0.498   6.984
 8312SOL    HW225836   4.787   0.580   0.069
 8313SOL     OW25837   5.043   0.537   1.898
 8313SOL    HW125838   4.971   0.480   1.937
 8313SOL    HW225839   5.071   0.499   1.809
 8314SOL     OW25840   4.695   0.952   0.311
 8314SOL    HW125841   4.731   0.896   0.236
 8314SOL    HW225842   4.601   0.922   0.332
 8315SOL     OW25843   4.127   3.344   0.983
 8315SOL    HW125844   4.155   3.277   0.914
 8315SOL    HW225845   4.086   3.295   1.061
 8316SOL     OW25846   0.211   2.408   2.410
 8316SOL    HW125847   0.155   2.489   2.394
 8316SOL    HW225848   0.290   2.433   2.465
 8317SOL     OW25849   1.913   2.334   2.517
 8317SOL    HW125850   1.893   2.242   2.552
 8317SOL    HW225851   2.000   2.333   2.468
 8318SOL     OW25852   4.614   1.217   4.862
 8318SOL    HW125853   4.566   1.221   4.950
 8318SOL    HW225854   4.712   1.204   4.878
 8319SOL     OW25855   2.265   2.127   6.705
 8319SOL    HW125856   2.274   2.029   6.692
 8319SOL    HW225857   2.325   2.175   6.641
 8320SOL     OW25858   3.283   3.060   1.592
 8320SOL    HW125859   3.270   3.063   1.493
 8320SOL    HW225860   3.322   2.972   1.618
 8321SOL     OW25861   6.604   1.228   6.843
 8321SOL    HW125862   6.509   1.198   6.837
 8321SOL    HW225863   6.614   1.295   6.917
 8322SOL     OW25864   0.096   0.260   0.606
 8322SOL    HW125865   0.151   0.177   0.619
 8322SOL    HW225866   0.079   0.303   0.695
 8323SOL     OW25867   5.594   5.692   2.318
 8323SOL    HW125868   5.533   5.770   2.331
 8323SOL    HW225869   5.554   5.612   2.363
 8324SOL     OW25870   5.404   6.876   1.482
 8324SOL    HW125871   5.388   6.936   1.404
 8324SOL    HW225872   5.434   6.931   1.560
 8325SOL     OW25873   2.525   3.461   5.829
 8325SOL    HW125874   2.450   3.395   5.839
 8325SOL    HW225875   2.586   3.455   5.908
 8326SOL     OW25876   5.067   3.807   5.918
 8326SOL    HW125877   5.132   3.754   5.863
 8326SOL    HW225878   5.056   3.898   5.878
 8327SOL     OW25879   6.385   1.187   6.579
 8327SOL    HW125880   6.286   1.193   6.569
 8327SOL    HW225881   6.424   1.279   6.573
 8328SOL     OW25882   2.392   5.501   5.482
 8328SOL    HW125883   2.397   5.499   5.382
 8328SOL    HW225884   2.421   5.412   5.519
 8329SOL     OW25885   0.720   3.182   6.279
 8329SOL    HW125886   0.731   3.152   6.184
 8329SOL    HW225887   0.747   3.279   6.286
 8330SOL     OW25888   2.980   0.717   0.708
 8330SOL    HW125889   3.054   0.773   0.670
 8330SOL    HW225890   2.969   0.739   0.805
 8331SOL     OW25891   2.883   1.400   1.524
 8331SOL    HW125892   2.882   1.500   1.531
 8331SOL    HW225893   2.901   1.361   1.614
 8332SOL     OW25894   5.407   5.253   2.543
 8332SOL    HW125895   5.388   5.183   2.474
 8332SOL    HW225896   5.468   5.323   2.504
 8333SOL     OW25897   0.524   6.762   6.278
 8333SOL    HW125898   0.566   6.788   6.366
 8333SOL    HW225899   0.522   6.663   6.271
 8334SOL     OW25900   4.288   1.975   4.078
 8334SOL    HW125901   4.380   1.984   4.039
 8334SOL    HW225902   4.265   1.878   4.087
 8335SOL     OW25903   6.418   6.090   6.946
 8335SOL    HW125904   6.514   6.076   6.970
 8335SOL    HW225905   6.394   6.186   6.959
 8336SOL     OW25906   6.117   5.923   2.882
 8336SOL    HW125907   6.125   6.011   2.834
 8336SOL    HW225908   6.180   5.922   2.959
 8337SOL     OW25909   1.525   6.067   2.552
 8337SOL    HW125910   1.472   6.152   2.549
 8337SOL    HW225911   1.610   6.083   2.602
 8338SOL     OW25912   2.532   5.436   1.672
 8338SOL    HW125913   2.434   5.448   1.657
 8338SOL    HW225914   2.560   5.348   1.632
 8339SOL     OW25915   5.664   0.380   1.522
 8339SOL    HW125916   5.715   0.370   1.608
 8339SOL    HW225917   5.574   0.338   1.532
 8340SOL     OW25918   4.966   3.097   1.473
 8340SOL    HW125919   5.032   3.022   1.483
 8340SOL    HW225920   4.894   3.087   1.541
 8341SOL     OW25921   2.112   6.105   0.377
 8341SOL    HW125922   2.126   6.049   0.295
 8341SOL    HW225923   2.184   6.174   0.382
 8342SOL     OW25924   4.507   7.010   1.503
 8342SOL    HW125925   4.444   0.038   1.553
 8342SOL    HW225926   4.543   6.940   1.564
 8343SOL     OW25927   1.184   5.349   5.804
 8343SOL    HW125928   1.243   5.427   5.784
 8343SOL    HW225929   1.095   5.382   5.836
 8344SOL     OW25930   4.706   6.774   5.240
 8344SOL    HW125931   4.779   6.829   5.200
 8344SOL    HW225932   4.732   6.678   5.240
 8345SOL     OW25933   4.731   1.529   3.305
 8345SOL    HW125934   4.705   1.469   3.229
 8345SOL    HW225935   4.830   1.526   3.318
 8346SOL     OW25936   3.047   4.641   0.651
 8346SOL    HW125937   3.090   4.592   0.727
 8346SOL    HW225938   3.097   4.725   0.632
 8347SOL     OW25939   3.497   5.471   4.735
 8347SOL    HW125940   3.444   5.394   4.700
 8347SOL    HW225941   3.444   5.555   4.728
 8348SOL     OW25942   2.063   0.290   2.476
 8348SOL    HW125943   2.145   0.248   2.515
 8348SOL    HW225944   2.006   0.328   2.549
 8349SOL     OW25945   5.826   6.501   1.424
 8349SOL    HW125946   5.760   6.437   1.462
 8349SOL    HW225947   5.796   6.594   1.440
 8350SOL     OW25948   4.528   0.394   4.985
 8350SOL    HW125949   4.438   0.439   4.990
 8350SOL    HW225950   4.515   0.295   4.990
 8351SOL     OW25951   5.055   4.621   4.239
 8351SOL    HW125952   5.080   4.535   4.283
 8351SOL    HW225953   5.074   4.697   4.300
 8352SOL     OW25954   0.238   6.709   3.226
 8352SOL    HW125955   0.244   6.778   3.154
 8352SOL    HW225956   0.284   6.743   3.308
 8353SOL     OW25957   6.756   3.810   1.408
 8353SOL    HW125958   6.774   3.886   1.471
 8353SOL    HW225959   6.841   3.781   1.365
 8354SOL     OW25960   3.948   6.976   6.459
 8354SOL    HW125961   3.992   0.034   6.447
 8354SOL    HW225962   3.880   6.982   6.532
 8355SOL     OW25963   2.796   0.756   6.869
 8355SOL    HW125964   2.889   0.754   6.833
 8355SOL    HW225965   2.776   0.847   6.906
 8356SOL     OW25966   1.832   6.235   1.103
 8356SOL    HW125967   1.892   6.178   1.159
 8356SOL    HW225968   1.848   6.332   1.124
 8357SOL     OW25969   3.539   0.631   5.167
 8357SOL    HW125970   3.446   0.653   5.197
 8357SOL    HW225971   3.542   0.537   5.134
 8358SOL     OW25972   0.892   3.972   5.770
 8358SOL    HW125973   0.830   3.987   5.847
 8358SOL    HW225974   0.986   3.985   5.799
 8359SOL     OW25975   2.801   0.286   5.260
 8359SOL    HW125976   2.873   0.349   5.228
 8359SOL    HW225977   2.744   0.260   5.182
 8360SOL     OW25978   3.571   5.970   1.404
 8360SOL    HW125979   3.563   6.065   1.375
 8360SOL    HW225980   3.490   5.944   1.456
 8361SOL     OW25981   3.220   6.807   2.886
 8361SOL    HW125982   3.287   6.807   2.960
 8361SOL    HW225983   3.178   6.897   2.878
 8362SOL     OW25984   3.701   2.642   0.792
 8362SOL    HW125985   3.624   2.630   0.855
 8362SOL    HW225986   3.681   2.594   0.706
 8363SOL     OW25987   0.686   2.534   6.638
 8363SOL    HW125988   0.756   2.593   6.679
 8363SOL    HW225989   0.604   2.536   6.695
 8364SOL     OW25990   0.611   3.588   2.227
 8364SOL    HW125991   0.516   3.597   2.258
 8364SOL    HW225992   0.613   3.577   2.127
 8365SOL     OW25993   2.153   3.934   2.043
 8365SOL    HW125994   2.173   3.931   2.141
 8365SOL    HW225995   2.114   3.846   2.014
 8366SOL     OW25996   2.686   5.677   2.275
 8366SOL    HW125997   2.670   5.649   2.370
 8366SOL    HW225998   2.612   5.737   2.245
 8367SOL     OW25999   3.971   6.166   3.892
 8367SOL    HW126000   4.009   6.200   3.978
 8367SOL    HW226001   4.037   6.104   3.849
 8368SOL     OW26002   2.348   6.669   6.619
 8368SOL    HW126003   2.377   6.713   6.704
 8368SOL    HW226004   2.256   6.702   6.595
 8369SOL     OW26005   2.071   6.985   6.856
 8369SOL    HW126006   2.034   6.894   6.834
 8369SOL    HW226007   2.170   6.978   6.869
 8370SOL     OW26008   2.510   2.290   5.114
 8370SOL    HW126009   2.463   2.375   5.092
 8370SOL    HW226010   2.599   2.311   5.156
 8371SOL     OW26011   2.010   4.775   1.149
 8371SOL    HW126012   1.964   4.859   1.179
 8371SOL    HW226013   1.943   4.701   1.140
 8372SOL     OW26014   0.479   5.511   2.332
 8372SOL    HW126015   0.387   5.536   2.362
 8372SOL    HW226016   0.534   5.483   2.411
 8373SOL     OW26017   1.661   0.109   3.830
 8373SOL    HW126018   1.587   0.171   3.806
 8373SOL    HW226019   1.632   0.015   3.815
 8374SOL     OW26020   0.307   1.091   5.271
 8374SOL    HW126021   0.369   1.156   5.313
 8374SOL    HW226022   0.357   1.007   5.247
 8375SOL     OW26023   4.283   6.941   5.119
 8375SOL    HW126024   4.338   6.921   5.200
 8375SOL    HW226025   4.198   6.888   5.123
 8376SOL     OW26026   1.699   0.664   3.918
 8376SOL    HW126027   1.752   0.592   3.962
 8376SOL    HW226028   1.761   0.730   3.876
 8377SOL     OW26029   5.284   6.035   1.090
 8377SOL    HW126030   5.276   5.962   1.158
 8377SOL    HW226031   5.260   6.122   1.132
 8378SOL     OW26032   4.235   4.864   2.525
 8378SOL    HW126033   4.212   4.814   2.608
 8378SOL    HW226034   4.207   4.959   2.534
 8379SOL     OW26035   5.904   2.345   1.426
 8379SOL    HW126036   5.942   2.337   1.333
 8379SOL    HW226037   5.848   2.428   1.431
 8380SOL     OW26038   0.181   0.510   2.388
 8380SOL    HW126039   0.086   0.489   2.366
 8380SOL    HW226040   0.221   0.565   2.314
 8381SOL     OW26041   0.106   3.311   4.804
 8381SOL    HW126042   0.024   3.355   4.842
 8381SOL    HW226043   0.182   3.375   4.805
 8382SOL     OW26044   2.546   0.542   2.302
 8382SOL    HW126045   2.532   0.636   2.333
 8382SOL    HW226046   2.600   0.541   2.218
 8383SOL     OW26047   2.198   0.359   5.859
 8383SOL    HW126048   2.148   0.401   5.783
 8383SOL    HW226049   2.215   0.262   5.838
 8384SOL     OW26050   6.831   0.959   0.510
 8384SOL    HW126051   6.849   0.954   0.412
 8384SOL    HW226052   6.853   1.051   0.543
 8385SOL     OW26053   6.457   1.751   1.522
 8385SOL    HW126054   6.385   1.809   1.482
 8385SOL    HW226055   6.418   1.698   1.598
 8386SOL     OW26056   1.064   4.533   2.074
 8386SOL    HW126057   1.118   4.490   2.001
 8386SOL    HW226058   1.108   4.517   2.162
 8387SOL     OW26059   1.894   1.045   2.103
 8387SOL    HW126060   1.891   0.964   2.161
 8387SOL    HW226061   1.803   1.087   2.101
 8388SOL     OW26062   2.278   6.323   0.286
 8388SOL    HW126063   2.228   6.406   0.307
 8388SOL    HW226064   2.340   6.339   0.209
 8389SOL     OW26065   6.549   3.010   3.144
 8389SOL    HW126066   6.634   2.975   3.106
 8389SOL    HW226067   6.563   3.038   3.239
 8390SOL     OW26068   3.886   0.842   6.168
 8390SOL    HW126069   3.849   0.780   6.098
 8390SOL    HW226070   3.866   0.806   6.259
 8391SOL     OW26071   6.686   5.288   0.940
 8391SOL    HW126072   6.635   5.205   0.915
 8391SOL    HW226073   6.730   5.326   0.859
 8392SOL     OW26074   6.545   3.800   4.214
 8392SOL    HW126075   6.559   3.897   4.194
 8392SOL    HW226076   6.496   3.791   4.301
 8393SOL     OW26077   6.793   0.319   2.502
 8393SOL    HW126078   6.767   0.413   2.524
 8393SOL    HW226079   6.726   0.256   2.540
 8394SOL     OW26080   6.425   2.235   0.867
 8394SOL    HW126081   6.390   2.324   0.841
 8394SOL    HW226082   6.349   2.175   0.893
 8395SOL     OW26083   2.887   6.337   5.512
 8395SOL    HW126084   2.916   6.392   5.591
 8395SOL    HW226085   2.945   6.359   5.433
 8396SOL     OW26086   4.808   5.281   3.613
 8396SOL    HW126087   4.733   5.242   3.560
 8396SOL    HW226088   4.892   5.230   3.595
 8397SOL     OW26089   1.220   0.793   2.510
 8397SOL    HW126090   1.249   0.826   2.421
 8397SOL    HW226091   1.121   0.782   2.512
 8398SOL     OW26092   4.170   2.311   6.495
 8398SOL    HW126093   4.175   2.279   6.401
 8398SOL    HW226094   4.125   2.401   6.497
 8399SOL     OW26095   6.069   6.887   6.703
 8399SOL    HW126096   6.059   6.798   6.659
 8399SOL    HW226097   6.165   6.913   6.704
 8400SOL     OW26098   2.169   0.584   4.219
 8400SOL    HW126099   2.173   0.612   4.123
 8400SOL    HW226100   2.261   0.567   4.253
 8401SOL     OW26101   2.654   1.079   5.334
 8401SOL    HW126102   2.699   1.094   5.246
 8401SOL    HW226103   2.562   1.117   5.331
 8402SOL     OW26104   5.084   1.886   6.605
 8402SOL    HW126105   5.025   1.948   6.554
 8402SOL    HW226106   5.130   1.823   6.543
 8403SOL     OW26107   6.591   3.368   4.570
 8403SOL    HW126108   6.560   3.424   4.494
 8403SOL    HW226109   6.603   3.273   4.539
 8404SOL     OW26110   3.857   6.918   5.596
 8404SOL    HW126111   3.833   6.883   5.687
 8404SOL    HW226112   3.824   7.012   5.587
 8405SOL     OW26113   2.180   1.221   5.486
 8405SOL    HW126114   2.103   1.259   5.436
 8405SOL    HW226115   2.243   1.177   5.421
 8406SOL     OW26116   4.463   0.641   6.933
 8406SOL    HW126117   4.476   0.704   6.857
 8406SOL    HW226118   4.546   0.640   6.990
 8407SOL     OW26119   3.797   5.936   3.393
 8407SOL    HW126120   3.763   5.922   3.300
 8407SOL    HW226121   3.872   6.001   3.392
 8408SOL     OW26122   5.553   4.429   1.174
 8408SOL    HW126123   5.516   4.424   1.267
 8408SOL    HW226124   5.557   4.525   1.145
 8409SOL     OW26125   4.609   1.770   3.350
 8409SOL    HW126126   4.693   1.824   3.361
 8409SOL    HW226127   4.634   1.674   3.337
 8410SOL     OW26128   5.893   0.690   1.131
 8410SOL    HW126129   5.899   0.760   1.202
 8410SOL    HW226130   5.827   0.620   1.159
 8411SOL     OW26131   0.617   5.868   0.338
 8411SOL    HW126132   0.705   5.849   0.295
 8411SOL    HW226133   0.545   5.819   0.289
 8412SOL     OW26134   3.494   2.596   1.027
 8412SOL    HW126135   3.527   2.518   1.081
 8412SOL    HW226136   3.404   2.624   1.060
 8413SOL     OW26137   5.070   5.844   6.584
 8413SOL    HW126138   5.072   5.876   6.490
 8413SOL    HW226139   4.975   5.844   6.617
 8414SOL     OW26140   3.306   6.978   3.453
 8414SOL    HW126141   3.383   0.009   3.468
 8414SOL    HW226142   3.336   6.883   3.466
 8415SOL     OW26143   1.246   5.748   4.662
 8415SOL    HW126144   1.166   5.706   4.704
 8415SOL    HW226145   1.269   5.701   4.577
 8416SOL     OW26146   6.418   1.888   3.521
 8416SOL    HW126147   6.506   1.934   3.539
 8416SOL    HW226148   6.378   1.859   3.608
 8417SOL     OW26149   0.755   3.004   5.975
 8417SOL    HW126150   0.718   3.080   5.921
 8417SOL    HW226151   0.682   2.938   5.995
 8418SOL     OW26152   6.394   5.318   1.179
 8418SOL    HW126153   6.449   5.317   1.263
 8418SOL    HW226154   6.450   5.288   1.102
 8419SOL     OW26155   5.578   0.083   1.922
 8419SOL    HW126156   5.672   0.119   1.920
 8419SOL    HW226157   5.516   0.153   1.886
 8420SOL     OW26158   4.355   0.350   1.116
 8420SOL    HW126159   4.299   0.314   1.043
 8420SOL    HW226160   4.417   0.420   1.080
 8421SOL     OW26161   3.418   5.022   0.358
 8421SOL    HW126162   3.404   4.946   0.295
 8421SOL    HW226163   3.381   5.106   0.318
 8422SOL     OW26164   4.574   1.350   2.322
 8422SOL    HW126165   4.540   1.313   2.408
 8422SOL    HW226166   4.526   1.435   2.301
 8423SOL     OW26167   3.589   4.520   5.916
 8423SOL    HW126168   3.555   4.613   5.900
 8423SOL    HW226169   3.634   4.486   5.833
 8424SOL     OW26170   1.363   2.177   2.686
 8424SOL    HW126171   1.358   2.077   2.695
 8424SOL    HW226172   1.378   2.201   2.590
 8425SOL     OW26173   4.112   4.279   6.284
 8425SOL    HW126174   4.073   4.368   6.260
 8425SOL    HW226175   4.099   4.261   6.381
 8426SOL     OW26176   3.859   3.356   2.815
 8426SOL    HW126177   3.924   3.333   2.887
 8426SOL    HW226178   3.767   3.328   2.842
 8427SOL     OW26179   3.669   3.728   3.366
 8427SOL    HW126180   3.620   3.672   3.299
 8427SOL    HW226181   3.608   3.749   3.443
 8428SOL     OW26182   0.132   6.206   1.444
 8428SOL    HW126183   0.108   6.147   1.521
 8428SOL    HW226184   0.130   6.153   1.359
 8429SOL     OW26185   1.803   5.945   5.703
 8429SOL    HW126186   1.864   5.969   5.778
 8429SOL    HW226187   1.716   5.994   5.713
 8430SOL     OW26188   3.646   4.937   4.073
 8430SOL    HW126189   3.548   4.914   4.069
 8430SOL    HW226190   3.656   5.036   4.086
 8431SOL     OW26191   3.886   3.752   0.274
 8431SOL    HW126192   3.921   3.750   0.367
 8431SOL    HW226193   3.810   3.817   0.269
 8432SOL     OW26194   6.299   5.388   5.093
 8432SOL    HW126195   6.232   5.408   5.164
 8432SOL    HW226196   6.283   5.296   5.056
 8433SOL     OW26197   4.311   3.415   6.838
 8433SOL    HW126198   4.371   3.485   6.798
 8433SOL    HW226199   4.338   3.325   6.803
 8434SOL     OW26200   2.985   0.978   4.552
 8434SOL    HW126201   2.909   0.954   4.612
 8434SOL    HW226202   2.985   0.919   4.471
 8435SOL     OW26203   5.539   7.017   2.198
 8435SOL    HW126204   5.440   7.005   2.200
 8435SOL    HW226205   5.571   7.015   2.104
 8436SOL     OW26206   3.351   6.694   3.411
 8436SOL    HW126207   3.285   6.621   3.394
 8436SOL    HW226208   3.378   6.693   3.507
 8437SOL     OW26209   2.159   1.606   3.704
 8437SOL    HW126210   2.101   1.643   3.776
 8437SOL    HW226211   2.133   1.648   3.616
 8438SOL     OW26212   2.367   4.346   3.019
 8438SOL    HW126213   2.407   4.436   3.037
 8438SOL    HW226214   2.351   4.335   2.921
 8439SOL     OW26215   5.915   4.527   2.393
 8439SOL    HW126216   5.976   4.603   2.370
 8439SOL    HW226217   5.835   4.530   2.332
 8440SOL     OW26218   3.363   1.563   3.767
 8440SOL    HW126219   3.435   1.603   3.712
 8440SOL    HW226220   3.318   1.490   3.716
 8441SOL     OW26221   5.566   6.829   0.209
 8441SOL    HW126222   5.509   6.821   0.291
 8441SOL    HW226223   5.652   6.779   0.222
 8442SOL     OW26224   3.743   2.176   5.732
 8442SOL    HW126225   3.647   2.149   5.739
 8442SOL    HW226226   3.800   2.094   5.723
 8443SOL     OW26227   2.474   4.631   3.825
 8443SOL    HW126228   2.448   4.534   3.823
 8443SOL    HW226229   2.510   4.654   3.916
 8444SOL     OW26230   2.826   6.588   4.280
 8444SOL    HW126231   2.918   6.549   4.276
 8444SOL    HW226232   2.808   6.622   4.373
 8445SOL     OW26233   2.635   0.403   1.252
 8445SOL    HW126234   2.698   0.396   1.175
 8445SOL    HW226235   2.582   0.318   1.259
 8446SOL     OW26236   5.825   5.396   6.117
 8446SOL    HW126237   5.767   5.470   6.149
 8446SOL    HW226238   5.902   5.385   6.180
 8447SOL     OW26239   4.332   1.293   1.758
 8447SOL    HW126240   4.311   1.347   1.677
 8447SOL    HW226241   4.279   1.208   1.757
 8448SOL     OW26242   4.135   5.855   3.583
 8448SOL    HW126243   4.232   5.866   3.560
 8448SOL    HW226244   4.089   5.944   3.577
 8449SOL     OW26245   0.307   3.306   3.451
 8449SOL    HW126246   0.238   3.372   3.481
 8449SOL    HW226247   0.293   3.285   3.355
 8450SOL     OW26248   0.822   1.046   1.264
 8450SOL    HW126249   0.910   1.053   1.216
 8450SOL    HW226250   0.802   0.950   1.284
 8451SOL     OW26251   3.143   1.532   6.643
 8451SOL    HW126252   3.232   1.565   6.611
 8451SOL    HW226253   3.156   1.458   6.708
 8452SOL     OW26254   5.948   2.929   3.572
 8452SOL    HW126255   5.906   2.847   3.613
 8452SOL    HW226256   6.039   2.905   3.537
 8453SOL     OW26257   0.243   5.146   0.145
 8453SOL    HW126258   0.264   5.064   0.199
 8453SOL    HW226259   0.230   5.224   0.207
 8454SOL     OW26260   0.346   5.503   1.200
 8454SOL    HW126261   0.250   5.505   1.173
 8454SOL    HW226262   0.353   5.473   1.295
 8455SOL     OW26263   0.353   2.091   1.756
 8455SOL    HW126264   0.356   2.048   1.666
 8455SOL    HW226265   0.338   2.021   1.826
 8456SOL     OW26266   4.828   6.579   3.271
 8456SOL    HW126267   4.881   6.653   3.312
 8456SOL    HW226268   4.736   6.578   3.310
 8457SOL     OW26269   6.942   6.618   4.091
 8457SOL    HW126270   6.868   6.569   4.044
 8457SOL    HW226271   6.997   6.553   4.143
 8458SOL     OW26272   2.540   0.641   0.215
 8458SOL    HW126273   2.477   0.675   0.145
 8458SOL    HW226274   2.552   0.542   0.203
 8459SOL     OW26275   2.891   6.273   2.157
 8459SOL    HW126276   2.836   6.334   2.101
 8459SOL    HW226277   2.845   6.257   2.245
 8460SOL     OW26278   4.627   4.171   5.165
 8460SOL    HW126279   4.550   4.113   5.194
 8460SOL    HW226280   4.703   4.113   5.137
 8461SOL     OW26281   0.886   3.078   4.388
 8461SOL    HW126282   0.818   3.035   4.328
 8461SOL    HW226283   0.873   3.045   4.482
 8462SOL     OW26284   2.005   3.069   6.698
 8462SOL    HW126285   2.067   3.037   6.626
 8462SOL    HW226286   1.928   3.006   6.706
 8463SOL     OW26287   6.761   0.170   1.841
 8463SOL    HW126288   6.780   0.108   1.918
 8463SOL    HW226289   6.737   0.117   1.760
 8464SOL     OW26290   5.099   4.715   4.719
 8464SOL    HW126291   5.000   4.700   4.723
 8464SOL    HW226292   5.121   4.770   4.638
 8465SOL     OW26293   0.668   2.977   0.646
 8465SOL    HW126294   0.732   2.952   0.573
 8465SOL    HW226295   0.620   2.894   0.678
 8466SOL     OW26296   0.983   6.637   4.249
 8466SOL    HW126297   0.909   6.646   4.316
 8466SOL    HW226298   0.982   6.717   4.188
 8467SOL     OW26299   3.067   5.963   0.600
 8467SOL    HW126300   3.064   6.052   0.553
 8467SOL    HW226301   3.161   5.941   0.623
 8468SOL     OW26302   3.053   1.621   7.010
 8468SOL    HW126303   3.112   1.687   0.026
 8468SOL    HW226304   2.979   1.668   6.964
 8469SOL     OW26305   3.561   2.652   0.005
 8469SOL    HW126306   3.555   2.723   0.075
 8469SOL    HW226307   3.506   2.679   6.956
 8470SOL     OW26308   1.409   3.626   0.550
 8470SOL    HW126309   1.370   3.669   0.631
 8470SOL    HW226310   1.462   3.546   0.577
 8471SOL     OW26311   2.955   1.514   2.536
 8471SOL    HW126312   3.000   1.525   2.625
 8471SOL    HW226313   2.941   1.604   2.494
 8472SOL     OW26314   0.683   0.262   4.089
 8472SOL    HW126315   0.736   0.342   4.063
 8472SOL    HW226316   0.586   0.279   4.072
 8473SOL     OW26317   6.289   5.232   6.441
 8473SOL    HW126318   6.274   5.311   6.382
 8473SOL    HW226319   6.363   5.251   6.505
 8474SOL     OW26320   3.369   3.156   2.024
 8474SOL    HW126321   3.353   3.092   2.099
 8474SOL    HW226322   3.284   3.206   2.004
 8475SOL     OW26323   0.406   1.628   3.209
 8475SOL    HW126324   0.412   1.558   3.137
 8475SOL    HW226325   0.332   1.605   3.272
 8476SOL     OW26326   6.688   1.186   1.196
 8476SOL    HW126327   6.736   1.191   1.284
 8476SOL    HW226328   6.719   1.105   1.146
 8477SOL     OW26329   3.833   6.575   2.359
 8477SOL    HW126330   3.847   6.560   2.261
 8477SOL    HW226331   3.792   6.493   2.400
 8478SOL     OW26332   1.139   0.618   6.062
 8478SOL    HW126333   1.052   0.622   6.013
 8478SOL    HW226334   1.135   0.678   6.142
 8479SOL     OW26335   6.292   2.596   1.114
 8479SOL    HW126336   6.260   2.608   1.208
 8479SOL    HW226337   6.223   2.544   1.063
 8480SOL     OW26338   3.794   0.902   0.374
 8480SOL    HW126339   3.842   0.821   0.407
 8480SOL    HW226340   3.758   0.954   0.452
 8481SOL     OW26341   4.385   1.749   3.740
 8481SOL    HW126342   4.437   1.789   3.664
 8481SOL    HW226343   4.447   1.698   3.799
 8482SOL     OW26344   3.561   6.990   3.236
 8482SOL    HW126345   3.552   0.006   3.324
 8482SOL    HW226346   3.658   6.971   3.218
 8483SOL     OW26347   4.097   5.572   2.098
 8483SOL    HW126348   4.099   5.488   2.153
 8483SOL    HW226349   4.049   5.644   2.149
 8484SOL     OW26350   0.127   5.642   3.115
 8484SOL    HW126351   0.107   5.684   3.026
 8484SOL    HW226352   0.060   5.672   3.182
 8485SOL     OW26353   2.670   3.849   6.524
 8485SOL    HW126354   2.765   3.879   6.513
 8485SOL    HW226355   2.651   3.833   6.621
 8486SOL     OW26356   5.125   1.130   2.994
 8486SOL    HW126357   5.086   1.069   3.063
 8486SOL    HW226358   5.074   1.121   2.909
 8487SOL     OW26359   5.650   0.786   0.274
 8487SOL    HW126360   5.706   0.777   0.192
 8487SOL    HW226361   5.694   0.738   0.350
 8488SOL     OW26362   5.758   4.545   4.989
 8488SOL    HW126363   5.848   4.510   4.963
 8488SOL    HW226364   5.693   4.469   4.996
 8489SOL     OW26365   6.487   0.649   1.462
 8489SOL    HW126366   6.539   0.650   1.377
 8489SOL    HW226367   6.489   0.740   1.504
 8490SOL     OW26368   4.175   6.631   4.359
 8490SOL    HW126369   4.092   6.579   4.336
 8490SOL    HW226370   4.152   6.702   4.426
 8491SOL     OW26371   2.247   0.356   1.799
 8491SOL    HW126372   2.316   0.350   1.726
 8491SOL    HW226373   2.191   0.437   1.784
 8492SOL     OW26374   4.657   4.414   6.741
 8492SOL    HW126375   4.569   4.377   6.770
 8492SOL    HW226376   4.730   4.351   6.766
 8493SOL     OW26377   2.747   1.859   6.341
 8493SOL    HW126378   2.660   1.898   6.372
 8493SOL    HW226379   2.818   1.880   6.408
 8494SOL     OW26380   2.635   4.784   0.386
 8494SOL    HW126381   2.695   4.788   0.466
 8494SOL    HW226382   2.648   4.865   0.329
 8495SOL     OW26383   6.405   3.679   0.222
 8495SOL    HW126384   6.450   3.747   0.164
 8495SOL    HW226385   6.473   3.636   0.282
 8496SOL     OW26386   0.453   1.977   1.517
 8496SOL    HW126387   0.461   1.880   1.540
 8496SOL    HW226388   0.543   2.015   1.499
 8497SOL     OW26389   6.674   0.717   4.082
 8497SOL    HW126390   6.760   0.704   4.033
 8497SOL    HW226391   6.639   0.628   4.111
 8498SOL     OW26392   0.203   6.218   2.766
 8498SOL    HW126393   0.165   6.210   2.858
 8498SOL    HW226394   0.302   6.232   2.772
 8499SOL     OW26395   2.479   5.462   6.635
 8499SOL    HW126396   2.537   5.403   6.691
 8499SOL    HW226397   2.409   5.407   6.590
 8500SOL     OW26398   1.547   0.676   6.127
 8500SOL    HW126399   1.608   0.742   6.170
 8500SOL    HW226400   1.594   0.588   6.117
 8501SOL     OW26401   0.767   2.600   0.462
 8501SOL    HW126402   0.782   2.697   0.439
 8501SOL    HW226403   0.722   2.594   0.551
 8502SOL     OW26404   2.032   5.062   1.603
 8502SOL    HW126405   2.024   4.997   1.527
 8502SOL    HW226406   2.124   5.102   1.603
 8503SOL     OW26407   1.259   5.877   2.981
 8503SOL    HW126408   1.277   5.968   2.943
 8503SOL    HW226409   1.217   5.886   3.071
 8504SOL     OW26410   1.866   5.871   3.658
 8504SOL    HW126411   1.825   5.872   3.749
 8504SOL    HW226412   1.945   5.932   3.657
 8505SOL     OW26413   4.831   3.994   4.019
 8505SOL    HW126414   4.797   3.940   4.096
 8505SOL    HW226415   4.833   4.091   4.044
 8506SOL     OW26416   6.638   1.297   0.784
 8506SOL    HW126417   6.727   1.253   0.792
 8506SOL    HW226418   6.568   1.227   0.767
 8507SOL     OW26419   3.191   0.901   5.568
 8507SOL    HW126420   3.168   0.956   5.648
 8507SOL    HW226421   3.215   0.961   5.492
 8508SOL     OW26422   6.584   2.334   4.677
 8508SOL    HW126423   6.505   2.353   4.736
 8508SOL    HW226424   6.579   2.392   4.596
 8509SOL     OW26425   5.190   1.495   3.790
 8509SOL    HW126426   5.147   1.418   3.744
 8509SOL    HW226427   5.279   1.514   3.748
 8510SOL     OW26428   5.477   4.726   3.032
 8510SOL    HW126429   5.471   4.688   3.124
 8510SOL    HW226430   5.400   4.788   3.016
 8511SOL     OW26431   5.506   3.492   1.719
 8511SOL    HW126432   5.439   3.518   1.788
 8511SOL    HW226433   5.459   3.462   1.636
 8512SOL     OW26434   2.638   2.690   0.787
 8512SOL    HW126435   2.563   2.708   0.850
 8512SOL    HW226436   2.665   2.774   0.741
 8513SOL     OW26437   4.741   3.661   1.170
 8513SOL    HW126438   4.756   3.670   1.269
 8513SOL    HW226439   4.772   3.744   1.124
 8514SOL     OW26440   2.834   1.996   3.652
 8514SOL    HW126441   2.853   1.997   3.750
 8514SOL    HW226442   2.736   1.985   3.638
 8515SOL     OW26443   5.718   1.121   6.858
 8515SOL    HW126444   5.620   1.099   6.861
 8515SOL    HW226445   5.748   1.150   6.949
 8516SOL     OW26446   6.630   2.219   1.422
 8516SOL    HW126447   6.623   2.317   1.439
 8516SOL    HW226448   6.580   2.196   1.338
 8517SOL     OW26449   1.845   2.827   6.042
 8517SOL    HW126450   1.787   2.759   6.087
 8517SOL    HW226451   1.928   2.783   6.008
 8518SOL     OW26452   5.069   4.438   6.054
 8518SOL    HW126453   4.990   4.428   6.115
 8518SOL    HW226454   5.148   4.470   6.106
 8519SOL     OW26455   1.573   5.155   1.385
 8519SOL    HW126456   1.651   5.216   1.372
 8519SOL    HW226457   1.530   5.175   1.473
 8520SOL     OW26458   3.394   3.160   6.590
 8520SOL    HW126459   3.467   3.123   6.532
 8520SOL    HW226460   3.432   3.231   6.650
 8521SOL     OW26461   2.280   4.714   5.678
 8521SOL    HW126462   2.239   4.737   5.589
 8521SOL    HW226463   2.214   4.732   5.750
 8522SOL     OW26464   1.194   0.183   1.452
 8522SOL    HW126465   1.270   0.247   1.461
 8522SOL    HW226466   1.194   0.120   1.530
 8523SOL     OW26467   2.189   5.997   0.114
 8523SOL    HW126468   2.153   6.071   0.056
 8523SOL    HW226469   2.267   5.954   0.069
 8524SOL     OW26470   0.226   2.600   5.798
 8524SOL    HW126471   0.315   2.610   5.754
 8524SOL    HW226472   0.234   2.540   5.878
 8525SOL     OW26473   6.404   4.966   1.721
 8525SOL    HW126474   6.316   4.919   1.717
 8525SOL    HW226475   6.402   5.037   1.791
 8526SOL     OW26476   4.040   6.399   0.417
 8526SOL    HW126477   4.071   6.333   0.485
 8526SOL    HW226478   4.033   6.355   0.328
 8527SOL     OW26479   2.734   1.171   6.715
 8527SOL    HW126480   2.779   1.250   6.754
 8527SOL    HW226481   2.652   1.200   6.664
 8528SOL     OW26482   4.092   1.142   6.893
 8528SOL    HW126483   4.052   1.109   6.808
 8528SOL    HW226484   4.020   1.151   6.962
 8529SOL     OW26485   1.379   0.199   0.762
 8529SOL    HW126486   1.306   0.175   0.826
 8529SOL    HW226487   1.340   0.247   0.683
 8530SOL     OW26488   4.178   3.993   5.274
 8530SOL    HW126489   4.134   4.025   5.358
 8530SOL    HW226490   4.168   3.894   5.267
 8531SOL     OW26491   0.113   5.005   2.384
 8531SOL    HW126492   0.032   4.986   2.438
 8531SOL    HW226493   0.114   4.947   2.302
 8532SOL     OW26494   4.406   5.457   4.510
 8532SOL    HW126495   4.363   5.538   4.549
 8532SOL    HW226496   4.336   5.390   4.485
 8533SOL     OW26497   2.090   5.778   0.235
 8533SOL    HW126498   2.005   5.801   0.283
 8533SOL    HW226499   2.121   5.856   0.182
 8534SOL     OW26500   5.748   2.041   4.335
 8534SOL    HW126501   5.753   2.140   4.339
 8534SOL    HW226502   5.794   2.002   4.415
 8535SOL     OW26503   6.534   0.959   3.346
 8535SOL    HW126504   6.554   0.884   3.282
 8535SOL    HW226505   6.437   0.960   3.366
 8536SOL     OW26506   6.699   1.930   4.917
 8536SOL    HW126507   6.775   1.871   4.891
 8536SOL    HW226508   6.734   2.015   4.956
 8537SOL     OW26509   5.332   0.824   3.495
 8537SOL    HW126510   5.296   0.903   3.544
 8537SOL    HW226511   5.322   0.742   3.552
 8538SOL     OW26512   1.282   1.042   0.513
 8538SOL    HW126513   1.324   1.091   0.437
 8538SOL    HW226514   1.317   0.948   0.515
 8539SOL     OW26515   6.210   1.116   2.402
 8539SOL    HW126516   6.278   1.138   2.333
 8539SOL    HW226517   6.172   1.026   2.384
 8540SOL     OW26518   5.739   0.445   6.344
 8540SOL    HW126519   5.684   0.370   6.380
 8540SOL    HW226520   5.831   0.441   6.381
 8541SOL     OW26521   3.206   1.969   3.625
 8541SOL    HW126522   3.140   2.041   3.647
 8541SOL    HW226523   3.272   2.005   3.558
 8542SOL     OW26524   4.268   5.255   6.144
 8542SOL    HW126525   4.294   5.261   6.241
 8542SOL    HW226526   4.266   5.160   6.115
 8543SOL     OW26527   2.326   1.898   0.971
 8543SOL    HW126528   2.349   1.804   0.996
 8543SOL    HW226529   2.267   1.938   1.040
 8544SOL     OW26530   5.459   3.315   4.058
 8544SOL    HW126531   5.486   3.255   3.983
 8544SOL    HW226532   5.452   3.409   4.024
 8545SOL     OW26533   4.305   0.320   5.235
 8545SOL    HW126534   4.332   0.274   5.151
 8545SOL    HW226535   4.352   0.408   5.243
 8546SOL     OW26536   5.510   1.988   4.220
 8546SOL    HW126537   5.593   1.984   4.275
 8546SOL    HW226538   5.458   2.070   4.243
 8547SOL     OW26539   1.121   6.417   5.830
 8547SOL    HW126540   1.181   6.342   5.803
 8547SOL    HW226541   1.169   6.477   5.894
 8548SOL     OW26542   6.283   3.060   5.872
 8548SOL    HW126543   6.342   3.060   5.953
 8548SOL    HW226544   6.340   3.060   5.790
 8549SOL     OW26545   1.097   2.991   3.777
 8549SOL    HW126546   1.166   3.060   3.755
 8549SOL    HW226547   1.134   2.900   3.763
 8550SOL     OW26548   1.874   4.924   0.236
 8550SOL    HW126549   1.939   4.959   0.170
 8550SOL    HW226550   1.902   4.833   0.265
 8551SOL     OW26551   3.554   4.304   5.648
 8551SOL    HW126552   3.563   4.249   5.565
 8551SOL    HW226553   3.591   4.395   5.632
 8552SOL     OW26554   2.409   6.591   3.353
 8552SOL    HW126555   2.453   6.504   3.329
 8552SOL    HW226556   2.400   6.598   3.452
 8553SOL     OW26557   4.971   4.753   6.052
 8553SOL    HW126558   4.911   4.750   6.131
 8553SOL    HW226559   5.063   4.780   6.081
 8554SOL     OW26560   0.514   5.234   0.429
 8554SOL    HW126561   0.502   5.256   0.332
 8554SOL    HW226562   0.583   5.162   0.439
 8555SOL     OW26563   1.153   0.241   2.686
 8555SOL    HW126564   1.178   0.330   2.724
 8555SOL    HW226565   1.146   0.247   2.587
 8556SOL     OW26566   0.743   6.415   4.378
 8556SOL    HW126567   0.694   6.398   4.293
 8556SOL    HW226568   0.703   6.494   4.424
 8557SOL     OW26569   5.959   0.569   2.582
 8557SOL    HW126570   6.046   0.594   2.626
 8557SOL    HW226571   5.888   0.558   2.652
 8558SOL     OW26572   2.908   5.645   3.539
 8558SOL    HW126573   2.947   5.557   3.567
 8558SOL    HW226574   2.947   5.672   3.451
 8559SOL     OW26575   6.490   0.867   2.329
 8559SOL    HW126576   6.441   0.887   2.244
 8559SOL    HW226577   6.574   0.817   2.309
 8560SOL     OW26578   0.427   6.459   2.139
 8560SOL    HW126579   0.488   6.408   2.078
 8560SOL    HW226580   0.333   6.450   2.108
 8561SOL     OW26581   3.677   0.131   2.096
 8561SOL    HW126582   3.683   0.106   2.193
 8561SOL    HW226583   3.583   0.114   2.064
 8562SOL     OW26584   4.771   6.269   5.022
 8562SOL    HW126585   4.720   6.321   4.954
 8562SOL    HW226586   4.868   6.291   5.017
 8563SOL     OW26587   2.636   4.494   0.187
 8563SOL    HW126588   2.657   4.589   0.161
 8563SOL    HW226589   2.570   4.494   0.261
 8564SOL     OW26590   2.895   1.264   3.782
 8564SOL    HW126591   2.935   1.355   3.777
 8564SOL    HW226592   2.879   1.229   3.690
 8565SOL     OW26593   4.454   6.005   1.208
 8565SOL    HW126594   4.525   6.073   1.189
 8565SOL    HW226595   4.496   5.919   1.234
 8566SOL     OW26596   1.133   0.725   1.488
 8566SOL    HW126597   1.159   0.719   1.585
 8566SOL    HW226598   1.052   0.669   1.472
 8567SOL     OW26599   6.605   1.443   2.402
 8567SOL    HW126600   6.634   1.361   2.353
 8567SOL    HW226601   6.506   1.454   2.393
 8568SOL     OW26602   5.266   1.057   5.933
 8568SOL    HW126603   5.266   0.968   5.888
 8568SOL    HW226604   5.355   1.072   5.978
 8569SOL     OW26605   5.221   1.857   5.808
 8569SOL    HW126606   5.163   1.867   5.728
 8569SOL    HW226607   5.165   1.831   5.887
 8570SOL     OW26608   1.316   2.580   5.316
 8570SOL    HW126609   1.254   2.642   5.364
 8570SOL    HW226610   1.272   2.546   5.233
 8571SOL     OW26611   0.893   5.445   5.960
 8571SOL    HW126612   0.921   5.537   5.933
 8571SOL    HW226613   0.829   5.450   6.037
 8572SOL     OW26614   3.344   5.306   6.296
 8572SOL    HW126615   3.311   5.382   6.351
 8572SOL    HW226616   3.373   5.231   6.356
 8573SOL     OW26617   3.483   0.055   6.158
 8573SOL    HW126618   3.514   0.056   6.252
 8573SOL    HW226619   3.462   0.148   6.128
 8574SOL     OW26620   0.254   6.335   5.723
 8574SOL    HW126621   0.348   6.347   5.689
 8574SOL    HW226622   0.255   6.268   5.797
 8575SOL     OW26623   2.943   2.648   5.959
 8575SOL    HW126624   2.931   2.550   5.945
 8575SOL    HW226625   2.887   2.677   6.037
 8576SOL     OW26626   1.129   6.139   0.241
 8576SOL    HW126627   1.214   6.123   0.291
 8576SOL    HW226628   1.132   6.229   0.198
 8577SOL     OW26629   0.126   5.795   4.041
 8577SOL    HW126630   0.031   5.817   4.065
 8577SOL    HW226631   0.184   5.874   4.060
 8578SOL     OW26632   4.998   0.478   4.447
 8578SOL    HW126633   5.088   0.463   4.405
 8578SOL    HW226634   5.010   0.506   4.542
 8579SOL     OW26635   1.412   6.921   3.399
 8579SOL    HW126636   1.435   6.946   3.305
 8579SOL    HW226637   1.480   6.857   3.434
 8580SOL     OW26638   2.059   6.847   2.309
 8580SOL    HW126639   2.036   6.916   2.240
 8580SOL    HW226640   2.152   6.863   2.343
 8581SOL     OW26641   3.264   3.271   1.727
 8581SOL    HW126642   3.257   3.206   1.652
 8581SOL    HW226643   3.244   3.225   1.814
 8582SOL     OW26644   4.222   4.779   2.254
 8582SOL    HW126645   4.129   4.757   2.224
 8582SOL    HW226646   4.219   4.819   2.346
 8583SOL     OW26647   5.899   0.661   5.540
 8583SOL    HW126648   5.814   0.695   5.499
 8583SOL    HW226649   5.973   0.726   5.521
 8584SOL     OW26650   0.283   3.755   6.144
 8584SOL    HW126651   0.270   3.688   6.217
 8584SOL    HW226652   0.366   3.808   6.161
 8585SOL     OW26653   0.491   6.437   5.556
 8585SOL    HW126654   0.581   6.395   5.544
 8585SOL    HW226655   0.497   6.534   5.531
 8586SOL     OW26656   3.036   6.673   3.648
 8586SOL    HW126657   3.018   6.602   3.579
 8586SOL    HW226658   3.081   6.631   3.727
 8587SOL     OW26659   1.445   6.936   3.141
 8587SOL    HW126660   1.366   6.996   3.131
 8587SOL    HW226661   1.434   6.856   3.081
 8588SOL     OW26662   2.460   0.536   6.848
 8588SOL    HW126663   2.507   0.601   6.789
 8588SOL    HW226664   2.510   0.449   6.847
 8589SOL     OW26665   4.687   2.778   4.070
 8589SOL    HW126666   4.748   2.853   4.046
 8589SOL    HW226667   4.665   2.783   4.167
 8590SOL     OW26668   6.403   6.379   4.060
 8590SOL    HW126669   6.381   6.445   3.988
 8590SOL    HW226670   6.330   6.310   4.065
 8591SOL     OW26671   0.845   4.483   6.509
 8591SOL    HW126672   0.931   4.449   6.547
 8591SOL    HW226673   0.835   4.451   6.415
 8592SOL     OW26674   0.024   3.409   0.296
 8592SOL    HW126675   0.121   3.435   0.297
 8592SOL    HW226676   0.001   3.375   0.204
 8593SOL     OW26677   1.117   0.320   2.193
 8593SOL    HW126678   1.051   0.304   2.120
 8593SOL    HW226679   1.209   0.329   2.154
 8594SOL     OW26680   3.356   3.202   5.057
 8594SOL    HW126681   3.281   3.149   5.018
 8594SOL    HW226682   3.412   3.240   4.984
 8595SOL     OW26683   2.188   1.503   3.318
 8595SOL    HW126684   2.263   1.539   3.374
 8595SOL    HW226685   2.192   1.544   3.227
 8596SOL     OW26686   6.507   5.729   3.242
 8596SOL    HW126687   6.408   5.737   3.245
 8596SOL    HW226688   6.544   5.733   3.335
 8597SOL     OW26689   4.638   1.612   0.967
 8597SOL    HW126690   4.539   1.620   0.959
 8597SOL    HW226691   4.669   1.531   0.917
 8598SOL     OW26692   0.121   5.530   1.052
 8598SOL    HW126693   0.047   5.591   1.023
 8598SOL    HW226694   0.083   5.439   1.072
 8599SOL     OW26695   0.594   2.659   3.868
 8599SOL    HW126696   0.611   2.603   3.948
 8599SOL    HW226697   0.682   2.693   3.832
 8600SOL     OW26698   4.958   5.107   6.262
 8600SOL    HW126699   4.863   5.096   6.233
 8600SOL    HW226700   4.991   5.021   6.299
 8601SOL     OW26701   0.910   0.736   5.275
 8601SOL    HW126702   0.819   0.712   5.240
 8601SOL    HW226703   0.901   0.809   5.342
 8602SOL     OW26704   3.236   5.684   3.303
 8602SOL    HW126705   3.280   5.738   3.375
 8602SOL    HW226706   3.203   5.598   3.342
 8603SOL     OW26707   3.792   5.211   0.464
 8603SOL    HW126708   3.831   5.120   0.474
 8603SOL    HW226709   3.762   5.224   0.369
 8604SOL     OW26710   0.242   3.051   3.638
 8604SOL    HW126711   0.249   3.127   3.574
 8604SOL    HW226712   0.333   3.025   3.668
 8605SOL     OW26713   3.354   4.924   4.141
 8605SOL    HW126714   3.373   4.995   4.208
 8605SOL    HW226715   3.262   4.887   4.157
 8606SOL     OW26716   2.019   4.597   5.921
 8606SOL    HW126717   2.040   4.504   5.949
 8606SOL    HW226718   1.963   4.596   5.838
 8607SOL     OW26719   3.443   5.760   0.528
 8607SOL    HW126720   3.485   5.675   0.496
 8607SOL    HW226721   3.515   5.823   0.559
 8608SOL     OW26722   4.416   5.280   3.063
 8608SOL    HW126723   4.386   5.325   3.147
 8608SOL    HW226724   4.464   5.195   3.087
 8609SOL     OW26725   4.733   0.871   3.729
 8609SOL    HW126726   4.686   0.874   3.817
 8609SOL    HW226727   4.701   0.791   3.677
 8610SOL     OW26728   1.521   1.152   2.842
 8610SOL    HW126729   1.466   1.075   2.809
 8610SOL    HW226730   1.579   1.185   2.767
 8611SOL     OW26731   2.329   2.225   4.410
 8611SOL    HW126732   2.280   2.140   4.390
 8611SOL    HW226733   2.427   2.212   4.392
 8612SOL     OW26734   2.963   3.281   0.151
 8612SOL    HW126735   2.965   3.211   0.080
 8612SOL    HW226736   2.874   3.326   0.152
 8613SOL     OW26737   2.444   2.061   1.558
 8613SOL    HW126738   2.442   1.962   1.572
 8613SOL    HW226739   2.499   2.082   1.477
 8614SOL     OW26740   0.453   3.435   2.737
 8614SOL    HW126741   0.387   3.375   2.692
 8614SOL    HW226742   0.543   3.424   2.694
 8615SOL     OW26743   4.938   1.916   5.354
 8615SOL    HW126744   4.906   1.829   5.391
 8615SOL    HW226745   5.020   1.901   5.298
 8616SOL     OW26746   2.224   5.298   1.349
 8616SOL    HW126747   2.319   5.267   1.341
 8616SOL    HW226748   2.220   5.376   1.412
 8617SOL     OW26749   6.356   1.060   6.815
 8617SOL    HW126750   6.358   0.963   6.789
 8617SOL    HW226751   6.346   1.116   6.733
 8618SOL     OW26752   5.550   6.656   0.953
 8618SOL    HW126753   5.578   6.562   0.936
 8618SOL    HW226754   5.471   6.678   0.896
 8619SOL     OW26755   3.416   5.271   1.798
 8619SOL    HW126756   3.484   5.325   1.747
 8619SOL    HW226757   3.463   5.211   1.863
 8620SOL     OW26758   0.123   0.212   3.387
 8620SOL    HW126759   0.166   0.163   3.463
 8620SOL    HW226760   0.191   0.229   3.315
 8621SOL     OW26761   5.995   1.738   3.018
 8621SOL    HW126762   6.040   1.797   2.951
 8621SOL    HW226763   6.048   1.737   3.103
 8622SOL     OW26764   5.198   4.090   0.245
 8622SOL    HW126765   5.282   4.138   0.219
 8622SOL    HW226766   5.119   4.140   0.213
 8623SOL     OW26767   1.067   3.949   3.311
 8623SOL    HW126768   1.163   3.976   3.318
 8623SOL    HW226769   1.031   3.979   3.223
 8624SOL     OW26770   1.142   3.616   3.546
 8624SOL    HW126771   1.104   3.686   3.606
 8624SOL    HW226772   1.225   3.651   3.503
 8625SOL     OW26773   4.863   6.804   4.865
 8625SOL    HW126774   4.891   6.854   4.783
 8625SOL    HW226775   4.914   6.837   4.944
 8626SOL     OW26776   3.518   2.855   5.125
 8626SOL    HW126777   3.598   2.916   5.119
 8626SOL    HW226778   3.518   2.794   5.046
 8627SOL     OW26779   0.729   1.032   3.821
 8627SOL    HW126780   0.806   1.028   3.757
 8627SOL    HW226781   0.691   1.124   3.822
 8628SOL     OW26782   5.830   0.021   1.424
 8628SOL    HW126783   5.867   7.013   1.340
 8628SOL    HW226784   5.825   0.121   1.415
 8629SOL     OW26785   1.366   5.489   5.375
 8629SOL    HW126786   1.283   5.492   5.430
 8629SOL    HW226787   1.434   5.432   5.420
 8630SOL     OW26788   5.937   4.452   4.582
 8630SOL    HW126789   6.021   4.506   4.594
 8630SOL    HW226790   5.861   4.498   4.628
 8631SOL     OW26791   3.180   5.698   6.328
 8631SOL    HW126792   3.228   5.625   6.378
 8631SOL    HW226793   3.190   5.784   6.377
 8632SOL     OW26794   2.951   6.858   4.179
 8632SOL    HW126795   2.873   6.826   4.233
 8632SOL    HW226796   3.022   6.893   4.241
 8633SOL     OW26797   5.164   1.114   5.137
 8633SOL    HW126798   5.209   1.078   5.055
 8633SOL    HW226799   5.199   1.068   5.218
 8634SOL     OW26800   5.616   3.253   0.516
 8634SOL    HW126801   5.542   3.310   0.551
 8634SOL    HW226802   5.703   3.299   0.529
 8635SOL     OW26803   6.293   4.470   6.723
 8635SOL    HW126804   6.286   4.411   6.643
 8635SOL    HW226805   6.357   4.545   6.704
 8636SOL     OW26806   5.137   6.146   0.343
 8636SOL    HW126807   5.091   6.180   0.261
 8636SOL    HW226808   5.231   6.121   0.320
 8637SOL     OW26809   1.914   1.351   0.253
 8637SOL    HW126810   1.996   1.318   0.300
 8637SOL    HW226811   1.927   1.346   0.154
 8638SOL     OW26812   2.038   3.108   6.987
 8638SOL    HW126813   2.083   3.185   0.003
 8638SOL    HW226814   2.043   3.121   6.888
 8639SOL     OW26815   6.110   1.717   1.685
 8639SOL    HW126816   6.106   1.765   1.772
 8639SOL    HW226817   6.025   1.665   1.671
 8640SOL     OW26818   4.437   4.044   0.642
 8640SOL    HW126819   4.365   4.045   0.712
 8640SOL    HW226820   4.413   3.980   0.570
 8641SOL     OW26821   6.691   4.721   3.879
 8641SOL    HW126822   6.630   4.649   3.846
 8641SOL    HW226823   6.776   4.720   3.826
 8642SOL     OW26824   3.621   0.839   2.548
 8642SOL    HW126825   3.555   0.839   2.623
 8642SOL    HW226826   3.572   0.850   2.461
 8643SOL     OW26827   4.016   0.100   0.109
 8643SOL    HW126828   3.950   0.167   0.144
 8643SOL    HW226829   3.989   0.073   0.016
 8644SOL     OW26830   4.586   2.657   5.744
 8644SOL    HW126831   4.602   2.585   5.675
 8644SOL    HW226832   4.496   2.644   5.785
 8645SOL     OW26833   5.032   4.272   1.295
 8645SOL    HW126834   5.064   4.288   1.202
 8645SOL    HW226835   5.001   4.359   1.335
 8646SOL     OW26836   6.691   1.481   1.156
 8646SOL    HW126837   6.689   1.517   1.249
 8646SOL    HW226838   6.702   1.382   1.159
 8647SOL     OW26839   2.887   4.904   6.327
 8647SOL    HW126840   2.938   4.897   6.242
 8647SOL    HW226841   2.884   4.815   6.372
 8648SOL     OW26842   5.905   0.701   3.957
 8648SOL    HW126843   5.939   0.742   4.042
 8648SOL    HW226844   5.900   0.602   3.968
 8649SOL     OW26845   5.662   4.391   0.017
 8649SOL    HW126846   5.748   4.408   0.065
 8649SOL    HW226847   5.642   4.293   0.018
 8650SOL     OW26848   1.486   4.260   6.015
 8650SOL    HW126849   1.435   4.297   6.092
 8650SOL    HW226850   1.481   4.323   5.937
 8651SOL     OW26851   3.563   0.868   0.665
 8651SOL    HW126852   3.552   0.797   0.734
 8651SOL    HW226853   3.625   0.938   0.698
 8652SOL     OW26854   1.437   3.560   3.200
 8652SOL    HW126855   1.387   3.473   3.205
 8652SOL    HW226856   1.383   3.626   3.148
 8653SOL     OW26857   5.920   1.415   5.937
 8653SOL    HW126858   5.950   1.429   5.843
 8653SOL    HW226859   5.862   1.491   5.965
 8654SOL     OW26860   1.238   5.776   1.611
 8654SOL    HW126861   1.203   5.683   1.605
 8654SOL    HW226862   1.232   5.820   1.521
 8655SOL     OW26863   6.090   1.034   4.079
 8655SOL    HW126864   6.053   0.959   4.134
 8655SOL    HW226865   6.020   1.106   4.070
 8656SOL     OW26866   6.372   0.962   1.005
 8656SOL    HW126867   6.361   0.872   0.964
 8656SOL    HW226868   6.286   1.012   1.001
 8657SOL     OW26869   4.620   5.143   6.845
 8657SOL    HW126870   4.637   5.055   6.889
 8657SOL    HW226871   4.673   5.150   6.761
 8658SOL     OW26872   4.437   6.684   0.148
 8658SOL    HW126873   4.372   6.645   0.214
 8658SOL    HW226874   4.429   6.635   0.061
 8659SOL     OW26875   4.042   1.166   3.517
 8659SOL    HW126876   3.956   1.166   3.466
 8659SOL    HW226877   4.034   1.106   3.597
 8660SOL     OW26878   5.524   3.700   0.673
 8660SOL    HW126879   5.445   3.753   0.642
 8660SOL    HW226880   5.503   3.602   0.664
 8661SOL     OW26881   6.133   4.192   1.173
 8661SOL    HW126882   6.035   4.177   1.157
 8661SOL    HW226883   6.173   4.233   1.091
 8662SOL     OW26884   4.701   5.687   1.547
 8662SOL    HW126885   4.795   5.721   1.549
 8662SOL    HW226886   4.670   5.668   1.640
 8663SOL     OW26887   2.795   6.138   1.351
 8663SOL    HW126888   2.774   6.050   1.309
 8663SOL    HW226889   2.749   6.145   1.439
 8664SOL     OW26890   3.285   5.939   1.614
 8664SOL    HW126891   3.266   5.866   1.549
 8664SOL    HW226892   3.308   5.900   1.703
 8665SOL     OW26893   6.047   5.693   5.143
 8665SOL    HW126894   6.067   5.598   5.169
 8665SOL    HW226895   6.035   5.748   5.226
 8666SOL     OW26896   5.181   1.709   4.980
 8666SOL    HW126897   5.091   1.717   4.936
 8666SOL    HW226898   5.196   1.788   5.039
 8667SOL     OW26899   4.736   2.743   3.044
 8667SOL    HW126900   4.654   2.688   3.025
 8667SOL    HW226901   4.810   2.682   3.073
 8668SOL     OW26902   5.726   3.283   3.178
 8668SOL    HW126903   5.731   3.239   3.089
 8668SOL    HW226904   5.651   3.349   3.179
 8669SOL     OW26905   2.475   6.404   0.085
 8669SOL    HW126906   2.525   6.318   0.088
 8669SOL    HW226907   2.446   6.422   7.021
 8670SOL     OW26908   3.601   4.907   5.531
 8670SOL    HW126909   3.508   4.941   5.518
 8670SOL    HW226910   3.641   4.947   5.613
 8671SOL     OW26911   5.730   1.735   2.900
 8671SOL    HW126912   5.818   1.727   2.947
 8671SOL    HW226913   5.741   1.787   2.816
 8672SOL     OW26914   2.135   5.239   3.645
 8672SOL    HW126915   2.098   5.150   3.670
 8672SOL    HW226916   2.072   5.311   3.673
 8673SOL     OW26917   6.683   2.280   6.669
 8673SOL    HW126918   6.765   2.227   6.690
 8673SOL    HW226919   6.661   2.269   6.572
 8674SOL     OW26920   5.760   5.736   1.783
 8674SOL    HW126921   5.781   5.826   1.820
 8674SOL    HW226922   5.720   5.679   1.854
 8675SOL     OW26923   3.911   1.962   4.998
 8675SOL    HW126924   3.855   1.883   5.021
 8675SOL    HW226925   3.968   1.987   5.076
 8676SOL     OW26926   4.226   0.031   2.690
 8676SOL    HW126927   4.297   0.099   2.709
 8676SOL    HW226928   4.244   7.019   2.601
 8677SOL     OW26929   2.571   6.486   5.470
 8677SOL    HW126930   2.512   6.406   5.460
 8677SOL    HW226931   2.667   6.457   5.464
 8678SOL     OW26932   6.982   0.449   1.095
 8678SOL    HW126933   6.991   0.476   0.999
 8678SOL    HW226934   0.004   0.512   1.153
 8679SOL     OW26935   6.379   2.868   4.625
 8679SOL    HW126936   6.449   2.878   4.696
 8679SOL    HW226937   6.289   2.864   4.668
 8680SOL     OW26938   0.614   4.218   1.638
 8680SOL    HW126939   0.653   4.231   1.547
 8680SOL    HW226940   0.574   4.127   1.645
 8681SOL     OW26941   4.728   5.546   6.612
 8681SOL    HW126942   4.741   5.635   6.568
 8681SOL    HW226943   4.733   5.474   6.543
 8682SOL     OW26944   4.705   6.697   1.539
 8682SOL    HW126945   4.657   6.725   1.622
 8682SOL    HW226946   4.778   6.762   1.519
 8683SOL     OW26947   1.481   2.312   2.457
 8683SOL    HW126948   1.532   2.306   2.372
 8683SOL    HW226949   1.535   2.274   2.532
 8684SOL     OW26950   0.730   2.879   4.867
 8684SOL    HW126951   0.692   2.837   4.785
 8684SOL    HW226952   0.768   2.969   4.845
 8685SOL     OW26953   0.649   2.355   5.277
 8685SOL    HW126954   0.718   2.298   5.233
 8685SOL    HW226955   0.574   2.297   5.309
 8686SOL     OW26956   0.126   1.346   1.270
 8686SOL    HW126957   0.128   1.246   1.260
 8686SOL    HW226958   0.145   1.389   1.181
 8687SOL     OW26959   3.795   5.821   2.851
 8687SOL    HW126960   3.799   5.753   2.925
 8687SOL    HW226961   3.754   5.781   2.770
 8688SOL     OW26962   3.110   6.250   6.802
 8688SOL    HW126963   3.108   6.345   6.771
 8688SOL    HW226964   3.191   6.236   6.859
 8689SOL     OW26965   3.041   4.785   1.201
 8689SOL    HW126966   3.062   4.874   1.241
 8689SOL    HW226967   2.983   4.733   1.263
 8690SOL     OW26968   1.906   2.821   3.209
 8690SOL    HW126969   1.888   2.791   3.116
 8690SOL    HW226970   1.945   2.914   3.207
 8691SOL     OW26971   3.565   1.974   6.872
 8691SOL    HW126972   3.532   2.060   6.832
 8691SOL    HW226973   3.594   1.990   6.966
 8692SOL     OW26974   3.179   1.705   3.515
 8692SOL    HW126975   3.086   1.726   3.486
 8692SOL    HW226976   3.222   1.787   3.552
 8693SOL     OW26977   6.716   1.371   0.509
 8693SOL    HW126978   6.634   1.411   0.470
 8693SOL    HW226979   6.697   1.341   0.603
 8694SOL     OW26980   3.566   1.160   5.182
 8694SOL    HW126981   3.532   1.251   5.205
 8694SOL    HW226982   3.532   1.094   5.248
 8695SOL     OW26983   4.303   2.762   5.811
 8695SOL    HW126984   4.360   2.844   5.810
 8695SOL    HW226985   4.242   2.763   5.732
 8696SOL     OW26986   2.441   6.085   0.388
 8696SOL    HW126987   2.448   6.138   0.303
 8696SOL    HW226988   2.490   5.998   0.377
 8697SOL     OW26989   6.567   2.993   6.998
 8697SOL    HW126990   6.560   2.896   6.975
 8697SOL    HW226991   6.481   3.024   0.008
 8698SOL     OW26992   6.037   5.781   4.399
 8698SOL    HW126993   6.049   5.701   4.457
 8698SOL    HW226994   6.115   5.842   4.410
 8699SOL     OW26995   1.980   2.435   5.181
 8699SOL    HW126996   2.014   2.341   5.184
 8699SOL    HW226997   2.005   2.476   5.093
 8700SOL     OW26998   1.399   0.803   4.147
 8700SOL    HW126999   1.359   0.844   4.229
 8700SOL    HW227000   1.476   0.745   4.172
 8701SOL     OW27001   1.556   0.528   0.297
 8701SOL    HW127002   1.552   0.543   0.395
 8701SOL    HW227003   1.644   0.562   0.261
 8702SOL     OW27004   5.600   4.373   0.384
 8702SOL    HW127005   5.637   4.464   0.366
 8702SOL    HW227006   5.661   4.324   0.446
 8703SOL     OW27007   3.119   5.629   1.215
 8703SOL    HW127008   3.073   5.716   1.235
 8703SOL    HW227009   3.183   5.608   1.289
 8704SOL     OW27010   6.561   3.630   3.308
 8704SOL    HW127011   6.569   3.657   3.212
 8704SOL    HW227012   6.648   3.648   3.354
 8705SOL     OW27013   5.280   0.809   0.530
 8705SOL    HW127014   5.322   0.898   0.515
 8705SOL    HW227015   5.200   0.798   0.471
 8706SOL     OW27016   4.744   2.027   5.979
 8706SOL    HW127017   4.811   2.074   5.922
 8706SOL    HW227018   4.734   2.076   6.066
 8707SOL     OW27019   6.432   2.283   6.799
 8707SOL    HW127020   6.522   2.253   6.766
 8707SOL    HW227021   6.441   2.372   6.843
 8708SOL     OW27022   4.180   1.776   2.305
 8708SOL    HW127023   4.146   1.812   2.218
 8708SOL    HW227024   4.177   1.676   2.303
 8709SOL     OW27025   6.917   5.923   6.526
 8709SOL    HW127026   6.891   5.855   6.458
 8709SOL    HW227027   6.929   5.878   6.615
 8710SOL     OW27028   2.259   3.032   3.492
 8710SOL    HW127029   2.288   3.112   3.440
 8710SOL    HW227030   2.317   2.954   3.469
 8711SOL     OW27031   0.990   5.930   2.715
 8711SOL    HW127032   1.024   5.907   2.807
 8711SOL    HW227033   1.006   5.853   2.653
 8712SOL     OW27034   4.143   2.271   4.886
 8712SOL    HW127035   4.225   2.215   4.896
 8712SOL    HW227036   4.143   2.343   4.956
 8713SOL     OW27037   0.599   3.915   3.578
 8713SOL    HW127038   0.664   3.858   3.527
 8713SOL    HW227039   0.562   3.864   3.655
 8714SOL     OW27040   0.917   0.822   6.233
 8714SOL    HW127041   0.869   0.824   6.321
 8714SOL    HW227042   1.014   0.809   6.248
 8715SOL     OW27043   4.974   0.487   0.726
 8715SOL    HW127044   5.015   0.482   0.635
 8715SOL    HW227045   4.960   0.395   0.761
 8716SOL     OW27046   0.836   0.027   0.953
 8716SOL    HW127047   0.760   0.087   0.977
 8716SOL    HW227048   0.918   0.082   0.934
 8717SOL     OW27049   3.770   3.352   3.613
 8717SOL    HW127050   3.811   3.443   3.621
 8717SOL    HW227051   3.720   3.331   3.697
 8718SOL     OW27052   0.270   3.593   4.056
 8718SOL    HW127053   0.327   3.646   4.120
 8718SOL    HW227054   0.174   3.605   4.080
 8719SOL     OW27055   2.031   6.954   6.393
 8719SOL    HW127056   2.022   0.006   6.450
 8719SOL    HW227057   2.109   6.965   6.331
 8720SOL     OW27058   6.490   5.220   5.452
 8720SOL    HW127059   6.529   5.260   5.534
 8720SOL    HW227060   6.415   5.277   5.419
 8721SOL     OW27061   6.663   2.582   3.026
 8721SOL    HW127062   6.705   2.514   3.086
 8721SOL    HW227063   6.572   2.605   3.061
 8722SOL     OW27064   4.277   1.603   6.590
 8722SOL    HW127065   4.206   1.540   6.622
 8722SOL    HW227066   4.280   1.683   6.650
 8723SOL     OW27067   4.725   5.364   1.495
 8723SOL    HW127068   4.657   5.325   1.433
 8723SOL    HW227069   4.679   5.419   1.565
 8724SOL     OW27070   5.968   6.988   5.986
 8724SOL    HW127071   6.017   6.982   5.898
 8724SOL    HW227072   5.876   7.023   5.970
 8725SOL     OW27073   2.269   0.325   6.939
 8725SOL    HW127074   2.297   0.411   6.897
 8725SOL    HW227075   2.330   0.252   6.908
 8726SOL     OW27076   6.100   6.984   1.761
 8726SOL    HW127077   6.094   0.009   1.843
 8726SOL    HW227078   6.125   0.010   1.683
 8727SOL     OW27079   6.624   6.516   1.946
 8727SOL    HW127080   6.574   6.434   1.971
 8727SOL    HW227081   6.683   6.497   1.868
 8728SOL     OW27082   3.998   0.606   4.583
 8728SOL    HW127083   3.965   0.691   4.622
 8728SOL    HW227084   3.925   0.563   4.530
 8729SOL     OW27085   4.759   5.988   3.689
 8729SOL    HW127086   4.791   6.082   3.673
 8729SOL    HW227087   4.815   5.946   3.761
 8730SOL     OW27088   6.192   4.164   2.484
 8730SOL    HW127089   6.247   4.091   2.523
 8730SOL    HW227090   6.234   4.195   2.398
 8731SOL     OW27091   1.518   2.574   2.478
 8731SOL    HW127092   1.602   2.582   2.531
 8731SOL    HW227093   1.493   2.477   2.469
 8732SOL     OW27094   5.823   4.254   1.875
 8732SOL    HW127095   5.853   4.302   1.957
 8732SOL    HW227096   5.860   4.300   1.794
 8733SOL     OW27097   1.912   5.596   2.305
 8733SOL    HW127098   1.825   5.547   2.311
 8733SOL    HW227099   1.987   5.531   2.307
 8734SOL     OW27100   0.827   4.383   2.070
 8734SOL    HW127101   0.914   4.431   2.083
 8734SOL    HW227102   0.843   4.301   2.016
 8735SOL     OW27103   0.903   1.721   6.858
 8735SOL    HW127104   0.805   1.701   6.850
 8735SOL    HW227105   0.915   1.812   6.897
 8736SOL     OW27106   0.734   6.342   5.412
 8736SOL    HW127107   0.769   6.257   5.372
 8736SOL    HW227108   0.775   6.420   5.364
 8737SOL     OW27109   2.460   6.454   6.114
 8737SOL    HW127110   2.498   6.372   6.155
 8737SOL    HW227111   2.416   6.431   6.027
 8738SOL     OW27112   2.194   5.434   4.605
 8738SOL    HW127113   2.205   5.377   4.686
 8738SOL    HW227114   2.097   5.439   4.580
 8739SOL     OW27115   6.238   5.529   6.148
 8739SOL    HW127116   6.287   5.442   6.144
 8739SOL    HW227117   6.142   5.515   6.123
 8740SOL     OW27118   5.052   0.739   4.990
 8740SOL    HW127119   5.071   0.676   5.066
 8740SOL    HW227120   5.074   0.694   4.903
 8741SOL     OW27121   2.758   1.109   1.950
 8741SOL    HW127122   2.741   1.037   1.883
 8741SOL    HW227123   2.677   1.167   1.958
 8742SOL     OW27124   5.523   6.096   1.304
 8742SOL    HW127125   5.554   6.070   1.212
 8742SOL    HW227126   5.538   6.020   1.367
 8743SOL     OW27127   1.654   0.340   2.246
 8743SOL    HW127128   1.592   0.277   2.293
 8743SOL    HW227129   1.702   0.290   2.174
 8744SOL     OW27130   3.618   2.664   6.027
 8744SOL    HW127131   3.609   2.615   5.940
 8744SOL    HW227132   3.693   2.625   6.080
 8745SOL     OW27133   6.340   2.779   6.057
 8745SOL    HW127134   6.417   2.834   6.090
 8745SOL    HW227135   6.320   2.804   5.963
 8746SOL     OW27136   4.961   3.799   5.174
 8746SOL    HW127137   4.924   3.717   5.131
 8746SOL    HW227138   5.015   3.773   5.254
 8747SOL     OW27139   0.175   2.448   2.806
 8747SOL    HW127140   0.175   2.355   2.843
 8747SOL    HW227141   0.086   2.490   2.820
 8748SOL     OW27142   0.712   1.435   5.738
 8748SOL    HW127143   0.779   1.364   5.755
 8748SOL    HW227144   0.635   1.397   5.687
 8749SOL     OW27145   2.537   0.374   6.424
 8749SOL    HW127146   2.456   0.359   6.481
 8749SOL    HW227147   2.509   0.387   6.329
 8750SOL     OW27148   2.968   3.373   5.739
 8750SOL    HW127149   3.048   3.350   5.683
 8750SOL    HW227150   2.890   3.388   5.679
 8751SOL     OW27151   6.493   0.280   2.699
 8751SOL    HW127152   6.559   0.297   2.772
 8751SOL    HW227153   6.515   0.337   2.620
 8752SOL     OW27154   2.660   4.746   0.086
 8752SOL    HW127155   2.702   4.807   0.153
 8752SOL    HW227156   2.667   4.785   7.025
 8753SOL     OW27157   5.038   1.566   5.160
 8753SOL    HW127158   5.116   1.600   5.106
 8753SOL    HW227159   5.022   1.470   5.136
 8754SOL     OW27160   1.258   2.546   5.066
 8754SOL    HW127161   1.197   2.621   5.041
 8754SOL    HW227162   1.351   2.568   5.037
 8755SOL     OW27163   2.112   0.870   6.762
 8755SOL    HW127164   2.077   0.895   6.672
 8755SOL    HW227165   2.036   0.859   6.826
 8756SOL     OW27166   2.071   3.049   3.227
 8756SOL    HW127167   2.088   3.132   3.281
 8756SOL    HW227168   2.155   3.023   3.179
 8757SOL     OW27169   5.362   6.592   5.870
 8757SOL    HW127170   5.392   6.600   5.775
 8757SOL    HW227171   5.287   6.527   5.877
 8758SOL     OW27172   4.576   6.438   1.817
 8758SOL    HW127173   4.620   6.507   1.875
 8758SOL    HW227174   4.481   6.426   1.846
 8759SOL     OW27175   3.814   2.399   0.531
 8759SOL    HW127176   3.863   2.487   0.531
 8759SOL    HW227177   3.719   2.414   0.555
 8760SOL     OW27178   1.579   1.778   5.308
 8760SOL    HW127179   1.555   1.813   5.217
 8760SOL    HW227180   1.570   1.678   5.309
 8761SOL     OW27181   4.502   1.493   1.893
 8761SOL    HW127182   4.543   1.462   1.979
 8761SOL    HW227183   4.451   1.417   1.852
 8762SOL     OW27184   0.656   4.560   2.222
 8762SOL    HW127185   0.632   4.476   2.271
 8762SOL    HW227186   0.715   4.536   2.144
 8763SOL     OW27187   5.877   5.977   5.841
 8763SOL    HW127188   5.973   5.972   5.815
 8763SOL    HW227189   5.834   6.056   5.798
 8764SOL     OW27190   5.012   0.844   4.500
 8764SOL    HW127191   5.054   0.903   4.569
 8764SOL    HW227192   5.079   0.825   4.428
 8765SOL     OW27193   6.384   6.376   5.195
 8765SOL    HW127194   6.388   6.309   5.121
 8765SOL    HW227195   6.461   6.440   5.187
 8766SOL     OW27196   4.121   4.788   3.011
 8766SOL    HW127197   4.049   4.784   3.080
 8766SOL    HW227198   4.173   4.873   3.020
 8767SOL     OW27199   4.238   6.972   3.213
 8767SOL    HW127200   4.337   6.960   3.223
 8767SOL    HW227201   4.218   0.037   3.196
 8768SOL     OW27202   0.943   3.238   0.802
 8768SOL    HW127203   0.874   3.270   0.737
 8768SOL    HW227204   0.904   3.168   0.861
 8769SOL     OW27205   1.712   6.676   4.368
 8769SOL    HW127206   1.773   6.600   4.344
 8769SOL    HW227207   1.742   6.759   4.323
 8770SOL     OW27208   5.515   3.766   1.929
 8770SOL    HW127209   5.510   3.714   2.014
 8770SOL    HW227210   5.588   3.835   1.938
 8771SOL     OW27211   0.591   0.331   5.826
 8771SOL    HW127212   0.559   0.422   5.852
 8771SOL    HW227213   0.597   0.273   5.907
 8772SOL     OW27214   5.551   6.819   6.639
 8772SOL    HW127215   5.529   6.912   6.611
 8772SOL    HW227216   5.597   6.820   6.728
 8773SOL     OW27217   4.490   2.589   3.992
 8773SOL    HW127218   4.519   2.515   4.053
 8773SOL    HW227219   4.536   2.674   4.017
 8774SOL     OW27220   2.263   1.947   0.371
 8774SOL    HW127221   2.333   1.879   0.392
 8774SOL    HW227222   2.191   1.906   0.315
 8775SOL     OW27223   6.537   7.002   5.114
 8775SOL    HW127224   6.452   0.016   5.142
 8775SOL    HW227225   6.596   0.039   5.069
 8776SOL     OW27226   3.592   3.910   4.403
 8776SOL    HW127227   3.625   3.966   4.326
 8776SOL    HW227228   3.616   3.814   4.387
 8777SOL     OW27229   0.439   4.015   1.657
 8777SOL    HW127230   0.350   4.049   1.685
 8777SOL    HW227231   0.481   3.964   1.731
 8778SOL     OW27232   5.820   1.901   4.555
 8778SOL    HW127233   5.823   1.809   4.593
 8778SOL    HW227234   5.898   1.954   4.589
 8779SOL     OW27235   3.068   5.164   2.100
 8779SOL    HW127236   3.064   5.145   2.002
 8779SOL    HW227237   3.132   5.239   2.117
 8780SOL     OW27238   1.289   5.387   3.135
 8780SOL    HW127239   1.282   5.291   3.108
 8780SOL    HW227240   1.238   5.443   3.070
 8781SOL     OW27241   6.402   1.833   4.233
 8781SOL    HW127242   6.405   1.872   4.140
 8781SOL    HW227243   6.343   1.753   4.233
 8782SOL     OW27244   5.028   0.238   1.869
 8782SOL    HW127245   4.989   0.289   1.792
 8782SOL    HW227246   4.953   0.201   1.925
 8783SOL     OW27247   6.461   4.196   3.460
 8783SOL    HW127248   6.519   4.114   3.464
 8783SOL    HW227249   6.369   4.170   3.429
 8784SOL     OW27250   5.991   4.196   6.338
 8784SOL    HW127251   5.958   4.289   6.356
 8784SOL    HW227252   5.917   4.131   6.350
 8785SOL     OW27253   7.000   3.731   6.529
 8785SOL    HW127254   0.021   3.724   6.614
 8785SOL    HW227255   6.963   3.641   6.505
 8786SOL     OW27256   2.503   6.524   0.677
 8786SOL    HW127257   2.584   6.582   0.676
 8786SOL    HW227258   2.520   6.444   0.736
 8787SOL     OW27259   2.000   2.713   2.252
 8787SOL    HW127260   1.976   2.787   2.189
 8787SOL    HW227261   2.000   2.747   2.346
 8788SOL     OW27262   0.204   2.148   5.613
 8788SOL    HW127263   0.215   2.105   5.702
 8788SOL    HW227264   0.138   2.223   5.619
 8789SOL     OW27265   6.270   6.915   5.473
 8789SOL    HW127266   6.213   6.970   5.412
 8789SOL    HW227267   6.242   6.819   5.468
 8790SOL     OW27268   7.010   0.983   6.840
 8790SOL    HW127269   6.968   1.073   6.853
 8790SOL    HW227270   6.956   0.930   6.774
 8791SOL     OW27271   5.621   6.928   4.921
 8791SOL    HW127272   5.613   6.829   4.937
 8791SOL    HW227273   5.706   6.948   4.873
 8792SOL     OW27274   3.504   6.195   3.349
 8792SOL    HW127275   3.488   6.097   3.344
 8792SOL    HW227276   3.424   6.244   3.316
 8793SOL     OW27277   1.023   6.065   3.912
 8793SOL    HW127278   0.993   5.969   3.916
 8793SOL    HW227279   1.120   6.070   3.937
 8794SOL     OW27280   4.506   6.805   1.719
 8794SOL    HW127281   4.534   6.842   1.808
 8794SOL    HW227282   4.407   6.805   1.713
 8795SOL     OW27283   1.214   6.702   4.822
 8795SOL    HW127284   1.175   6.640   4.890
 8795SOL    HW227285   1.295   6.746   4.860
 8796SOL     OW27286   4.380   1.175   4.773
 8796SOL    HW127287   4.370   1.189   4.674
 8796SOL    HW227288   4.471   1.203   4.802
 8797SOL     OW27289   1.066   0.068   5.279
 8797SOL    HW127290   0.970   0.094   5.284
 8797SOL    HW227291   1.118   0.144   5.238
 8798SOL     OW27292   5.073   4.983   5.354
 8798SOL    HW127293   5.122   4.978   5.441
 8798SOL    HW227294   5.139   4.996   5.279
 8799SOL     OW27295   1.858   4.239   3.818
 8799SOL    HW127296   1.803   4.156   3.804
 8799SOL    HW227297   1.948   4.226   3.779
 8800SOL     OW27298   6.196   4.263   5.374
 8800SOL    HW127299   6.227   4.183   5.425
 8800SOL    HW227300   6.123   4.309   5.425
 8801SOL     OW27301   0.897   1.427   4.526
 8801SOL    HW127302   0.904   1.401   4.622
 8801SOL    HW227303   0.952   1.509   4.509
 8802SOL     OW27304   1.730   0.342   0.524
 8802SOL    HW127305   1.829   0.328   0.529
 8802SOL    HW227306   1.697   0.314   0.434
 8803SOL     OW27307   0.112   5.272   5.713
 8803SOL    HW127308   0.082   5.256   5.807
 8803SOL    HW227309   0.147   5.187   5.674
 8804SOL     OW27310   3.488   0.069   1.737
 8804SOL    HW127311   3.563   0.004   1.741
 8804SOL    HW227312   3.469   0.106   1.828
 8805SOL     OW27313   2.412   0.302   4.391
 8805SOL    HW127314   2.435   0.266   4.481
 8805SOL    HW227315   2.436   0.235   4.321
 8806SOL     OW27316   2.476   5.068   1.882
 8806SOL    HW127317   2.417   5.045   1.959
 8806SOL    HW227318   2.525   4.986   1.852
 8807SOL     OW27319   6.032   6.693   6.508
 8807SOL    HW127320   6.079   6.759   6.450
 8807SOL    HW227321   5.933   6.701   6.495
 8808SOL     OW27322   5.456   2.330   0.485
 8808SOL    HW127323   5.422   2.367   0.571
 8808SOL    HW227324   5.388   2.268   0.446
 8809SOL     OW27325   4.670   4.921   3.365
 8809SOL    HW127326   4.661   5.008   3.317
 8809SOL    HW227327   4.654   4.846   3.300
 8810SOL     OW27328   5.489   0.915   6.325
 8810SOL    HW127329   5.406   0.923   6.270
 8810SOL    HW227330   5.476   0.960   6.413
 8811SOL     OW27331   2.841   1.693   3.967
 8811SOL    HW127332   2.899   1.775   3.970
 8811SOL    HW227333   2.887   1.619   4.017
 8812SOL     OW27334   1.882   0.329   1.438
 8812SOL    HW127335   1.899   0.235   1.469
 8812SOL    HW227336   1.798   0.363   1.480
 8813SOL     OW27337   1.405   4.438   1.640
 8813SOL    HW127338   1.403   4.383   1.723
 8813SOL    HW227339   1.332   4.506   1.643
 8814SOL     OW27340   5.805   0.517   0.696
 8814SOL    HW127341   5.727   0.488   0.641
 8814SOL    HW227342   5.782   0.510   0.793
 8815SOL     OW27343   6.814   5.972   0.982
 8815SOL    HW127344   6.755   5.891   0.982
 8815SOL    HW227345   6.773   6.043   1.040
 8816SOL     OW27346   1.679   0.887   0.499
 8816SOL    HW127347   1.660   0.970   0.446
 8816SOL    HW227348   1.713   0.816   0.437
 8817SOL     OW27349   0.910   5.821   5.412
 8817SOL    HW127350   0.828   5.805   5.357
 8817SOL    HW227351   0.903   5.910   5.458
 8818SOL     OW27352   0.358   3.130   4.078
 8818SOL    HW127353   0.297   3.078   4.138
 8818SOL    HW227354   0.432   3.072   4.046
 8819SOL     OW27355   4.590   5.140   4.557
 8819SOL    HW127356   4.575   5.054   4.605
 8819SOL    HW227357   4.599   5.214   4.624
 8820SOL     OW27358   2.260   1.169   5.013
 8820SOL    HW127359   2.200   1.247   5.026
 8820SOL    HW227360   2.210   1.085   5.030
 8821SOL     OW27361   2.968   6.339   0.036
 8821SOL    HW127362   3.000   6.248   0.010
 8821SOL    HW227363   3.035   6.382   0.096
 8822SOL     OW27364   0.927   0.017   4.434
 8822SOL    HW127365   0.919   6.949   4.447
 8822SOL    HW227366   1.023   0.041   4.418
 8823SOL     OW27367   2.313   0.857   0.921
 8823SOL    HW127368   2.313   0.902   0.832
 8823SOL    HW227369   2.306   0.758   0.908
 8824SOL     OW27370   1.054   3.076   1.375
 8824SOL    HW127371   1.038   3.051   1.280
 8824SOL    HW227372   1.139   3.128   1.382
 8825SOL     OW27373   2.065   0.334   2.995
 8825SOL    HW127374   2.130   0.258   2.993
 8825SOL    HW227375   2.001   0.320   3.071
 8826SOL     OW27376   6.614   3.094   0.734
 8826SOL    HW127377   6.616   3.154   0.814
 8826SOL    HW227378   6.693   3.115   0.676
 8827SOL     OW27379   3.721   1.033   2.702
 8827SOL    HW127380   3.689   0.982   2.623
 8827SOL    HW227381   3.762   0.970   2.768
 8828SOL     OW27382   4.559   5.559   5.014
 8828SOL    HW127383   4.462   5.539   5.026
 8828SOL    HW227384   4.571   5.616   4.932
 8829SOL     OW27385   0.207   2.165   0.684
 8829SOL    HW127386   0.170   2.132   0.770
 8829SOL    HW227387   0.286   2.110   0.658
 8830SOL     OW27388   0.057   1.757   1.695
 8830SOL    HW127389   7.030   1.819   1.748
 8830SOL    HW227390   0.027   1.757   1.599
 8831SOL     OW27391   5.558   0.959   3.758
 8831SOL    HW127392   5.506   0.880   3.792
 8831SOL    HW227393   5.577   0.947   3.661
 8832SOL     OW27394   0.006   6.104   2.973
 8832SOL    HW127395   6.979   6.022   2.975
 8832SOL    HW227396   6.988   6.178   2.925
 8833SOL     OW27397   2.378   6.397   5.859
 8833SOL    HW127398   2.460   6.357   5.817
 8833SOL    HW227399   2.297   6.351   5.823
 8834SOL     OW27400   5.460   3.234   4.528
 8834SOL    HW127401   5.526   3.189   4.588
 8834SOL    HW227402   5.487   3.221   4.433
 8835SOL     OW27403   6.037   1.180   5.832
 8835SOL    HW127404   6.132   1.159   5.811
 8835SOL    HW227405   6.031   1.268   5.878
 8836SOL     OW27406   4.348   1.996   6.519
 8836SOL    HW127407   4.263   1.960   6.556
 8836SOL    HW227408   4.399   2.043   6.592
 8837SOL     OW27409   7.030   6.530   3.067
 8837SOL    HW127410   7.021   6.611   3.125
 8837SOL    HW227411   0.094   6.520   3.039
 8838SOL     OW27412   2.660   4.697   2.632
 8838SOL    HW127413   2.666   4.598   2.623
 8838SOL    HW227414   2.675   4.723   2.728
 8839SOL     OW27415   5.584   5.386   2.386
 8839SOL    HW127416   5.677   5.422   2.382
 8839SOL    HW227417   5.580   5.299   2.336
 8840SOL     OW27418   6.727   1.657   1.659
 8840SOL    HW127419   6.694   1.732   1.717
 8840SOL    HW227420   6.654   1.627   1.598
 8841SOL     OW27421   0.849   0.271   4.896
 8841SOL    HW127422   0.809   0.270   4.987
 8841SOL    HW227423   0.804   0.203   4.838
 8842SOL     OW27424   3.077   2.855   1.844
 8842SOL    HW127425   3.173   2.867   1.872
 8842SOL    HW227426   3.063   2.761   1.812
 8843SOL     OW27427   1.873   3.365   5.336
 8843SOL    HW127428   1.834   3.457   5.329
 8843SOL    HW227429   1.878   3.324   5.245
 8844SOL     OW27430   6.039   2.135   6.933
 8844SOL    HW127431   6.017   2.076   6.855
 8844SOL    HW227432   6.031   2.231   6.906
 8845SOL     OW27433   4.788   3.938   6.974
 8845SOL    HW127434   4.691   3.936   7.000
 8845SOL    HW227435   4.842   3.901   0.019
 8846SOL     OW27436   3.309   5.534   3.577
 8846SOL    HW127437   3.366   5.562   3.655
 8846SOL    HW227438   3.220   5.505   3.610
 8847SOL     OW27439   2.824   1.437   2.871
 8847SOL    HW127440   2.858   1.344   2.865
 8847SOL    HW227441   2.901   1.501   2.863
 8848SOL     OW27442   2.461   0.175   1.959
 8848SOL    HW127443   2.508   0.116   1.893
 8848SOL    HW227444   2.438   0.123   2.041
 8849SOL     OW27445   3.459   5.942   2.993
 8849SOL    HW127446   3.530   5.935   3.063
 8849SOL    HW227447   3.462   6.032   2.950
 8850SOL     OW27448   1.420   2.355   0.464
 8850SOL    HW127449   1.420   2.448   0.429
 8850SOL    HW227450   1.326   2.322   0.470
 8851SOL     OW27451   1.384   4.004   2.660
 8851SOL    HW127452   1.430   4.073   2.603
 8851SOL    HW227453   1.318   3.954   2.604
 8852SOL     OW27454   0.637   2.055   5.050
 8852SOL    HW127455   0.705   2.095   5.111
 8852SOL    HW227456   0.669   2.063   4.955
 8853SOL     OW27457   2.772   0.680   1.671
 8853SOL    HW127458   2.751   0.613   1.600
 8853SOL    HW227459   2.866   0.712   1.660
 8854SOL     OW27460   1.875   3.218   5.092
 8854SOL    HW127461   1.971   3.192   5.098
 8854SOL    HW227462   1.847   3.221   4.996
 8855SOL     OW27463   6.806   4.920   1.329
 8855SOL    HW127464   6.899   4.938   1.361
 8855SOL    HW227465   6.747   4.996   1.353
 8856SOL     OW27466   0.729   6.537   6.054
 8856SOL    HW127467   0.672   6.510   5.976
 8856SOL    HW227468   0.682   6.515   6.139
 8857SOL     OW27469   6.487   1.615   4.630
 8857SOL    HW127470   6.477   1.714   4.622
 8857SOL    HW227471   6.573   1.587   4.588
 8858SOL     OW27472   0.045   4.169   4.262
 8858SOL    HW127473   6.994   4.203   4.215
 8858SOL    HW227474   0.117   4.150   4.196
 8859SOL     OW27475   1.176   1.259   3.897
 8859SOL    HW127476   1.093   1.274   3.951
 8859SOL    HW227477   1.215   1.170   3.920
 8860SOL     OW27478   6.788   1.980   1.467
 8860SOL    HW127479   6.797   1.978   1.567
 8860SOL    HW227480   6.713   2.041   1.442
 8861SOL     OW27481   3.879   1.193   6.296
 8861SOL    HW127482   3.812   1.249   6.344
 8861SOL    HW227483   3.893   1.228   6.204
 8862SOL     OW27484   5.734   6.842   3.954
 8862SOL    HW127485   5.799   6.782   3.908
 8862SOL    HW227486   5.731   6.819   4.051
 8863SOL     OW27487   2.292   4.687   3.271
 8863SOL    HW127488   2.327   4.750   3.341
 8863SOL    HW227489   2.368   4.634   3.234
 8864SOL     OW27490   3.583   4.314   6.080
 8864SOL    HW127491   3.500   4.259   6.070
 8864SOL    HW227492   3.584   4.385   6.009
 8865SOL     OW27493   3.359   0.723   4.421
 8865SOL    HW127494   3.384   0.720   4.324
 8865SOL    HW227495   3.309   0.807   4.440
 8866SOL     OW27496   5.704   6.901   2.943
 8866SOL    HW127497   5.668   6.977   2.889
 8866SOL    HW227498   5.717   6.822   2.883
 8867SOL     OW27499   5.675   4.595   3.478
 8867SOL    HW127500   5.649   4.599   3.574
 8867SOL    HW227501   5.757   4.650   3.462
 8868SOL     OW27502   6.753   3.055   2.567
 8868SOL    HW127503   6.822   3.011   2.509
 8868SOL    HW227504   6.665   3.057   2.519
 8869SOL     OW27505   4.336   6.079   5.648
 8869SOL    HW127506   4.315   5.987   5.613
 8869SOL    HW227507   4.414   6.116   5.598
 8870SOL     OW27508   2.273   6.848   2.040
 8870SOL    HW127509   2.306   6.856   1.946
 8870SOL    HW227510   2.279   6.937   2.085
 8871SOL     OW27511   2.354   0.280   3.442
 8871SOL    HW127512   2.324   0.187   3.464
 8871SOL    HW227513   2.450   0.290   3.468
 8872SOL     OW27514   0.932   4.948   5.841
 8872SOL    HW127515   0.933   5.019   5.770
 8872SOL    HW227516   0.964   4.986   5.927
 8873SOL     OW27517   1.933   0.035   2.196
 8873SOL    HW127518   1.972   0.125   2.177
 8873SOL    HW227519   1.877   0.039   2.279
 8874SOL     OW27520   1.863   5.996   2.391
 8874SOL    HW127521   1.888   5.947   2.475
 8874SOL    HW227522   1.764   5.998   2.382
 8875SOL     OW27523   6.772   3.657   4.237
 8875SOL    HW127524   6.819   3.683   4.322
 8875SOL    HW227525   6.698   3.722   4.219
 8876SOL     OW27526   2.544   0.911   6.437
 8876SOL    HW127527   2.641   0.932   6.432
 8876SOL    HW227528   2.517   0.896   6.532
 8877SOL     OW27529   2.002   2.611   3.665
 8877SOL    HW127530   1.944   2.692   3.665
 8877SOL    HW227531   2.007   2.573   3.573
 8878SOL     OW27532   3.297   5.222   1.407
 8878SOL    HW127533   3.383   5.204   1.360
 8878SOL    HW227534   3.283   5.321   1.412
 8879SOL     OW27535   5.034   4.939   2.267
 8879SOL    HW127536   5.022   4.928   2.366
 8879SOL    HW227537   4.956   4.990   2.231
 8880SOL     OW27538   4.234   6.610   5.054
 8880SOL    HW127539   4.332   6.620   5.065
 8880SOL    HW227540   4.187   6.684   5.102
 8881SOL     OW27541   5.220   5.622   4.342
 8881SOL    HW127542   5.278   5.693   4.303
 8881SOL    HW227543   5.261   5.532   4.325
 8882SOL     OW27544   4.611   1.090   1.086
 8882SOL    HW127545   4.666   1.168   1.116
 8882SOL    HW227546   4.514   1.109   1.100
 8883SOL     OW27547   1.548   6.614   6.203
 8883SOL    HW127548   1.541   6.602   6.104
 8883SOL    HW227549   1.493   6.692   6.232
 8884SOL     OW27550   6.044   3.817   5.981
 8884SOL    HW127551   5.985   3.749   5.939
 8884SOL    HW227552   6.108   3.853   5.913
 8885SOL     OW27553   4.759   4.763   1.145
 8885SOL    HW127554   4.664   4.750   1.174
 8885SOL    HW227555   4.798   4.674   1.120
 8886SOL     OW27556   3.600   5.906   6.006
 8886SOL    HW127557   3.539   5.827   5.995
 8886SOL    HW227558   3.659   5.891   6.085
 8887SOL     OW27559   4.107   0.672   0.836
 8887SOL    HW127560   4.147   0.659   0.927
 8887SOL    HW227561   4.153   0.612   0.771
 8888SOL     OW27562   2.111   2.056   4.677
 8888SOL    HW127563   2.154   2.128   4.732
 8888SOL    HW227564   2.148   2.059   4.584
 8889SOL     OW27565   6.993   6.712   6.879
 8889SOL    HW127566   7.001   6.808   6.905
 8889SOL    HW227567   0.027   6.658   6.932
 8890SOL     OW27568   0.732   5.992   6.092
 8890SOL    HW127569   0.793   6.056   6.138
 8890SOL    HW227570   0.637   6.017   6.110
 8891SOL     OW27571   4.112   4.485   0.421
 8891SOL    HW127572   4.108   4.469   0.322
 8891SOL    HW227573   4.025   4.526   0.451
 8892SOL     OW27574   3.392   5.007   3.603
 8892SOL    HW127575   3.473   4.992   3.660
 8892SOL    HW227576   3.379   5.105   3.588
 8893SOL     OW27577   1.107   5.115   4.940
 8893SOL    HW127578   1.128   5.211   4.920
 8893SOL    HW227579   1.009   5.099   4.927
 8894SOL     OW27580   3.313   1.926   6.625
 8894SOL    HW127581   3.344   2.006   6.678
 8894SOL    HW227582   3.230   1.890   6.667
 8895SOL     OW27583   0.120   2.232   1.364
 8895SOL    HW127584   0.081   2.322   1.349
 8895SOL    HW227585   0.059   2.162   1.326
 8896SOL     OW27586   1.786   3.361   4.490
 8896SOL    HW127587   1.847   3.420   4.544
 8896SOL    HW227588   1.825   3.348   4.399
 8897SOL     OW27589   2.279   2.635   3.632
 8897SOL    HW127590   2.188   2.660   3.665
 8897SOL    HW227591   2.289   2.536   3.632
 8898SOL     OW27592   5.343   3.332   2.094
 8898SOL    HW127593   5.439   3.357   2.088
 8898SOL    HW227594   5.318   3.273   2.017
 8899SOL     OW27595   1.572   4.641   0.116
 8899SOL    HW127596   1.548   4.720   0.173
 8899SOL    HW227597   1.657   4.661   0.066
 8900SOL     OW27598   5.147   3.087   2.986
 8900SOL    HW127599   5.055   3.047   2.981
 8900SOL    HW227600   5.164   3.118   3.079
 8901SOL     OW27601   0.536   1.149   4.094
 8901SOL    HW127602   0.553   1.062   4.048
 8901SOL    HW227603   0.596   1.157   4.174
 8902SOL     OW27604   1.357   5.535   0.049
 8902SOL    HW127605   1.387   5.445   0.018
 8902SOL    HW227606   1.437   5.595   0.058
 8903SOL     OW27607   0.491   2.248   4.689
 8903SOL    HW127608   0.397   2.272   4.716
 8903SOL    HW227609   0.545   2.332   4.679
 8904SOL     OW27610   0.617   1.519   4.476
 8904SOL    HW127611   0.590   1.539   4.382
 8904SOL    HW227612   0.701   1.464   4.476
 8905SOL     OW27613   2.031   2.849   2.536
 8905SOL    HW127614   2.123   2.888   2.534
 8905SOL    HW227615   2.023   2.787   2.614
 8906SOL     OW27616   1.458   6.203   1.203
 8906SOL    HW127617   1.507   6.126   1.160
 8906SOL    HW227618   1.378   6.226   1.148
 8907SOL     OW27619   3.436   2.680   5.555
 8907SOL    HW127620   3.499   2.744   5.513
 8907SOL    HW227621   3.415   2.606   5.490
 8908SOL     OW27622   1.959   5.556   0.080
 8908SOL    HW127623   2.041   5.571   0.134
 8908SOL    HW227624   1.885   5.523   0.140
 8909SOL     OW27625   2.862   1.222   6.324
 8909SOL    HW127626   2.807   1.189   6.247
 8909SOL    HW227627   2.941   1.272   6.288
 8910SOL     OW27628   0.478   2.810   5.145
 8910SOL    HW127629   0.567   2.768   5.163
 8910SOL    HW227630   0.460   2.810   5.047
 8911SOL     OW27631   5.112   3.526   4.960
 8911SOL    HW127632   5.013   3.536   4.973
 8911SOL    HW227633   5.129   3.461   4.885
 8912SOL     OW27634   2.311   3.328   6.287
 8912SOL    HW127635   2.302   3.387   6.206
 8912SOL    HW227636   2.257   3.366   6.362
 8913SOL     OW27637   4.190   5.191   6.518
 8913SOL    HW127638   4.260   5.211   6.587
 8913SOL    HW227639   4.176   5.092   6.512
 8914SOL     OW27640   4.884   6.979   4.419
 8914SOL    HW127641   4.952   6.906   4.420
 8914SOL    HW227642   4.793   6.940   4.428
 8915SOL     OW27643   1.305   1.997   4.345
 8915SOL    HW127644   1.369   1.947   4.287
 8915SOL    HW227645   1.355   2.040   4.421
 8916SOL     OW27646   6.887   2.733   6.995
 8916SOL    HW127647   6.875   2.795   6.918
 8916SOL    HW227648   6.867   2.639   6.965
 8917SOL     OW27649   5.363   2.590   1.242
 8917SOL    HW127650   5.341   2.557   1.333
 8917SOL    HW227651   5.338   2.521   1.174
 8918SOL     OW27652   1.060   5.023   0.637
 8918SOL    HW127653   1.029   5.106   0.592
 8918SOL    HW227654   0.987   4.954   0.634
 8919SOL     OW27655   5.058   4.385   6.736
 8919SOL    HW127656   5.086   4.306   6.791
 8919SOL    HW227657   4.998   4.444   6.790
 8920SOL     OW27658   0.375   2.093   0.275
 8920SOL    HW127659   0.321   2.085   0.359
 8920SOL    HW227660   0.400   2.188   0.261
 8921SOL     OW27661   1.686   2.820   2.401
 8921SOL    HW127662   1.748   2.898   2.390
 8921SOL    HW227663   1.733   2.737   2.372
 8922SOL     OW27664   4.020   5.773   2.254
 8922SOL    HW127665   4.085   5.850   2.247
 8922SOL    HW227666   4.055   5.707   2.321
 8923SOL     OW27667   1.571   0.942   6.647
 8923SOL    HW127668   1.659   0.897   6.633
 8923SOL    HW227669   1.503   0.874   6.673
 8924SOL     OW27670   4.126   5.407   5.238
 8924SOL    HW127671   4.139   5.308   5.232
 8924SOL    HW227672   4.073   5.438   5.159
 8925SOL     OW27673   0.498   0.847   2.720
 8925SOL    HW127674   0.514   0.800   2.634
 8925SOL    HW227675   0.428   0.918   2.707
 8926SOL     OW27676   0.014   3.159   5.193
 8926SOL    HW127677   0.039   3.064   5.210
 8926SOL    HW227678   0.079   3.200   5.129
 8927SOL     OW27679   6.335   1.461   4.443
 8927SOL    HW127680   6.384   1.519   4.508
 8927SOL    HW227681   6.394   1.387   4.412
 8928SOL     OW27682   1.571   0.393   6.201
 8928SOL    HW127683   1.566   0.364   6.297
 8928SOL    HW227684   1.652   0.352   6.159
 8929SOL     OW27685   5.959   1.937   5.573
 8929SOL    HW127686   5.965   2.033   5.544
 8929SOL    HW227687   5.920   1.933   5.665
 8930SOL     OW27688   0.920   2.666   3.195
 8930SOL    HW127689   0.880   2.627   3.112
 8930SOL    HW227690   0.985   2.600   3.234
 8931SOL     OW27691   2.988   3.943   1.594
 8931SOL    HW127692   3.057   3.871   1.592
 8931SOL    HW227693   2.969   3.974   1.501
 8932SOL     OW27694   6.172   2.137   2.280
 8932SOL    HW127695   6.191   2.102   2.372
 8932SOL    HW227696   6.242   2.204   2.255
 8933SOL     OW27697   3.019   2.383   6.350
 8933SOL    HW127698   3.048   2.341   6.264
 8933SOL    HW227699   2.967   2.317   6.404
 8934SOL     OW27700   3.132   5.017   4.947
 8934SOL    HW127701   3.133   4.979   5.039
 8934SOL    HW227702   3.064   4.968   4.891
 8935SOL     OW27703   0.195   4.420   0.271
 8935SOL    HW127704   0.194   4.344   0.336
 8935SOL    HW227705   0.118   4.409   0.206
 8936SOL     OW27706   1.798   4.232   1.715
 8936SOL    HW127707   1.842   4.161   1.661
 8936SOL    HW227708   1.742   4.191   1.786
 8937SOL     OW27709   0.254   0.470   5.591
 8937SOL    HW127710   0.175   0.447   5.534
 8937SOL    HW227711   0.226   0.471   5.687
 8938SOL     OW27712   0.439   5.646   0.965
 8938SOL    HW127713   0.423   5.611   1.058
 8938SOL    HW227714   0.352   5.656   0.918
 8939SOL     OW27715   4.717   2.797   4.334
 8939SOL    HW127716   4.753   2.875   4.385
 8939SOL    HW227717   4.780   2.719   4.345
 8940SOL     OW27718   0.161   0.964   2.969
 8940SOL    HW127719   0.194   1.057   2.954
 8940SOL    HW227720   0.150   0.917   2.881
 8941SOL     OW27721   6.314   2.583   5.463
 8941SOL    HW127722   6.364   2.627   5.538
 8941SOL    HW227723   6.224   2.624   5.454
 8942SOL     OW27724   6.829   4.458   5.163
 8942SOL    HW127725   6.796   4.510   5.242
 8942SOL    HW227726   6.862   4.521   5.093
 8943SOL     OW27727   3.864   4.555   6.659
 8943SOL    HW127728   3.823   4.544   6.750
 8943SOL    HW227729   3.956   4.593   6.668
 8944SOL     OW27730   5.550   4.580   5.258
 8944SOL    HW127731   5.498   4.521   5.320
 8944SOL    HW227732   5.486   4.634   5.203
 8945SOL     OW27733   1.182   0.623   3.305
 8945SOL    HW127734   1.103   0.615   3.245
 8945SOL    HW227735   1.173   0.705   3.361
 8946SOL     OW27736   3.160   1.099   5.371
 8946SOL    HW127737   3.144   1.045   5.289
 8946SOL    HW227738   3.124   1.191   5.358
 8947SOL     OW27739   2.159   3.596   4.662
 8947SOL    HW127740   2.134   3.690   4.685
 8947SOL    HW227741   2.250   3.575   4.700
 8948SOL     OW27742   6.645   6.724   4.028
 8948SOL    HW127743   6.705   6.783   4.080
 8948SOL    HW227744   6.636   6.635   4.074
 8949SOL     OW27745   2.671   6.989   1.092
 8949SOL    HW127746   2.747   0.011   1.130
 8949SOL    HW227747   2.705   6.900   1.061
 8950SOL     OW27748   4.768   3.940   6.191
 8950SOL    HW127749   4.711   3.862   6.216
 8950SOL    HW227750   4.712   4.022   6.183
 8951SOL     OW27751   0.426   1.918   5.188
 8951SOL    HW127752   0.445   1.830   5.231
 8951SOL    HW227753   0.474   1.923   5.100
 8952SOL     OW27754   1.368   6.825   2.501
 8952SOL    HW127755   1.372   6.744   2.559
 8952SOL    HW227756   1.359   6.907   2.558
 8953SOL     OW27757   1.160   4.132   6.589
 8953SOL    HW127758   1.104   4.053   6.615
 8953SOL    HW227759   1.250   4.125   6.632
 8954SOL     OW27760   1.478   0.130   5.942
 8954SOL    HW127761   1.470   0.067   5.864
 8954SOL    HW227762   1.413   0.204   5.931
 8955SOL     OW27763   0.605   5.077   2.355
 8955SOL    HW127764   0.540   5.086   2.431
 8955SOL    HW227765   0.601   4.983   2.320
 8956SOL     OW27766   0.629   1.677   6.826
 8956SOL    HW127767   0.588   1.714   6.743
 8956SOL    HW227768   0.590   1.724   6.906
 8957SOL     OW27769   3.072   4.304   1.754
 8957SOL    HW127770   3.016   4.374   1.799
 8957SOL    HW227771   3.109   4.340   1.669
 8958SOL     OW27772   0.455   0.326   4.676
 8958SOL    HW127773   0.455   0.227   4.661
 8958SOL    HW227774   0.363   0.362   4.666
 8959SOL     OW27775   1.433   4.636   1.896
 8959SOL    HW127776   1.377   4.560   1.929
 8959SOL    HW227777   1.375   4.713   1.873
 8960SOL     OW27778   4.748   5.591   2.988
 8960SOL    HW127779   4.719   5.672   3.040
 8960SOL    HW227780   4.668   5.549   2.945
 8961SOL     OW27781   2.780   2.116   4.515
 8961SOL    HW127782   2.707   2.130   4.447
 8961SOL    HW227783   2.745   2.058   4.589
 8962SOL     OW27784   6.496   6.631   2.193
 8962SOL    HW127785   6.402   6.603   2.176
 8962SOL    HW227786   6.551   6.615   2.110
 8963SOL     OW27787   5.303   6.718   3.967
 8963SOL    HW127788   5.291   6.634   4.020
 8963SOL    HW227789   5.222   6.732   3.909
 8964SOL     OW27790   5.267   3.536   3.414
 8964SOL    HW127791   5.262   3.438   3.392
 8964SOL    HW227792   5.231   3.590   3.338
 8965SOL     OW27793   2.202   4.903   0.565
 8965SOL    HW127794   2.247   4.896   0.476
 8965SOL    HW227795   2.104   4.920   0.552
 8966SOL     OW27796   0.296   4.369   5.864
 8966SOL    HW127797   0.229   4.373   5.791
 8966SOL    HW227798   0.250   4.356   5.952
 8967SOL     OW27799   3.631   6.878   2.177
 8967SOL    HW127800   3.535   6.905   2.189
 8967SOL    HW227801   3.680   6.890   2.263
 8968SOL     OW27802   5.170   4.750   2.926
 8968SOL    HW127803   5.143   4.802   3.007
 8968SOL    HW227804   5.196   4.657   2.953
 8969SOL     OW27805   6.944   0.823   4.205
 8969SOL    HW127806   6.953   0.742   4.147
 8969SOL    HW227807   6.993   0.900   4.162
 8970SOL     OW27808   2.384   3.082   0.127
 8970SOL    HW127809   2.318   3.009   0.115
 8970SOL    HW227810   2.428   3.074   0.216
 8971SOL     OW27811   4.922   5.315   2.440
 8971SOL    HW127812   4.873   5.396   2.472
 8971SOL    HW227813   4.946   5.326   2.344
 8972SOL     OW27814   4.919   4.584   6.904
 8972SOL    HW127815   4.963   4.642   6.836
 8972SOL    HW227816   4.881   4.641   6.977
 8973SOL     OW27817   0.961   3.394   2.223
 8973SOL    HW127818   1.025   3.444   2.282
 8973SOL    HW227819   0.924   3.457   2.155
 8974SOL     OW27820   1.501   4.843   5.568
 8974SOL    HW127821   1.559   4.786   5.509
 8974SOL    HW227822   1.482   4.795   5.654
 8975SOL     OW27823   2.302   0.354   6.585
 8975SOL    HW127824   2.233   0.290   6.552
 8975SOL    HW227825   2.257   0.440   6.612
 8976SOL     OW27826   0.080   4.793   4.974
 8976SOL    HW127827   0.057   4.830   5.065
 8976SOL    HW227828   0.031   4.708   4.959
 8977SOL     OW27829   5.404   2.072   6.976
 8977SOL    HW127830   5.440   2.084   6.883
 8977SOL    HW227831   5.314   2.029   6.971
 8978SOL     OW27832   5.726   0.084   5.903
 8978SOL    HW127833   5.653   0.126   5.957
 8978SOL    HW227834   5.686   0.027   5.831
 8979SOL     OW27835   1.174   2.826   4.716
 8979SOL    HW127836   1.230   2.777   4.649
 8979SOL    HW227837   1.078   2.804   4.701
 8980SOL     OW27838   2.359   2.909   5.392
 8980SOL    HW127839   2.411   2.832   5.429
 8980SOL    HW227840   2.385   2.924   5.296
 8981SOL     OW27841   4.528   2.009   5.154
 8981SOL    HW127842   4.578   2.023   5.239
 8981SOL    HW227843   4.593   1.999   5.079
 8982SOL     OW27844   1.448   1.798   0.720
 8982SOL    HW127845   1.484   1.887   0.747
 8982SOL    HW227846   1.349   1.805   0.706
 8983SOL     OW27847   1.977   6.214   6.809
 8983SOL    HW127848   1.992   6.120   6.777
 8983SOL    HW227849   1.880   6.237   6.798
 8984SOL     OW27850   0.463   0.143   4.310
 8984SOL    HW127851   0.557   0.114   4.293
 8984SOL    HW227852   0.427   0.188   4.228
 8985SOL     OW27853   2.567   3.528   0.883
 8985SOL    HW127854   2.640   3.573   0.934
 8985SOL    HW227855   2.548   3.439   0.924
 8986SOL     OW27856   4.803   5.562   2.490
 8986SOL    HW127857   4.835   5.651   2.525
 8986SOL    HW227858   4.721   5.534   2.541
 8987SOL     OW27859   4.680   0.146   1.371
 8987SOL    HW127860   4.675   0.153   1.271
 8987SOL    HW227861   4.592   0.112   1.406
 8988SOL     OW27862   1.399   3.879   4.976
 8988SOL    HW127863   1.332   3.953   4.970
 8988SOL    HW227864   1.365   3.799   4.927
 8989SOL     OW27865   4.959   3.803   0.477
 8989SOL    HW127866   4.912   3.723   0.439
 8989SOL    HW227867   5.048   3.775   0.513
 8990SOL     OW27868   1.815   5.927   4.350
 8990SOL    HW127869   1.829   5.999   4.418
 8990SOL    HW227870   1.890   5.928   4.284
 8991SOL     OW27871   1.631   2.533   5.517
 8991SOL    HW127872   1.586   2.443   5.512
 8991SOL    HW227873   1.563   2.603   5.538
 8992SOL     OW27874   5.305   1.385   0.137
 8992SOL    HW127875   5.306   1.315   0.208
 8992SOL    HW227876   5.398   1.398   0.102
 8993SOL     OW27877   5.316   2.038   1.957
 8993SOL    HW127878   5.414   2.040   1.934
 8993SOL    HW227879   5.281   1.945   1.944
 8994SOL     OW27880   0.899   4.043   4.393
 8994SOL    HW127881   0.910   4.142   4.403
 8994SOL    HW227882   0.803   4.018   4.409
 8995SOL     OW27883   1.489   2.541   6.990
 8995SOL    HW127884   1.554   2.616   6.985
 8995SOL    HW227885   1.401   2.571   6.953
 8996SOL     OW27886   5.495   5.161   0.305
 8996SOL    HW127887   5.455   5.213   0.381
 8996SOL    HW227888   5.584   5.199   0.281
 8997SOL     OW27889   5.147   1.487   6.055
 8997SOL    HW127890   5.205   1.563   6.086
 8997SOL    HW227891   5.176   1.403   6.099
 8998SOL     OW27892   5.892   3.192   3.692
 8998SOL    HW127893   5.960   3.165   3.761
 8998SOL    HW227894   5.828   3.117   3.677
 8999SOL     OW27895   4.421   6.046   6.391
 8999SOL    HW127896   4.367   6.095   6.324
 8999SOL    HW227897   4.504   6.098   6.413
 9000SOL     OW27898   1.320   3.498   1.386
 9000SOL    HW127899   1.260   3.474   1.310
 9000SOL    HW227900   1.271   3.556   1.450
 9001SOL     OW27901   1.194   5.673   2.294
 9001SOL    HW127902   1.095   5.667   2.285
 9001SOL    HW227903   1.233   5.581   2.297
 9002SOL     OW27904   0.987   5.211   5.239
 9002SOL    HW127905   1.079   5.245   5.221
 9002SOL    HW227906   0.981   5.114   5.218
 9003SOL     OW27907   5.717   3.154   2.055
 9003SOL    HW127908   5.792   3.196   2.005
 9003SOL    HW227909   5.754   3.094   2.126
 9004SOL     OW27910   4.020   6.189   1.652
 9004SOL    HW127911   4.037   6.288   1.651
 9004SOL    HW227912   3.943   6.169   1.591
 9005SOL     OW27913   5.685   2.409   4.607
 9005SOL    HW127914   5.747   2.386   4.682
 9005SOL    HW227915   5.677   2.509   4.600
 9006SOL     OW27916   2.433   5.547   1.353
 9006SOL    HW127917   2.468   5.454   1.347
 9006SOL    HW227918   2.404   5.579   1.263
 9007SOL     OW27919   3.346   0.805   3.743
 9007SOL    HW127920   3.255   0.790   3.705
 9007SOL    HW227921   3.377   0.722   3.790
 9008SOL     OW27922   1.467   5.718   3.756
 9008SOL    HW127923   1.523   5.725   3.674
 9008SOL    HW227924   1.420   5.629   3.758
 9009SOL     OW27925   3.205   6.736   0.575
 9009SOL    HW127926   3.176   6.745   0.670
 9009SOL    HW227927   3.132   6.695   0.521
 9010SOL     OW27928   1.700   6.456   4.038
 9010SOL    HW127929   1.732   6.375   3.988
 9010SOL    HW227930   1.771   6.484   4.103
 9011SOL     OW27931   5.008   1.699   1.784
 9011SOL    HW127932   4.947   1.626   1.754
 9011SOL    HW227933   4.998   1.712   1.883
 9012SOL     OW27934   1.882   4.182   0.427
 9012SOL    HW127935   1.823   4.176   0.347
 9012SOL    HW227936   1.975   4.155   0.402
 9013SOL     OW27937   0.566   6.685   5.453
 9013SOL    HW127938   0.647   6.678   5.395
 9013SOL    HW227939   0.485   6.664   5.398
 9014SOL     OW27940   6.652   2.112   0.377
 9014SOL    HW127941   6.697   2.195   0.345
 9014SOL    HW227942   6.561   2.135   0.413
 9015SOL     OW27943   4.286   1.824   1.813
 9015SOL    HW127944   4.383   1.802   1.819
 9015SOL    HW227945   4.260   1.883   1.890
 9016SOL     OW27946   0.282   6.917   6.465
 9016SOL    HW127947   0.368   6.886   6.424
 9016SOL    HW227948   0.224   6.838   6.486
 9017SOL     OW27949   4.424   2.061   3.662
 9017SOL    HW127950   4.446   1.993   3.733
 9017SOL    HW227951   4.465   2.149   3.687
 9018SOL     OW27952   3.421   2.976   6.928
 9018SOL    HW127953   3.417   2.878   6.910
 9018SOL    HW227954   3.331   3.016   6.915
 9019SOL     OW27955   1.470   5.708   2.271
 9019SOL    HW127956   1.370   5.716   2.278
 9019SOL    HW227957   1.510   5.800   2.266
 9020SOL     OW27958   6.898   3.744   0.558
 9020SOL    HW127959   6.997   3.742   0.568
 9020SOL    HW227960   6.862   3.651   0.562
 9021SOL     OW27961   0.207   0.227   3.874
 9021SOL    HW127962   0.305   0.238   3.856
 9021SOL    HW227963   0.163   0.317   3.878
 9022SOL     OW27964   3.565   1.481   6.717
 9022SOL    HW127965   3.487   1.505   6.659
 9022SOL    HW227966   3.578   1.551   6.787
 9023SOL     OW27967   3.599   2.908   2.294
 9023SOL    HW127968   3.505   2.877   2.312
 9023SOL    HW227969   3.641   2.936   2.381
 9024SOL     OW27970   0.857   4.105   4.832
 9024SOL    HW127971   0.850   4.195   4.873
 9024SOL    HW227972   0.769   4.080   4.790
 9025SOL     OW27973   1.007   5.384   0.845
 9025SOL    HW127974   0.950   5.467   0.839
 9025SOL    HW227975   1.093   5.406   0.891
 9026SOL     OW27976   4.095   2.748   0.600
 9026SOL    HW127977   4.018   2.792   0.646
 9026SOL    HW227978   4.130   2.673   0.655
 9027SOL     OW27979   1.666   2.093   3.246
 9027SOL    HW127980   1.643   2.177   3.196
 9027SOL    HW227981   1.690   2.021   3.181
 9028SOL     OW27982   2.723   3.444   5.326
 9028SOL    HW127983   2.747   3.399   5.412
 9028SOL    HW227984   2.737   3.543   5.334
 9029SOL     OW27985   4.224   0.053   4.911
 9029SOL    HW127986   4.237   0.008   5.000
 9029SOL    HW227987   4.235   7.016   4.839
 9030SOL     OW27988   2.980   1.527   3.740
 9030SOL    HW127989   3.035   1.536   3.657
 9030SOL    HW227990   2.966   1.618   3.780
 9031SOL     OW27991   4.392   6.432   4.642
 9031SOL    HW127992   4.349   6.351   4.602
 9031SOL    HW227993   4.321   6.491   4.681
 9032SOL     OW27994   3.750   3.508   0.901
 9032SOL    HW127995   3.698   3.422   0.901
 9032SOL    HW227996   3.786   3.525   0.993
 9033SOL     OW27997   0.095   4.227   2.994
 9033SOL    HW127998   0.073   4.218   2.897
 9033SOL    HW227999   0.120   4.322   3.014
 9034SOL     OW28000   2.950   6.621   4.849
 9034SOL    HW128001   2.882   6.592   4.916
 9034SOL    HW228002   2.930   6.580   4.760
 9035SOL     OW28003   2.343   4.575   0.165
 9035SOL    HW128004   2.251   4.535   0.158
 9035SOL    HW228005   2.384   4.548   0.252
 9036SOL     OW28006   1.928   2.147   5.236
 9036SOL    HW128007   1.898   2.177   5.327
 9036SOL    HW228008   1.988   2.068   5.245
 9037SOL     OW28009   1.171   4.080   4.589
 9037SOL    HW128010   1.075   4.061   4.608
 9037SOL    HW228011   1.184   4.090   4.491
 9038SOL     OW28012   4.157   0.605   6.167
 9038SOL    HW128013   4.090   0.672   6.201
 9038SOL    HW228014   4.232   0.654   6.122
 9039SOL     OW28015   2.345   6.000   5.725
 9039SOL    HW128016   2.391   5.915   5.750
 9039SOL    HW228017   2.268   5.980   5.665
 9040SOL     OW28018   3.558   2.146   2.815
 9040SOL    HW128019   3.526   2.121   2.724
 9040SOL    HW228020   3.634   2.211   2.807
 9041SOL     OW28021   1.192   1.855   1.686
 9041SOL    HW128022   1.151   1.910   1.613
 9041SOL    HW228023   1.277   1.813   1.652
 9042SOL     OW28024   4.074   6.789   5.202
 9042SOL    HW128025   4.094   6.816   5.296
 9042SOL    HW228026   3.998   6.724   5.202
 9043SOL     OW28027   1.070   0.144   6.978
 9043SOL    HW128028   1.129   0.121   0.025
 9043SOL    HW228029   1.105   0.100   6.895
 9044SOL     OW28030   6.172   0.326   0.340
 9044SOL    HW128031   6.168   0.419   0.303
 9044SOL    HW228032   6.217   0.328   0.429
 9045SOL     OW28033   2.675   1.628   2.751
 9045SOL    HW128034   2.717   1.539   2.735
 9045SOL    HW228035   2.700   1.661   2.842
 9046SOL     OW28036   3.222   3.770   2.837
 9046SOL    HW128037   3.189   3.680   2.810
 9046SOL    HW228038   3.317   3.763   2.868
 9047SOL     OW28039   2.045   4.112   5.088
 9047SOL    HW128040   2.141   4.096   5.067
 9047SOL    HW228041   2.029   4.209   5.101
 9048SOL     OW28042   5.728   3.475   5.796
 9048SOL    HW128043   5.703   3.492   5.701
 9048SOL    HW228044   5.827   3.482   5.806
 9049SOL     OW28045   3.576   6.641   5.937
 9049SOL    HW128046   3.542   6.554   5.900
 9049SOL    HW228047   3.502   6.688   5.984
 9050SOL     OW28048   0.771   3.057   0.942
 9050SOL    HW128049   0.719   3.008   0.871
 9050SOL    HW228050   0.708   3.095   1.009
 9051SOL     OW28051   4.153   6.921   1.272
 9051SOL    HW128052   4.098   6.980   1.332
 9051SOL    HW228053   4.102   6.905   1.187
 9052SOL     OW28054   2.496   2.250   3.831
 9052SOL    HW128055   2.430   2.319   3.802
 9052SOL    HW228056   2.491   2.171   3.769
 9053SOL     OW28057   1.745   0.906   2.748
 9053SOL    HW128058   1.654   0.883   2.782
 9053SOL    HW228059   1.754   0.875   2.653
 9054SOL     OW28060   3.012   5.833   3.703
 9054SOL    HW128061   2.980   5.782   3.624
 9054SOL    HW228062   3.100   5.876   3.682
 9055SOL     OW28063   6.149   2.882   4.771
 9055SOL    HW128064   6.143   2.924   4.862
 9055SOL    HW228065   6.058   2.851   4.743
 9056SOL     OW28066   0.655   2.523   1.767
 9056SOL    HW128067   0.723   2.594   1.750
 9056SOL    HW228068   0.645   2.467   1.684
 9057SOL     OW28069   4.780   3.385   6.095
 9057SOL    HW128070   4.708   3.419   6.035
 9057SOL    HW228071   4.869   3.420   6.064
 9058SOL     OW28072   2.109   0.944   1.748
 9058SOL    HW128073   2.013   0.956   1.724
 9058SOL    HW228074   2.132   1.003   1.826
 9059SOL     OW28075   1.549   1.605   3.218
 9059SOL    HW128076   1.575   1.605   3.122
 9059SOL    HW228077   1.466   1.659   3.230
 9060SOL     OW28078   6.519   2.661   4.178
 9060SOL    HW128079   6.596   2.675   4.240
 9060SOL    HW228080   6.551   2.615   4.094
 9061SOL     OW28081   2.057   5.576   1.906
 9061SOL    HW128082   2.092   5.667   1.925
 9061SOL    HW228083   2.048   5.525   1.991
 9062SOL     OW28084   1.632   6.584   2.100
 9062SOL    HW128085   1.542   6.596   2.142
 9062SOL    HW228086   1.636   6.635   2.014
 9063SOL     OW28087   3.578   0.533   3.975
 9063SOL    HW128088   3.545   0.502   3.885
 9063SOL    HW228089   3.648   0.471   4.008
 9064SOL     OW28090   6.205   2.405   5.909
 9064SOL    HW128091   6.135   2.475   5.896
 9064SOL    HW228092   6.296   2.448   5.908
 9065SOL     OW28093   4.218   0.771   6.484
 9065SOL    HW128094   4.196   0.747   6.578
 9065SOL    HW228095   4.187   0.864   6.465
 9066SOL     OW28096   5.339   6.763   0.774
 9066SOL    HW128097   5.247   6.731   0.751
 9066SOL    HW228098   5.403   6.734   0.703
 9067SOL     OW28099   1.117   0.606   4.371
 9067SOL    HW128100   1.071   0.522   4.400
 9067SOL    HW228101   1.117   0.611   4.271
 9068SOL     OW28102   2.300   6.556   4.400
 9068SOL    HW128103   2.397   6.534   4.389
 9068SOL    HW228104   2.281   6.578   4.496
 9069SOL     OW28105   1.351   3.010   1.600
 9069SOL    HW128106   1.354   3.087   1.535
 9069SOL    HW228107   1.444   2.985   1.625
 9070SOL     OW28108   1.327   3.011   4.831
 9070SOL    HW128109   1.365   3.084   4.775
 9070SOL    HW228110   1.254   2.965   4.781
 9071SOL     OW28111   6.311   6.561   1.387
 9071SOL    HW128112   6.225   6.573   1.437
 9071SOL    HW228113   6.316   6.628   1.313
 9072SOL     OW28114   0.163   2.218   0.991
 9072SOL    HW128115   0.072   2.253   0.967
 9072SOL    HW228116   0.158   2.120   1.007
 9073SOL     OW28117   2.703   6.759   2.490
 9073SOL    HW128118   2.669   6.678   2.537
 9073SOL    HW228119   2.781   6.797   2.539
 9074SOL     OW28120   1.158   1.167   1.856
 9074SOL    HW128121   1.075   1.116   1.875
 9074SOL    HW228122   1.138   1.242   1.792
 9075SOL     OW28123   0.137   0.805   2.055
 9075SOL    HW128124   0.209   0.819   1.987
 9075SOL    HW228125   0.178   0.809   2.147
 9076SOL     OW28126   0.085   2.389   5.623
 9076SOL    HW128127   7.018   2.398   5.641
 9076SOL    HW228128   0.134   2.463   5.669
 9077SOL     OW28129   4.680   0.327   0.461
 9077SOL    HW128130   4.723   0.416   0.472
 9077SOL    HW228131   4.603   0.335   0.398
 9078SOL     OW28132   3.578   3.540   5.149
 9078SOL    HW128133   3.625   3.513   5.065
 9078SOL    HW228134   3.486   3.573   5.126
 9079SOL     OW28135   2.679   0.565   4.283
 9079SOL    HW128136   2.584   0.551   4.308
 9079SOL    HW228137   2.697   0.663   4.273
 9080SOL     OW28138   4.865   2.928   6.157
 9080SOL    HW128139   4.873   3.025   6.180
 9080SOL    HW228140   4.872   2.873   6.240
 9081SOL     OW28141   3.931   0.210   2.188
 9081SOL    HW128142   3.840   0.188   2.153
 9081SOL    HW228143   3.949   0.157   2.270
 9082SOL     OW28144   2.200   0.193   5.519
 9082SOL    HW128145   2.137   0.267   5.543
 9082SOL    HW228146   2.161   0.139   5.444
 9083SOL     OW28147   3.531   5.358   6.095
 9083SOL    HW128148   3.602   5.423   6.122
 9083SOL    HW228149   3.474   5.336   6.174
 9084SOL     OW28150   3.476   3.604   3.220
 9084SOL    HW128151   3.443   3.643   3.134
 9084SOL    HW228152   3.426   3.644   3.296
 9085SOL     OW28153   2.300   0.296   1.354
 9085SOL    HW128154   2.313   0.286   1.453
 9085SOL    HW228155   2.352   0.225   1.306
 9086SOL     OW28156   0.731   4.251   0.199
 9086SOL    HW128157   0.690   4.211   0.282
 9086SOL    HW228158   0.779   4.335   0.223
 9087SOL     OW28159   4.984   2.229   1.772
 9087SOL    HW128160   4.927   2.305   1.804
 9087SOL    HW228161   4.926   2.153   1.745
 9088SOL     OW28162   6.744   7.020   1.355
 9088SOL    HW128163   6.768   0.081   1.324
 9088SOL    HW228164   6.822   6.959   1.342
 9089SOL     OW28165   5.426   5.891   5.338
 9089SOL    HW128166   5.445   5.940   5.423
 9089SOL    HW228167   5.328   5.871   5.332
 9090SOL     OW28168   5.974   0.766   4.985
 9090SOL    HW128169   6.023   0.852   4.990
 9090SOL    HW228170   5.991   0.712   5.067
 9091SOL     OW28171   2.761   3.903   0.113
 9091SOL    HW128172   2.776   3.977   0.179
 9091SOL    HW228173   2.847   3.884   0.064
 9092SOL     OW28174   6.226   1.138   0.008
 9092SOL    HW128175   6.297   1.198   0.044
 9092SOL    HW228176   6.257   1.098   6.952
 9093SOL     OW28177   1.280   5.853   5.392
 9093SOL    HW128178   1.367   5.813   5.421
 9093SOL    HW228179   1.292   5.952   5.379
 9094SOL     OW28180   6.225   4.512   2.759
 9094SOL    HW128181   6.176   4.467   2.685
 9094SOL    HW228182   6.241   4.447   2.833
 9095SOL     OW28183   4.665   5.060   6.545
 9095SOL    HW128184   4.730   5.001   6.593
 9095SOL    HW228185   4.599   5.003   6.495
 9096SOL     OW28186   6.450   5.087   2.777
 9096SOL    HW128187   6.512   5.158   2.745
 9096SOL    HW228188   6.502   5.008   2.807
 9097SOL     OW28189   2.049   2.158   0.480
 9097SOL    HW128190   1.984   2.227   0.513
 9097SOL    HW228191   2.002   2.091   0.424
 9098SOL     OW28192   2.917   1.934   4.924
 9098SOL    HW128193   2.913   1.894   5.016
 9098SOL    HW228194   2.890   2.030   4.930
 9099SOL     OW28195   2.613   3.052   5.925
 9099SOL    HW128196   2.569   3.095   6.004
 9099SOL    HW228197   2.706   3.023   5.950
 9100SOL     OW28198   0.760   3.426   3.182
 9100SOL    HW128199   0.858   3.442   3.174
 9100SOL    HW228200   0.740   3.328   3.176
 9101SOL     OW28201   2.590   1.836   2.244
 9101SOL    HW128202   2.515   1.885   2.290
 9101SOL    HW228203   2.590   1.859   2.147
 9102SOL     OW28204   3.288   6.659   2.005
 9102SOL    HW128205   3.274   6.588   1.935
 9102SOL    HW228206   3.374   6.642   2.053
 9103SOL     OW28207   5.690   2.048   0.267
 9103SOL    HW128208   5.672   2.084   0.358
 9103SOL    HW228209   5.608   2.059   0.210
 9104SOL     OW28210   0.015   6.688   1.722
 9104SOL    HW128211   7.024   6.785   1.727
 9104SOL    HW228212   0.097   6.674   1.666
 9105SOL     OW28213   1.093   0.288   5.489
 9105SOL    HW128214   0.998   0.261   5.475
 9105SOL    HW228215   1.134   0.312   5.401
 9106SOL     OW28216   6.555   2.881   0.895
 9106SOL    HW128217   6.573   2.965   0.842
 9106SOL    HW228218   6.633   2.819   0.885
 9107SOL     OW28219   1.950   0.889   0.218
 9107SOL    HW128220   2.029   0.931   0.262
 9107SOL    HW228221   1.889   0.961   0.183
 9108SOL     OW28222   4.857   4.046   5.411
 9108SOL    HW128223   4.930   4.020   5.474
 9108SOL    HW228224   4.879   4.015   5.319
 9109SOL     OW28225   4.954   3.433   3.169
 9109SOL    HW128226   4.957   3.526   3.205
 9109SOL    HW228227   4.944   3.436   3.070
 9110SOL     OW28228   1.404   5.292   4.162
 9110SOL    HW128229   1.473   5.261   4.227
 9110SOL    HW228230   1.417   5.389   4.142
 9111SOL     OW28231   4.474   2.935   6.826
 9111SOL    HW128232   4.532   2.867   6.781
 9111SOL    HW228233   4.532   3.008   6.864
 9112SOL     OW28234   1.496   5.192   2.573
 9112SOL    HW128235   1.447   5.160   2.654
 9112SOL    HW228236   1.467   5.139   2.494
 9113SOL     OW28237   5.156   2.456   2.685
 9113SOL    HW128238   5.187   2.413   2.769
 9113SOL    HW228239   5.161   2.556   2.695
 9114SOL     OW28240   1.023   5.741   3.822
 9114SOL    HW128241   1.022   5.642   3.812
 9114SOL    HW228242   0.945   5.770   3.877
 9115SOL     OW28243   5.898   5.439   5.045
 9115SOL    HW128244   5.937   5.349   5.026
 9115SOL    HW228245   5.871   5.445   5.141
 9116SOL     OW28246   0.109   6.986   2.827
 9116SOL    HW128247   0.033   6.938   2.785
 9116SOL    HW228248   0.137   0.032   2.768
 9117SOL     OW28249   4.194   2.795   6.644
 9117SOL    HW128250   4.170   2.868   6.581
 9117SOL    HW228251   4.125   2.723   6.639
 9118SOL     OW28252   6.417   3.271   0.106
 9118SOL    HW128253   6.443   3.364   0.080
 9118SOL    HW228254   6.318   3.268   0.121
 9119SOL     OW28255   4.206   1.080   1.639
 9119SOL    HW128256   4.249   0.994   1.665
 9119SOL    HW228257   4.219   1.096   1.541
 9120SOL     OW28258   6.804   3.043   5.428
 9120SOL    HW128259   6.833   2.967   5.486
 9120SOL    HW228260   6.760   3.006   5.345
 9121SOL     OW28261   4.093   6.872   5.441
 9121SOL    HW128262   4.003   6.873   5.485
 9121SOL    HW228263   4.159   6.918   5.501
 9122SOL     OW28264   2.156   3.976   2.308
 9122SOL    HW128265   2.122   4.067   2.331
 9122SOL    HW228266   2.247   3.963   2.348
 9123SOL     OW28267   1.784   0.514   4.439
 9123SOL    HW128268   1.799   0.507   4.340
 9123SOL    HW228269   1.767   0.423   4.476
 9124SOL     OW28270   3.974   5.442   1.895
 9124SOL    HW128271   3.985   5.346   1.921
 9124SOL    HW228272   4.025   5.500   1.959
 9125SOL     OW28273   3.520   4.299   0.957
 9125SOL    HW128274   3.422   4.303   0.979
 9125SOL    HW228275   3.556   4.391   0.948
 9126SOL     OW28276   4.883   3.932   0.843
 9126SOL    HW128277   4.909   3.854   0.901
 9126SOL    HW228278   4.953   4.002   0.848
 9127SOL     OW28279   6.434   2.689   5.220
 9127SOL    HW128280   6.378   2.644   5.150
 9127SOL    HW228281   6.416   2.647   5.309
 9128SOL     OW28282   5.866   2.268   4.761
 9128SOL    HW128283   5.871   2.192   4.825
 9128SOL    HW228284   5.896   2.238   4.670
 9129SOL     OW28285   0.821   2.086   0.704
 9129SOL    HW128286   0.861   2.171   0.671
 9129SOL    HW228287   0.814   2.021   0.628
 9130SOL     OW28288   0.695   4.115   5.941
 9130SOL    HW128289   0.768   4.145   6.002
 9130SOL    HW228290   0.653   4.032   5.977
 9131SOL     OW28291   5.389   3.304   0.240
 9131SOL    HW128292   5.311   3.271   0.187
 9131SOL    HW228293   5.456   3.231   0.250
 9132SOL     OW28294   0.700   4.870   4.064
 9132SOL    HW128295   0.704   4.775   4.095
 9132SOL    HW228296   0.789   4.913   4.077
 9133SOL     OW28297   3.475   0.860   1.244
 9133SOL    HW128298   3.494   0.783   1.183
 9133SOL    HW228299   3.459   0.943   1.189
 9134SOL     OW28300   3.947   5.518   0.895
 9134SOL    HW128301   3.894   5.562   0.822
 9134SOL    HW228302   3.898   5.525   0.981
 9135SOL     OW28303   1.651   6.679   1.855
 9135SOL    HW128304   1.648   6.769   1.812
 9135SOL    HW228305   1.746   6.650   1.865
 9136SOL     OW28306   4.531   5.781   5.804
 9136SOL    HW128307   4.621   5.745   5.781
 9136SOL    HW228308   4.541   5.860   5.864
 9137SOL     OW28309   4.434   6.786   5.764
 9137SOL    HW128310   4.514   6.846   5.755
 9137SOL    HW228311   4.464   6.697   5.798
 9138SOL     OW28312   1.887   3.434   0.448
 9138SOL    HW128313   1.843   3.463   0.363
 9138SOL    HW228314   1.938   3.350   0.433
 9139SOL     OW28315   0.820   1.284   1.714
 9139SOL    HW128316   0.913   1.283   1.679
 9139SOL    HW228317   0.793   1.378   1.736
 9140SOL     OW28318   0.715   5.284   2.199
 9140SOL    HW128319   0.780   5.346   2.243
 9140SOL    HW228320   0.669   5.229   2.270
 9141SOL     OW28321   0.070   6.083   6.438
 9141SOL    HW128322   7.015   6.039   6.465
 9141SOL    HW228323   0.097   6.150   6.507
 9142SOL     OW28324   0.321   3.002   3.048
 9142SOL    HW128325   0.398   2.964   2.997
 9142SOL    HW228326   0.236   2.983   2.998
 9143SOL     OW28327   0.430   4.023   1.372
 9143SOL    HW128328   0.407   4.049   1.466
 9143SOL    HW228329   0.440   3.923   1.367
 9144SOL     OW28330   2.907   4.864   4.882
 9144SOL    HW128331   2.891   4.852   4.784
 9144SOL    HW228332   2.869   4.786   4.931
 9145SOL     OW28333   1.422   0.003   6.686
 9145SOL    HW128334   1.481   0.024   6.607
 9145SOL    HW228335   1.438   6.939   6.715
 9146SOL     OW28336   5.220   2.610   3.244
 9146SOL    HW128337   5.294   2.595   3.178
 9146SOL    HW228338   5.221   2.705   3.273
 9147SOL     OW28339   5.920   0.595   5.209
 9147SOL    HW128340   5.922   0.497   5.229
 9147SOL    HW228341   5.952   0.647   5.289
 9148SOL     OW28342   5.877   6.805   1.724
 9148SOL    HW128343   5.956   6.865   1.717
 9148SOL    HW228344   5.835   6.796   1.634
 9149SOL     OW28345   5.490   2.818   2.220
 9149SOL    HW128346   5.518   2.728   2.187
 9149SOL    HW228347   5.403   2.844   2.178
 9150SOL     OW28348   2.957   4.518   0.435
 9150SOL    HW128349   2.981   4.551   0.527
 9150SOL    HW228350   2.942   4.596   0.375
 9151SOL     OW28351   2.277   4.195   4.030
 9151SOL    HW128352   2.261   4.098   4.046
 9151SOL    HW228353   2.354   4.226   4.086
 9152SOL     OW28354   1.878   4.161   4.465
 9152SOL    HW128355   1.879   4.079   4.522
 9152SOL    HW228356   1.930   4.144   4.381
 9153SOL     OW28357   0.681   2.868   6.612
 9153SOL    HW128358   0.777   2.871   6.639
 9153SOL    HW228359   0.648   2.961   6.598
 9154SOL     OW28360   4.649   5.138   3.212
 9154SOL    HW128361   4.731   5.130   3.156
 9154SOL    HW228362   4.649   5.225   3.261
 9155SOL     OW28363   1.512   4.688   2.863
 9155SOL    HW128364   1.487   4.734   2.949
 9155SOL    HW228365   1.575   4.613   2.883
 9156SOL     OW28366   6.871   2.940   1.167
 9156SOL    HW128367   6.783   2.897   1.188
 9156SOL    HW228368   6.945   2.883   1.202
 9157SOL     OW28369   2.963   4.104   6.309
 9157SOL    HW128370   3.025   4.140   6.239
 9157SOL    HW228371   2.875   4.080   6.266
 9158SOL     OW28372   6.455   4.335   4.259
 9158SOL    HW128373   6.422   4.312   4.168
 9158SOL    HW228374   6.379   4.333   4.324
 9159SOL     OW28375   2.355   6.961   3.177
 9159SOL    HW128376   2.306   6.874   3.167
 9159SOL    HW228377   2.448   6.951   3.141
 9160SOL     OW28378   0.472   5.252   6.818
 9160SOL    HW128379   0.392   5.192   6.829
 9160SOL    HW228380   0.447   5.345   6.844
 9161SOL     OW28381   5.841   4.656   2.639
 9161SOL    HW128382   5.837   4.610   2.727
 9161SOL    HW228383   5.895   4.600   2.575
 9162SOL     OW28384   4.009   1.044   3.041
 9162SOL    HW128385   3.911   1.036   3.021
 9162SOL    HW228386   4.027   1.013   3.135
 9163SOL     OW28387   0.033   2.229   1.744
 9163SOL    HW128388   0.074   2.254   1.832
 9163SOL    HW228389   6.965   2.218   1.756
 9164SOL     OW28390   2.258   0.394   0.177
 9164SOL    HW128391   2.213   0.349   0.100
 9164SOL    HW228392   2.245   0.493   0.170
 9165SOL     OW28393   4.990   2.618   6.049
 9165SOL    HW128394   4.921   2.665   5.995
 9165SOL    HW228395   4.974   2.519   6.045
 9166SOL     OW28396   4.065   5.709   1.103
 9166SOL    HW128397   4.120   5.626   1.092
 9166SOL    HW228398   4.116   5.776   1.156
 9167SOL     OW28399   1.050   2.027   6.681
 9167SOL    HW128400   0.969   2.005   6.736
 9167SOL    HW228401   1.037   2.115   6.636
 9168SOL     OW28402   6.592   5.216   5.958
 9168SOL    HW128403   6.544   5.128   5.956
 9168SOL    HW228404   6.680   5.207   5.912
 9169SOL     OW28405   0.073   6.485   6.360
 9169SOL    HW128406   7.008   6.485   6.388
 9169SOL    HW228407   0.082   6.530   6.271
 9170SOL     OW28408   1.701   1.856   6.141
 9170SOL    HW128409   1.681   1.954   6.148
 9170SOL    HW228410   1.779   1.842   6.081
 9171SOL     OW28411   2.690   5.391   1.114
 9171SOL    HW128412   2.714   5.467   1.054
 9171SOL    HW228413   2.768   5.369   1.173
 9172SOL     OW28414   4.991   1.301   5.081
 9172SOL    HW128415   4.955   1.291   4.988
 9172SOL    HW228416   5.044   1.220   5.105
 9173SOL     OW28417   0.010   3.009   4.016
 9173SOL    HW128418   0.085   3.022   4.081
 9173SOL    HW228419   7.023   3.094   3.967
 9174SOL     OW28420   0.687   5.631   0.029
 9174SOL    HW128421   0.664   5.544   0.072
 9174SOL    HW228422   0.723   5.694   0.097
 9175SOL     OW28423   1.655   6.252   0.583
 9175SOL    HW128424   1.651   6.228   0.680
 9175SOL    HW228425   1.562   6.257   0.546
 9176SOL     OW28426   2.186   0.615   2.682
 9176SOL    HW128427   2.197   0.715   2.687
 9176SOL    HW228428   2.221   0.583   2.593
 9177SOL     OW28429   1.356   2.929   3.510
 9177SOL    HW128430   1.284   2.970   3.453
 9177SOL    HW228431   1.422   3.000   3.536
 9178SOL     OW28432   2.315   5.940   6.646
 9178SOL    HW128433   2.219   5.913   6.635
 9178SOL    HW228434   2.374   5.875   6.598
 9179SOL     OW28435   3.555   6.050   5.023
 9179SOL    HW128436   3.542   6.089   4.932
 9179SOL    HW228437   3.605   6.115   5.080
 9180SOL     OW28438   6.257   1.977   4.397
 9180SOL    HW128439   6.314   2.022   4.465
 9180SOL    HW228440   6.314   1.945   4.322
 9181SOL     OW28441   4.799   2.411   3.696
 9181SOL    HW128442   4.834   2.327   3.738
 9181SOL    HW228443   4.786   2.481   3.766
 9182SOL     OW28444   2.226   1.100   2.783
 9182SOL    HW128445   2.217   1.195   2.754
 9182SOL    HW228446   2.242   1.096   2.881
 9183SOL     OW28447   4.952   3.093   6.872
 9183SOL    HW128448   4.963   3.153   6.951
 9183SOL    HW228449   4.954   3.148   6.788
 9184SOL     OW28450   3.152   2.202   1.208
 9184SOL    HW128451   3.199   2.232   1.291
 9184SOL    HW228452   3.132   2.104   1.215
 9185SOL     OW28453   6.913   6.920   6.210
 9185SOL    HW128454   6.867   6.922   6.122
 9185SOL    HW228455   7.003   6.964   6.202
 9186SOL     OW28456   4.801   0.724   5.763
 9186SOL    HW128457   4.892   0.766   5.759
 9186SOL    HW228458   4.739   0.784   5.812
 9187SOL     OW28459   4.795   2.262   6.499
 9187SOL    HW128460   4.764   2.269   6.594
 9187SOL    HW228461   4.886   2.303   6.490
 9188SOL     OW28462   1.679   0.631   1.291
 9188SOL    HW128463   1.599   0.681   1.257
 9188SOL    HW228464   1.757   0.648   1.231
 9189SOL     OW28465   3.285   1.013   3.270
 9189SOL    HW128466   3.331   0.943   3.215
 9189SOL    HW228467   3.263   0.974   3.360
 9190SOL     OW28468   5.846   3.819   5.620
 9190SOL    HW128469   5.835   3.739   5.561
 9190SOL    HW228470   5.907   3.885   5.575
 9191SOL     OW28471   5.280   6.350   0.082
 9191SOL    HW128472   5.283   6.402   7.028
 9191SOL    HW228473   5.207   6.282   0.077
 9192SOL     OW28474   6.218   4.039   5.565
 9192SOL    HW128475   6.138   4.077   5.610
 9192SOL    HW228476   6.189   3.974   5.494
 9193SOL     OW28477   3.205   2.975   4.019
 9193SOL    HW128478   3.276   2.971   4.089
 9193SOL    HW228479   3.124   3.020   4.057
 9194SOL     OW28480   3.705   6.292   2.104
 9194SOL    HW128481   3.755   6.224   2.051
 9194SOL    HW228482   3.668   6.249   2.186
 9195SOL     OW28483   0.969   2.979   3.532
 9195SOL    HW128484   1.004   2.988   3.625
 9195SOL    HW228485   0.905   3.054   3.513
 9196SOL     OW28486   4.020   0.075   4.292
 9196SOL    HW128487   3.999   0.094   4.388
 9196SOL    HW228488   3.950   0.015   4.254
 9197SOL     OW28489   2.946   3.521   0.515
 9197SOL    HW128490   2.876   3.552   0.579
 9197SOL    HW228491   2.910   3.525   0.422
 9198SOL     OW28492   5.645   4.583   6.274
 9198SOL    HW128493   5.719   4.562   6.338
 9198SOL    HW228494   5.557   4.579   6.322
 9199SOL     OW28495   0.738   3.627   6.108
 9199SOL    HW128496   0.820   3.657   6.060
 9199SOL    HW228497   0.702   3.545   6.063
 9200SOL     OW28498   0.528   6.078   0.830
 9200SOL    HW128499   0.457   6.098   0.763
 9200SOL    HW228500   0.548   5.980   0.831
 9201SOL     OW28501   0.484   4.555   1.670
 9201SOL    HW128502   0.559   4.525   1.728
 9201SOL    HW228503   0.477   4.495   1.591
 9202SOL     OW28504   2.221   5.287   4.839
 9202SOL    HW128505   2.153   5.215   4.853
 9202SOL    HW228506   2.294   5.277   4.907
 9203SOL     OW28507   5.220   1.416   6.381
 9203SOL    HW128508   5.317   1.398   6.364
 9203SOL    HW228509   5.179   1.336   6.427
 9204SOL     OW28510   5.786   4.131   3.398
 9204SOL    HW128511   5.716   4.141   3.468
 9204SOL    HW228512   5.790   4.035   3.368
 9205SOL     OW28513   5.142   3.475   2.650
 9205SOL    HW128514   5.069   3.545   2.653
 9205SOL    HW228515   5.101   3.385   2.637
 9206SOL     OW28516   2.746   6.650   4.554
 9206SOL    HW128517   2.818   6.601   4.603
 9206SOL    HW228518   2.667   6.662   4.614
 9207SOL     OW28519   3.601   6.299   6.287
 9207SOL    HW128520   3.515   6.266   6.248
 9207SOL    HW228521   3.644   6.364   6.224
 9208SOL     OW28522   4.879   3.342   2.441
 9208SOL    HW128523   4.889   3.280   2.364
 9208SOL    HW228524   4.904   3.435   2.413
 9209SOL     OW28525   3.972   0.900   2.264
 9209SOL    HW128526   3.958   0.815   2.213
 9209SOL    HW228527   3.952   0.885   2.361
 9210SOL     OW28528   2.399   6.876   1.768
 9210SOL    HW128529   2.400   6.777   1.784
 9210SOL    HW228530   2.485   6.916   1.801
 9211SOL     OW28531   6.052   1.620   6.174
 9211SOL    HW128532   6.041   1.530   6.133
 9211SOL    HW228533   6.009   1.621   6.264
 9212SOL     OW28534   4.692   4.508   4.927
 9212SOL    HW128535   4.592   4.506   4.928
 9212SOL    HW228536   4.726   4.549   5.012
 9213SOL     OW28537   5.608   0.067   4.585
 9213SOL    HW128538   5.611   0.134   4.659
 9213SOL    HW228539   5.701   0.046   4.555
 9214SOL     OW28540   1.485   1.946   5.099
 9214SOL    HW128541   1.556   2.017   5.094
 9214SOL    HW228542   1.396   1.986   5.074
 9215SOL     OW28543   6.977   4.340   2.280
 9215SOL    HW128544   6.925   4.402   2.222
 9215SOL    HW228545   6.946   4.246   2.264
 9216SOL     OW28546   2.782   6.102   4.340
 9216SOL    HW128547   2.810   6.016   4.384
 9216SOL    HW228548   2.767   6.172   4.410
 9217SOL     OW28549   4.897   1.122   6.401
 9217SOL    HW128550   4.890   1.127   6.301
 9217SOL    HW228551   4.830   1.056   6.435
 9218SOL     OW28552   4.694   6.906   6.302
 9218SOL    HW128553   4.667   7.000   6.323
 9218SOL    HW228554   4.711   6.897   6.204
 9219SOL     OW28555   3.741   3.036   5.073
 9219SOL    HW128556   3.713   3.132   5.073
 9219SOL    HW228557   3.840   3.030   5.082
 9220SOL     OW28558   2.398   6.112   2.938
 9220SOL    HW128559   2.340   6.070   2.869
 9220SOL    HW228560   2.420   6.206   2.912
 9221SOL     OW28561   2.170   0.700   5.814
 9221SOL    HW128562   2.259   0.708   5.769
 9221SOL    HW228563   2.178   0.634   5.889
 9222SOL     OW28564   2.600   4.640   4.350
 9222SOL    HW128565   2.525   4.619   4.412
 9222SOL    HW228566   2.572   4.621   4.256
 9223SOL     OW28567   1.087   3.574   4.072
 9223SOL    HW128568   0.995   3.535   4.070
 9223SOL    HW228569   1.087   3.664   4.031
 9224SOL     OW28570   0.728   3.757   3.886
 9224SOL    HW128571   0.799   3.760   3.956
 9224SOL    HW228572   0.700   3.662   3.872
 9225SOL     OW28573   3.813   6.761   5.835
 9225SOL    HW128574   3.870   6.813   5.898
 9225SOL    HW228575   3.730   6.732   5.883
 9226SOL     OW28576   1.074   0.368   1.281
 9226SOL    HW128577   1.091   0.301   1.353
 9226SOL    HW228578   1.026   0.325   1.205
 9227SOL     OW28579   1.477   5.723   1.197
 9227SOL    HW128580   1.474   5.805   1.253
 9227SOL    HW228581   1.413   5.655   1.233
 9228SOL     OW28582   2.084   2.728   5.962
 9228SOL    HW128583   2.136   2.684   6.035
 9228SOL    HW228584   2.128   2.710   5.874
 9229SOL     OW28585   0.956   4.910   6.882
 9229SOL    HW128586   1.050   4.892   6.912
 9229SOL    HW228587   0.953   4.996   6.832
 9230SOL     OW28588   4.903   2.202   4.569
 9230SOL    HW128589   4.925   2.182   4.664
 9230SOL    HW228590   4.943   2.132   4.510
 9231SOL     OW28591   0.483   5.025   5.464
 9231SOL    HW128592   0.461   5.028   5.367
 9231SOL    HW228593   0.580   5.003   5.476
 9232SOL     OW28594   1.980   5.184   1.853
 9232SOL    HW128595   2.024   5.108   1.901
 9232SOL    HW228596   2.002   5.179   1.756
 9233SOL     OW28597   0.829   6.142   0.593
 9233SOL    HW128598   0.801   6.173   0.684
 9233SOL    HW228599   0.750   6.145   0.531
 9234SOL     OW28600   2.549   5.305   1.320
 9234SOL    HW128601   2.618   5.342   1.258
 9234SOL    HW228602   2.505   5.226   1.278
 9235SOL     OW28603   2.238   2.588   2.983
 9235SOL    HW128604   2.183   2.515   2.943
 9235SOL    HW228605   2.333   2.558   2.989
 9236SOL     OW28606   2.039   3.769   0.357
 9236SOL    HW128607   2.072   3.687   0.404
 9236SOL    HW228608   1.943   3.754   0.331
 9237SOL     OW28609   6.851   5.892   2.934
 9237SOL    HW128610   6.878   5.914   2.840
 9237SOL    HW228611   6.755   5.919   2.948
 9238SOL     OW28612   1.972   2.932   5.685
 9238SOL    HW128613   2.038   2.995   5.644
 9238SOL    HW228614   2.016   2.845   5.703
 9239SOL     OW28615   6.893   4.593   6.702
 9239SOL    HW128616   6.906   4.684   6.663
 9239SOL    HW228617   6.874   4.528   6.628
 9240SOL     OW28618   5.219   3.566   2.947
 9240SOL    HW128619   5.128   3.533   2.923
 9240SOL    HW228620   5.279   3.489   2.967
 9241SOL     OW28621   6.991   5.670   6.993
 9241SOL    HW128622   0.007   5.702   0.045
 9241SOL    HW228623   6.998   5.571   6.987
 9242SOL     OW28624   1.586   2.306   2.199
 9242SOL    HW128625   1.683   2.307   2.179
 9242SOL    HW228626   1.535   2.339   2.119
 9243SOL     OW28627   0.957   6.718   1.749
 9243SOL    HW128628   1.045   6.684   1.713
 9243SOL    HW228629   0.939   6.674   1.837
 9244SOL     OW28630   2.910   6.542   5.707
 9244SOL    HW128631   2.942   6.636   5.704
 9244SOL    HW228632   2.962   6.491   5.776
 9245SOL     OW28633   0.825   3.829   3.422
 9245SOL    HW128634   0.923   3.849   3.411
 9245SOL    HW228635   0.780   3.836   3.333
 9246SOL     OW28636   6.165   0.109   4.328
 9246SOL    HW128637   6.221   0.083   4.407
 9246SOL    HW228638   6.222   0.111   4.246
 9247SOL     OW28639   3.836   5.338   2.755
 9247SOL    HW128640   3.762   5.361   2.818
 9247SOL    HW228641   3.886   5.259   2.791
 9248SOL     OW28642   2.754   1.099   4.947
 9248SOL    HW128643   2.667   1.103   4.995
 9248SOL    HW228644   2.744   1.047   4.862
 9249SOL     OW28645   3.669   4.685   1.560
 9249SOL    HW128646   3.655   4.599   1.511
 9249SOL    HW228647   3.631   4.678   1.653
 9250SOL     OW28648   6.374   4.370   3.620
 9250SOL    HW128649   6.420   4.305   3.560
 9250SOL    HW228650   6.277   4.374   3.597
 9251SOL     OW28651   3.691   2.646   1.458
 9251SOL    HW128652   3.720   2.736   1.425
 9251SOL    HW228653   3.710   2.640   1.556
 9252SOL     OW28654   4.158   0.556   5.119
 9252SOL    HW128655   4.177   0.467   5.078
 9252SOL    HW228656   4.069   0.553   5.166
 9253SOL     OW28657   6.042   5.189   5.884
 9253SOL    HW128658   5.961   5.139   5.854
 9253SOL    HW228659   6.112   5.125   5.915
 9254SOL     OW28660   5.456   4.424   2.498
 9254SOL    HW128661   5.445   4.511   2.449
 9254SOL    HW228662   5.366   4.385   2.515
 9255SOL     OW28663   6.101   3.550   6.693
 9255SOL    HW128664   6.061   3.603   6.768
 9255SOL    HW228665   6.031   3.529   6.625
 9256SOL     OW28666   2.071   0.125   1.910
 9256SOL    HW128667   2.118   0.200   1.862
 9256SOL    HW228668   2.110   0.115   2.001
 9257SOL     OW28669   6.229   5.522   3.437
 9257SOL    HW128670   6.240   5.469   3.353
 9257SOL    HW228671   6.292   5.600   3.435
 9258SOL     OW28672   3.561   3.599   0.394
 9258SOL    HW128673   3.647   3.575   0.348
 9258SOL    HW228674   3.542   3.533   0.467
 9259SOL     OW28675   2.083   1.817   0.180
 9259SOL    HW128676   2.157   1.799   0.116
 9259SOL    HW228677   2.076   1.741   0.245
 9260SOL     OW28678   6.815   2.851   5.880
 9260SOL    HW128679   6.861   2.939   5.894
 9260SOL    HW228680   6.802   2.835   5.783
 9261SOL     OW28681   4.536   1.561   0.446
 9261SOL    HW128682   4.525   1.637   0.509
 9261SOL    HW228683   4.483   1.579   0.363
 9262SOL     OW28684   0.429   6.769   4.770
 9262SOL    HW128685   0.525   6.790   4.783
 9262SOL    HW228686   0.418   6.671   4.752
 9263SOL     OW28687   3.268   5.501   2.849
 9263SOL    HW128688   3.357   5.537   2.878
 9263SOL    HW228689   3.213   5.480   2.930
 9264SOL     OW28690   5.439   3.565   6.707
 9264SOL    HW128691   5.419   3.628   6.782
 9264SOL    HW228692   5.483   3.615   6.632
 9265SOL     OW28693   3.693   2.275   6.817
 9265SOL    HW128694   3.759   2.275   6.892
 9265SOL    HW228695   3.723   2.213   6.745
 9266SOL     OW28696   0.515   5.315   1.113
 9266SOL    HW128697   0.457   5.246   1.071
 9266SOL    HW228698   0.458   5.386   1.155
 9267SOL     OW28699   0.540   1.562   4.212
 9267SOL    HW128700   0.594   1.547   4.129
 9267SOL    HW228701   0.510   1.658   4.215
 9268SOL     OW28702   0.844   6.699   2.295
 9268SOL    HW128703   0.783   6.761   2.345
 9268SOL    HW228704   0.886   6.749   2.219
 9269SOL     OW28705   4.757   0.651   6.514
 9269SOL    HW128706   4.819   0.582   6.550
 9269SOL    HW228707   4.686   0.607   6.460
 9270SOL     OW28708   3.507   1.226   5.833
 9270SOL    HW128709   3.529   1.211   5.737
 9270SOL    HW228710   3.428   1.287   5.840
 9271SOL     OW28711   0.802   6.753   0.497
 9271SOL    HW128712   0.733   6.682   0.480
 9271SOL    HW228713   0.770   6.813   0.571
 9272SOL     OW28714   0.771   0.012   5.923
 9272SOL    HW128715   0.775   6.943   5.923
 9272SOL    HW228716   0.732   0.044   6.010
 9273SOL     OW28717   5.237   6.044   3.927
 9273SOL    HW128718   5.261   5.948   3.912
 9273SOL    HW228719   5.138   6.053   3.933
 9274SOL     OW28720   0.167   3.349   0.537
 9274SOL    HW128721   0.100   3.373   0.467
 9274SOL    HW228722   0.248   3.407   0.527
 9275SOL     OW28723   0.973   6.679   1.189
 9275SOL    HW128724   0.923   6.608   1.139
 9275SOL    HW228725   0.994   6.754   1.127
 9276SOL     OW28726   3.026   4.675   6.774
 9276SOL    HW128727   3.101   4.673   6.841
 9276SOL    HW228728   2.996   4.581   6.754
 9277SOL     OW28729   4.223   4.734   2.775
 9277SOL    HW128730   4.315   4.698   2.763
 9277SOL    HW228731   4.206   4.752   2.872
 9278SOL     OW28732   0.232   0.227   4.899
 9278SOL    HW128733   0.259   0.230   4.995
 9278SOL    HW228734   0.268   0.145   4.856
 9279SOL     OW28735   3.631   6.045   1.726
 9279SOL    HW128736   3.599   6.024   1.819
 9279SOL    HW228737   3.731   6.049   1.726
 9280SOL     OW28738   2.328   1.700   2.505
 9280SOL    HW128739   2.373   1.786   2.481
 9280SOL    HW228740   2.395   1.626   2.502
 9281SOL     OW28741   3.366   3.700   6.073
 9281SOL    HW128742   3.360   3.683   5.975
 9281SOL    HW228743   3.292   3.652   6.119
 9282SOL     OW28744   4.359   0.760   4.830
 9282SOL    HW128745   4.319   0.668   4.827
 9282SOL    HW228746   4.294   0.825   4.791
 9283SOL     OW28747   5.974   0.079   6.208
 9283SOL    HW128748   5.906   0.033   6.265
 9283SOL    HW228749   5.977   0.036   6.118
 9284SOL     OW28750   3.234   3.681   5.239
 9284SOL    HW128751   3.144   3.638   5.235
 9284SOL    HW228752   3.289   3.636   5.310
 9285SOL     OW28753   5.285   3.103   1.949
 9285SOL    HW128754   5.322   3.083   1.858
 9285SOL    HW228755   5.190   3.131   1.941
 9286SOL     OW28756   5.096   5.908   0.457
 9286SOL    HW128757   5.084   6.001   0.420
 9286SOL    HW228758   5.013   5.880   0.505
 9287SOL     OW28759   1.902   4.120   5.442
 9287SOL    HW128760   1.828   4.181   5.471
 9287SOL    HW228761   1.974   4.119   5.511
 9288SOL     OW28762   4.479   2.487   3.566
 9288SOL    HW128763   4.386   2.457   3.587
 9288SOL    HW228764   4.539   2.408   3.559
 9289SOL     OW28765   4.557   0.597   6.014
 9289SOL    HW128766   4.494   0.618   5.939
 9289SOL    HW228767   4.617   0.523   5.988
 9290SOL     OW28768   5.662   0.858   4.027
 9290SOL    HW128769   5.750   0.816   4.006
 9290SOL    HW228770   5.636   0.920   3.953
 9291SOL     OW28771   1.375   6.554   5.561
 9291SOL    HW128772   1.446   6.503   5.512
 9291SOL    HW228773   1.376   6.527   5.657
 9292SOL     OW28774   1.726   1.136   6.448
 9292SOL    HW128775   1.637   1.091   6.460
 9292SOL    HW228776   1.735   1.210   6.515
 9293SOL     OW28777   4.813   2.802   6.434
 9293SOL    HW128778   4.726   2.762   6.461
 9293SOL    HW228779   4.876   2.802   6.511
 9294SOL     OW28780   4.969   1.202   0.667
 9294SOL    HW128781   4.963   1.260   0.587
 9294SOL    HW228782   4.880   1.160   0.684
 9295SOL     OW28783   0.439   0.503   4.887
 9295SOL    HW128784   0.389   0.585   4.859
 9295SOL    HW228785   0.437   0.436   4.812
 9296SOL     OW28786   2.638   3.848   1.062
 9296SOL    HW128787   2.674   3.934   1.099
 9296SOL    HW228788   2.542   3.838   1.088
 9297SOL     OW28789   0.587   5.665   2.997
 9297SOL    HW128790   0.677   5.632   3.026
 9297SOL    HW228791   0.521   5.653   3.071
 9298SOL     OW28792   1.107   6.828   5.829
 9298SOL    HW128793   1.133   6.738   5.865
 9298SOL    HW228794   1.108   6.895   5.904
 9299SOL     OW28795   2.100   1.305   4.192
 9299SOL    HW128796   2.172   1.370   4.167
 9299SOL    HW228797   2.021   1.355   4.227
 9300SOL     OW28798   0.861   6.123   4.989
 9300SOL    HW128799   0.869   6.028   4.957
 9300SOL    HW228800   0.951   6.167   4.986
 9301SOL     OW28801   0.141   4.680   4.390
 9301SOL    HW128802   0.045   4.662   4.408
 9301SOL    HW228803   0.195   4.600   4.417
 9302SOL     OW28804   2.072   2.669   4.886
 9302SOL    HW128805   2.117   2.639   4.802
 9302SOL    HW228806   2.140   2.709   4.948
 9303SOL     OW28807   3.216   4.301   6.980
 9303SOL    HW128808   3.160   4.231   6.937
 9303SOL    HW228809   3.213   4.291   0.049
 9304SOL     OW28810   4.731   4.993   0.661
 9304SOL    HW128811   4.702   4.958   0.750
 9304SOL    HW228812   4.653   4.993   0.598
 9305SOL     OW28813   3.108   1.489   0.644
 9305SOL    HW128814   3.047   1.537   0.706
 9305SOL    HW228815   3.159   1.555   0.589
 9306SOL     OW28816   6.843   3.935   4.362
 9306SOL    HW128817   6.859   4.030   4.335
 9306SOL    HW228818   6.746   3.920   4.378
 9307SOL     OW28819   1.913   4.088   0.693
 9307SOL    HW128820   1.895   4.136   0.607
 9307SOL    HW228821   1.833   4.033   0.718
 9308SOL     OW28822   1.369   4.892   1.811
 9308SOL    HW128823   1.417   4.946   1.880
 9308SOL    HW228824   1.309   4.953   1.758
 9309SOL     OW28825   5.326   6.669   6.272
 9309SOL    HW128826   5.389   6.592   6.272
 9309SOL    HW228827   5.238   6.641   6.233
 9310SOL     OW28828   4.728   5.581   5.665
 9310SOL    HW128829   4.719   5.500   5.607
 9310SOL    HW228830   4.713   5.556   5.760
 9311SOL     OW28831   4.779   3.742   1.455
 9311SOL    HW128832   4.811   3.831   1.487
 9311SOL    HW228833   4.701   3.712   1.511
 9312SOL     OW28834   1.535   2.344   0.938
 9312SOL    HW128835   1.622   2.297   0.956
 9312SOL    HW228836   1.518   2.412   1.010
 9313SOL     OW28837   1.442   0.807   1.765
 9313SOL    HW128838   1.422   0.889   1.710
 9313SOL    HW228839   1.380   0.733   1.737
 9314SOL     OW28840   5.192   3.357   0.803
 9314SOL    HW128841   5.185   3.261   0.829
 9314SOL    HW228842   5.134   3.412   0.862
 9315SOL     OW28843   5.750   1.018   6.584
 9315SOL    HW128844   5.768   1.031   6.682
 9315SOL    HW228845   5.795   0.934   6.553
 9316SOL     OW28846   6.042   0.000   5.043
 9316SOL    HW128847   5.963   0.036   4.994
 9316SOL    HW228848   6.051   6.933   5.026
 9317SOL     OW28849   3.187   5.130   3.270
 9317SOL    HW128850   3.175   5.074   3.351
 9317SOL    HW228851   3.276   5.111   3.228
 9318SOL     OW28852   5.093   5.734   0.251
 9318SOL    HW128853   5.136   5.794   0.319
 9318SOL    HW228854   5.133   5.751   0.161
 9319SOL     OW28855   2.742   3.593   1.151
 9319SOL    HW128856   2.687   3.677   1.149
 9319SOL    HW228857   2.707   3.533   1.223
 9320SOL     OW28858   5.364   0.185   5.806
 9320SOL    HW128859   5.302   0.263   5.808
 9320SOL    HW228860   5.399   0.168   5.899
 9321SOL     OW28861   0.924   2.123   5.410
 9321SOL    HW128862   0.837   2.126   5.459
 9321SOL    HW228863   0.909   2.151   5.315
 9322SOL     OW28864   6.293   4.630   6.033
 9322SOL    HW128865   6.205   4.625   5.987
 9322SOL    HW228866   6.317   4.726   6.050
 9323SOL     OW28867   2.068   2.909   4.084
 9323SOL    HW128868   2.112   2.837   4.138
 9323SOL    HW228869   2.130   2.986   4.073
 9324SOL     OW28870   1.387   4.063   0.690
 9324SOL    HW128871   1.443   4.030   0.614
 9324SOL    HW228872   1.398   4.162   0.698
 9325SOL     OW28873   2.209   6.206   1.693
 9325SOL    HW128874   2.125   6.234   1.740
 9325SOL    HW228875   2.241   6.119   1.731
 9326SOL     OW28876   3.505   5.008   0.812
 9326SOL    HW128877   3.475   5.066   0.736
 9326SOL    HW228878   3.503   4.912   0.784
 9327SOL     OW28879   4.145   0.410   2.884
 9327SOL    HW128880   4.175   0.477   2.817
 9327SOL    HW228881   4.213   0.405   2.958
 9328SOL     OW28882   2.647   6.860   5.108
 9328SOL    HW128883   2.634   6.866   5.009
 9328SOL    HW228884   2.595   6.933   5.153
 9329SOL     OW28885   0.221   5.904   6.806
 9329SOL    HW128886   0.288   5.901   6.881
 9329SOL    HW228887   0.130   5.916   6.845
 9330SOL     OW28888   0.436   7.007   6.678
 9330SOL    HW128889   0.517   0.024   6.645
 9330SOL    HW228890   0.384   6.971   6.601
 9331SOL     OW28891   1.814   2.747   4.868
 9331SOL    HW128892   1.783   2.737   4.962
 9331SOL    HW228893   1.914   2.738   4.864
 9332SOL     OW28894   4.029   5.703   0.277
 9332SOL    HW128895   3.982   5.726   0.362
 9332SOL    HW228896   4.080   5.782   0.244
 9333SOL     OW28897   3.316   5.823   0.770
 9333SOL    HW128898   3.377   5.782   0.702
 9333SOL    HW228899   3.273   5.751   0.824
 9334SOL     OW28900   4.853   0.140   4.209
 9334SOL    HW128901   4.792   0.217   4.226
 9334SOL    HW228902   4.851   0.077   4.286
 9335SOL     OW28903   1.877   2.344   0.618
 9335SOL    HW128904   1.897   2.373   0.711
 9335SOL    HW228905   1.785   2.307   0.613
 9336SOL     OW28906   5.938   0.012   4.475
 9336SOL    HW128907   5.999   0.076   4.426
 9336SOL    HW228908   5.934   6.956   4.425
 9337SOL     OW28909   4.796   0.068   6.777
 9337SOL    HW128910   4.838   0.112   6.856
 9337SOL    HW228911   4.713   0.118   6.750
 9338SOL     OW28912   0.478   6.189   6.972
 9338SOL    HW128913   0.525   6.233   0.018
 9338SOL    HW228914   0.541   6.181   6.895
 9339SOL     OW28915   5.514   5.349   6.991
 9339SOL    HW128916   5.457   5.294   6.930
 9339SOL    HW228917   5.456   5.404   0.020
 9340SOL     OW28918   3.979   5.350   2.539
 9340SOL    HW128919   3.904   5.352   2.473
 9340SOL    HW228920   3.942   5.355   2.632
 9341SOL     OW28921   6.358   4.730   6.482
 9341SOL    HW128922   6.331   4.812   6.432
 9341SOL    HW228923   6.365   4.653   6.418
 9342SOL     OW28924   3.254   0.155   4.625
 9342SOL    HW128925   3.278   0.217   4.700
 9342SOL    HW228926   3.222   0.209   4.547
 9343SOL     OW28927   4.785   3.952   2.068
 9343SOL    HW128928   4.824   3.868   2.030
 9343SOL    HW228929   4.859   4.018   2.083
 9344SOL     OW28930   5.740   5.299   6.680
 9344SOL    HW128931   5.790   5.270   6.598
 9344SOL    HW228932   5.760   5.395   6.700
 9345SOL     OW28933   6.697   6.207   6.890
 9345SOL    HW128934   6.689   6.177   6.795
 9345SOL    HW228935   6.790   6.242   6.906
 9346SOL     OW28936   5.140   5.987   2.466
 9346SOL    HW128937   5.201   6.042   2.410
 9346SOL    HW228938   5.047   5.991   2.429
 9347SOL     OW28939   3.194   5.584   0.953
 9347SOL    HW128940   3.289   5.559   0.972
 9347SOL    HW228941   3.151   5.616   1.037
 9348SOL     OW28942   2.890   5.647   3.269
 9348SOL    HW128943   2.871   5.734   3.224
 9348SOL    HW228944   2.846   5.573   3.217
 9349SOL     OW28945   6.830   5.543   2.116
 9349SOL    HW128946   6.904   5.582   2.171
 9349SOL    HW228947   6.864   5.520   2.025
 9350SOL     OW28948   7.000   1.320   3.997
 9350SOL    HW128949   0.037   1.352   4.063
 9350SOL    HW228950   7.013   1.367   3.910
 9351SOL     OW28951   1.927   1.269   5.764
 9351SOL    HW128952   1.888   1.192   5.814
 9351SOL    HW228953   1.917   1.253   5.665
 9352SOL     OW28954   1.246   2.824   5.472
 9352SOL    HW128955   1.219   2.910   5.514
 9352SOL    HW228956   1.336   2.796   5.505
 9353SOL     OW28957   1.425   4.188   1.856
 9353SOL    HW128958   1.382   4.143   1.778
 9353SOL    HW228959   1.514   4.146   1.874
 9354SOL     OW28960   6.531   1.921   1.075
 9354SOL    HW128961   6.586   1.962   1.002
 9354SOL    HW228962   6.582   1.921   1.160
 9355SOL     OW28963   6.293   1.398   3.983
 9355SOL    HW128964   6.326   1.306   4.004
 9355SOL    HW228965   6.223   1.393   3.912
 9356SOL     OW28966   4.797   5.108   2.163
 9356SOL    HW128967   4.732   5.032   2.156
 9356SOL    HW228968   4.751   5.187   2.203
 9357SOL     OW28969   2.318   4.160   0.494
 9357SOL    HW128970   2.270   4.087   0.446
 9357SOL    HW228971   2.374   4.212   0.428
 9358SOL     OW28972   5.593   3.417   2.101
 9358SOL    HW128973   5.627   3.323   2.113
 9358SOL    HW228974   5.669   3.477   2.077
 9359SOL     OW28975   0.244   3.647   5.672
 9359SOL    HW128976   0.193   3.670   5.755
 9359SOL    HW228977   0.311   3.718   5.653
 9360SOL     OW28978   1.743   0.003   5.978
 9360SOL    HW128979   1.696   0.087   5.951
 9360SOL    HW228980   1.685   6.955   5.956
 9361SOL     OW28981   2.897   6.892   3.426
 9361SOL    HW128982   2.967   6.942   3.477
 9361SOL    HW228983   2.915   6.901   3.328
 9362SOL     OW28984   1.648   1.099   1.744
 9362SOL    HW128985   1.558   1.077   1.707
 9362SOL    HW228986   1.672   1.192   1.718
 9363SOL     OW28987   3.923   5.861   1.853
 9363SOL    HW128988   3.970   5.849   1.766
 9363SOL    HW228989   3.864   5.782   1.870
 9364SOL     OW28990   3.282   3.200   6.166
 9364SOL    HW128991   3.341   3.251   6.230
 9364SOL    HW228992   3.309   3.104   6.165
 9365SOL     OW28993   2.362   2.397   4.639
 9365SOL    HW128994   2.432   2.455   4.680
 9365SOL    HW228995   2.400   2.347   4.561
 9366SOL     OW28996   3.135   1.893   6.820
 9366SOL    HW128997   3.134   1.982   6.866
 9366SOL    HW228998   3.042   1.855   6.816
 9367SOL     OW28999   6.894   5.845   3.454
 9367SOL    HW129000   6.911   5.922   3.392
 9367SOL    HW229001   6.795   5.828   3.458
 9368SOL     OW29002   3.382   1.783   2.934
 9368SOL    HW129003   3.374   1.695   2.886
 9368SOL    HW229004   3.477   1.815   2.929
 9369SOL     OW29005   0.117   0.879   6.048
 9369SOL    HW129006   0.029   0.901   6.005
 9369SOL    HW229007   0.192   0.906   5.987
 9370SOL     OW29008   5.567   0.327   2.306
 9370SOL    HW129009   5.498   0.306   2.237
 9370SOL    HW229010   5.619   0.245   2.328
 9371SOL     OW29011   2.202   5.206   0.277
 9371SOL    HW129012   2.161   5.181   0.189
 9371SOL    HW229013   2.131   5.237   0.340
 9372SOL     OW29014   5.931   5.863   2.669
 9372SOL    HW129015   6.014   5.820   2.703
 9372SOL    HW229016   5.864   5.794   2.645
 9373SOL     OW29017   4.624   1.990   3.117
 9373SOL    HW129018   4.668   1.939   3.044
 9373SOL    HW229019   4.555   1.933   3.162
 9374SOL     OW29020   6.060   3.319   6.846
 9374SOL    HW129021   6.076   3.399   6.788
 9374SOL    HW229022   6.057   3.237   6.789
 9375SOL     OW29023   6.564   1.484   3.334
 9375SOL    HW129024   6.488   1.425   3.309
 9375SOL    HW229025   6.537   1.580   3.320
 9376SOL     OW29026   2.999   3.735   1.244
 9376SOL    HW129027   2.914   3.703   1.202
 9376SOL    HW229028   2.984   3.825   1.284
 9377SOL     OW29029   1.332   5.477   3.846
 9377SOL    HW129030   1.249   5.518   3.883
 9377SOL    HW229031   1.408   5.493   3.909
 9378SOL     OW29032   1.227   0.520   5.560
 9378SOL    HW129033   1.191   0.602   5.604
 9378SOL    HW229034   1.159   0.447   5.565
 9379SOL     OW29035   4.818   4.993   5.256
 9379SOL    HW129036   4.914   5.002   5.285
 9379SOL    HW229037   4.759   5.037   5.324
 9380SOL     OW29038   6.080   5.159   4.645
 9380SOL    HW129039   6.027   5.076   4.665
 9380SOL    HW229040   6.022   5.239   4.660
 9381SOL     OW29041   2.332   3.067   5.841
 9381SOL    HW129042   2.426   3.052   5.870
 9381SOL    HW229043   2.325   3.053   5.742
 9382SOL     OW29044   3.561   1.430   2.575
 9382SOL    HW129045   3.615   1.360   2.528
 9382SOL    HW229046   3.619   1.475   2.643
 9383SOL     OW29047   3.083   6.023   4.868
 9383SOL    HW129048   3.149   5.950   4.888
 9383SOL    HW229049   3.009   5.987   4.812
 9384SOL     OW29050   4.035   6.687   1.503
 9384SOL    HW129051   4.099   6.710   1.429
 9384SOL    HW229052   3.942   6.682   1.467
 9385SOL     OW29053   4.215   1.511   2.285
 9385SOL    HW129054   4.310   1.527   2.258
 9385SOL    HW229055   4.201   1.413   2.299
 9386SOL     OW29056   2.286   6.247   4.956
 9386SOL    HW129057   2.332   6.286   5.036
 9386SOL    HW229058   2.342   6.174   4.917
 9387SOL     OW29059   4.281   0.187   0.075
 9387SOL    HW129060   4.282   0.280   0.040
 9387SOL    HW229061   4.186   0.156   0.086
 9388SOL     OW29062   1.888   5.830   2.589
 9388SOL    HW129063   1.899   5.870   2.680
 9388SOL    HW229064   1.801   5.782   2.584
 9389SOL     OW29065   2.016   0.395   5.591
 9389SOL    HW129066   1.950   0.461   5.628
 9389SOL    HW229067   1.993   0.303   5.623
 9390SOL     OW29068   4.284   6.200   4.543
 9390SOL    HW129069   4.330   6.171   4.460
 9390SOL    HW229070   4.319   6.149   4.621
 9391SOL     OW29071   2.111   1.033   5.678
 9391SOL    HW129072   2.205   0.999   5.686
 9391SOL    HW229073   2.112   1.120   5.627
 9392SOL     OW29074   6.936   0.208   4.871
 9392SOL    HW129075   7.024   0.231   4.912
 9392SOL    HW229076   6.933   0.109   4.852
 9393SOL     OW29077   3.403   0.907   5.149
 9393SOL    HW129078   3.475   0.889   5.216
 9393SOL    HW229079   3.431   0.980   5.088
 9394SOL     OW29080   6.181   1.573   2.628
 9394SOL    HW129081   6.087   1.582   2.661
 9394SOL    HW229082   6.180   1.551   2.530
 9395SOL     OW29083   2.673   2.723   0.409
 9395SOL    HW129084   2.593   2.688   0.361
 9395SOL    HW229085   2.742   2.751   0.342
 9396SOL     OW29086   0.451   5.890   3.883
 9396SOL    HW129087   0.467   5.816   3.948
 9396SOL    HW229088   0.420   5.971   3.933
 9397SOL     OW29089   3.018   0.054   6.884
 9397SOL    HW129090   3.043   0.146   6.915
 9397SOL    HW229091   2.940   0.021   6.937
 9398SOL     OW29092   1.674   0.443   5.643
 9398SOL    HW129093   1.726   0.410   5.565
 9398SOL    HW229094   1.736   0.479   5.713
 9399SOL     OW29095   0.527   1.135   7.030
 9399SOL    HW129096   0.480   1.114   6.944
 9399SOL    HW229097   0.606   1.075   0.010
 9400SOL     OW29098   5.448   3.029   1.454
 9400SOL    HW129099   5.380   2.998   1.388
 9400SOL    HW229100   5.539   2.997   1.426
 9401SOL     OW29101   3.919   6.587   3.230
 9401SOL    HW129102   3.825   6.602   3.261
 9401SOL    HW229103   3.978   6.657   3.272
 9402SOL     OW29104   1.223   5.366   4.477
 9402SOL    HW129105   1.298   5.335   4.536
 9402SOL    HW229106   1.148   5.300   4.482
 9403SOL     OW29107   5.452   1.738   2.836
 9403SOL    HW129108   5.389   1.700   2.904
 9403SOL    HW229109   5.545   1.708   2.856
 9404SOL     OW29110   0.956   3.708   5.976
 9404SOL    HW129111   0.916   3.683   5.888
 9404SOL    HW229112   1.020   3.784   5.964
 9405SOL     OW29113   0.053   6.877   2.433
 9405SOL    HW129114   0.026   6.793   2.386
 9405SOL    HW229115   0.137   6.913   2.392
 9406SOL     OW29116   6.924   2.602   5.912
 9406SOL    HW129117   6.854   2.674   5.909
 9406SOL    HW229118   6.955   2.590   6.006
 9407SOL     OW29119   2.561   5.359   3.432
 9407SOL    HW129120   2.485   5.338   3.370
 9407SOL    HW229121   2.576   5.283   3.494
 9408SOL     OW29122   3.740   2.091   6.573
 9408SOL    HW129123   3.767   2.132   6.486
 9408SOL    HW229124   3.689   2.006   6.555
 9409SOL     OW29125   5.963   4.814   6.419
 9409SOL    HW129126   5.970   4.716   6.400
 9409SOL    HW229127   5.874   4.834   6.458
 9410SOL     OW29128   4.259   5.938   1.954
 9410SOL    HW129129   4.341   5.902   1.910
 9410SOL    HW229130   4.178   5.900   1.910
 9411SOL     OW29131   3.869   3.957   1.208
 9411SOL    HW129132   3.775   3.992   1.208
 9411SOL    HW229133   3.868   3.858   1.196
 9412SOL     OW29134   6.990   3.486   1.821
 9412SOL    HW129135   6.906   3.541   1.824
 9412SOL    HW229136   0.011   3.509   1.738
 9413SOL     OW29137   4.359   6.150   5.005
 9413SOL    HW129138   4.366   6.093   5.088
 9413SOL    HW229139   4.329   6.093   4.928
 9414SOL     OW29140   3.554   0.944   3.790
 9414SOL    HW129141   3.462   0.908   3.779
 9414SOL    HW229142   3.621   0.874   3.766
 9415SOL     OW29143   2.578   6.958   2.621
 9415SOL    HW129144   2.526   6.902   2.685
 9415SOL    HW229145   2.630   6.898   2.559
 9416SOL     OW29146   0.657   1.577   1.569
 9416SOL    HW129147   0.673   1.572   1.667
 9416SOL    HW229148   0.745   1.569   1.521
 9417SOL     OW29149   4.070   0.119   5.825
 9417SOL    HW129150   3.989   0.133   5.882
 9417SOL    HW229151   4.092   0.022   5.821
 9418SOL     OW29152   3.193   6.613   0.872
 9418SOL    HW129153   3.253   6.546   0.828
 9418SOL    HW229154   3.246   6.669   0.935
 9419SOL     OW29155   3.052   5.362   5.888
 9419SOL    HW129156   3.015   5.391   5.800
 9419SOL    HW229157   3.033   5.265   5.901
 9420SOL     OW29158   6.734   2.124   4.507
 9420SOL    HW129159   6.666   2.194   4.529
 9420SOL    HW229160   6.794   2.158   4.435
 9421SOL     OW29161   2.440   6.376   5.146
 9421SOL    HW129162   2.503   6.312   5.190
 9421SOL    HW229163   2.476   6.469   5.153
 9422SOL     OW29164   4.451   6.377   2.798
 9422SOL    HW129165   4.432   6.468   2.763
 9422SOL    HW229166   4.426   6.373   2.895
 9423SOL     OW29167   3.910   0.670   3.458
 9423SOL    HW129168   3.904   0.752   3.515
 9423SOL    HW229169   3.859   0.596   3.501
 9424SOL     OW29170   4.647   0.755   5.210
 9424SOL    HW129171   4.729   0.762   5.268
 9424SOL    HW229172   4.675   0.736   5.116
 9425SOL     OW29173   0.034   3.998   6.106
 9425SOL    HW129174   0.048   3.971   6.011
 9425SOL    HW229175   7.029   3.920   6.158
 9426SOL     OW29176   2.768   2.111   0.039
 9426SOL    HW129177   2.732   2.194   0.082
 9426SOL    HW229178   2.850   2.081   0.089
 9427SOL     OW29179   3.304   5.297   4.639
 9427SOL    HW129180   3.205   5.314   4.643
 9427SOL    HW229181   3.325   5.213   4.689
 9428SOL     OW29182   5.372   0.902   0.838
 9428SOL    HW129183   5.275   0.878   0.834
 9428SOL    HW229184   5.385   0.980   0.899
 9429SOL     OW29185   1.902   4.808   2.362
 9429SOL    HW129186   1.940   4.778   2.450
 9429SOL    HW229187   1.820   4.863   2.379
 9430SOL     OW29188   0.683   5.385   1.677
 9430SOL    HW129189   0.629   5.469   1.664
 9430SOL    HW229190   0.716   5.382   1.771
 9431SOL     OW29191   5.719   4.681   1.089
 9431SOL    HW129192   5.807   4.634   1.096
 9431SOL    HW229193   5.715   4.755   1.156
 9432SOL     OW29194   5.760   0.788   2.921
 9432SOL    HW129195   5.716   0.816   3.006
 9432SOL    HW229196   5.773   0.689   2.922
 9433SOL     OW29197   3.116   4.949   3.442
 9433SOL    HW129198   3.031   4.912   3.481
 9433SOL    HW229199   3.194   4.907   3.489
 9434SOL     OW29200   5.618   4.809   2.784
 9434SOL    HW129201   5.624   4.775   2.878
 9434SOL    HW229202   5.688   4.765   2.728
 9435SOL     OW29203   0.921   1.579   4.144
 9435SOL    HW129204   0.964   1.555   4.231
 9435SOL    HW229205   0.824   1.598   4.159
 9436SOL     OW29206   0.921   3.956   2.598
 9436SOL    HW129207   0.852   3.902   2.549
 9436SOL    HW229208   1.012   3.921   2.576
 9437SOL     OW29209   1.627   6.174   3.915
 9437SOL    HW129210   1.714   6.125   3.921
 9437SOL    HW229211   1.559   6.127   3.972
 9438SOL     OW29212   1.323   6.872   1.255
 9438SOL    HW129213   1.255   6.945   1.251
 9438SOL    HW229214   1.288   6.791   1.208
 9439SOL     OW29215   6.963   2.973   2.380
 9439SOL    HW129216   0.032   2.969   2.392
 9439SOL    HW229217   6.940   2.936   2.290
 9440SOL     OW29218   4.239   6.059   4.137
 9440SOL    HW129219   4.211   6.154   4.146
 9440SOL    HW229220   4.181   6.013   4.069
 9441SOL     OW29221   1.289   3.672   4.863
 9441SOL    HW129222   1.190   3.681   4.868
 9441SOL    HW229223   1.315   3.578   4.888
 9442SOL     OW29224   5.446   3.537   0.410
 9442SOL    HW129225   5.432   3.456   0.352
 9442SOL    HW229226   5.359   3.563   0.452
 9443SOL     OW29227   2.738   5.617   1.648
 9443SOL    HW129228   2.686   5.533   1.664
 9443SOL    HW229229   2.816   5.621   1.710
 9444SOL     OW29230   1.330   3.756   6.420
 9444SOL    HW129231   1.339   3.694   6.343
 9444SOL    HW229232   1.420   3.792   6.445
 9445SOL     OW29233   5.553   3.474   2.471
 9445SOL    HW129234   5.646   3.437   2.465
 9445SOL    HW229235   5.489   3.413   2.425
 9446SOL     OW29236   6.540   6.539   4.235
 9446SOL    HW129237   6.460   6.596   4.214
 9446SOL    HW229238   6.521   6.444   4.210
 9447SOL     OW29239   5.955   3.033   3.133
 9447SOL    HW129240   5.866   3.048   3.177
 9447SOL    HW229241   6.010   3.116   3.140
 9448SOL     OW29242   6.656   6.585   5.934
 9448SOL    HW129243   6.641   6.644   5.854
 9448SOL    HW229244   6.584   6.602   6.001
 9449SOL     OW29245   0.348   5.779   6.593
 9449SOL    HW129246   0.290   5.844   6.643
 9449SOL    HW229247   0.440   5.780   6.632
 9450SOL     OW29248   3.563   4.923   4.503
 9450SOL    HW129249   3.471   4.946   4.537
 9450SOL    HW229250   3.627   4.922   4.580
 9451SOL     OW29251   3.970   6.026   6.083
 9451SOL    HW129252   3.941   6.121   6.094
 9451SOL    HW229253   3.926   5.970   6.153
 9452SOL     OW29254   0.813   3.643   0.733
 9452SOL    HW129255   0.892   3.583   0.746
 9452SOL    HW229256   0.841   3.725   0.683
 9453SOL     OW29257   1.728   4.913   3.353
 9453SOL    HW129258   1.629   4.895   3.353
 9453SOL    HW229259   1.765   4.893   3.263
 9454SOL     OW29260   1.395   3.578   5.530
 9454SOL    HW129261   1.428   3.553   5.439
 9454SOL    HW229262   1.381   3.677   5.534
 9455SOL     OW29263   3.698   1.578   2.749
 9455SOL    HW129264   3.664   1.662   2.706
 9455SOL    HW229265   3.702   1.590   2.848
 9456SOL     OW29266   1.122   3.482   6.807
 9456SOL    HW129267   1.106   3.419   6.883
 9456SOL    HW229268   1.035   3.504   6.764
 9457SOL     OW29269   2.074   4.027   5.653
 9457SOL    HW129270   2.142   4.018   5.726
 9457SOL    HW229271   1.985   3.993   5.685
 9458SOL     OW29272   0.734   3.358   5.980
 9458SOL    HW129273   0.793   3.391   5.906
 9458SOL    HW229274   0.671   3.289   5.943
 9459SOL     OW29275   5.640   4.441   2.275
 9459SOL    HW129276   5.666   4.357   2.228
 9459SOL    HW229277   5.581   4.420   2.352
 9460SOL     OW29278   0.037   1.450   4.818
 9460SOL    HW129279   6.992   1.389   4.796
 9460SOL    HW229280   0.107   1.443   4.747
 9461SOL     OW29281   6.225   1.362   3.076
 9461SOL    HW129282   6.247   1.368   2.979
 9461SOL    HW229283   6.256   1.445   3.122
 9462SOL     OW29284   2.135   3.385   3.608
 9462SOL    HW129285   2.199   3.309   3.601
 9462SOL    HW229286   2.107   3.398   3.703
 9463SOL     OW29287   7.004   0.946   1.361
 9463SOL    HW129288   0.022   1.006   1.424
 9463SOL    HW229289   6.906   0.948   1.381
 9464SOL     OW29290   5.707   6.208   0.460
 9464SOL    HW129291   5.785   6.219   0.522
 9464SOL    HW229292   5.645   6.138   0.496
 9465SOL     OW29293   0.492   6.555   3.454
 9465SOL    HW129294   0.535   6.504   3.529
 9465SOL    HW229295   0.419   6.500   3.414
 9466SOL     OW29296   3.811   4.242   5.223
 9466SOL    HW129297   3.894   4.288   5.256
 9466SOL    HW229298   3.827   4.144   5.216
 9467SOL     OW29299   1.002   2.622   1.941
 9467SOL    HW129300   1.055   2.636   2.024
 9467SOL    HW229301   1.055   2.566   1.877
 9468SOL     OW29302   5.903   2.512   5.885
 9468SOL    HW129303   5.882   2.610   5.881
 9468SOL    HW229304   5.876   2.468   5.799
 9469SOL     OW29305   5.753   5.807   1.145
 9469SOL    HW129306   5.723   5.890   1.098
 9469SOL    HW229307   5.770   5.735   1.077
 9470SOL     OW29308   4.859   3.644   5.699
 9470SOL    HW129309   4.814   3.706   5.762
 9470SOL    HW229310   4.810   3.643   5.612
 9471SOL     OW29311   6.226   1.772   4.822
 9471SOL    HW129312   6.218   1.869   4.847
 9471SOL    HW229313   6.317   1.739   4.848
 9472SOL     OW29314   5.920   3.092   4.344
 9472SOL    HW129315   5.901   3.018   4.280
 9472SOL    HW229316   6.010   3.131   4.325
 9473SOL     OW29317   2.676   5.082   5.849
 9473SOL    HW129318   2.682   4.991   5.890
 9473SOL    HW229319   2.728   5.147   5.904
 9474SOL     OW29320   6.374   2.994   0.212
 9474SOL    HW129321   6.410   2.960   0.298
 9474SOL    HW229322   6.361   3.093   0.218
 9475SOL     OW29323   2.918   3.811   0.365
 9475SOL    HW129324   3.010   3.825   0.401
 9475SOL    HW229325   2.883   3.897   0.329
 9476SOL     OW29326   3.152   3.379   5.016
 9476SOL    HW129327   3.239   3.364   5.064
 9476SOL    HW229328   3.078   3.337   5.067
 9477SOL     OW29329   0.298   3.282   2.574
 9477SOL    HW129330   0.268   3.377   2.567
 9477SOL    HW229331   0.279   3.235   2.488
 9478SOL     OW29332   4.465   3.410   6.231
 9478SOL    HW129333   4.559   3.432   6.259
 9478SOL    HW229334   4.417   3.494   6.206
 9479SOL     OW29335   5.450   6.380   6.571
 9479SOL    HW129336   5.542   6.402   6.539
 9479SOL    HW229337   5.413   6.458   6.622
 9480SOL     OW29338   4.955   4.251   0.175
 9480SOL    HW129339   4.874   4.282   0.126
 9480SOL    HW229340   4.929   4.188   0.248
 9481SOL     OW29341   5.611   3.190   1.199
 9481SOL    HW129342   5.606   3.098   1.238
 9481SOL    HW229343   5.615   3.257   1.273
 9482SOL     OW29344   6.267   0.968   2.914
 9482SOL    HW129345   6.330   0.903   2.956
 9482SOL    HW229346   6.240   1.036   2.982
 9483SOL     OW29347   1.589   2.002   0.917
 9483SOL    HW129348   1.509   2.062   0.929
 9483SOL    HW229349   1.570   1.912   0.955
 9484SOL     OW29350   4.419   1.676   3.165
 9484SOL    HW129351   4.422   1.576   3.168
 9484SOL    HW229352   4.445   1.713   3.255
 9485SOL     OW29353   0.838   0.284   2.292
 9485SOL    HW129354   0.920   0.227   2.295
 9485SOL    HW229355   0.843   0.353   2.364
 9486SOL     OW29356   2.269   4.752   1.431
 9486SOL    HW129357   2.267   4.680   1.500
 9486SOL    HW229358   2.182   4.802   1.431
 9487SOL     OW29359   2.892   3.592   2.657
 9487SOL    HW129360   2.990   3.591   2.674
 9487SOL    HW229361   2.872   3.650   2.579
 9488SOL     OW29362   2.684   6.397   0.877
 9488SOL    HW129363   2.763   6.455   0.858
 9488SOL    HW229364   2.682   6.373   0.974
 9489SOL     OW29365   4.084   4.080   1.339
 9489SOL    HW129366   4.021   4.029   1.279
 9489SOL    HW229367   4.171   4.093   1.292
 9490SOL     OW29368   6.554   6.161   0.852
 9490SOL    HW129369   6.610   6.106   0.913
 9490SOL    HW229370   6.602   6.246   0.831
 9491SOL     OW29371   6.958   4.329   3.559
 9491SOL    HW129372   6.943   4.234   3.531
 9491SOL    HW229373   0.014   4.336   3.608
 9492SOL     OW29374   3.433   3.519   2.711
 9492SOL    HW129375   3.527   3.552   2.724
 9492SOL    HW229376   3.427   3.425   2.743
 9493SOL     OW29377   4.008   5.219   4.067
 9493SOL    HW129378   4.091   5.165   4.075
 9493SOL    HW229379   3.934   5.162   4.031
 9494SOL     OW29380   4.628   4.238   1.665
 9494SOL    HW129381   4.570   4.264   1.743
 9494SOL    HW229382   4.690   4.165   1.694
 9495SOL     OW29383   5.563   1.668   4.577
 9495SOL    HW129384   5.529   1.595   4.517
 9495SOL    HW229385   5.539   1.757   4.538
 9496SOL     OW29386   5.126   5.150   0.319
 9496SOL    HW129387   5.126   5.156   0.419
 9496SOL    HW229388   5.187   5.221   0.282
 9497SOL     OW29389   5.850   4.750   0.456
 9497SOL    HW129390   5.859   4.755   0.555
 9497SOL    HW229391   5.860   4.842   0.417
 9498SOL     OW29392   5.185   0.555   5.930
 9498SOL    HW129393   5.226   0.483   5.985
 9498SOL    HW229394   5.137   0.620   5.989
 9499SOL     OW29395   2.256   3.983   5.874
 9499SOL    HW129396   2.213   4.025   5.954
 9499SOL    HW229397   2.274   3.887   5.894
 9500SOL     OW29398   4.050   0.094   1.449
 9500SOL    HW129399   4.058   0.145   1.535
 9500SOL    HW229400   4.030   0.158   1.375
 9501SOL     OW29401   2.911   1.292   4.842
 9501SOL    HW129402   3.008   1.289   4.866
 9501SOL    HW229403   2.866   1.209   4.874
 9502SOL     OW29404   0.493   1.837   4.281
 9502SOL    HW129405   0.451   1.886   4.204
 9502SOL    HW229406   0.526   1.903   4.348
 9503SOL     OW29407   0.778   1.592   1.829
 9503SOL    HW129408   0.784   1.628   1.922
 9503SOL    HW229409   0.837   1.644   1.768
 9504SOL     OW29410   0.333   1.480   0.762
 9504SOL    HW129411   0.403   1.486   0.833
 9504SOL    HW229412   0.274   1.560   0.767
 9505SOL     OW29413   5.620   4.321   3.906
 9505SOL    HW129414   5.709   4.328   3.951
 9505SOL    HW229415   5.548   4.334   3.974
 9506SOL     OW29416   0.075   3.345   6.588
 9506SOL    HW129417   7.014   3.334   6.625
 9506SOL    HW229418   0.083   3.291   6.504
 9507SOL     OW29419   1.326   1.060   3.435
 9507SOL    HW129420   1.425   1.067   3.445
 9507SOL    HW229421   1.282   1.136   3.484
 9508SOL     OW29422   5.748   3.021   0.616
 9508SOL    HW129423   5.684   3.098   0.609
 9508SOL    HW229424   5.836   3.053   0.650
 9509SOL     OW29425   1.223   0.196   5.722
 9509SOL    HW129426   1.167   0.146   5.788
 9509SOL    HW229427   1.168   0.220   5.642
 9510SOL     OW29428   0.691   4.440   1.827
 9510SOL    HW129429   0.738   4.424   1.913
 9510SOL    HW229430   0.635   4.361   1.803
 9511SOL     OW29431   1.164   1.310   6.959
 9511SOL    HW129432   1.252   1.355   6.973
 9511SOL    HW229433   1.179   1.217   6.926
 9512SOL     OW29434   5.637   1.075   2.230
 9512SOL    HW129435   5.569   1.016   2.274
 9512SOL    HW229436   5.724   1.065   2.277
 9513SOL     OW29437   1.390   3.539   4.549
 9513SOL    HW129438   1.446   3.554   4.631
 9513SOL    HW229439   1.447   3.497   4.478
 9514SOL     OW29440   2.513   4.225   0.289
 9514SOL    HW129441   2.507   4.238   0.190
 9514SOL    HW229442   2.582   4.288   0.327
 9515SOL     OW29443   1.443   5.470   0.330
 9515SOL    HW129444   1.487   5.548   0.373
 9515SOL    HW229445   1.388   5.501   0.252
 9516SOL     OW29446   5.282   3.766   4.910
 9516SOL    HW129447   5.252   3.852   4.952
 9516SOL    HW229448   5.217   3.694   4.933
 9517SOL     OW29449   1.589   4.908   0.229
 9517SOL    HW129450   1.552   4.886   0.320
 9517SOL    HW229451   1.688   4.919   0.236
 9518SOL     OW29452   0.667   2.065   6.719
 9518SOL    HW129453   0.714   2.139   6.672
 9518SOL    HW229454   0.688   1.978   6.673
 9519SOL     OW29455   4.093   3.296   3.883
 9519SOL    HW129456   4.011   3.245   3.856
 9519SOL    HW229457   4.151   3.239   3.941
 9520SOL     OW29458   0.129   0.635   3.189
 9520SOL    HW129459   0.174   0.715   3.230
 9520SOL    HW229460   0.191   0.557   3.190
 9521SOL     OW29461   3.354   4.209   1.277
 9521SOL    HW129462   3.325   4.240   1.186
 9521SOL    HW229463   3.286   4.236   1.345
 9522SOL     OW29464   4.355   6.177   2.653
 9522SOL    HW129465   4.318   6.106   2.713
 9522SOL    HW229466   4.411   6.241   2.707
 9523SOL     OW29467   2.719   4.784   5.209
 9523SOL    HW129468   2.724   4.750   5.115
 9523SOL    HW229469   2.809   4.778   5.251
 9524SOL     OW29470   1.784   2.481   0.377
 9524SOL    HW129471   1.784   2.393   0.329
 9524SOL    HW229472   1.817   2.468   0.470
 9525SOL     OW29473   1.679   2.176   5.063
 9525SOL    HW129474   1.741   2.210   5.134
 9525SOL    HW229475   1.619   2.249   5.033
 9526SOL     OW29476   6.494   4.303   1.410
 9526SOL    HW129477   6.575   4.280   1.357
 9526SOL    HW229478   6.417   4.321   1.348
 9527SOL     OW29479   2.591   0.668   5.468
 9527SOL    HW129480   2.664   0.678   5.400
 9527SOL    HW229481   2.631   0.672   5.560
 9528SOL     OW29482   6.801   1.391   0.146
 9528SOL    HW129483   6.882   1.430   0.101
 9528SOL    HW229484   6.830   1.319   0.209
 9529SOL     OW29485   6.573   3.575   6.545
 9529SOL    HW129486   6.620   3.497   6.503
 9529SOL    HW229487   6.476   3.553   6.557
 9530SOL     OW29488   1.161   3.303   3.442
 9530SOL    HW129489   1.240   3.350   3.404
 9530SOL    HW229490   1.150   3.327   3.539
 9531SOL     OW29491   5.110   4.228   2.093
 9531SOL    HW129492   5.080   4.155   2.155
 9531SOL    HW229493   5.032   4.260   2.040
 9532SOL     OW29494   0.352   5.346   0.781
 9532SOL    HW129495   0.305   5.434   0.785
 9532SOL    HW229496   0.450   5.359   0.794
 9533SOL     OW29497   1.145   5.773   4.091
 9533SOL    HW129498   1.209   5.819   4.030
 9533SOL    HW229499   1.051   5.788   4.058
 9534SOL     OW29500   5.875   4.026   5.093
 9534SOL    HW129501   5.935   4.059   5.020
 9534SOL    HW229502   5.883   4.088   5.172
 9535SOL     OW29503   1.908   0.612   5.736
 9535SOL    HW129504   1.839   0.685   5.731
 9535SOL    HW229505   1.989   0.647   5.783
 9536SOL     OW29506   2.967   3.682   5.183
 9536SOL    HW129507   2.903   3.685   5.259
 9536SOL    HW229508   3.008   3.772   5.170
 9537SOL     OW29509   2.118   0.704   4.480
 9537SOL    HW129510   2.130   0.641   4.403
 9537SOL    HW229511   2.150   0.795   4.454
 9538SOL     OW29512   5.218   0.792   4.314
 9538SOL    HW129513   5.315   0.811   4.302
 9538SOL    HW229514   5.205   0.696   4.338
 9539SOL     OW29515   3.264   4.093   4.533
 9539SOL    HW129516   3.253   4.121   4.629
 9539SOL    HW229517   3.199   4.020   4.513
 9540SOL     OW29518   5.414   4.991   4.445
 9540SOL    HW129519   5.340   5.056   4.462
 9540SOL    HW229520   5.462   5.016   4.361
 9541SOL     OW29521   2.980   0.510   6.043
 9541SOL    HW129522   2.951   0.433   5.986
 9541SOL    HW229523   3.005   0.476   6.134
 9542SOL     OW29524   5.305   4.927   5.162
 9542SOL    HW129525   5.316   4.829   5.150
 9542SOL    HW229526   5.288   4.970   5.074
 9543SOL     OW29527   3.713   0.693   6.375
 9543SOL    HW129528   3.739   0.672   6.470
 9543SOL    HW229529   3.707   0.608   6.323
 9544SOL     OW29530   5.673   3.002   3.657
 9544SOL    HW129531   5.704   2.981   3.564
 9544SOL    HW229532   5.672   2.919   3.712
 9545SOL     OW29533   5.428   5.315   3.089
 9545SOL    HW129534   5.403   5.356   3.001
 9545SOL    HW229535   5.528   5.317   3.099
 9546SOL     OW29536   3.744   2.017   6.277
 9546SOL    HW129537   3.733   2.099   6.222
 9546SOL    HW229538   3.826   1.967   6.249
 9547SOL     OW29539   2.602   5.513   4.226
 9547SOL    HW129540   2.520   5.481   4.274
 9547SOL    HW229541   2.577   5.540   4.133
 9548SOL     OW29542   6.986   4.541   4.901
 9548SOL    HW129543   7.008   4.463   4.843
 9548SOL    HW229544   6.897   4.578   4.875
 9549SOL     OW29545   3.368   2.000   1.344
 9549SOL    HW129546   3.443   1.970   1.403
 9549SOL    HW229547   3.286   1.946   1.365
 9550SOL     OW29548   0.079   0.671   0.276
 9550SOL    HW129549   0.090   0.624   0.188
 9550SOL    HW229550   0.100   0.607   0.350
 9551SOL     OW29551   6.016   3.050   5.864
 9551SOL    HW129552   6.115   3.059   5.858
 9551SOL    HW229553   5.985   3.074   5.956
 9552SOL     OW29554   2.403   5.981   4.948
 9552SOL    HW129555   2.389   5.929   4.864
 9552SOL    HW229556   2.339   5.948   5.018
 9553SOL     OW29557   5.859   2.468   0.110
 9553SOL    HW129558   5.929   2.536   0.085
 9553SOL    HW229559   5.769   2.511   0.111
 9554SOL     OW29560   2.335   6.494   2.856
 9554SOL    HW129561   2.262   6.554   2.825
 9554SOL    HW229562   2.362   6.432   2.782
 9555SOL     OW29563   0.812   1.438   2.500
 9555SOL    HW129564   0.796   1.346   2.466
 9555SOL    HW229565   0.903   1.443   2.543
 9556SOL     OW29566   1.967   4.458   2.424
 9556SOL    HW129567   1.889   4.519   2.432
 9556SOL    HW229568   2.006   4.443   2.515
 9557SOL     OW29569   6.397   6.143   1.398
 9557SOL    HW129570   6.307   6.137   1.441
 9557SOL    HW229571   6.386   6.155   1.299
 9558SOL     OW29572   6.144   5.936   5.785
 9558SOL    HW129573   6.133   5.848   5.830
 9558SOL    HW229574   6.172   5.921   5.690
 9559SOL     OW29575   0.611   4.797   0.666
 9559SOL    HW129576   0.528   4.836   0.626
 9559SOL    HW229577   0.595   4.778   0.763
 9560SOL     OW29578   2.988   1.334   3.137
 9560SOL    HW129579   2.971   1.284   3.053
 9560SOL    HW229580   2.999   1.432   3.117
 9561SOL     OW29581   1.475   0.759   1.135
 9561SOL    HW129582   1.552   0.822   1.125
 9561SOL    HW229583   1.409   0.775   1.062
 9562SOL     OW29584   2.856   0.539   5.602
 9562SOL    HW129585   2.845   0.561   5.699
 9562SOL    HW229586   2.843   0.441   5.588
 9563SOL     OW29587   0.370   6.699   0.385
 9563SOL    HW129588   0.383   6.687   0.286
 9563SOL    HW229589   0.368   6.797   0.407
 9564SOL     OW29590   2.865   1.367   0.555
 9564SOL    HW129591   2.878   1.298   0.483
 9564SOL    HW229592   2.949   1.420   0.566
 9565SOL     OW29593   4.595   0.943   4.850
 9565SOL    HW129594   4.517   0.886   4.825
 9565SOL    HW229595   4.568   1.040   4.844
 9566SOL     OW29596   3.122   5.514   6.733
 9566SOL    HW129597   3.206   5.533   6.785
 9566SOL    HW229598   3.057   5.589   6.745
 9567SOL     OW29599   4.958   5.108   0.575
 9567SOL    HW129600   4.911   5.174   0.516
 9567SOL    HW229601   4.890   5.057   0.628
 9568SOL     OW29602   4.404   2.639   6.042
 9568SOL    HW129603   4.376   2.694   5.963
 9568SOL    HW229604   4.469   2.691   6.097
 9569SOL     OW29605   6.556   0.856   2.609
 9569SOL    HW129606   6.516   0.837   2.519
 9569SOL    HW229607   6.495   0.917   2.660
 9570SOL     OW29608   0.420   3.189   1.765
 9570SOL    HW129609   0.401   3.283   1.735
 9570SOL    HW229610   0.514   3.165   1.740
 9571SOL     OW29611   3.443   3.652   6.417
 9571SOL    HW129612   3.401   3.671   6.506
 9571SOL    HW229613   3.516   3.718   6.400
 9572SOL     OW29614   2.416   4.766   1.989
 9572SOL    HW129615   2.489   4.739   2.052
 9572SOL    HW229616   2.360   4.838   2.031
 9573SOL     OW29617   0.767   2.250   6.574
 9573SOL    HW129618   0.688   2.307   6.553
 9573SOL    HW229619   0.843   2.309   6.603
 9574SOL     OW29620   4.132   3.432   3.168
 9574SOL    HW129621   4.079   3.361   3.122
 9574SOL    HW229622   4.157   3.402   3.260
 9575SOL     OW29623   0.442   0.771   1.573
 9575SOL    HW129624   0.448   0.672   1.566
 9575SOL    HW229625   0.530   0.807   1.606
 9576SOL     OW29626   2.058   1.684   1.021
 9576SOL    HW129627   1.986   1.731   1.072
 9576SOL    HW229628   2.055   1.712   0.925
 9577SOL     OW29629   1.140   0.161   6.012
 9577SOL    HW129630   1.085   0.199   5.938
 9577SOL    HW229631   1.206   0.230   6.043
 9578SOL     OW29632   0.769   4.143   2.723
 9578SOL    HW129633   0.830   4.074   2.685
 9578SOL    HW229634   0.819   4.229   2.735
 9579SOL     OW29635   0.712   4.588   3.371
 9579SOL    HW129636   0.793   4.545   3.331
 9579SOL    HW229637   0.716   4.687   3.358
 9580SOL     OW29638   4.572   3.445   0.508
 9580SOL    HW129639   4.640   3.485   0.570
 9580SOL    HW229640   4.513   3.383   0.560
 9581SOL     OW29641   0.614   6.767   5.711
 9581SOL    HW129642   0.660   6.852   5.686
 9581SOL    HW229643   0.578   6.723   5.629
 9582SOL     OW29644   4.389   5.076   5.478
 9582SOL    HW129645   4.300   5.107   5.511
 9582SOL    HW229646   4.404   5.108   5.385
 9583SOL     OW29647   3.527   4.267   1.521
 9583SOL    HW129648   3.579   4.306   1.597
 9583SOL    HW229649   3.568   4.181   1.493
 9584SOL     OW29650   0.293   5.189   6.285
 9584SOL    HW129651   0.328   5.171   6.377
 9584SOL    HW229652   0.361   5.238   6.232
 9585SOL     OW29653   6.605   6.888   4.537
 9585SOL    HW129654   6.534   6.886   4.607
 9585SOL    HW229655   6.668   6.963   4.555
 9586SOL     OW29656   5.223   4.813   2.104
 9586SOL    HW129657   5.188   4.723   2.079
 9586SOL    HW229658   5.162   4.854   2.172
 9587SOL     OW29659   0.750   0.762   1.268
 9587SOL    HW129660   0.781   0.741   1.175
 9587SOL    HW229661   0.803   0.707   1.333
 9588SOL     OW29662   6.690   0.330   1.458
 9588SOL    HW129663   6.784   0.306   1.434
 9588SOL    HW229664   6.644   0.365   1.376
 9589SOL     OW29665   2.318   4.838   6.779
 9589SOL    HW129666   2.334   4.751   6.825
 9589SOL    HW229667   2.392   4.855   6.714
 9590SOL     OW29668   6.262   2.811   1.949
 9590SOL    HW129669   6.168   2.803   1.980
 9590SOL    HW229670   6.264   2.837   1.852
 9591SOL     OW29671   3.041   5.712   5.662
 9591SOL    HW129672   3.080   5.680   5.749
 9591SOL    HW229673   3.010   5.633   5.609
 9592SOL     OW29674   3.380   4.451   0.661
 9592SOL    HW129675   3.321   4.477   0.584
 9592SOL    HW229676   3.340   4.484   0.746
 9593SOL     OW29677   0.333   0.751   5.524
 9593SOL    HW129678   0.256   0.794   5.477
 9593SOL    HW229679   0.315   0.654   5.537
 9594SOL     OW29680   1.352   5.219   2.830
 9594SOL    HW129681   1.335   5.155   2.905
 9594SOL    HW229682   1.421   5.286   2.857
 9595SOL     OW29683   0.517   3.194   4.532
 9595SOL    HW129684   0.473   3.276   4.494
 9595SOL    HW229685   0.463   3.162   4.610
 9596SOL     OW29686   0.360   5.401   5.936
 9596SOL    HW129687   0.353   5.482   5.877
 9596SOL    HW229688   0.344   5.319   5.881
 9597SOL     OW29689   1.396   4.574   1.196
 9597SOL    HW129690   1.350   4.643   1.253
 9597SOL    HW229691   1.331   4.535   1.132
 9598SOL     OW29692   1.070   4.070   3.645
 9598SOL    HW129693   1.057   4.169   3.649
 9598SOL    HW229694   1.135   4.048   3.571
 9599SOL     OW29695   3.381   6.962   4.524
 9599SOL    HW129696   3.372   6.874   4.571
 9599SOL    HW229697   3.334   0.002   4.575
 9600SOL     OW29698   2.356   6.426   6.841
 9600SOL    HW129699   2.355   6.444   6.742
 9600SOL    HW229700   2.262   6.417   6.874
 9601SOL     OW29701   4.694   3.846   0.588
 9601SOL    HW129702   4.642   3.806   0.513
 9601SOL    HW229703   4.792   3.839   0.567
 9602SOL     OW29704   6.459   4.945   5.932
 9602SOL    HW129705   6.484   4.902   5.845
 9602SOL    HW229706   6.360   4.941   5.945
 9603SOL     OW29707   4.011   1.889   4.354
 9603SOL    HW129708   3.923   1.932   4.338
 9603SOL    HW229709   4.080   1.931   4.295
 9604SOL     OW29710   4.864   0.144   6.468
 9604SOL    HW129711   4.810   0.113   6.390
 9604SOL    HW229712   4.841   0.089   6.548
 9605SOL     OW29713   0.732   5.933   3.721
 9605SOL    HW129714   0.668   5.936   3.798
 9605SOL    HW229715   0.712   5.853   3.664
 9606SOL     OW29716   1.740   6.559   6.659
 9606SOL    HW129717   1.691   6.633   6.614
 9606SOL    HW229718   1.788   6.504   6.591
 9607SOL     OW29719   1.862   1.869   0.011
 9607SOL    HW129720   1.889   1.962   7.018
 9607SOL    HW229721   1.927   1.831   0.077
 9608SOL     OW29722   6.625   5.315   2.874
 9608SOL    HW129723   6.564   5.317   2.953
 9608SOL    HW229724   6.646   5.409   2.846
 9609SOL     OW29725   2.543   4.301   0.023
 9609SOL    HW129726   2.599   4.372   0.066
 9609SOL    HW229727   2.531   4.322   6.957
 9610SOL     OW29728   1.148   4.361   3.774
 9610SOL    HW129729   1.173   4.421   3.850
 9610SOL    HW229730   1.215   4.288   3.764
 9611SOL     OW29731   0.963   6.419   6.824
 9611SOL    HW129732   1.059   6.402   6.803
 9611SOL    HW229733   0.943   6.516   6.812
 9612SOL     OW29734   0.444   4.304   1.361
 9612SOL    HW129735   0.443   4.205   1.348
 9612SOL    HW229736   0.539   4.335   1.369
 9613SOL     OW29737   5.432   6.799   3.323
 9613SOL    HW129738   5.352   6.741   3.312
 9613SOL    HW229739   5.449   6.815   3.420
 9614SOL     OW29740   3.376   2.525   0.785
 9614SOL    HW129741   3.412   2.538   0.878
 9614SOL    HW229742   3.399   2.433   0.753
 9615SOL     OW29743   1.971   6.781   0.107
 9615SOL    HW129744   1.920   6.698   0.128
 9615SOL    HW229745   2.056   6.757   0.061
 9616SOL     OW29746   4.406   3.771   1.478
 9616SOL    HW129747   4.495   3.734   1.504
 9616SOL    HW229748   4.339   3.752   1.550
 9617SOL     OW29749   1.873   2.698   2.975
 9617SOL    HW129750   1.776   2.707   2.951
 9617SOL    HW229751   1.885   2.619   3.036
 9618SOL     OW29752   4.274   0.035   5.503
 9618SOL    HW129753   4.349   0.023   5.438
 9618SOL    HW229754   4.303   0.096   5.577
 9619SOL     OW29755   1.233   6.709   0.415
 9619SOL    HW129756   1.134   6.713   0.399
 9619SOL    HW229757   1.253   6.635   0.478
 9620SOL     OW29758   4.848   1.833   6.248
 9620SOL    HW129759   4.753   1.864   6.255
 9620SOL    HW229760   4.851   1.733   6.246
 9621SOL     OW29761   0.741   1.143   2.041
 9621SOL    HW129762   0.666   1.157   1.976
 9621SOL    HW229763   0.828   1.170   1.997
 9622SOL     OW29764   6.467   1.256   0.100
 9622SOL    HW129765   6.471   1.330   0.168
 9622SOL    HW229766   6.525   1.181   0.130
 9623SOL     OW29767   2.660   4.289   6.046
 9623SOL    HW129768   2.613   4.205   6.017
 9623SOL    HW229769   2.753   4.290   6.009
 9624SOL     OW29770   6.983   4.673   2.387
 9624SOL    HW129771   6.895   4.649   2.344
 9624SOL    HW229772   6.969   4.749   2.450
 9625SOL     OW29773   5.042   5.631   6.851
 9625SOL    HW129774   5.007   5.613   6.943
 9625SOL    HW229775   5.030   5.550   6.794
 9626SOL     OW29776   3.278   5.711   0.036
 9626SOL    HW129777   3.235   5.689   0.124
 9626SOL    HW229778   3.316   5.803   0.040
 9627SOL     OW29779   6.403   6.039   3.293
 9627SOL    HW129780   6.501   6.050   3.308
 9627SOL    HW229781   6.354   6.116   3.333
 9628SOL     OW29782   5.328   4.580   0.220
 9628SOL    HW129783   5.427   4.575   0.232
 9628SOL    HW229784   5.306   4.588   0.123
 9629SOL     OW29785   0.555   6.831   2.368
 9629SOL    HW129786   0.495   6.839   2.447
 9629SOL    HW229787   0.601   6.919   2.351
 9630SOL     OW29788   6.313   6.131   5.513
 9630SOL    HW129789   6.384   6.198   5.489
 9630SOL    HW229790   6.225   6.162   5.478
 9631SOL     OW29791   6.645   0.035   6.923
 9631SOL    HW129792   6.724   0.031   6.985
 9631SOL    HW229793   6.675   0.017   6.830
 9632SOL     OW29794   1.917   5.992   2.811
 9632SOL    HW129795   1.941   5.992   2.908
 9632SOL    HW229796   1.836   6.049   2.797
 9633SOL     OW29797   5.343   5.310   6.756
 9633SOL    HW129798   5.275   5.307   6.683
 9633SOL    HW229799   5.415   5.244   6.737
 9634SOL     OW29800   1.641   6.315   3.677
 9634SOL    HW129801   1.607   6.407   3.697
 9634SOL    HW229802   1.642   6.262   3.761
 9635SOL     OW29803   1.557   5.141   5.626
 9635SOL    HW129804   1.610   5.176   5.703
 9635SOL    HW229805   1.587   5.049   5.603
 9636SOL     OW29806   3.665   1.750   6.371
 9636SOL    HW129807   3.679   1.764   6.469
 9636SOL    HW229808   3.688   1.835   6.322
 9637SOL     OW29809   3.016   1.986   6.411
 9637SOL    HW129810   2.951   2.055   6.440
 9637SOL    HW229811   3.109   2.024   6.413
 9638SOL     OW29812   6.888   3.500   6.416
 9638SOL    HW129813   6.878   3.403   6.439
 9638SOL    HW229814   6.822   3.524   6.345
 9639SOL     OW29815   3.705   1.720   2.377
 9639SOL    HW129816   3.799   1.686   2.381
 9639SOL    HW229817   3.683   1.748   2.284
 9640SOL     OW29818   2.738   2.017   3.107
 9640SOL    HW129819   2.722   2.024   3.206
 9640SOL    HW229820   2.832   2.044   3.087
 9641SOL     OW29821   4.923   6.169   0.839
 9641SOL    HW129822   4.989   6.115   0.891
 9641SOL    HW229823   4.971   6.241   0.788
 9642SOL     OW29824   3.228   6.337   5.482
 9642SOL    HW129825   3.180   6.365   5.398
 9642SOL    HW229826   3.308   6.282   5.459
 9643SOL     OW29827   5.729   5.318   4.141
 9643SOL    HW129828   5.657   5.334   4.073
 9643SOL    HW229829   5.788   5.244   4.109
 9644SOL     OW29830   1.059   4.526   5.657
 9644SOL    HW129831   1.109   4.611   5.675
 9644SOL    HW229832   1.124   4.454   5.634
 9645SOL     OW29833   4.083   4.823   3.586
 9645SOL    HW129834   4.175   4.783   3.589
 9645SOL    HW229835   4.054   4.848   3.678
 9646SOL     OW29836   2.902   4.782   2.182
 9646SOL    HW129837   2.848   4.723   2.123
 9646SOL    HW229838   2.856   4.871   2.193
 9647SOL     OW29839   6.143   5.319   1.366
 9647SOL    HW129840   6.050   5.350   1.346
 9647SOL    HW229841   6.203   5.341   1.289
 9648SOL     OW29842   3.927   2.225   6.985
 9648SOL    HW129843   3.976   2.239   6.899
 9648SOL    HW229844   3.932   2.308   0.010
 9649SOL     OW29845   2.718   5.531   6.999
 9649SOL    HW129846   2.687   5.436   7.003
 9649SOL    HW229847   2.804   5.541   0.017
 9650SOL     OW29848   5.398   4.931   2.488
 9650SOL    HW129849   5.495   4.950   2.476
 9650SOL    HW229850   5.378   4.919   2.585
 9651SOL     OW29851   0.045   0.648   6.527
 9651SOL    HW129852   0.053   0.665   6.429
 9651SOL    HW229853   0.017   0.553   6.542
 9652SOL     OW29854   2.351   5.026   0.745
 9652SOL    HW129855   2.297   4.979   0.676
 9652SOL    HW229856   2.377   4.961   0.817
 9653SOL     OW29857   4.069   5.464   4.715
 9653SOL    HW129858   4.109   5.538   4.661
 9653SOL    HW229859   4.026   5.397   4.654
 9654SOL     OW29860   3.708   3.191   1.317
 9654SOL    HW129861   3.704   3.165   1.221
 9654SOL    HW229862   3.619   3.224   1.347
 9655SOL     OW29863   0.126   1.406   6.883
 9655SOL    HW129864   0.106   1.370   6.792
 9655SOL    HW229865   0.122   1.331   6.949
 9656SOL     OW29866   2.957   2.662   1.444
 9656SOL    HW129867   3.046   2.652   1.400
 9656SOL    HW229868   2.925   2.757   1.434
 9657SOL     OW29869   6.735   1.640   3.847
 9657SOL    HW129870   6.742   1.601   3.756
 9657SOL    HW229871   6.701   1.734   3.840
 9658SOL     OW29872   5.926   1.486   2.994
 9658SOL    HW129873   6.011   1.435   2.982
 9658SOL    HW229874   5.947   1.582   3.009
 9659SOL     OW29875   6.760   4.293   0.079
 9659SOL    HW129876   6.735   4.309   7.015
 9659SOL    HW229877   6.697   4.226   0.119
 9660SOL     OW29878   0.257   5.944   1.417
 9660SOL    HW129879   0.319   5.866   1.419
 9660SOL    HW229880   0.245   5.974   1.322
 9661SOL     OW29881   3.865   6.057   2.030
 9661SOL    HW129882   3.889   6.009   1.946
 9661SOL    HW229883   3.939   6.117   2.057
 9662SOL     OW29884   5.208   2.807   5.258
 9662SOL    HW129885   5.173   2.753   5.181
 9662SOL    HW229886   5.269   2.879   5.223
 9663SOL     OW29887   1.227   5.992   4.329
 9663SOL    HW129888   1.141   5.954   4.297
 9663SOL    HW229889   1.230   6.090   4.309
 9664SOL     OW29890   6.030   6.611   3.640
 9664SOL    HW129891   6.081   6.577   3.561
 9664SOL    HW229892   6.062   6.702   3.664
 9665SOL     OW29893   5.485   6.116   6.395
 9665SOL    HW129894   5.413   6.155   6.453
 9665SOL    HW229895   5.548   6.063   6.452
 9666SOL     OW29896   6.153   4.269   1.442
 9666SOL    HW129897   6.127   4.245   1.348
 9666SOL    HW229898   6.252   4.266   1.452
 9667SOL     OW29899   3.280   3.749   3.999
 9667SOL    HW129900   3.337   3.685   4.050
 9667SOL    HW229901   3.311   3.842   4.016
 9668SOL     OW29902   5.551   1.857   0.028
 9668SOL    HW129903   5.618   1.846   6.984
 9668SOL    HW229904   5.495   1.938   0.011
 9669SOL     OW29905   0.983   0.204   1.795
 9669SOL    HW129906   0.923   0.219   1.874
 9669SOL    HW229907   0.956   0.119   1.749
 9670SOL     OW29908   5.363   4.738   6.589
 9670SOL    HW129909   5.321   4.727   6.499
 9670SOL    HW229910   5.321   4.674   6.653
 9671SOL     OW29911   6.507   5.296   6.594
 9671SOL    HW129912   6.592   5.321   6.547
 9671SOL    HW229913   6.487   5.364   6.665
 9672SOL     OW29914   1.436   5.922   4.681
 9672SOL    HW129915   1.363   5.855   4.674
 9672SOL    HW229916   1.409   6.006   4.635
 9673SOL     OW29917   5.893   3.867   0.146
 9673SOL    HW129918   5.860   3.814   0.224
 9673SOL    HW229919   5.991   3.883   0.154
 9674SOL     OW29920   2.474   5.773   3.142
 9674SOL    HW129921   2.463   5.782   3.241
 9674SOL    HW229922   2.571   5.765   3.120
 9675SOL     OW29923   6.018   1.901   0.854
 9675SOL    HW129924   6.041   1.808   0.827
 9675SOL    HW229925   6.100   1.947   0.887
 9676SOL     OW29926   1.220   4.007   5.295
 9676SOL    HW129927   1.197   4.043   5.205
 9676SOL    HW229928   1.201   3.908   5.297
 9677SOL     OW29929   1.735   5.734   5.537
 9677SOL    HW129930   1.786   5.656   5.573
 9677SOL    HW229931   1.780   5.819   5.566
 9678SOL     OW29932   3.163   3.501   2.767
 9678SOL    HW129933   3.110   3.426   2.807
 9678SOL    HW229934   3.249   3.466   2.732
 9679SOL     OW29935   1.988   1.116   2.369
 9679SOL    HW129936   1.975   1.066   2.283
 9679SOL    HW229937   2.080   1.156   2.369
 9680SOL     OW29938   6.082   0.126   3.910
 9680SOL    HW129939   6.013   0.114   3.981
 9680SOL    HW229940   6.040   0.117   3.820
 9681SOL     OW29941   3.563   1.106   0.462
 9681SOL    HW129942   3.581   1.099   0.560
 9681SOL    HW229943   3.465   1.094   0.445
 9682SOL     OW29944   5.072   5.115   3.862
 9682SOL    HW129945   5.062   5.214   3.870
 9682SOL    HW229946   5.072   5.090   3.765
 9683SOL     OW29947   2.727   5.590   0.893
 9683SOL    HW129948   2.702   5.686   0.883
 9683SOL    HW229949   2.821   5.576   0.863
 9684SOL     OW29950   0.225   1.979   4.857
 9684SOL    HW129951   0.160   1.965   4.932
 9684SOL    HW229952   0.299   2.039   4.889
 9685SOL     OW29953   1.851   3.785   0.915
 9685SOL    HW129954   1.758   3.763   0.886
 9685SOL    HW229955   1.912   3.780   0.835
 9686SOL     OW29956   6.723   1.978   0.601
 9686SOL    HW129957   6.736   2.039   0.523
 9686SOL    HW229958   6.645   1.918   0.583
 9687SOL     OW29959   1.950   1.272   3.647
 9687SOL    HW129960   1.970   1.307   3.556
 9687SOL    HW229961   1.937   1.173   3.643
 9688SOL     OW29962   6.621   2.114   3.066
 9688SOL    HW129963   6.658   2.120   3.159
 9688SOL    HW229964   6.673   2.173   3.006
 9689SOL     OW29965   1.489   6.014   0.443
 9689SOL    HW129966   1.470   5.950   0.368
 9689SOL    HW229967   1.505   5.962   0.527
 9690SOL     OW29968   5.785   5.706   6.379
 9690SOL    HW129969   5.716   5.778   6.370
 9690SOL    HW229970   5.788   5.675   6.474
 9691SOL     OW29971   3.154   5.141   1.845
 9691SOL    HW129972   3.236   5.195   1.824
 9691SOL    HW229973   3.162   5.051   1.802
 9692SOL     OW29974   2.989   5.652   2.661
 9692SOL    HW129975   2.938   5.736   2.676
 9692SOL    HW229976   2.977   5.621   2.567
 9693SOL     OW29977   6.432   5.756   0.974
 9693SOL    HW129978   6.473   5.723   0.889
 9693SOL    HW229979   6.377   5.838   0.955
 9694SOL     OW29980   2.036   0.876   6.453
 9694SOL    HW129981   2.066   0.802   6.394
 9694SOL    HW229982   2.102   0.951   6.448
 9695SOL     OW29983   6.735   4.090   1.726
 9695SOL    HW129984   6.655   4.084   1.665
 9695SOL    HW229985   6.759   3.999   1.759
 9696SOL     OW29986   5.199   2.546   0.898
 9696SOL    HW129987   5.133   2.603   0.850
 9696SOL    HW229988   5.150   2.483   0.959
 9697SOL     OW29989   0.189   6.293   6.937
 9697SOL    HW129990   0.266   6.244   6.978
 9697SOL    HW229991   0.207   6.391   6.936
 9698SOL     OW29992   5.044   2.126   6.030
 9698SOL    HW129993   5.065   2.050   6.092
 9698SOL    HW229994   5.128   2.177   6.010
 9699SOL     OW29995   0.230   4.309   6.725
 9699SOL    HW129996   0.179   4.385   6.765
 9699SOL    HW229997   0.313   4.343   6.682
 9700SOL     OW29998   4.404   5.189   5.163
 9700SOL    HW129999   4.449   5.100   5.167
 9700SOL    HW230000   4.311   5.177   5.126
 9701SOL     OW30001   3.889   5.055   4.894
 9701SOL    HW130002   3.863   5.147   4.863
 9701SOL    HW230003   3.985   5.039   4.871
 9702SOL     OW30004   4.797   0.881   0.028
 9702SOL    HW130005   4.861   0.863   6.984
 9702SOL    HW230006   4.705   0.893   7.020
 9703SOL     OW30007   4.035   5.172   4.339
 9703SOL    HW130008   3.999   5.079   4.352
 9703SOL    HW230009   4.010   5.205   4.249
 9704SOL     OW30010   2.927   1.183   2.907
 9704SOL    HW130011   3.010   1.131   2.924
 9704SOL    HW230012   2.864   1.130   2.850
 9705SOL     OW30013   4.732   5.785   6.492
 9705SOL    HW130014   4.744   5.865   6.552
 9705SOL    HW230015   4.654   5.802   6.431
 9706SOL     OW30016   0.574   2.599   0.671
 9706SOL    HW130017   0.494   2.540   0.659
 9706SOL    HW230018   0.564   2.652   0.755
 9707SOL     OW30019   6.384   4.471   1.150
 9707SOL    HW130020   6.451   4.516   1.091
 9707SOL    HW230021   6.329   4.407   1.096
 9708SOL     OW30022   1.034   2.486   2.633
 9708SOL    HW130023   1.092   2.518   2.558
 9708SOL    HW230024   0.940   2.477   2.601
 9709SOL     OW30025   6.036   5.935   2.197
 9709SOL    HW130026   6.042   5.944   2.296
 9709SOL    HW230027   6.016   5.840   2.172
 9710SOL     OW30028   0.603   1.572   2.237
 9710SOL    HW130029   0.518   1.610   2.201
 9710SOL    HW230030   0.634   1.629   2.313
 9711SOL     OW30031   1.806   3.977   5.858
 9711SOL    HW130032   1.808   3.886   5.818
 9711SOL    HW230033   1.752   3.974   5.943
 9712SOL     OW30034   6.215   4.505   5.617
 9712SOL    HW130035   6.224   4.603   5.597
 9712SOL    HW230036   6.244   4.487   5.711
 9713SOL     OW30037   1.229   5.103   3.712
 9713SOL    HW130038   1.256   5.007   3.705
 9713SOL    HW230039   1.133   5.109   3.739
 9714SOL     OW30040   2.919   1.304   1.778
 9714SOL    HW130041   2.934   1.395   1.818
 9714SOL    HW230042   2.838   1.263   1.819
 9715SOL     OW30043   5.486   4.404   6.423
 9715SOL    HW130044   5.464   4.366   6.513
 9715SOL    HW230045   5.553   4.346   6.378
 9716SOL     OW30046   4.135   2.767   6.089
 9716SOL    HW130047   4.214   2.717   6.054
 9716SOL    HW230048   4.160   2.815   6.173
 9717SOL     OW30049   6.035   5.093   5.529
 9717SOL    HW130050   6.126   5.090   5.570
 9717SOL    HW230051   6.043   5.103   5.430
 9718SOL     OW30052   4.949   2.741   1.760
 9718SOL    HW130053   4.941   2.793   1.845
 9718SOL    HW230054   4.880   2.773   1.695
 9719SOL     OW30055   0.281   1.746   6.890
 9719SOL    HW130056   0.298   1.674   6.958
 9719SOL    HW230057   0.343   1.823   6.907
 9720SOL     OW30058   7.005   5.943   2.085
 9720SOL    HW130059   7.003   5.989   2.174
 9720SOL    HW230060   6.993   5.844   2.099
 9721SOL     OW30061   0.559   3.470   1.037
 9721SOL    HW130062   0.594   3.377   1.041
 9721SOL    HW230063   0.624   3.532   1.082
 9722SOL     OW30064   0.627   0.478   3.650
 9722SOL    HW130065   0.694   0.404   3.651
 9722SOL    HW230066   0.674   0.566   3.654
 9723SOL     OW30067   2.052   6.103   3.639
 9723SOL    HW130068   2.082   6.122   3.546
 9723SOL    HW230069   2.118   6.139   3.705
 9724SOL     OW30070   2.370   3.536   0.274
 9724SOL    HW130071   2.339   3.603   0.341
 9724SOL    HW230072   2.434   3.473   0.317
 9725SOL     OW30073   4.125   4.538   6.732
 9725SOL    HW130074   4.193   4.520   6.661
 9725SOL    HW230075   4.098   4.452   6.776
 9726SOL     OW30076   4.820   0.334   3.864
 9726SOL    HW130077   4.806   0.239   3.893
 9726SOL    HW230078   4.911   0.364   3.891
 9727SOL     OW30079   0.630   3.494   5.038
 9727SOL    HW130080   0.647   3.520   4.943
 9727SOL    HW230081   0.636   3.394   5.047
 9728SOL     OW30082   0.204   0.146   5.542
 9728SOL    HW130083   0.132   0.210   5.565
 9728SOL    HW230084   0.180   0.096   5.459
 9729SOL     OW30085   1.039   4.436   2.780
 9729SOL    HW130086   1.050   4.346   2.738
 9729SOL    HW230087   1.015   4.425   2.876
 9730SOL     OW30088   0.122   3.189   2.770
 9730SOL    HW130089   0.197   3.217   2.711
 9730SOL    HW230090   0.154   3.183   2.864
 9731SOL     OW30091   4.469   3.766   0.816
 9731SOL    HW130092   4.396   3.750   0.750
 9731SOL    HW230093   4.481   3.684   0.873
 9732SOL     OW30094   5.513   5.837   3.422
 9732SOL    HW130095   5.458   5.784   3.488
 9732SOL    HW230096   5.481   5.817   3.330
 9733SOL     OW30097   5.240   5.181   6.994
 9733SOL    HW130098   5.239   5.231   6.907
 9733SOL    HW230099   5.230   5.245   0.039
 9734SOL     OW30100   5.554   1.662   3.247
 9734SOL    HW130101   5.593   1.572   3.266
 9734SOL    HW230102   5.625   1.732   3.252
 9735SOL     OW30103   1.829   4.769   3.120
 9735SOL    HW130104   1.910   4.724   3.157
 9735SOL    HW230105   1.751   4.707   3.125
 9736SOL     OW30106   5.821   2.032   6.158
 9736SOL    HW130107   5.775   2.085   6.087
 9736SOL    HW230108   5.878   2.092   6.213
 9737SOL     OW30109   6.664   3.115   4.839
 9737SOL    HW130110   6.624   3.052   4.905
 9737SOL    HW230111   6.721   3.182   4.887
 9738SOL     OW30112   2.208   7.008   2.945
 9738SOL    HW130113   2.273   7.006   3.021
 9738SOL    HW230114   2.115   7.002   2.980
 9739SOL     OW30115   6.546   5.572   2.209
 9739SOL    HW130116   6.627   5.579   2.151
 9739SOL    HW230117   6.573   5.572   2.305
 9740SOL     OW30118   6.424   2.371   3.936
 9740SOL    HW130119   6.389   2.349   4.027
 9740SOL    HW230120   6.350   2.361   3.869
 9741SOL     OW30121   4.853   1.780   2.745
 9741SOL    HW130122   4.809   1.848   2.686
 9741SOL    HW230123   4.796   1.698   2.749
 9742SOL     OW30124   3.804   0.243   1.852
 9742SOL    HW130125   3.778   0.198   1.938
 9742SOL    HW230126   3.806   0.342   1.866
 9743SOL     OW30127   1.466   1.367   4.403
 9743SOL    HW130128   1.418   1.454   4.398
 9743SOL    HW230129   1.560   1.382   4.434
 9744SOL     OW30130   0.698   0.394   3.055
 9744SOL    HW130131   0.645   0.377   2.973
 9744SOL    HW230132   0.795   0.379   3.036
 9745SOL     OW30133   6.425   3.087   6.100
 9745SOL    HW130134   6.477   3.049   6.176
 9745SOL    HW230135   6.478   3.162   6.058
 9746SOL     OW30136   6.415   1.017   6.192
 9746SOL    HW130137   6.430   1.115   6.210
 9746SOL    HW230138   6.499   0.976   6.158
 9747SOL     OW30139   1.852   0.530   1.973
 9747SOL    HW130140   1.941   0.565   2.003
 9747SOL    HW230141   1.848   0.431   1.987
 9748SOL     OW30142   0.931   1.209   3.393
 9748SOL    HW130143   1.005   1.240   3.453
 9748SOL    HW230144   0.960   1.218   3.298
 9749SOL     OW30145   2.120   1.398   5.025
 9749SOL    HW130146   2.058   1.464   5.068
 9749SOL    HW230147   2.116   1.409   4.926
 9750SOL     OW30148   5.410   4.668   3.320
 9750SOL    HW130149   5.450   4.597   3.379
 9750SOL    HW230150   5.361   4.734   3.376
 9751SOL     OW30151   1.848   1.224   0.722
 9751SOL    HW130152   1.788   1.235   0.801
 9751SOL    HW230153   1.809   1.274   0.644
 9752SOL     OW30154   5.084   1.433   7.011
 9752SOL    HW130155   5.171   1.418   0.027
 9752SOL    HW230156   5.033   1.505   0.027
 9753SOL     OW30157   5.905   4.900   5.045
 9753SOL    HW130158   5.937   4.895   5.140
 9753SOL    HW230159   5.805   4.897   5.044
 9754SOL     OW30160   0.853   1.459   6.638
 9754SOL    HW130161   0.774   1.488   6.692
 9754SOL    HW230162   0.874   1.363   6.658
 9755SOL     OW30163   4.055   3.715   5.183
 9755SOL    HW130164   3.990   3.646   5.216
 9755SOL    HW230165   4.143   3.702   5.228
 9756SOL     OW30166   6.158   3.181   0.400
 9756SOL    HW130167   6.132   3.092   0.438
 9756SOL    HW230168   6.146   3.180   0.301
 9757SOL     OW30169   5.670   3.539   3.578
 9757SOL    HW130170   5.588   3.574   3.533
 9757SOL    HW230171   5.684   3.588   3.664
 9758SOL     OW30172   2.785   0.008   7.021
 9758SOL    HW130173   2.705   0.053   0.030
 9758SOL    HW230174   2.805   6.954   0.040
 9759SOL     OW30175   2.371   6.972   6.895
 9759SOL    HW130176   2.410   6.932   6.978
 9759SOL    HW230177   2.443   6.989   6.828
 9760SOL     OW30178   4.522   3.477   5.318
 9760SOL    HW130179   4.602   3.519   5.275
 9760SOL    HW230180   4.543   3.381   5.340
 9761SOL     OW30181   6.070   6.628   1.546
 9761SOL    HW130182   5.998   6.567   1.514
 9761SOL    HW230183   6.082   6.617   1.645
 9762SOL     OW30184   2.563   2.559   4.476
 9762SOL    HW130185   2.596   2.555   4.381
 9762SOL    HW230186   2.628   2.513   4.536
 9763SOL     OW30187   4.302   2.191   1.709
 9763SOL    HW130188   4.302   2.131   1.789
 9763SOL    HW230189   4.375   2.162   1.646
 9764SOL     OW30190   0.823   2.546   2.963
 9764SOL    HW130191   0.880   2.466   2.943
 9764SOL    HW230192   0.775   2.574   2.880
 9765SOL     OW30193   6.456   1.895   3.069
 9765SOL    HW130194   6.499   1.984   3.080
 9765SOL    HW230195   6.472   1.862   2.976
 9766SOL     OW30196   2.744   0.506   3.150
 9766SOL    HW130197   2.825   0.450   3.167
 9766SOL    HW230198   2.747   0.544   3.057
 9767SOL     OW30199   5.087   2.155   5.039
 9767SOL    HW130200   5.178   2.121   5.062
 9767SOL    HW230201   5.031   2.159   5.122
 9768SOL     OW30202   4.458   1.599   2.193
 9768SOL    HW130203   4.433   1.626   2.100
 9768SOL    HW230204   4.515   1.670   2.235
 9769SOL     OW30205   1.705   1.388   2.127
 9769SOL    HW130206   1.756   1.450   2.068
 9769SOL    HW230207   1.746   1.389   2.219
 9770SOL     OW30208   5.466   0.292   6.772
 9770SOL    HW130209   5.564   0.292   6.791
 9770SOL    HW230210   5.439   0.381   6.735
 9771SOL     OW30211   3.619   4.952   1.503
 9771SOL    HW130212   3.673   4.869   1.511
 9771SOL    HW230213   3.550   4.953   1.576
 9772SOL     OW30214   1.341   6.248   2.530
 9772SOL    HW130215   1.262   6.186   2.534
 9772SOL    HW230216   1.312   6.340   2.555
 9773SOL     OW30217   5.708   6.798   4.242
 9773SOL    HW130218   5.653   6.720   4.274
 9773SOL    HW230219   5.801   6.789   4.278
 9774SOL     OW30220   6.507   4.984   2.218
 9774SOL    HW130221   6.424   4.965   2.164
 9774SOL    HW230222   6.526   5.082   2.215
 9775SOL     OW30223   3.230   1.447   3.494
 9775SOL    HW130224   3.205   1.431   3.398
 9775SOL    HW230225   3.218   1.544   3.516
 9776SOL     OW30226   6.946   5.563   4.340
 9776SOL    HW130227   6.970   5.466   4.344
 9776SOL    HW230228   7.011   5.612   4.283
 9777SOL     OW30229   5.896   5.122   6.489
 9777SOL    HW130230   5.835   5.048   6.515
 9777SOL    HW230231   5.978   5.119   6.546
 9778SOL     OW30232   0.077   0.762   3.647
 9778SOL    HW130233   0.102   0.668   3.670
 9778SOL    HW230234   0.160   0.818   3.639
 9779SOL     OW30235   2.084   1.457   4.762
 9779SOL    HW130236   2.174   1.495   4.742
 9779SOL    HW230237   2.013   1.523   4.737
 9780SOL     OW30238   2.587   2.256   1.188
 9780SOL    HW130239   2.513   2.246   1.254
 9780SOL    HW230240   2.551   2.296   1.103
 9781SOL     OW30241   0.966   3.820   3.678
 9781SOL    HW130242   0.971   3.916   3.649
 9781SOL    HW230243   0.870   3.792   3.683
 9782SOL     OW30244   6.812   0.650   1.516
 9782SOL    HW130245   6.751   0.593   1.461
 9782SOL    HW230246   6.815   0.742   1.479
 9783SOL     OW30247   4.884   2.209   2.241
 9783SOL    HW130248   4.794   2.218   2.197
 9783SOL    HW230249   4.950   2.174   2.175
 9784SOL     OW30250   4.116   1.497   3.864
 9784SOL    HW130251   4.055   1.488   3.786
 9784SOL    HW230252   4.201   1.448   3.844
 9785SOL     OW30253   0.096   4.330   5.116
 9785SOL    HW130254   0.014   4.307   5.063
 9785SOL    HW230255   0.070   4.392   5.191
 9786SOL     OW30256   2.360   4.821   6.466
 9786SOL    HW130257   2.444   4.875   6.473
 9786SOL    HW230258   2.358   4.773   6.379
 9787SOL     OW30259   4.922   3.562   1.645
 9787SOL    HW130260   4.879   3.479   1.680
 9787SOL    HW230261   4.866   3.600   1.571
 9788SOL     OW30262   0.750   0.720   3.591
 9788SOL    HW130263   0.809   0.674   3.525
 9788SOL    HW230264   0.798   0.797   3.632
 9789SOL     OW30265   1.446   5.919   6.943
 9789SOL    HW130266   1.385   5.840   6.940
 9789SOL    HW230267   1.410   5.991   6.884
 9790SOL     OW30268   5.754   3.952   5.831
 9790SOL    HW130269   5.663   3.985   5.803
 9790SOL    HW230270   5.789   3.890   5.761
 9791SOL     OW30271   0.335   1.211   3.171
 9791SOL    HW130272   0.286   1.212   3.258
 9791SOL    HW230273   0.432   1.232   3.187
 9792SOL     OW30274   5.169   5.673   1.442
 9792SOL    HW130275   5.256   5.655   1.488
 9792SOL    HW230276   5.131   5.587   1.408
 9793SOL     OW30277   5.245   5.143   3.397
 9793SOL    HW130278   5.194   5.119   3.314
 9793SOL    HW230279   5.343   5.149   3.375
 9794SOL     OW30280   6.205   4.030   6.512
 9794SOL    HW130281   6.135   4.050   6.443
 9794SOL    HW230282   6.162   4.017   6.601
 9795SOL     OW30283   1.506   1.893   4.176
 9795SOL    HW130284   1.508   1.807   4.125
 9795SOL    HW230285   1.600   1.922   4.197
 9796SOL     OW30286   3.976   3.489   0.735
 9796SOL    HW130287   4.044   3.472   0.806
 9796SOL    HW230288   3.884   3.488   0.775
 9797SOL     OW30289   3.276   4.481   6.536
 9797SOL    HW130290   3.330   4.468   6.453
 9797SOL    HW230291   3.324   4.545   6.596
 9798SOL     OW30292   2.318   0.979   0.670
 9798SOL    HW130293   2.221   0.992   0.648
 9798SOL    HW230294   2.373   1.033   0.607
 9799SOL     OW30295   3.363   3.390   3.053
 9799SOL    HW130296   3.283   3.447   3.036
 9799SOL    HW230297   3.415   3.426   3.130
 9800SOL     OW30298   3.028   6.422   5.299
 9800SOL    HW130299   2.983   6.411   5.210
 9800SOL    HW230300   3.046   6.518   5.316
 9801SOL     OW30301   4.424   4.794   0.699
 9801SOL    HW130302   4.445   4.875   0.644
 9801SOL    HW230303   4.366   4.732   0.646
 9802SOL     OW30304   0.202   2.731   2.285
 9802SOL    HW130305   0.272   2.690   2.227
 9802SOL    HW230306   0.155   2.804   2.235
 9803SOL     OW30307   6.031   1.463   6.983
 9803SOL    HW130308   6.019   1.496   0.045
 9803SOL    HW230309   6.127   1.476   6.954
 9804SOL     OW30310   0.523   5.887   3.385
 9804SOL    HW130311   0.589   5.960   3.369
 9804SOL    HW230312   0.570   5.805   3.418
 9805SOL     OW30313   1.277   5.657   6.078
 9805SOL    HW130314   1.249   5.610   5.994
 9805SOL    HW230315   1.237   5.610   6.157
 9806SOL     OW30316   1.149   1.810   0.745
 9806SOL    HW130317   1.100   1.729   0.777
 9806SOL    HW230318   1.110   1.891   0.789
 9807SOL     OW30319   2.183   2.446   6.790
 9807SOL    HW130320   2.112   2.386   6.827
 9807SOL    HW230321   2.273   2.414   6.820
 9808SOL     OW30322   5.502   0.917   5.670
 9808SOL    HW130323   5.443   0.989   5.635
 9808SOL    HW230324   5.557   0.951   5.746
 9809SOL     OW30325   0.733   1.578   6.042
 9809SOL    HW130326   0.774   1.643   6.106
 9809SOL    HW230327   0.695   1.500   6.092
 9810SOL     OW30328   2.761   2.383   3.472
 9810SOL    HW130329   2.681   2.443   3.475
 9810SOL    HW230330   2.825   2.410   3.545
 9811SOL     OW30331   5.924   5.686   3.781
 9811SOL    HW130332   5.937   5.688   3.881
 9811SOL    HW230333   5.980   5.613   3.742
 9812SOL     OW30334   3.287   2.547   6.090
 9812SOL    HW130335   3.280   2.647   6.087
 9812SOL    HW230336   3.291   2.511   5.997
 9813SOL     OW30337   5.727   6.184   6.604
 9813SOL    HW130338   5.732   6.257   6.536
 9813SOL    HW230339   5.819   6.154   6.627
 9814SOL     OW30340   0.902   1.185   6.629
 9814SOL    HW130341   0.951   1.103   6.600
 9814SOL    HW230342   0.878   1.239   6.548
 9815SOL     OW30343   6.796   2.184   1.841
 9815SOL    HW130344   6.714   2.149   1.796
 9815SOL    HW230345   6.789   2.169   1.940
 9816SOL     OW30346   6.258   1.564   6.865
 9816SOL    HW130347   6.337   1.518   6.825
 9816SOL    HW230348   6.210   1.615   6.794
 9817SOL     OW30349   3.077   5.750   1.949
 9817SOL    HW130350   3.023   5.756   1.865
 9817SOL    HW230351   3.030   5.796   2.024
 9818SOL     OW30352   1.579   1.310   3.523
 9818SOL    HW130353   1.542   1.266   3.605
 9818SOL    HW230354   1.653   1.372   3.550
 9819SOL     OW30355   4.918   3.409   5.213
 9819SOL    HW130356   4.935   3.420   5.311
 9819SOL    HW230357   4.860   3.484   5.181
 9820SOL     OW30358   3.410   2.811   6.542
 9820SOL    HW130359   3.452   2.749   6.475
 9820SOL    HW230360   3.432   2.906   6.517
 9821SOL     OW30361   4.200   1.854   0.984
 9821SOL    HW130362   4.125   1.900   1.032
 9821SOL    HW230363   4.210   1.893   0.892
 9822SOL     OW30364   3.618   5.451   4.034
 9822SOL    HW130365   3.613   5.513   4.112
 9822SOL    HW230366   3.709   5.456   3.993
 9823SOL     OW30367   1.353   0.319   2.071
 9823SOL    HW130368   1.399   0.381   2.007
 9823SOL    HW230369   1.392   0.228   2.063
 9824SOL     OW30370   2.083   5.890   5.629
 9824SOL    HW130371   2.011   5.933   5.574
 9824SOL    HW230372   2.117   5.809   5.582
 9825SOL     OW30373   5.976   5.852   4.910
 9825SOL    HW130374   5.986   5.806   4.998
 9825SOL    HW230375   5.941   5.787   4.843
 9826SOL     OW30376   3.405   6.181   5.284
 9826SOL    HW130377   3.490   6.169   5.233
 9826SOL    HW230378   3.344   6.243   5.234
 9827SOL     OW30379   2.031   4.622   3.233
 9827SOL    HW130380   2.129   4.640   3.236
 9827SOL    HW230381   2.010   4.540   3.286
 9828SOL     OW30382   3.402   2.151   5.155
 9828SOL    HW130383   3.321   2.199   5.119
 9828SOL    HW230384   3.407   2.060   5.115
 9829SOL     OW30385   4.807   6.066   6.250
 9829SOL    HW130386   4.794   5.980   6.200
 9829SOL    HW230387   4.844   6.135   6.188
 9830SOL     OW30388   5.424   1.278   1.992
 9830SOL    HW130389   5.504   1.324   1.954
 9830SOL    HW230390   5.405   1.314   2.084
 9831SOL     OW30391   0.762   4.551   1.398
 9831SOL    HW130392   0.776   4.585   1.491
 9831SOL    HW230393   0.772   4.452   1.396
 9832SOL     OW30394   4.493   5.321   3.858
 9832SOL    HW130395   4.519   5.415   3.837
 9832SOL    HW230396   4.407   5.299   3.811
 9833SOL     OW30397   3.484   3.442   3.533
 9833SOL    HW130398   3.508   3.488   3.618
 9833SOL    HW230399   3.567   3.405   3.491
 9834SOL     OW30400   2.105   4.991   5.808
 9834SOL    HW130401   2.161   4.942   5.874
 9834SOL    HW230402   2.011   4.956   5.810
 9835SOL     OW30403   3.701   2.937   4.145
 9835SOL    HW130404   3.641   2.974   4.215
 9835SOL    HW230405   3.646   2.899   4.071
 9836SOL     OW30406   0.418   4.325   4.583
 9836SOL    HW130407   0.405   4.291   4.676
 9836SOL    HW230408   0.516   4.328   4.562
 9837SOL     OW30409   5.560   1.643   2.549
 9837SOL    HW130410   5.489   1.714   2.547
 9837SOL    HW230411   5.523   1.560   2.590
 9838SOL     OW30412   1.534   6.955   1.117
 9838SOL    HW130413   1.452   6.948   1.174
 9838SOL    HW230414   1.529   6.888   1.043
 9839SOL     OW30415   4.430   0.539   3.357
 9839SOL    HW130416   4.411   0.494   3.444
 9839SOL    HW230417   4.344   0.572   3.317
 9840SOL     OW30418   4.539   2.094   0.100
 9840SOL    HW130419   4.477   2.171   0.087
 9840SOL    HW230420   4.624   2.111   0.050
 9841SOL     OW30421   0.946   4.976   3.659
 9841SOL    HW130422   0.920   5.055   3.605
 9841SOL    HW230423   0.900   4.979   3.748
 9842SOL     OW30424   3.729   3.391   0.334
 9842SOL    HW130425   3.739   3.296   0.364
 9842SOL    HW230426   3.801   3.412   0.267
 9843SOL     OW30427   6.703   0.528   2.067
 9843SOL    HW130428   6.711   0.440   2.114
 9843SOL    HW230429   6.787   0.580   2.079
 9844SOL     OW30430   6.166   0.500   4.190
 9844SOL    HW130431   6.228   0.422   4.183
 9844SOL    HW230432   6.218   0.582   4.215
 9845SOL     OW30433   0.589   2.566   3.128
 9845SOL    HW130434   0.670   2.510   3.113
 9845SOL    HW230435   0.582   2.637   3.058
 9846SOL     OW30436   4.952   1.338   0.429
 9846SOL    HW130437   4.897   1.417   0.402
 9846SOL    HW230438   4.932   1.262   0.367
 9847SOL     OW30439   4.104   3.301   2.039
 9847SOL    HW130440   4.060   3.357   1.969
 9847SOL    HW230441   4.104   3.350   2.126
 9848SOL     OW30442   3.511   4.597   5.282
 9848SOL    HW130443   3.526   4.512   5.333
 9848SOL    HW230444   3.416   4.626   5.291
 9849SOL     OW30445   0.691   6.870   6.542
 9849SOL    HW130446   0.707   6.968   6.527
 9849SOL    HW230447   0.755   6.836   6.611
 9850SOL     OW30448   6.950   0.280   3.701
 9850SOL    HW130449   6.937   0.327   3.788
 9850SOL    HW230450   6.977   0.346   3.630
 9851SOL     OW30451   3.172   6.092   4.431
 9851SOL    HW130452   3.253   6.035   4.447
 9851SOL    HW230453   3.091   6.043   4.461
 9852SOL     OW30454   1.325   1.768   5.434
 9852SOL    HW130455   1.332   1.807   5.526
 9852SOL    HW230456   1.404   1.796   5.380
 9853SOL     OW30457   6.933   3.423   4.932
 9853SOL    HW130458   6.876   3.501   4.957
 9853SOL    HW230459   6.922   3.350   4.999
 9854SOL     OW30460   0.772   5.329   4.958
 9854SOL    HW130461   0.869   5.304   4.953
 9854SOL    HW230462   0.734   5.298   5.045
 9855SOL     OW30463   1.122   3.593   1.026
 9855SOL    HW130464   1.085   3.614   0.935
 9855SOL    HW230465   1.106   3.670   1.087
 9856SOL     OW30466   5.785   4.551   4.248
 9856SOL    HW130467   5.877   4.573   4.281
 9856SOL    HW230468   5.720   4.560   4.323
 9857SOL     OW30469   5.485   2.838   3.227
 9857SOL    HW130470   5.406   2.847   3.288
 9857SOL    HW230471   5.458   2.861   3.134
 9858SOL     OW30472   1.220   7.004   1.627
 9858SOL    HW130473   1.138   7.001   1.684
 9858SOL    HW230474   1.234   6.915   1.584
 9859SOL     OW30475   6.543   4.977   4.888
 9859SOL    HW130476   6.639   4.950   4.893
 9859SOL    HW230477   6.528   5.033   4.806
 9860SOL     OW30478   1.910   1.926   5.006
 9860SOL    HW130479   1.906   2.011   5.059
 9860SOL    HW230480   1.991   1.927   4.947
 9861SOL     OW30481   3.135   1.011   3.901
 9861SOL    HW130482   3.215   1.067   3.920
 9861SOL    HW230483   3.162   0.930   3.849
 9862SOL     OW30484   2.885   4.122   0.928
 9862SOL    HW130485   2.930   4.050   0.980
 9862SOL    HW230486   2.835   4.082   0.851
 9863SOL     OW30487   3.294   5.841   1.343
 9863SOL    HW130488   3.318   5.878   1.253
 9863SOL    HW230489   3.195   5.825   1.347
 9864SOL     OW30490   2.975   6.803   5.660
 9864SOL    HW130491   2.990   6.781   5.756
 9864SOL    HW230492   3.048   6.865   5.629
 9865SOL     OW30493   0.516   6.616   5.071
 9865SOL    HW130494   0.540   6.674   4.994
 9865SOL    HW230495   0.467   6.535   5.038
 9866SOL     OW30496   6.041   4.210   4.933
 9866SOL    HW130497   6.112   4.193   5.002
 9866SOL    HW230498   6.084   4.226   4.845
 9867SOL     OW30499   5.686   2.267   2.913
 9867SOL    HW130500   5.641   2.348   2.875
 9867SOL    HW230501   5.651   2.186   2.867
 9868SOL     OW30502   0.478   3.830   3.787
 9868SOL    HW130503   0.546   3.870   3.850
 9868SOL    HW230504   0.452   3.739   3.819
 9869SOL     OW30505   0.279   2.706   1.189
 9869SOL    HW130506   0.337   2.678   1.265
 9869SOL    HW230507   0.289   2.641   1.114
 9870SOL     OW30508   4.430   1.080   2.199
 9870SOL    HW130509   4.527   1.054   2.200
 9870SOL    HW230510   4.399   1.095   2.293
 9871SOL     OW30511   0.022   2.903   6.233
 9871SOL    HW130512   0.001   2.874   6.326
 9871SOL    HW230513   0.107   2.957   6.234
 9872SOL     OW30514   2.190   5.264   5.199
 9872SOL    HW130515   2.172   5.184   5.257
 9872SOL    HW230516   2.104   5.294   5.157
 9873SOL     OW30517   2.023   2.264   5.793
 9873SOL    HW130518   1.956   2.262   5.718
 9873SOL    HW230519   2.114   2.284   5.756
 9874SOL     OW30520   0.589   3.017   4.323
 9874SOL    HW130521   0.547   3.081   4.388
 9874SOL    HW230522   0.603   3.063   4.235
 9875SOL     OW30523   6.929   6.038   1.615
 9875SOL    HW130524   6.964   5.946   1.635
 9875SOL    HW230525   6.906   6.084   1.700
 9876SOL     OW30526   4.377   0.201   3.843
 9876SOL    HW130527   4.410   0.114   3.879
 9876SOL    HW230528   4.348   0.190   3.748
 9877SOL     OW30529   6.927   4.316   4.062
 9877SOL    HW130530   6.907   4.338   3.967
 9877SOL    HW230531   7.001   4.376   4.095
 9878SOL     OW30532   1.801   3.444   6.746
 9878SOL    HW130533   1.794   3.388   6.829
 9878SOL    HW230534   1.856   3.395   6.678
 9879SOL     OW30535   0.750   4.768   5.924
 9879SOL    HW130536   0.770   4.672   5.906
 9879SOL    HW230537   0.816   4.826   5.876
 9880SOL     OW30538   2.633   1.034   0.133
 9880SOL    HW130539   2.698   1.009   0.061
 9880SOL    HW230540   2.659   1.122   0.173
 9881SOL     OW30541   5.453   0.392   4.567
 9881SOL    HW130542   5.471   0.354   4.476
 9881SOL    HW230543   5.472   0.491   4.566
 9882SOL     OW30544   3.462   3.522   4.420
 9882SOL    HW130545   3.464   3.442   4.480
 9882SOL    HW230546   3.412   3.596   4.464
 9883SOL     OW30547   1.935   6.193   1.782
 9883SOL    HW130548   1.892   6.126   1.721
 9883SOL    HW230549   1.956   6.149   1.869
 9884SOL     OW30550   2.658   3.068   7.000
 9884SOL    HW130551   2.665   3.166   6.980
 9884SOL    HW230552   2.564   3.045   7.022
 9885SOL     OW30553   0.945   3.174   3.931
 9885SOL    HW130554   0.878   3.204   3.863
 9885SOL    HW230555   1.020   3.127   3.885
 9886SOL     OW30556   6.188   6.705   1.826
 9886SOL    HW130557   6.196   6.805   1.827
 9886SOL    HW230558   6.126   6.675   1.899
 9887SOL     OW30559   3.782   0.146   0.464
 9887SOL    HW130560   3.689   0.109   0.465
 9887SOL    HW230561   3.800   0.185   0.373
 9888SOL     OW30562   6.061   5.847   3.259
 9888SOL    HW130563   5.992   5.919   3.248
 9888SOL    HW230564   6.017   5.758   3.258
 9889SOL     OW30565   0.470   4.811   2.773
 9889SOL    HW130566   0.533   4.888   2.766
 9889SOL    HW230567   0.469   4.776   2.867
 9890SOL     OW30568   6.454   2.963   0.487
 9890SOL    HW130569   6.551   2.937   0.489
 9890SOL    HW230570   6.438   3.038   0.551
 9891SOL     OW30571   5.451   5.104   1.319
 9891SOL    HW130572   5.502   5.169   1.262
 9891SOL    HW230573   5.451   5.135   1.414
 9892SOL     OW30574   2.103   5.001   3.795
 9892SOL    HW130575   2.126   4.980   3.890
 9892SOL    HW230576   2.152   4.938   3.734
 9893SOL     OW30577   6.686   5.583   2.816
 9893SOL    HW130578   6.734   5.639   2.883
 9893SOL    HW230579   6.588   5.596   2.825
 9894SOL     OW30580   2.632   1.958   6.082
 9894SOL    HW130581   2.588   2.044   6.107
 9894SOL    HW230582   2.702   1.935   6.150
 9895SOL     OW30583   5.946   2.329   6.320
 9895SOL    HW130584   5.949   2.407   6.382
 9895SOL    HW230585   6.035   2.320   6.275
 9896SOL     OW30586   4.119   3.018   0.752
 9896SOL    HW130587   4.168   3.030   0.665
 9896SOL    HW230588   4.023   2.997   0.734
 9897SOL     OW30589   5.386   1.061   2.867
 9897SOL    HW130590   5.311   1.124   2.885
 9897SOL    HW230591   5.383   0.986   2.933
 9898SOL     OW30592   0.795   4.778   5.319
 9898SOL    HW130593   0.782   4.681   5.301
 9898SOL    HW230594   0.769   4.799   5.413
 9899SOL     OW30595   5.940   4.333   2.130
 9899SOL    HW130596   5.981   4.424   2.126
 9899SOL    HW230597   6.013   4.264   2.127
 9900SOL     OW30598   1.744   1.912   2.792
 9900SOL    HW130599   1.770   1.821   2.760
 9900SOL    HW230600   1.686   1.957   2.724
 9901SOL     OW30601   1.251   1.859   6.740
 9901SOL    HW130602   1.177   1.926   6.746
 9901SOL    HW230603   1.258   1.809   6.827
 9902SOL     OW30604   3.722   3.121   0.420
 9902SOL    HW130605   3.625   3.103   0.434
 9902SOL    HW230606   3.746   3.104   0.325
 9903SOL     OW30607   4.797   6.974   2.275
 9903SOL    HW130608   4.817   6.963   2.178
 9903SOL    HW230609   4.739   0.024   2.288
 9904SOL     OW30610   0.469   3.882   6.862
 9904SOL    HW130611   0.424   3.970   6.873
 9904SOL    HW230612   0.488   3.866   6.765
 9905SOL     OW30613   1.849   6.414   0.429
 9905SOL    HW130614   1.788   6.341   0.461
 9905SOL    HW230615   1.800   6.472   0.364
 9906SOL     OW30616   1.274   2.992   6.598
 9906SOL    HW130617   1.315   3.040   6.520
 9906SOL    HW230618   1.226   3.058   6.656
 9907SOL     OW30619   2.764   6.234   3.462
 9907SOL    HW130620   2.691   6.274   3.408
 9907SOL    HW230621   2.775   6.138   3.437
 9908SOL     OW30622   0.543   3.084   6.460
 9908SOL    HW130623   0.463   3.043   6.417
 9908SOL    HW230624   0.603   3.124   6.391
 9909SOL     OW30625   3.749   1.060   3.028
 9909SOL    HW130626   3.711   0.975   3.066
 9909SOL    HW230627   3.675   1.124   3.009
 9910SOL     OW30628   0.189   4.863   1.634
 9910SOL    HW130629   0.133   4.783   1.654
 9910SOL    HW230630   0.274   4.835   1.589
 9911SOL     OW30631   5.056   5.167   2.938
 9911SOL    HW130632   5.075   5.205   3.028
 9911SOL    HW230633   5.105   5.219   2.868
 9912SOL     OW30634   3.884   0.577   2.594
 9912SOL    HW130635   3.915   0.531   2.511
 9912SOL    HW230636   3.818   0.519   2.642
 9913SOL     OW30637   5.838   2.863   2.267
 9913SOL    HW130638   5.791   2.951   2.267
 9913SOL    HW230639   5.774   2.791   2.294
 9914SOL     OW30640   1.112   0.730   5.725
 9914SOL    HW130641   1.157   0.812   5.761
 9914SOL    HW230642   1.053   0.690   5.795
 9915SOL     OW30643   5.566   3.498   4.348
 9915SOL    HW130644   5.632   3.540   4.285
 9915SOL    HW230645   5.587   3.400   4.357
 9916SOL     OW30646   2.719   2.339   3.102
 9916SOL    HW130647   2.782   2.346   3.180
 9916SOL    HW230648   2.695   2.243   3.088
 9917SOL     OW30649   3.411   3.808   5.092
 9917SOL    HW130650   3.404   3.908   5.089
 9917SOL    HW230651   3.356   3.773   5.168
 9918SOL     OW30652   1.920   1.434   7.023
 9918SOL    HW130653   1.956   1.527   7.024
 9918SOL    HW230654   1.833   1.433   6.974
 9919SOL     OW30655   2.345   5.050   2.357
 9919SOL    HW130656   2.292   5.050   2.442
 9919SOL    HW230657   2.385   4.960   2.343
 9920SOL     OW30658   3.736   0.104   2.381
 9920SOL    HW130659   3.788   0.019   2.387
 9920SOL    HW230660   3.760   0.164   2.457
 9921SOL     OW30661   6.539   5.945   3.692
 9921SOL    HW130662   6.523   6.036   3.655
 9921SOL    HW230663   6.476   5.928   3.767
 9922SOL     OW30664   4.734   4.236   1.179
 9922SOL    HW130665   4.648   4.272   1.213
 9922SOL    HW230666   4.810   4.287   1.219
 9923SOL     OW30667   6.736   2.491   6.908
 9923SOL    HW130668   6.757   2.462   6.815
 9923SOL    HW230669   6.700   2.414   6.960
 9924SOL     OW30670   5.669   1.360   1.926
 9924SOL    HW130671   5.736   1.433   1.939
 9924SOL    HW230672   5.689   1.310   1.842
 9925SOL     OW30673   2.126   3.660   5.377
 9925SOL    HW130674   2.080   3.748   5.366
 9925SOL    HW230675   2.063   3.593   5.415
 9926SOL     OW30676   2.849   2.261   1.263
 9926SOL    HW130677   2.908   2.185   1.290
 9926SOL    HW230678   2.763   2.225   1.227
 9927SOL     OW30679   0.819   2.317   1.948
 9927SOL    HW130680   0.816   2.413   1.919
 9927SOL    HW230681   0.915   2.288   1.957
 9928SOL     OW30682   6.174   4.157   2.121
 9928SOL    HW130683   6.261   4.135   2.164
 9928SOL    HW230684   6.103   4.095   2.153
 9929SOL     OW30685   3.059   4.090   5.538
 9929SOL    HW130686   2.993   4.036   5.591
 9929SOL    HW230687   3.017   4.121   5.453
 9930SOL     OW30688   6.939   0.678   5.653
 9930SOL    HW130689   7.015   0.665   5.717
 9930SOL    HW230690   6.957   0.757   5.595
 9931SOL     OW30691   0.351   6.074   4.795
 9931SOL    HW130692   0.441   6.082   4.838
 9931SOL    HW230693   0.300   5.999   4.838
 9932SOL     OW30694   1.507   2.211   0.263
 9932SOL    HW130695   1.479   2.263   0.344
 9932SOL    HW230696   1.427   2.163   0.226
 9933SOL     OW30697   3.099   0.995   3.515
 9933SOL    HW130698   3.157   1.075   3.525
 9933SOL    HW230699   3.008   1.014   3.553
 9934SOL     OW30700   5.923   2.021   0.506
 9934SOL    HW130701   5.824   2.019   0.493
 9934SOL    HW230702   5.961   2.102   0.463
 9935SOL     OW30703   3.110   2.355   0.995
 9935SOL    HW130704   3.167   2.437   1.009
 9935SOL    HW230705   3.110   2.301   1.079
 9936SOL     OW30706   5.285   4.483   6.204
 9936SOL    HW130707   5.320   4.468   6.296
 9936SOL    HW230708   5.361   4.491   6.140
 9937SOL     OW30709   0.709   0.889   2.926
 9937SOL    HW130710   0.657   0.956   2.979
 9937SOL    HW230711   0.655   0.860   2.847
 9938SOL     OW30712   5.607   0.425   3.996
 9938SOL    HW130713   5.703   0.453   3.997
 9938SOL    HW230714   5.592   0.359   3.922
 9939SOL     OW30715   1.424   3.593   0.969
 9939SOL    HW130716   1.469   3.578   1.057
 9939SOL    HW230717   1.346   3.532   0.960
 9940SOL     OW30718   0.484   0.213   3.494
 9940SOL    HW130719   0.513   0.283   3.559
 9940SOL    HW230720   0.401   0.169   3.527
 9941SOL     OW30721   3.687   5.356   5.371
 9941SOL    HW130722   3.691   5.257   5.375
 9941SOL    HW230723   3.743   5.395   5.444
 9942SOL     OW30724   4.650   4.746   2.394
 9942SOL    HW130725   4.687   4.731   2.302
 9942SOL    HW230726   4.591   4.670   2.419
 9943SOL     OW30727   1.313   4.360   6.192
 9943SOL    HW130728   1.277   4.278   6.236
 9943SOL    HW230729   1.239   4.407   6.143
 9944SOL     OW30730   0.504   5.310   6.142
 9944SOL    HW130731   0.435   5.345   6.079
 9944SOL    HW230732   0.539   5.385   6.198
 9945SOL     OW30733   6.163   4.008   6.842
 9945SOL    HW130734   6.083   3.996   6.783
 9945SOL    HW230735   6.137   4.064   6.921
 9946SOL     OW30736   5.882   6.956   3.136
 9946SOL    HW130737   5.968   6.998   3.107
 9946SOL    HW230738   5.825   6.936   3.056
 9947SOL     OW30739   1.292   1.496   3.851
 9947SOL    HW130740   1.391   1.504   3.841
 9947SOL    HW230741   1.265   1.400   3.843
 9948SOL     OW30742   6.904   5.850   5.035
 9948SOL    HW130743   6.981   5.798   5.071
 9948SOL    HW230744   6.904   5.942   5.074
 9949SOL     OW30745   0.195   4.858   4.135
 9949SOL    HW130746   0.223   4.792   4.065
 9949SOL    HW230747   0.187   4.813   4.223
 9950SOL     OW30748   6.780   5.005   6.104
 9950SOL    HW130749   6.724   5.076   6.148
 9950SOL    HW230750   6.759   4.916   6.145
 9951SOL     OW30751   1.282   2.936   2.645
 9951SOL    HW130752   1.275   2.864   2.713
 9951SOL    HW230753   1.320   2.898   2.560
 9952SOL     OW30754   0.703   3.779   1.900
 9952SOL    HW130755   0.769   3.780   1.976
 9952SOL    HW230756   0.610   3.781   1.937
 9953SOL     OW30757   6.608   2.545   3.948
 9953SOL    HW130758   6.534   2.479   3.960
 9953SOL    HW230759   6.583   2.610   3.875
 9954SOL     OW30760   2.251   1.860   5.062
 9954SOL    HW130761   2.188   1.819   4.996
 9954SOL    HW230762   2.340   1.874   5.019
 9955SOL     OW30763   4.599   3.183   6.924
 9955SOL    HW130764   4.679   3.226   6.967
 9955SOL    HW230765   4.516   3.212   6.974
 9956SOL     OW30766   0.401   4.678   2.187
 9956SOL    HW130767   0.348   4.645   2.265
 9956SOL    HW230768   0.497   4.651   2.198
 9957SOL     OW30769   5.398   0.023   1.259
 9957SOL    HW130770   5.301   0.043   1.273
 9957SOL    HW230771   5.452   0.107   1.272
 9958SOL     OW30772   3.585   5.468   6.568
 9958SOL    HW130773   3.661   5.403   6.561
 9958SOL    HW230774   3.620   5.558   6.592
 9959SOL     OW30775   4.375   3.476   1.740
 9959SOL    HW130776   4.350   3.571   1.721
 9959SOL    HW230777   4.292   3.424   1.763
 9960SOL     OW30778   6.859   6.198   1.345
 9960SOL    HW130779   6.953   6.164   1.342
 9960SOL    HW230780   6.820   6.180   1.435
 9961SOL     OW30781   1.743   4.576   2.504
 9961SOL    HW130782   1.674   4.630   2.456
 9961SOL    HW230783   1.757   4.614   2.596
 9962SOL     OW30784   3.806   0.514   1.827
 9962SOL    HW130785   3.886   0.554   1.782
 9962SOL    HW230786   3.731   0.580   1.827
 9963SOL     OW30787   2.732   2.455   0.664
 9963SOL    HW130788   2.652   2.443   0.605
 9963SOL    HW230789   2.719   2.535   0.723
 9964SOL     OW30790   4.080   5.328   5.986
 9964SOL    HW130791   3.992   5.308   6.029
 9964SOL    HW230792   4.154   5.299   6.047
 9965SOL     OW30793   3.975   5.518   5.023
 9965SOL    HW130794   3.993   5.541   4.928
 9965SOL    HW230795   3.878   5.532   5.043
 9966SOL     OW30796   3.154   4.900   2.166
 9966SOL    HW130797   3.088   4.825   2.162
 9966SOL    HW230798   3.108   4.985   2.139
 9967SOL     OW30799   6.411   5.652   2.887
 9967SOL    HW130800   6.378   5.596   2.812
 9967SOL    HW230801   6.336   5.706   2.924
 9968SOL     OW30802   4.390   5.685   7.029
 9968SOL    HW130803   4.354   5.648   6.943
 9968SOL    HW230804   4.408   5.783   7.018
 9969SOL     OW30805   1.242   3.824   4.191
 9969SOL    HW130806   1.313   3.787   4.251
 9969SOL    HW230807   1.271   3.817   4.096
 9970SOL     OW30808   5.834   4.820   1.687
 9970SOL    HW130809   5.876   4.750   1.745
 9970SOL    HW230810   5.868   4.910   1.715
 9971SOL     OW30811   1.122   2.623   1.501
 9971SOL    HW130812   1.191   2.684   1.463
 9971SOL    HW230813   1.048   2.609   1.435
 9972SOL     OW30814   2.952   4.002   1.311
 9972SOL    HW130815   3.006   4.044   1.239
 9972SOL    HW230816   2.856   4.026   1.299
 9973SOL     OW30817   4.682   2.863   5.027
 9973SOL    HW130818   4.727   2.918   4.957
 9973SOL    HW230819   4.648   2.778   4.986
 9974SOL     OW30820   6.798   1.748   3.172
 9974SOL    HW130821   6.710   1.736   3.219
 9974SOL    HW230822   6.786   1.806   3.092
 9975SOL     OW30823   1.041   5.059   6.457
 9975SOL    HW130824   1.022   5.072   6.554
 9975SOL    HW230825   1.001   5.134   6.405
 9976SOL     OW30826   0.652   5.099   5.749
 9976SOL    HW130827   0.703   5.182   5.725
 9976SOL    HW230828   0.662   5.081   5.847
 9977SOL     OW30829   5.247   4.600   5.760
 9977SOL    HW130830   5.255   4.504   5.788
 9977SOL    HW230831   5.153   4.630   5.774
 9978SOL     OW30832   7.021   1.839   5.571
 9978SOL    HW130833   0.034   1.905   5.511
 9978SOL    HW230834   0.047   1.756   5.577
 9979SOL     OW30835   5.811   4.282   6.094
 9979SOL    HW130836   5.745   4.345   6.053
 9979SOL    HW230837   5.796   4.190   6.058
 9980SOL     OW30838   2.228   0.623   0.826
 9980SOL    HW130839   2.163   0.583   0.891
 9980SOL    HW230840   2.233   0.565   0.744
 9981SOL     OW30841   1.526   2.241   1.279
 9981SOL    HW130842   1.430   2.238   1.250
 9981SOL    HW230843   1.563   2.332   1.261
 9982SOL     OW30844   1.939   1.151   4.373
 9982SOL    HW130845   2.004   1.186   4.306
 9982SOL    HW230846   1.989   1.114   4.452
 9983SOL     OW30847   6.678   1.921   2.444
 9983SOL    HW130848   6.606   1.959   2.387
 9983SOL    HW230849   6.735   1.995   2.480
 9984SOL     OW30850   0.370   6.125   0.587
 9984SOL    HW130851   0.293   6.061   0.580
 9984SOL    HW230852   0.336   6.216   0.608
 9985SOL     OW30853   2.998   5.258   0.866
 9985SOL    HW130854   3.015   5.326   0.937
 9985SOL    HW230855   2.945   5.299   0.792
 9986SOL     OW30856   6.179   4.865   0.622
 9986SOL    HW130857   6.144   4.925   0.550
 9986SOL    HW230858   6.129   4.778   0.621
 9987SOL     OW30859   5.208   2.723   1.651
 9987SOL    HW130860   5.297   2.700   1.691
 9987SOL    HW230861   5.136   2.704   1.718
 9988SOL     OW30862   0.118   5.116   4.156
 9988SOL    HW130863   0.165   5.028   4.151
 9988SOL    HW230864   0.163   5.181   4.095
 9989SOL     OW30865   5.770   3.838   1.841
 9989SOL    HW130866   5.766   3.938   1.837
 9989SOL    HW230867   5.858   3.809   1.877
 9990SOL     OW30868   2.041   6.208   3.391
 9990SOL    HW130869   1.966   6.250   3.441
 9990SOL    HW230870   2.120   6.270   3.390
 9991SOL     OW30871   2.144   3.358   3.932
 9991SOL    HW130872   2.161   3.289   3.862
 9991SOL    HW230873   2.166   3.320   4.022
 9992SOL     OW30874   3.362   3.472   0.808
 9992SOL    HW130875   3.274   3.437   0.840
 9992SOL    HW230876   3.432   3.452   0.877
 9993SOL     OW30877   3.378   6.459   4.044
 9993SOL    HW130878   3.397   6.406   4.127
 9993SOL    HW230879   3.454   6.522   4.027
 9994SOL     OW30880   6.812   3.942   3.280
 9994SOL    HW130881   6.861   3.878   3.221
 9994SOL    HW230882   6.794   4.027   3.229
 9995SOL     OW30883   3.563   1.257   3.054
 9995SOL    HW130884   3.485   1.271   3.115
 9995SOL    HW230885   3.632   1.327   3.072
 9996SOL     OW30886   3.065   3.943   1.055
 9996SOL    HW130887   3.052   3.857   1.104
 9996SOL    HW230888   3.138   3.933   0.988
 9997SOL     OW30889   5.628   0.800   3.146
 9997SOL    HW130890   5.532   0.819   3.127
 9997SOL    HW230891   5.636   0.711   3.192
 9998SOL     OW30892   5.104   3.805   2.051
 9998SOL    HW130893   5.102   3.866   2.130
 9998SOL    HW230894   5.109   3.710   2.082
 9999SOL     OW30895   0.443   6.253   4.616
 9999SOL    HW130896   0.405   6.180   4.672
 9999SOL    HW230897   0.543   6.248   4.618
10000SOL     OW30898   5.641   1.821   0.806
10000SOL    HW130899   5.611   1.802   0.900
10000SOL    HW230900   5.720   1.764   0.784
10001SOL     OW30901   3.238   6.926   1.968
10001SOL    HW130902   3.226   6.831   1.998
10001SOL    HW230903   3.176   6.985   2.020
10002SOL     OW30904   2.845   1.363   0.864
10002SOL    HW130905   2.791   1.440   0.899
10002SOL    HW230906   2.804   1.329   0.779
10003SOL     OW30907   3.259   1.935   2.693
10003SOL    HW130908   3.329   1.951   2.624
10003SOL    HW230909   3.302   1.926   2.783
10004SOL     OW30910   5.086   3.654   5.352
10004SOL    HW130911   5.126   3.633   5.441
10004SOL    HW230912   5.113   3.585   5.285
10005SOL     OW30913   3.595   5.321   2.866
10005SOL    HW130914   3.572   5.365   2.779
10005SOL    HW230915   3.568   5.380   2.942
10006SOL     OW30916   5.429   6.623   5.209
10006SOL    HW130917   5.465   6.632   5.116
10006SOL    HW230918   5.477   6.687   5.269
10007SOL     OW30919   0.861   3.757   4.560
10007SOL    HW130920   0.904   3.768   4.471
10007SOL    HW230921   0.923   3.790   4.632
10008SOL     OW30922   5.030   1.781   3.412
10008SOL    HW130923   4.995   1.828   3.331
10008SOL    HW230924   5.017   1.682   3.401
10009SOL     OW30925   2.126   4.294   1.838
10009SOL    HW130926   2.223   4.310   1.856
10009SOL    HW230927   2.113   4.199   1.811
10010SOL     OW30928   2.767   5.969   0.325
10010SOL    HW130929   2.791   6.001   0.234
10010SOL    HW230930   2.701   5.894   0.318
10011SOL     OW30931   0.380   4.129   6.854
10011SOL    HW130932   0.324   4.194   6.802
10011SOL    HW230933   0.470   4.169   6.871
10012SOL     OW30934   5.270   6.888   2.362
10012SOL    HW130935   5.285   6.797   2.323
10012SOL    HW230936   5.297   6.888   2.458
10013SOL     OW30937   1.290   3.149   3.769
10013SOL    HW130938   1.364   3.147   3.701
10013SOL    HW230939   1.279   3.243   3.802
10014SOL     OW30940   0.770   0.019   2.028
10014SOL    HW130941   0.729   6.984   1.964
10014SOL    HW230942   0.771   0.110   1.986
10015SOL     OW30943   4.296   5.199   0.467
10015SOL    HW130944   4.304   5.192   0.368
10015SOL    HW230945   4.200   5.210   0.492
10016SOL     OW30946   2.544   1.166   5.082
10016SOL    HW130947   2.585   1.255   5.061
10016SOL    HW230948   2.445   1.170   5.068
10017SOL     OW30949   1.347   1.642   2.893
10017SOL    HW130950   1.293   1.600   2.965
10017SOL    HW230951   1.440   1.607   2.896
10018SOL     OW30952   6.814   4.589   5.647
10018SOL    HW130953   6.859   4.514   5.600
10018SOL    HW230954   6.717   4.590   5.623
10019SOL     OW30955   6.960   1.619   2.959
10019SOL    HW130956   7.002   1.532   2.985
10019SOL    HW230957   6.893   1.646   3.029
10020SOL     OW30958   0.415   0.908   2.050
10020SOL    HW130959   0.373   0.908   1.959
10020SOL    HW230960   0.382   0.987   2.102
10021SOL     OW30961   0.533   3.044   2.605
10021SOL    HW130962   0.532   3.132   2.653
10021SOL    HW230963   0.546   3.060   2.507
10022SOL     OW30964   3.404   6.052   0.616
10022SOL    HW130965   3.377   6.001   0.698
10022SOL    HW230966   3.499   6.081   0.624
10023SOL     OW30967   1.887   5.222   4.663
10023SOL    HW130968   1.816   5.156   4.639
10023SOL    HW230969   1.901   5.221   4.762
10024SOL     OW30970   1.035   5.345   2.551
10024SOL    HW130971   1.127   5.383   2.540
10024SOL    HW230972   1.040   5.258   2.599
10025SOL     OW30973   1.326   3.103   2.012
10025SOL    HW130974   1.259   3.102   1.938
10025SOL    HW230975   1.369   3.193   2.017
10026SOL     OW30976   5.192   6.936   3.226
10026SOL    HW130977   5.273   6.995   3.230
10026SOL    HW230978   5.112   6.992   3.206
10027SOL     OW30979   0.493   2.449   5.034
10027SOL    HW130980   0.415   2.438   5.096
10027SOL    HW230981   0.578   2.447   5.087
10028SOL     OW30982   1.872   1.553   1.976
10028SOL    HW130983   1.787   1.601   1.956
10028SOL    HW230984   1.945   1.619   1.993
10029SOL     OW30985   1.775   2.826   3.662
10029SOL    HW130986   1.844   2.866   3.602
10029SOL    HW230987   1.687   2.822   3.614
10030SOL     OW30988   3.457   0.348   5.166
10030SOL    HW130989   3.363   0.379   5.179
10030SOL    HW230990   3.498   0.329   5.256
10031SOL     OW30991   4.872   5.057   4.573
10031SOL    HW130992   4.880   4.994   4.496
10031SOL    HW230993   4.914   5.145   4.550
10032SOL     OW30994   4.888   0.464   5.738
10032SOL    HW130995   4.835   0.548   5.746
10032SOL    HW230996   4.856   0.411   5.659
10033SOL     OW30997   4.522   2.365   4.166
10033SOL    HW130998   4.558   2.429   4.235
10033SOL    HW230999   4.482   2.286   4.211
10034SOL     OW31000   2.956   0.282   3.839
10034SOL    HW131001   2.859   0.289   3.817
10034SOL    HW231002   2.971   0.210   3.906
10035SOL     OW31003   6.544   4.481   0.642
10035SOL    HW131004   6.599   4.503   0.561
10035SOL    HW231005   6.460   4.435   0.613
10036SOL     OW31006   6.824   0.653   0.526
10036SOL    HW131007   6.915   0.650   0.568
10036SOL    HW231008   6.808   0.744   0.488
10037SOL     OW31009   6.513   0.515   0.154
10037SOL    HW131010   6.531   0.418   0.138
10037SOL    HW231011   6.536   0.568   0.072
10038SOL     OW31012   4.556   0.198   6.533
10038SOL    HW131013   4.479   0.145   6.567
10038SOL    HW231014   4.522   0.278   6.482
10039SOL     OW31015   5.248   6.307   5.515
10039SOL    HW131016   5.205   6.388   5.476
10039SOL    HW231017   5.187   6.228   5.505
10040SOL     OW31018   4.391   5.575   5.957
10040SOL    HW131019   4.297   5.582   5.989
10040SOL    HW231020   4.408   5.644   5.886
10041SOL     OW31021   5.343   5.646   6.295
10041SOL    HW131022   5.355   5.692   6.382
10041SOL    HW231023   5.261   5.588   6.299
10042SOL     OW31024   0.805   1.369   5.174
10042SOL    HW131025   0.860   1.308   5.230
10042SOL    HW231026   0.845   1.460   5.173
10043SOL     OW31027   0.143   1.548   4.043
10043SOL    HW131028   0.194   1.481   3.989
10043SOL    HW231029   0.183   1.554   4.134
10044SOL     OW31030   2.894   2.257   3.287
10044SOL    HW131031   2.835   2.267   3.367
10044SOL    HW231032   2.990   2.255   3.316
10045SOL     OW31033   4.966   6.998   3.533
10045SOL    HW131034   4.946   7.003   3.631
10045SOL    HW231035   4.989   0.059   3.499
10046SOL     OW31036   1.293   3.219   1.424
10046SOL    HW131037   1.308   3.187   1.330
10046SOL    HW231038   1.313   3.317   1.430
10047SOL     OW31039   5.411   3.492   5.065
10047SOL    HW131040   5.381   3.568   5.122
10047SOL    HW231041   5.452   3.528   4.981
10048SOL     OW31042   4.035   1.967   2.428
10048SOL    HW131043   4.022   2.034   2.354
10048SOL    HW231044   4.076   1.884   2.391
10049SOL     OW31045   0.302   0.306   6.230
10049SOL    HW131046   0.386   0.348   6.265
10049SOL    HW231047   0.284   0.340   6.138
10050SOL     OW31048   6.336   2.346   5.260
10050SOL    HW131049   6.345   2.426   5.320
10050SOL    HW231050   6.425   2.300   5.252
10051SOL     OW31051   6.373   2.021   5.562
10051SOL    HW131052   6.352   1.998   5.657
10051SOL    HW231053   6.293   2.064   5.520
10052SOL     OW31054   2.771   2.146   2.793
10052SOL    HW131055   2.794   2.141   2.890
10052SOL    HW231056   2.849   2.114   2.739
10053SOL     OW31057   3.748   5.638   1.876
10053SOL    HW131058   3.810   5.563   1.852
10053SOL    HW231059   3.659   5.600   1.902
10054SOL     OW31060   4.419   5.535   6.229
10054SOL    HW131061   4.417   5.519   6.130
10054SOL    HW231062   4.333   5.580   6.256
10055SOL     OW31063   5.948   2.212   5.603
10055SOL    HW131064   5.883   2.287   5.614
10055SOL    HW231065   6.008   2.208   5.683
10056SOL     OW31066   6.177   4.804   1.418
10056SOL    HW131067   6.175   4.899   1.451
10056SOL    HW231068   6.269   4.782   1.387
10057SOL     OW31069   3.825   2.134   4.755
10057SOL    HW131070   3.901   2.165   4.698
10057SOL    HW231071   3.861   2.095   4.840
10058SOL     OW31072   0.636   3.929   4.428
10058SOL    HW131073   0.549   3.898   4.390
10058SOL    HW231074   0.688   3.850   4.462
10059SOL     OW31075   5.101   6.319   0.643
10059SOL    HW131076   5.094   6.227   0.604
10059SOL    HW231077   5.092   6.387   0.570
10060SOL     OW31078   2.040   1.799   2.036
10060SOL    HW131079   2.134   1.800   2.070
10060SOL    HW231080   2.035   1.849   1.950
10061SOL     OW31081   5.558   1.348   4.585
10061SOL    HW131082   5.587   1.427   4.640
10061SOL    HW231083   5.496   1.380   4.513
10062SOL     OW31084   6.464   0.287   4.590
10062SOL    HW131085   6.560   0.313   4.580
10062SOL    HW231086   6.406   0.366   4.569
10063SOL     OW31087   1.579   1.461   3.866
10063SOL    HW131088   1.519   1.387   3.838
10063SOL    HW231089   1.675   1.433   3.853
10064SOL     OW31090   5.297   6.183   6.689
10064SOL    HW131091   5.350   6.259   6.651
10064SOL    HW231092   5.344   6.147   6.769
10065SOL     OW31093   2.190   6.974   2.677
10065SOL    HW131094   2.202   7.004   2.772
10065SOL    HW231095   2.182   0.024   2.618
10066SOL     OW31096   0.933   0.980   3.601
10066SOL    HW131097   1.028   0.954   3.615
10066SOL    HW231098   0.923   1.023   3.511
10067SOL     OW31099   6.213   4.135   5.133
10067SOL    HW131100   6.194   4.066   5.203
10067SOL    HW231101   6.221   4.225   5.177
10068SOL     OW31102   6.279   3.179   3.207
10068SOL    HW131103   6.234   3.092   3.228
10068SOL    HW231104   6.217   3.237   3.154
10069SOL     OW31105   1.931   5.428   3.677
10069SOL    HW131106   1.965   5.512   3.718
10069SOL    HW231107   1.832   5.436   3.661
10070SOL     OW31108   6.740   0.078   4.620
10070SOL    HW131109   6.817   0.090   4.682
10070SOL    HW231110   6.699   0.167   4.601
10071SOL     OW31111   5.831   5.369   3.648
10071SOL    HW131112   5.819   5.330   3.556
10071SOL    HW231113   5.921   5.412   3.654
10072SOL     OW31114   0.509   6.185   3.720
10072SOL    HW131115   0.461   6.159   3.636
10072SOL    HW231116   0.504   6.110   3.786
10073SOL     OW31117   6.038   4.466   5.047
10073SOL    HW131118   6.117   4.515   5.084
10073SOL    HW231119   6.070   4.388   4.994
10074SOL     OW31120   1.236   1.010   5.378
10074SOL    HW131121   1.231   1.105   5.410
10074SOL    HW231122   1.332   0.984   5.369
10075SOL     OW31123   1.223   2.921   2.984
10075SOL    HW131124   1.161   2.981   3.034
10075SOL    HW231125   1.170   2.857   2.928
10076SOL     OW31126   6.796   0.284   3.296
10076SOL    HW131127   6.751   0.206   3.254
10076SOL    HW231128   6.729   0.339   3.346
10077SOL     OW31129   3.796   3.364   5.758
10077SOL    HW131130   3.779   3.265   5.756
10077SOL    HW231131   3.755   3.403   5.840
10078SOL     OW31132   0.241   5.775   3.734
10078SOL    HW131133   0.167   5.754   3.798
10078SOL    HW231134   0.325   5.793   3.786
10079SOL     OW31135   0.386   4.156   2.032
10079SOL    HW131136   0.465   4.156   1.971
10079SOL    HW231137   0.356   4.250   2.048
10080SOL     OW31138   3.415   1.380   5.481
10080SOL    HW131139   3.440   1.284   5.499
10080SOL    HW231140   3.368   1.386   5.393
10081SOL     OW31141   0.202   0.024   0.622
10081SOL    HW131142   0.148   6.970   0.620
10081SOL    HW231143   0.267   0.021   0.698
10082SOL     OW31144   0.135   4.890   2.137
10082SOL    HW131145   0.171   4.953   2.068
10082SOL    HW231146   0.179   4.801   2.128
10083SOL     OW31147   4.782   0.532   3.160
10083SOL    HW131148   4.788   0.435   3.137
10083SOL    HW231149   4.731   0.580   3.089
10084SOL     OW31150   3.161   1.119   5.728
10084SOL    HW131151   3.210   1.188   5.782
10084SOL    HW231152   3.082   1.161   5.684
10085SOL     OW31153   1.121   6.523   2.136
10085SOL    HW131154   1.061   6.453   2.176
10085SOL    HW231155   1.189   6.551   2.203
10086SOL     OW31156   5.645   5.531   1.945
10086SOL    HW131157   5.611   5.448   1.903
10086SOL    HW231158   5.714   5.508   2.015
10087SOL     OW31159   0.279   6.833   3.753
10087SOL    HW131160   0.365   6.784   3.746
10087SOL    HW231161   0.205   6.777   3.716
10088SOL     OW31162   6.839   0.480   0.135
10088SOL    HW131163   6.801   0.421   0.065
10088SOL    HW231164   6.872   0.565   0.094
10089SOL     OW31165   2.994   2.190   2.427
10089SOL    HW131166   2.936   2.114   2.396
10089SOL    HW231167   3.020   2.245   2.348
10090SOL     OW31168   1.079   4.839   0.932
10090SOL    HW131169   1.007   4.800   0.874
10090SOL    HW231170   1.156   4.776   0.936
10091SOL     OW31171   1.170   3.794   5.638
10091SOL    HW131172   1.223   3.878   5.627
10091SOL    HW231173   1.120   3.775   5.553
10092SOL     OW31174   1.653   3.083   4.598
10092SOL    HW131175   1.737   3.081   4.543
10092SOL    HW231176   1.589   3.148   4.558
10093SOL     OW31177   6.941   3.910   4.629
10093SOL    HW131178   6.958   3.943   4.536
10093SOL    HW231179   7.014   3.942   4.689
10094SOL     OW31180   1.968   5.830   2.197
10094SOL    HW131181   1.933   5.899   2.260
10094SOL    HW231182   1.933   5.740   2.224
10095SOL     OW31183   5.964   2.109   5.248
10095SOL    HW131184   5.913   2.024   5.258
10095SOL    HW231185   6.042   2.110   5.311
10096SOL     OW31186   5.291   5.078   2.302
10096SOL    HW131187   5.201   5.037   2.285
10096SOL    HW231188   5.337   5.029   2.376
10097SOL     OW31189   1.008   0.942   0.653
10097SOL    HW131190   1.075   0.893   0.708
10097SOL    HW231191   0.946   0.875   0.610
10098SOL     OW31192   2.365   0.433   5.280
10098SOL    HW131193   2.450   0.436   5.332
10098SOL    HW231194   2.291   0.471   5.335
10099SOL     OW31195   6.987   4.967   1.080
10099SOL    HW131196   6.971   4.978   1.178
10099SOL    HW231197   6.928   4.894   1.044
10100SOL     OW31198   5.018   0.127   4.584
10100SOL    HW131199   5.082   0.066   4.632
10100SOL    HW231200   4.964   0.075   4.519
10101SOL     OW31201   5.716   3.901   1.359
10101SOL    HW131202   5.778   3.848   1.300
10101SOL    HW231203   5.705   3.855   1.446
10102SOL     OW31204   1.257   0.901   2.286
10102SOL    HW131205   1.319   0.835   2.244
10102SOL    HW231206   1.294   0.993   2.277
10103SOL     OW31207   2.445   1.588   6.367
10103SOL    HW131208   2.419   1.604   6.271
10103SOL    HW231209   2.466   1.675   6.411
10104SOL     OW31210   1.336   2.330   4.080
10104SOL    HW131211   1.384   2.377   4.006
10104SOL    HW231212   1.402   2.287   4.141
10105SOL     OW31213   0.923   0.526   0.673
10105SOL    HW131214   1.017   0.536   0.642
10105SOL    HW231215   0.898   0.605   0.730
10106SOL     OW31216   4.268   6.925   0.798
10106SOL    HW131217   4.267   6.919   0.699
10106SOL    HW231218   4.281   6.834   0.838
10107SOL     OW31219   0.247   1.123   6.609
10107SOL    HW131220   0.190   1.204   6.598
10107SOL    HW231221   0.209   1.048   6.554
10108SOL     OW31222   6.582   6.416   0.181
10108SOL    HW131223   6.647   6.340   0.181
10108SOL    HW231224   6.540   6.423   0.271
10109SOL     OW31225   4.572   0.298   0.770
10109SOL    HW131226   4.581   0.297   0.671
10109SOL    HW231227   4.483   0.334   0.796
10110SOL     OW31228   4.548   5.882   5.083
10110SOL    HW131229   4.540   5.784   5.065
10110SOL    HW231230   4.634   5.917   5.046
10111SOL     OW31231   5.268   3.767   3.862
10111SOL    HW131232   5.209   3.842   3.891
10111SOL    HW231233   5.254   3.749   3.765
10112SOL     OW31234   5.727   3.633   3.821
10112SOL    HW131235   5.734   3.550   3.877
10112SOL    HW231236   5.812   3.645   3.769
10113SOL     OW31237   4.277   0.213   5.693
10113SOL    HW131238   4.192   0.187   5.739
10113SOL    HW231239   4.276   0.312   5.676
10114SOL     OW31240   6.141   1.126   0.956
10114SOL    HW131241   6.041   1.120   0.946
10114SOL    HW231242   6.184   1.109   0.867
10115SOL     OW31243   3.815   1.412   4.413
10115SOL    HW131244   3.837   1.344   4.343
10115SOL    HW231245   3.863   1.497   4.394
10116SOL     OW31246   0.168   5.933   0.556
10116SOL    HW131247   0.098   5.863   0.566
10116SOL    HW231248   0.181   5.954   0.459
10117SOL     OW31249   6.795   5.979   5.381
10117SOL    HW131250   6.755   5.893   5.351
10117SOL    HW231251   6.878   5.999   5.328
10118SOL     OW31252   1.916   5.201   2.811
10118SOL    HW131253   2.004   5.249   2.812
10118SOL    HW231254   1.842   5.266   2.823
10119SOL     OW31255   0.956   5.680   4.458
10119SOL    HW131256   1.029   5.711   4.397
10119SOL    HW231257   0.945   5.745   4.533
10120SOL     OW31258   1.834   3.928   4.977
10120SOL    HW131259   1.786   3.968   4.899
10120SOL    HW231260   1.892   3.998   5.019
10121SOL     OW31261   6.510   4.201   6.229
10121SOL    HW131262   6.507   4.121   6.169
10121SOL    HW231263   6.605   4.233   6.237
10122SOL     OW31264   6.168   2.837   1.433
10122SOL    HW131265   6.125   2.752   1.403
10122SOL    HW231266   6.262   2.841   1.399
10123SOL     OW31267   5.814   6.978   0.105
10123SOL    HW131268   5.857   0.038   0.116
10123SOL    HW231269   5.849   6.934   0.023
10124SOL     OW31270   1.548   3.970   0.482
10124SOL    HW131271   1.539   4.058   0.436
10124SOL    HW231272   1.566   3.898   0.414
10125SOL     OW31273   1.808   1.344   2.367
10125SOL    HW131274   1.723   1.332   2.418
10125SOL    HW231275   1.860   1.259   2.368
10126SOL     OW31276   0.387   6.878   5.853
10126SOL    HW131277   0.339   6.868   5.766
10126SOL    HW231278   0.479   6.842   5.845
10127SOL     OW31279   2.795   4.685   6.466
10127SOL    HW131280   2.749   4.654   6.549
10127SOL    HW231281   2.859   4.615   6.435
10128SOL     OW31282   2.129   1.451   1.252
10128SOL    HW131283   2.109   1.383   1.322
10128SOL    HW231284   2.200   1.416   1.191
10129SOL     OW31285   5.730   1.880   2.621
10129SOL    HW131286   5.728   1.956   2.555
10129SOL    HW231287   5.673   1.806   2.588
10130SOL     OW31288   1.287   3.556   2.017
10130SOL    HW131289   1.343   3.475   2.002
10130SOL    HW231290   1.200   3.530   2.059
10131SOL     OW31291   1.501   6.902   4.177
10131SOL    HW131292   1.562   6.852   4.115
10131SOL    HW231293   1.430   6.948   4.123
10132SOL     OW31294   3.242   6.941   5.299
10132SOL    HW131295   3.168   6.970   5.238
10132SOL    HW231296   3.303   6.878   5.251
10133SOL     OW31297   4.185   6.266   1.276
10133SOL    HW131298   4.150   6.176   1.303
10133SOL    HW231299   4.108   6.327   1.259
10134SOL     OW31300   0.108   6.559   3.625
10134SOL    HW131301   0.059   6.476   3.652
10134SOL    HW231302   0.056   6.640   3.655
10135SOL     OW31303   4.975   3.330   3.616
10135SOL    HW131304   4.952   3.251   3.671
10135SOL    HW231305   4.975   3.305   3.519
10136SOL     OW31306   4.976   0.045   3.125
10136SOL    HW131307   4.981   7.018   3.043
10136SOL    HW231308   5.004   0.139   3.101
10137SOL     OW31309   6.016   4.139   3.976
10137SOL    HW131310   6.077   4.144   3.898
10137SOL    HW231311   5.961   4.222   3.981
10138SOL     OW31312   5.170   3.541   0.493
10138SOL    HW131313   5.089   3.492   0.522
10138SOL    HW231314   5.181   3.625   0.546
10139SOL     OW31315   3.615   4.114   3.349
10139SOL    HW131316   3.572   4.093   3.437
10139SOL    HW231317   3.703   4.066   3.343
10140SOL     OW31318   5.977   6.445   6.966
10140SOL    HW131319   6.019   6.531   6.996
10140SOL    HW231320   5.992   6.433   6.868
10141SOL     OW31321   3.775   1.762   5.105
10141SOL    HW131322   3.800   1.671   5.138
10141SOL    HW231323   3.746   1.818   5.183
10142SOL     OW31324   6.270   6.390   4.867
10142SOL    HW131325   6.194   6.375   4.803
10142SOL    HW231326   6.328   6.309   4.869
10143SOL     OW31327   4.510   1.333   6.208
10143SOL    HW131328   4.528   1.431   6.206
10143SOL    HW231329   4.520   1.299   6.302
10144SOL     OW31330   3.527   0.371   6.329
10144SOL    HW131331   3.455   0.414   6.383
10144SOL    HW231332   3.524   0.272   6.341
10145SOL     OW31333   2.768   5.625   4.690
10145SOL    HW131334   2.669   5.634   4.703
10145SOL    HW231335   2.792   5.648   4.595
10146SOL     OW31336   4.284   5.182   4.717
10146SOL    HW131337   4.376   5.173   4.754
10146SOL    HW231338   4.289   5.208   4.621
10147SOL     OW31339   5.056   3.932   5.531
10147SOL    HW131340   5.055   3.840   5.568
10147SOL    HW231341   5.119   3.989   5.584
10148SOL     OW31342   4.849   5.838   6.766
10148SOL    HW131343   4.789   5.860   6.842
10148SOL    HW231344   4.913   5.765   6.793
10149SOL     OW31345   6.011   3.109   0.685
10149SOL    HW131346   6.064   3.115   0.770
10149SOL    HW231347   6.043   3.177   0.620
10150SOL     OW31348   4.053   4.060   0.337
10150SOL    HW131349   3.998   4.092   0.259
10150SOL    HW231350   4.005   3.985   0.383
10151SOL     OW31351   0.922   6.766   6.713
10151SOL    HW131352   0.885   6.780   6.805
10151SOL    HW231353   1.017   6.735   6.719
10152SOL     OW31354   6.698   5.978   4.261
10152SOL    HW131355   6.686   6.074   4.234
10152SOL    HW231356   6.669   5.966   4.356
10153SOL     OW31357   4.990   6.492   4.085
10153SOL    HW131358   4.914   6.478   4.023
10153SOL    HW231359   4.981   6.431   4.164
10154SOL     OW31360   5.026   6.869   5.771
10154SOL    HW131361   5.005   6.780   5.732
10154SOL    HW231362   5.118   6.897   5.743
10155SOL     OW31363   3.886   2.356   5.588
10155SOL    HW131364   3.814   2.315   5.643
10155SOL    HW231365   3.905   2.449   5.621
10156SOL     OW31366   6.195   0.840   2.611
10156SOL    HW131367   6.140   0.887   2.681
10156SOL    HW231368   6.189   0.741   2.624
10157SOL     OW31369   0.049   1.996   0.881
10157SOL    HW131370   0.024   1.934   0.806
10157SOL    HW231371   7.004   2.060   0.897
10158SOL     OW31372   5.851   4.822   0.724
10158SOL    HW131373   5.894   4.866   0.803
10158SOL    HW231374   5.780   4.759   0.756
10159SOL     OW31375   2.639   3.341   0.166
10159SOL    HW131376   2.652   3.265   0.230
10159SOL    HW231377   2.588   3.309   0.086
10160SOL     OW31378   1.887   2.992   2.371
10160SOL    HW131379   1.943   3.015   2.291
10160SOL    HW231380   1.943   2.945   2.439
10161SOL     OW31381   2.897   2.734   0.253
10161SOL    HW131382   2.966   2.804   0.271
10161SOL    HW231383   2.894   2.714   0.155
10162SOL     OW31384   3.462   4.771   1.039
10162SOL    HW131385   3.367   4.778   1.007
10162SOL    HW231386   3.463   4.757   1.138
10163SOL     OW31387   6.109   4.481   6.291
10163SOL    HW131388   6.186   4.489   6.227
10163SOL    HW231389   6.128   4.406   6.355
10164SOL     OW31390   5.870   3.982   4.636
10164SOL    HW131391   5.863   4.075   4.673
10164SOL    HW231392   5.779   3.940   4.633
10165SOL     OW31393   6.756   1.974   2.860
10165SOL    HW131394   6.691   1.900   2.844
10165SOL    HW231395   6.725   2.030   2.937
10166SOL     OW31396   3.310   2.088   1.952
10166SOL    HW131397   3.246   2.139   2.009
10166SOL    HW231398   3.350   2.150   1.884
10167SOL     OW31399   2.521   3.604   0.034
10167SOL    HW131400   2.516   3.533   0.105
10167SOL    HW231401   2.517   3.694   0.077
10168SOL     OW31402   5.914   3.361   6.226
10168SOL    HW131403   5.836   3.421   6.206
10168SOL    HW231404   5.990   3.384   6.165
10169SOL     OW31405   6.653   4.234   3.750
10169SOL    HW131406   6.665   4.143   3.791
10169SOL    HW231407   6.655   4.226   3.650
10170SOL     OW31408   0.299   5.623   5.774
10170SOL    HW131409   0.213   5.586   5.739
10170SOL    HW231410   0.366   5.627   5.699
10171SOL     OW31411   6.770   2.178   4.883
10171SOL    HW131412   6.853   2.230   4.902
10171SOL    HW231413   6.718   2.224   4.810
10172SOL     OW31414   0.279   5.687   4.697
10172SOL    HW131415   0.211   5.617   4.718
10172SOL    HW231416   0.314   5.727   4.782
10173SOL     OW31417   1.214   3.347   0.783
10173SOL    HW131418   1.211   3.322   0.686
10173SOL    HW231419   1.126   3.328   0.826
10174SOL     OW31420   5.145   4.938   3.165
10174SOL    HW131421   5.052   4.973   3.169
10174SOL    HW231422   5.153   4.857   3.223
10175SOL     OW31423   5.774   1.552   3.647
10175SOL    HW131424   5.737   1.469   3.688
10175SOL    HW231425   5.701   1.619   3.635
10176SOL     OW31426   0.551   3.772   4.810
10176SOL    HW131427   0.573   3.783   4.907
10176SOL    HW231428   0.452   3.777   4.798
10177SOL     OW31429   2.518   0.649   1.317
10177SOL    HW131430   2.479   0.644   1.409
10177SOL    HW231431   2.580   0.572   1.303
10178SOL     OW31432   0.583   0.523   6.056
10178SOL    HW131433   0.675   0.485   6.052
10178SOL    HW231434   0.588   0.623   6.053
10179SOL     OW31435   0.455   2.049   6.895
10179SOL    HW131436   0.503   1.983   6.953
10179SOL    HW231437   0.518   2.082   6.824
10180SOL     OW31438   4.164   1.102   5.714
10180SOL    HW131439   4.134   1.127   5.622
10180SOL    HW231440   4.251   1.148   5.733
10181SOL     OW31441   6.491   3.649   1.054
10181SOL    HW131442   6.411   3.607   1.097
10181SOL    HW231443   6.574   3.606   1.088
10182SOL     OW31444   4.554   0.878   1.716
10182SOL    HW131445   4.565   0.966   1.761
10182SOL    HW231446   4.470   0.834   1.748
10183SOL     OW31447   0.013   2.289   6.477
10183SOL    HW131448   7.005   2.204   6.442
10183SOL    HW231449   0.049   2.274   6.569
10184SOL     OW31450   4.349   1.287   5.774
10184SOL    HW131451   4.377   1.332   5.859
10184SOL    HW231452   4.424   1.291   5.708
10185SOL     OW31453   6.354   6.021   2.538
10185SOL    HW131454   6.389   6.080   2.612
10185SOL    HW231455   6.416   6.027   2.460
10186SOL     OW31456   5.589   3.206   3.830
10186SOL    HW131457   5.615   3.119   3.789
10186SOL    HW231458   5.517   3.248   3.775
10187SOL     OW31459   1.070   3.556   0.682
10187SOL    HW131460   1.138   3.492   0.719
10187SOL    HW231461   1.075   3.557   0.582
10188SOL     OW31462   3.762   5.626   0.699
10188SOL    HW131463   3.816   5.700   0.661
10188SOL    HW231464   3.690   5.663   0.758
10189SOL     OW31465   0.945   1.046   6.106
10189SOL    HW131466   1.037   1.084   6.117
10189SOL    HW231467   0.943   0.953   6.142
10190SOL     OW31468   4.860   3.405   1.991
10190SOL    HW131469   4.880   3.499   1.962
10190SOL    HW231470   4.840   3.405   2.089
10191SOL     OW31471   5.139   5.872   6.278
10191SOL    HW131472   5.088   5.897   6.196
10191SOL    HW231473   5.192   5.789   6.261
10192SOL     OW31474   4.328   1.402   5.187
10192SOL    HW131475   4.395   1.337   5.153
10192SOL    HW231476   4.295   1.372   5.277
10193SOL     OW31477   4.074   3.416   1.762
10193SOL    HW131478   4.061   3.319   1.741
10193SOL    HW231479   4.001   3.469   1.719
10194SOL     OW31480   5.809   5.929   5.348
10194SOL    HW131481   5.904   5.901   5.351
10194SOL    HW231482   5.751   5.855   5.381
10195SOL     OW31483   6.163   5.923   0.622
10195SOL    HW131484   6.115   6.003   0.586
10195SOL    HW231485   6.100   5.845   0.625
10196SOL     OW31486   4.734   1.297   3.768
10196SOL    HW131487   4.808   1.230   3.774
10196SOL    HW231488   4.700   1.318   3.860
10197SOL     OW31489   6.035   1.609   5.269
10197SOL    HW131490   5.990   1.547   5.205
10197SOL    HW231491   6.128   1.576   5.286
10198SOL     OW31492   2.918   6.543   2.376
10198SOL    HW131493   2.968   6.537   2.290
10198SOL    HW231494   2.973   6.503   2.450
10199SOL     OW31495   2.118   3.565   0.557
10199SOL    HW131496   2.182   3.530   0.625
10199SOL    HW231497   2.035   3.509   0.556
10200SOL     OW31498   5.025   2.355   6.440
10200SOL    HW131499   5.026   2.445   6.397
10200SOL    HW231500   5.067   2.289   6.378
10201SOL     OW31501   1.489   5.070   0.982
10201SOL    HW131502   1.584   5.084   0.957
10201SOL    HW231503   1.480   4.988   1.039
10202SOL     OW31504   3.469   4.744   1.320
10202SOL    HW131505   3.501   4.654   1.347
10202SOL    HW231506   3.503   4.813   1.383
10203SOL     OW31507   6.127   2.780   3.209
10203SOL    HW131508   6.029   2.797   3.194
10203SOL    HW231509   6.180   2.846   3.155
10204SOL     OW31510   4.740   6.304   0.440
10204SOL    HW131511   4.705   6.283   0.349
10204SOL    HW231512   4.813   6.372   0.434
10205SOL     OW31513   1.825   0.097   1.781
10205SOL    HW131514   1.800   0.002   1.759
10205SOL    HW231515   1.922   0.101   1.805
10206SOL     OW31516   6.578   0.785   6.934
10206SOL    HW131517   6.645   0.732   6.882
10206SOL    HW231518   6.524   0.841   6.871
10207SOL     OW31519   1.065   1.782   0.406
10207SOL    HW131520   1.061   1.765   0.505
10207SOL    HW231521   1.083   1.697   0.358
10208SOL     OW31522   5.990   4.745   3.758
10208SOL    HW131523   6.081   4.786   3.750
10208SOL    HW231524   5.950   4.770   3.846
10209SOL     OW31525   0.423   7.003   0.799
10209SOL    HW131526   0.491   0.034   0.761
10209SOL    HW231527   0.428   6.914   0.753
10210SOL     OW31528   4.881   6.952   1.932
10210SOL    HW131529   4.883   6.961   1.833
10210SOL    HW231530   4.958   6.897   1.963
10211SOL     OW31531   4.214   6.360   4.920
10211SOL    HW131532   4.248   6.429   4.984
10211SOL    HW231533   4.237   6.269   4.956
10212SOL     OW31534   0.427   0.604   5.138
10212SOL    HW131535   0.416   0.555   5.051
10212SOL    HW231536   0.340   0.605   5.187
10213SOL     OW31537   5.736   2.547   1.510
10213SOL    HW131538   5.804   2.591   1.568
10213SOL    HW231539   5.653   2.528   1.564
10214SOL     OW31540   0.938   1.631   2.054
10214SOL    HW131541   0.973   1.694   2.124
10214SOL    HW231542   0.880   1.562   2.098
10215SOL     OW31543   3.797   3.104   3.503
10215SOL    HW131544   3.863   3.076   3.574
10215SOL    HW231545   3.790   3.204   3.503
10216SOL     OW31546   0.131   1.087   1.558
10216SOL    HW131547   0.223   1.093   1.595
10216SOL    HW231548   0.068   1.055   1.630
10217SOL     OW31549   3.326   1.306   2.914
10217SOL    HW131550   3.253   1.301   2.982
10217SOL    HW231551   3.414   1.293   2.959
10218SOL     OW31552   2.001   1.519   1.654
10218SOL    HW131553   1.920   1.577   1.660
10218SOL    HW231554   2.015   1.472   1.741
10219SOL     OW31555   0.671   1.749   3.611
10219SOL    HW131556   0.732   1.670   3.619
10219SOL    HW231557   0.661   1.773   3.514
10220SOL     OW31558   5.248   2.155   0.729
10220SOL    HW131559   5.290   2.149   0.820
10220SOL    HW231560   5.213   2.066   0.701
10221SOL     OW31561   0.991   4.686   3.924
10221SOL    HW131562   0.914   4.644   3.876
10221SOL    HW231563   0.958   4.762   3.980
10222SOL     OW31564   3.057   3.873   5.774
10222SOL    HW131565   2.961   3.879   5.800
10222SOL    HW231566   3.075   3.787   5.727
10223SOL     OW31567   1.613   4.930   1.676
10223SOL    HW131568   1.666   4.845   1.672
10223SOL    HW231569   1.520   4.910   1.708
10224SOL     OW31570   6.399   2.941   5.338
10224SOL    HW131571   6.413   2.855   5.289
10224SOL    HW231572   6.485   2.991   5.343
10225SOL     OW31573   0.941   5.126   5.612
10225SOL    HW131574   0.890   5.088   5.535
10225SOL    HW231575   1.023   5.172   5.578
10226SOL     OW31576   2.581   0.699   5.992
10226SOL    HW131577   2.613   0.659   5.906
10226SOL    HW231578   2.659   0.716   6.052
10227SOL     OW31579   5.637   4.941   1.215
10227SOL    HW131580   5.567   4.997   1.259
10227SOL    HW231581   5.728   4.977   1.237
10228SOL     OW31582   0.186   6.461   2.005
10228SOL    HW131583   0.119   6.400   1.963
10228SOL    HW231584   0.148   6.553   2.012
10229SOL     OW31585   1.428   3.217   4.498
10229SOL    HW131586   1.335   3.189   4.476
10229SOL    HW231587   1.427   3.274   4.580
10230SOL     OW31588   5.958   6.277   2.986
10230SOL    HW131589   6.057   6.288   2.996
10230SOL    HW231590   5.939   6.209   2.916
10231SOL     OW31591   6.633   4.951   5.281
10231SOL    HW131592   6.675   4.861   5.287
10231SOL    HW231593   6.619   4.988   5.372
10232SOL     OW31594   3.516   1.324   3.402
10232SOL    HW131595   3.560   1.395   3.457
10232SOL    HW231596   3.530   1.235   3.445
10233SOL     OW31597   3.767   3.905   4.961
10233SOL    HW131598   3.710   3.834   4.921
10233SOL    HW231599   3.787   3.975   4.893
10234SOL     OW31600   6.312   0.745   0.855
10234SOL    HW131601   6.291   0.653   0.824
10234SOL    HW231602   6.264   0.811   0.797
10235SOL     OW31603   2.398   2.660   1.437
10235SOL    HW131604   2.439   2.724   1.503
10235SOL    HW231605   2.469   2.599   1.402
10236SOL     OW31606   2.463   1.097   0.471
10236SOL    HW131607   2.500   1.015   0.427
10236SOL    HW231608   2.474   1.176   0.410
10237SOL     OW31609   0.998   3.939   6.700
10237SOL    HW131610   0.948   3.941   6.787
10237SOL    HW231611   1.057   3.858   6.698
10238SOL     OW31612   3.924   4.241   1.687
10238SOL    HW131613   3.857   4.316   1.685
10238SOL    HW231614   3.902   4.179   1.762
10239SOL     OW31615   1.457   3.288   4.752
10239SOL    HW131616   1.414   3.349   4.818
10239SOL    HW231617   1.547   3.260   4.787
10240SOL     OW31618   2.068   5.407   2.167
10240SOL    HW131619   2.032   5.314   2.170
10240SOL    HW231620   2.156   5.411   2.214
10241SOL     OW31621   6.389   6.876   3.357
10241SOL    HW131622   6.434   6.796   3.397
10241SOL    HW231623   6.366   6.857   3.262
10242SOL     OW31624   0.279   1.398   1.036
10242SOL    HW131625   0.196   1.446   1.009
10242SOL    HW231626   0.358   1.458   1.024
10243SOL     OW31627   2.107   4.444   2.656
10243SOL    HW131628   2.136   4.359   2.700
10243SOL    HW231629   2.186   4.488   2.613
10244SOL     OW31630   1.692   4.315   0.586
10244SOL    HW131631   1.757   4.288   0.515
10244SOL    HW231632   1.741   4.363   0.659
10245SOL     OW31633   3.363   3.985   1.421
10245SOL    HW131634   3.329   3.910   1.364
10245SOL    HW231635   3.357   4.071   1.371
10246SOL     OW31636   3.797   3.471   4.165
10246SOL    HW131637   3.895   3.482   4.153
10246SOL    HW231638   3.759   3.422   4.087
10247SOL     OW31639   6.647   3.837   5.333
10247SOL    HW131640   6.686   3.810   5.422
10247SOL    HW231641   6.548   3.840   5.340
10248SOL     OW31642   1.926   6.254   2.310
10248SOL    HW131643   1.921   6.158   2.337
10248SOL    HW231644   1.884   6.265   2.220
10249SOL     OW31645   4.173   6.171   6.711
10249SOL    HW131646   4.089   6.119   6.697
10249SOL    HW231647   4.218   6.186   6.623
10250SOL     OW31648   6.713   3.394   2.048
10250SOL    HW131649   6.758   3.385   2.137
10250SOL    HW231650   6.767   3.347   1.978
10251SOL     OW31651   1.886   1.826   5.333
10251SOL    HW131652   1.836   1.865   5.255
10251SOL    HW231653   1.973   1.874   5.344
10252SOL     OW31654   4.356   4.521   6.594
10252SOL    HW131655   4.393   4.447   6.650
10252SOL    HW231656   4.387   4.511   6.499
10253SOL     OW31657   2.853   5.820   0.542
10253SOL    HW131658   2.814   5.841   0.453
10253SOL    HW231659   2.929   5.882   0.561
10254SOL     OW31660   4.884   1.023   5.263
10254SOL    HW131661   4.973   1.036   5.307
10254SOL    HW231662   4.837   1.111   5.257
10255SOL     OW31663   2.516   6.331   1.151
10255SOL    HW131664   2.432   6.380   1.173
10255SOL    HW231665   2.494   6.247   1.102
10256SOL     OW31666   4.414   2.018   2.346
10256SOL    HW131667   4.354   1.939   2.337
10256SOL    HW231668   4.372   2.096   2.299
10257SOL     OW31669   1.839   5.196   4.204
10257SOL    HW131670   1.846   5.171   4.107
10257SOL    HW231671   1.918   5.160   4.253
10258SOL     OW31672   3.886   2.120   3.508
10258SOL    HW131673   3.904   2.145   3.413
10258SOL    HW231674   3.958   2.155   3.567
10259SOL     OW31675   0.681   4.118   2.450
10259SOL    HW131676   0.644   4.206   2.422
10259SOL    HW231677   0.693   4.117   2.549
10260SOL     OW31678   1.052   1.585   3.130
10260SOL    HW131679   1.106   1.502   3.114
10260SOL    HW231680   0.957   1.559   3.149
10261SOL     OW31681   6.436   4.911   1.393
10261SOL    HW131682   6.495   4.988   1.418
10261SOL    HW231683   6.474   4.826   1.430
10262SOL     OW31684   2.254   0.093   5.782
10262SOL    HW131685   2.285   0.001   5.804
10262SOL    HW231686   2.241   0.102   5.684
10263SOL     OW31687   5.473   0.290   0.330
10263SOL    HW131688   5.447   0.319   0.238
10263SOL    HW231689   5.403   0.228   0.367
10264SOL     OW31690   6.488   6.781   6.811
10264SOL    HW131691   6.576   6.821   6.786
10264SOL    HW231692   6.500   6.721   6.890
10265SOL     OW31693   3.062   2.606   1.703
10265SOL    HW131694   3.002   2.633   1.627
10265SOL    HW231695   3.006   2.572   1.779
10266SOL     OW31696   3.517   2.876   3.914
10266SOL    HW131697   3.509   2.890   3.816
10266SOL    HW231698   3.428   2.852   3.952
10267SOL     OW31699   5.369   2.679   0.204
10267SOL    HW131700   5.438   2.663   0.275
10267SOL    HW231701   5.391   2.762   0.154
10268SOL     OW31702   6.495   6.210   2.293
10268SOL    HW131703   6.451   6.123   2.272
10268SOL    HW231704   6.498   6.267   2.210
10269SOL     OW31705   0.539   3.793   6.595
10269SOL    HW131706   0.630   3.814   6.559
10269SOL    HW231707   0.470   3.808   6.524
10270SOL     OW31708   3.365   4.954   2.308
10270SOL    HW131709   3.297   4.928   2.239
10270SOL    HW231710   3.322   4.959   2.398
10271SOL     OW31711   3.570   2.982   6.405
10271SOL    HW131712   3.665   3.014   6.405
10271SOL    HW231713   3.550   2.935   6.319
10272SOL     OW31714   1.246   0.984   5.772
10272SOL    HW131715   1.288   0.923   5.704
10272SOL    HW231716   1.243   1.077   5.736
10273SOL     OW31717   3.164   5.931   3.001
10273SOL    HW131718   3.260   5.934   3.029
10273SOL    HW231719   3.133   5.836   2.995
10274SOL     OW31720   0.401   4.906   5.854
10274SOL    HW131721   0.413   4.807   5.845
10274SOL    HW231722   0.462   4.941   5.925
10275SOL     OW31723   0.789   6.294   2.194
10275SOL    HW131724   0.879   6.274   2.156
10275SOL    HW231725   0.743   6.210   2.221
10276SOL     OW31726   5.408   5.770   5.022
10276SOL    HW131727   5.337   5.767   5.092
10276SOL    HW231728   5.428   5.677   4.991
10277SOL     OW31729   1.860   6.269   5.270
10277SOL    HW131730   1.923   6.258   5.193
10277SOL    HW231731   1.780   6.321   5.240
10278SOL     OW31732   1.772   1.600   3.411
10278SOL    HW131733   1.807   1.679   3.361
10278SOL    HW231734   1.682   1.576   3.376
10279SOL     OW31735   1.587   4.467   4.255
10279SOL    HW131736   1.580   4.380   4.303
10279SOL    HW231737   1.682   4.486   4.234
10280SOL     OW31738   0.122   2.273   6.812
10280SOL    HW131739   0.088   2.348   6.868
10280SOL    HW231740   0.175   2.210   6.869
10281SOL     OW31741   5.439   1.044   3.277
10281SOL    HW131742   5.384   0.979   3.329
10281SOL    HW231743   5.536   1.030   3.298
10282SOL     OW31744   5.314   3.493   4.421
10282SOL    HW131745   5.329   3.398   4.448
10282SOL    HW231746   5.395   3.528   4.375
10283SOL     OW31747   1.938   3.238   1.231
10283SOL    HW131748   1.900   3.267   1.319
10283SOL    HW231749   1.912   3.304   1.160
10284SOL     OW31750   4.810   2.617   5.275
10284SOL    HW131751   4.834   2.575   5.187
10284SOL    HW231752   4.728   2.672   5.264
10285SOL     OW31753   5.518   6.485   2.754
10285SOL    HW131754   5.445   6.538   2.797
10285SOL    HW231755   5.607   6.525   2.777
10286SOL     OW31756   3.385   2.062   3.903
10286SOL    HW131757   3.440   2.081   3.821
10286SOL    HW231758   3.413   1.975   3.942
10287SOL     OW31759   2.879   6.169   1.867
10287SOL    HW131760   2.821   6.133   1.940
10287SOL    HW231761   2.949   6.101   1.844
10288SOL     OW31762   4.757   5.818   3.258
10288SOL    HW131763   4.788   5.906   3.224
10288SOL    HW231764   4.675   5.790   3.209
10289SOL     OW31765   2.713   6.235   6.700
10289SOL    HW131766   2.796   6.250   6.646
10289SOL    HW231767   2.641   6.196   6.641
10290SOL     OW31768   3.051   3.880   3.151
10290SOL    HW131769   2.982   3.809   3.170
10290SOL    HW231770   3.050   3.947   3.224
10291SOL     OW31771   3.922   1.544   2.399
10291SOL    HW131772   4.017   1.553   2.369
10291SOL    HW231773   3.919   1.533   2.498
10292SOL     OW31774   1.591   2.223   5.352
10292SOL    HW131775   1.590   2.194   5.256
10292SOL    HW231776   1.631   2.152   5.408
10293SOL     OW31777   1.508   3.571   2.254
10293SOL    HW131778   1.491   3.524   2.341
10293SOL    HW231779   1.606   3.569   2.233
10294SOL     OW31780   4.884   2.574   3.491
10294SOL    HW131781   4.851   2.514   3.564
10294SOL    HW231782   4.807   2.604   3.435
10295SOL     OW31783   0.482   3.324   6.175
10295SOL    HW131784   0.489   3.233   6.135
10295SOL    HW231785   0.470   3.392   6.102
10296SOL     OW31786   5.164   1.495   6.734
10296SOL    HW131787   5.137   1.510   6.829
10296SOL    HW231788   5.119   1.562   6.675
10297SOL     OW31789   1.808   0.833   6.620
10297SOL    HW131790   1.863   0.858   6.539
10297SOL    HW231791   1.821   0.736   6.640
10298SOL     OW31792   2.722   4.520   0.869
10298SOL    HW131793   2.741   4.618   0.856
10298SOL    HW231794   2.623   4.504   0.860
10299SOL     OW31795   4.599   4.746   3.156
10299SOL    HW131796   4.551   4.657   3.156
10299SOL    HW231797   4.538   4.816   3.119
10300SOL     OW31798   1.130   4.207   2.665
10300SOL    HW131799   1.162   4.173   2.753
10300SOL    HW231800   1.094   4.131   2.611
10301SOL     OW31801   4.984   2.002   4.412
10301SOL    HW131802   5.006   1.908   4.440
10301SOL    HW231803   5.029   2.022   4.325
10302SOL     OW31804   2.017   6.289   5.033
10302SOL    HW131805   2.018   6.389   5.032
10302SOL    HW231806   2.110   6.255   5.022
10303SOL     OW31807   1.427   5.714   2.799
10303SOL    HW131808   1.380   5.773   2.865
10303SOL    HW231809   1.390   5.621   2.805
10304SOL     OW31810   5.483   0.100   1.640
10304SOL    HW131811   5.460   0.181   1.694
10304SOL    HW231812   5.578   0.076   1.657
10305SOL     OW31813   1.230   4.160   6.328
10305SOL    HW131814   1.213   4.166   6.426
10305SOL    HW231815   1.190   4.075   6.293
10306SOL     OW31816   5.142   5.861   6.986
10306SOL    HW131817   5.101   5.951   6.969
10306SOL    HW231818   5.096   5.793   6.930
10307SOL     OW31819   2.834   2.131   5.433
10307SOL    HW131820   2.927   2.142   5.399
10307SOL    HW231821   2.791   2.220   5.441
10308SOL     OW31822   1.524   4.042   3.053
10308SOL    HW131823   1.455   3.995   2.998
10308SOL    HW231824   1.572   3.976   3.110
10309SOL     OW31825   6.856   1.641   6.813
10309SOL    HW131826   6.780   1.580   6.835
10309SOL    HW231827   6.845   1.677   6.720
10310SOL     OW31828   3.148   3.900   0.474
10310SOL    HW131829   3.243   3.869   0.470
10310SOL    HW231830   3.131   3.944   0.562
10311SOL     OW31831   6.737   5.905   0.508
10311SOL    HW131832   6.720   6.003   0.508
10311SOL    HW231833   6.764   5.875   0.417
10312SOL     OW31834   3.683   5.651   2.640
10312SOL    HW131835   3.614   5.584   2.612
10312SOL    HW231836   3.721   5.696   2.560
10313SOL     OW31837   4.420   6.275   2.083
10313SOL    HW131838   4.434   6.371   2.058
10313SOL    HW231839   4.356   6.232   2.019
10314SOL     OW31840   6.536   0.589   1.748
10314SOL    HW131841   6.530   0.491   1.765
10314SOL    HW231842   6.551   0.605   1.650
10315SOL     OW31843   5.253   5.306   5.118
10315SOL    HW131844   5.319   5.230   5.113
10315SOL    HW231845   5.289   5.378   5.177
10316SOL     OW31846   5.784   1.293   5.240
10316SOL    HW131847   5.684   1.287   5.236
10316SOL    HW231848   5.813   1.380   5.199
10317SOL     OW31849   5.005   5.717   5.592
10317SOL    HW131850   4.930   5.662   5.630
10317SOL    HW231851   5.086   5.661   5.582
10318SOL     OW31852   5.718   6.948   6.313
10318SOL    HW131853   5.657   6.890   6.259
10318SOL    HW231854   5.736   6.904   6.401
10319SOL     OW31855   0.938   2.525   5.571
10319SOL    HW131856   0.986   2.471   5.501
10319SOL    HW231857   0.932   2.620   5.541
10320SOL     OW31858   0.577   0.327   2.269
10320SOL    HW131859   0.675   0.308   2.278
10320SOL    HW231860   0.539   0.355   2.357
10321SOL     OW31861   3.890   1.840   1.795
10321SOL    HW131862   3.903   1.933   1.831
10321SOL    HW231863   3.801   1.805   1.827
10322SOL     OW31864   6.283   5.437   5.511
10322SOL    HW131865   6.249   5.475   5.597
10322SOL    HW231866   6.359   5.492   5.478
10323SOL     OW31867   5.874   3.585   5.481
10323SOL    HW131868   5.964   3.560   5.445
10323SOL    HW231869   5.805   3.520   5.447
10324SOL     OW31870   3.094   3.166   1.930
10324SOL    HW131871   3.038   3.099   1.978
10324SOL    HW231872   3.034   3.231   1.882
10325SOL     OW31873   6.585   3.833   2.453
10325SOL    HW131874   6.513   3.788   2.505
10325SOL    HW231875   6.595   3.788   2.364
10326SOL     OW31876   3.637   5.362   0.631
10326SOL    HW131877   3.693   5.303   0.574
10326SOL    HW231878   3.696   5.416   0.691
10327SOL     OW31879   2.340   1.633   1.020
10327SOL    HW131880   2.371   1.569   0.950
10327SOL    HW231881   2.244   1.615   1.041
10328SOL     OW31882   6.408   2.098   1.240
10328SOL    HW131883   6.420   2.043   1.157
10328SOL    HW231884   6.393   2.194   1.214
10329SOL     OW31885   3.909   0.576   3.863
10329SOL    HW131886   4.008   0.589   3.854
10329SOL    HW231887   3.889   0.543   3.956
10330SOL     OW31888   4.918   0.948   2.534
10330SOL    HW131889   5.012   0.913   2.532
10330SOL    HW231890   4.881   0.948   2.441
10331SOL     OW31891   6.495   0.541   6.103
10331SOL    HW131892   6.405   0.584   6.108
10331SOL    HW231893   6.487   0.445   6.132
10332SOL     OW31894   6.496   0.311   1.212
10332SOL    HW131895   6.407   0.347   1.184
10332SOL    HW231896   6.486   0.216   1.240
10333SOL     OW31897   6.723   4.620   4.814
10333SOL    HW131898   6.662   4.568   4.873
10333SOL    HW231899   6.696   4.608   4.718
10334SOL     OW31900   3.564   0.103   3.471
10334SOL    HW131901   3.602   0.061   3.554
10334SOL    HW231902   3.622   0.180   3.443
10335SOL     OW31903   2.793   4.137   6.733
10335SOL    HW131904   2.743   4.191   6.665
10335SOL    HW231905   2.730   4.100   6.801
10336SOL     OW31906   6.417   0.222   2.126
10336SOL    HW131907   6.396   0.159   2.051
10336SOL    HW231908   6.402   0.316   2.096
10337SOL     OW31909   6.920   6.611   5.849
10337SOL    HW131910   6.829   6.571   5.859
10337SOL    HW231911   6.982   6.544   5.807
10338SOL     OW31912   2.099   6.639   2.776
10338SOL    HW131913   2.045   6.722   2.790
10338SOL    HW231914   2.085   6.605   2.683
10339SOL     OW31915   3.519   4.328   6.741
10339SOL    HW131916   3.425   4.313   6.713
10339SOL    HW231917   3.577   4.337   6.660
10340SOL     OW31918   1.902   4.020   1.574
10340SOL    HW131919   1.991   3.994   1.612
10340SOL    HW231920   1.838   3.944   1.583
10341SOL     OW31921   2.134   3.215   2.410
10341SOL    HW131922   2.102   3.211   2.505
10341SOL    HW231923   2.212   3.154   2.398
10342SOL     OW31924   1.313   0.260   4.801
10342SOL    HW131925   1.227   0.238   4.754
10342SOL    HW231926   1.384   0.196   4.771
10343SOL     OW31927   3.708   6.169   0.040
10343SOL    HW131928   3.805   6.147   0.027
10343SOL    HW231929   3.699   6.228   0.121
10344SOL     OW31930   4.427   4.052   1.405
10344SOL    HW131931   4.399   3.958   1.426
10344SOL    HW231932   4.425   4.067   1.306
10345SOL     OW31933   1.657   1.436   6.592
10345SOL    HW131934   1.741   1.478   6.627
10345SOL    HW231935   1.600   1.406   6.668
10346SOL     OW31936   6.844   5.770   1.831
10346SOL    HW131937   6.937   5.754   1.798
10346SOL    HW231938   6.782   5.703   1.789
10347SOL     OW31939   4.346   1.844   3.475
10347SOL    HW131940   4.442   1.832   3.449
10347SOL    HW231941   4.336   1.928   3.528
10348SOL     OW31942   6.246   1.777   0.531
10348SOL    HW131943   6.289   1.753   0.444
10348SOL    HW231944   6.283   1.719   0.604
10349SOL     OW31945   0.892   0.736   0.879
10349SOL    HW131946   0.990   0.748   0.892
10349SOL    HW231947   0.859   0.803   0.812
10350SOL     OW31948   2.215   0.046   5.265
10350SOL    HW131949   2.235   0.129   5.213
10350SOL    HW231950   2.134   0.001   5.226
10351SOL     OW31951   4.328   4.699   6.036
10351SOL    HW131952   4.423   4.674   6.017
10351SOL    HW231953   4.272   4.678   5.955
10352SOL     OW31954   3.741   1.738   5.815
10352SOL    HW131955   3.796   1.814   5.780
10352SOL    HW231956   3.674   1.773   5.880
10353SOL     OW31957   6.711   2.560   5.566
10353SOL    HW131958   6.753   2.486   5.618
10353SOL    HW231959   6.738   2.553   5.470
10354SOL     OW31960   5.600   2.558   2.187
10354SOL    HW131961   5.676   2.542   2.124
10354SOL    HW231962   5.528   2.491   2.172
10355SOL     OW31963   1.786   0.010   2.425
10355SOL    HW131964   1.777   6.953   2.472
10355SOL    HW231965   1.711   0.021   2.360
10356SOL     OW31966   0.743   4.455   5.921
10356SOL    HW131967   0.730   4.375   5.863
10356SOL    HW231968   0.728   4.430   6.017
10357SOL     OW31969   1.786   3.283   5.971
10357SOL    HW131970   1.814   3.206   5.913
10357SOL    HW231971   1.703   3.324   5.934
10358SOL     OW31972   6.004   2.458   3.263
10358SOL    HW131973   6.068   2.533   3.249
10358SOL    HW231974   5.977   2.419   3.175
10359SOL     OW31975   0.449   1.823   1.886
10359SOL    HW131976   0.483   1.911   1.919
10359SOL    HW231977   0.472   1.812   1.790
10360SOL     OW31978   4.947   5.596   3.231
10360SOL    HW131979   4.888   5.675   3.251
10360SOL    HW231980   5.014   5.586   3.305
10361SOL     OW31981   3.151   0.155   3.292
10361SOL    HW131982   3.164   0.067   3.247
10361SOL    HW231983   3.119   0.139   3.386
10362SOL     OW31984   0.328   4.918   4.842
10362SOL    HW131985   0.283   4.922   4.753
10362SOL    HW231986   0.264   4.883   4.911
10363SOL     OW31987   5.282   1.379   1.620
10363SOL    HW131988   5.270   1.397   1.718
10363SOL    HW231989   5.299   1.281   1.607
10364SOL     OW31990   2.944   3.349   1.410
10364SOL    HW131991   2.927   3.253   1.387
10364SOL    HW231992   2.952   3.359   1.509
10365SOL     OW31993   4.597   4.674   6.000
10365SOL    HW131994   4.603   4.575   5.992
10365SOL    HW231995   4.654   4.705   6.076
10366SOL     OW31996   3.865   0.348   4.259
10366SOL    HW131997   3.922   0.269   4.279
10366SOL    HW231998   3.817   0.377   4.342
10367SOL     OW31999   6.274   1.817   2.717
10367SOL    HW132000   6.219   1.740   2.684
10367SOL    HW232001   6.370   1.789   2.726
10368SOL     OW32002   1.883   1.146   1.491
10368SOL    HW132003   1.854   1.085   1.417
10368SOL    HW232004   1.859   1.105   1.579
10369SOL     OW32005   3.828   1.166   5.317
10369SOL    HW132006   3.907   1.193   5.263
10369SOL    HW232007   3.745   1.171   5.260
10370SOL     OW32008   5.504   1.457   5.511
10370SOL    HW132009   5.557   1.378   5.543
10370SOL    HW232010   5.450   1.494   5.587
10371SOL     OW32011   2.967   5.919   4.521
10371SOL    HW132012   2.991   5.832   4.478
10371SOL    HW232013   2.905   5.903   4.598
10372SOL     OW32014   1.077   1.585   0.003
10372SOL    HW132015   1.015   1.644   6.981
10372SOL    HW232016   1.093   1.501   6.982
10373SOL     OW32017   2.246   5.932   4.692
10373SOL    HW132018   2.308   5.975   4.627
10373SOL    HW232019   2.189   6.002   4.735
10374SOL     OW32020   3.946   0.954   2.523
10374SOL    HW132021   3.907   0.887   2.586
10374SOL    HW232022   3.922   1.046   2.553
10375SOL     OW32023   3.026   1.717   6.063
10375SOL    HW132024   3.019   1.652   5.987
10375SOL    HW232025   2.981   1.803   6.038
10376SOL     OW32026   1.422   6.452   3.963
10376SOL    HW132027   1.355   6.471   4.035
10376SOL    HW232028   1.514   6.449   4.002
10377SOL     OW32029   0.138   0.489   3.935
10377SOL    HW132030   0.159   0.485   4.033
10377SOL    HW232031   0.213   0.533   3.886
10378SOL     OW32032   6.664   0.071   6.179
10378SOL    HW132033   6.699   0.061   6.086
10378SOL    HW232034   6.584   0.131   6.178
10379SOL     OW32035   3.508   6.591   4.940
10379SOL    HW132036   3.563   6.620   4.862
10379SOL    HW232037   3.478   6.671   4.992
10380SOL     OW32038   0.222   1.256   3.783
10380SOL    HW132039   0.155   1.329   3.767
10380SOL    HW232040   0.303   1.295   3.827
10381SOL     OW32041   4.109   5.848   6.524
10381SOL    HW132042   4.190   5.907   6.529
10381SOL    HW232043   4.121   5.780   6.452
10382SOL     OW32044   2.030   4.671   0.331
10382SOL    HW132045   2.051   4.742   0.398
10382SOL    HW232046   1.965   4.606   0.371
10383SOL     OW32047   0.617   4.196   0.448
10383SOL    HW132048   0.535   4.245   0.417
10383SOL    HW232049   0.619   4.195   0.548
10384SOL     OW32050   0.860   0.366   1.022
10384SOL    HW132051   0.779   0.368   1.080
10384SOL    HW232052   0.865   0.451   0.970
10385SOL     OW32053   3.828   0.366   6.875
10385SOL    HW132054   3.744   0.415   6.896
10385SOL    HW232055   3.845   0.371   6.776
10386SOL     OW32056   5.742   3.331   5.460
10386SOL    HW132057   5.777   3.261   5.521
10386SOL    HW232058   5.676   3.388   5.508
10387SOL     OW32059   4.002   2.173   2.272
10387SOL    HW132060   3.925   2.214   2.321
10387SOL    HW232061   3.983   2.174   2.173
10388SOL     OW32062   1.615   5.963   3.170
10388SOL    HW132063   1.687   5.908   3.211
10388SOL    HW232064   1.579   6.027   3.238
10389SOL     OW32065   0.349   6.977   1.675
10389SOL    HW132066   0.268   7.006   1.625
10389SOL    HW232067   0.346   7.014   1.768
10390SOL     OW32068   1.452   3.642   1.629
10390SOL    HW132069   1.522   3.614   1.564
10390SOL    HW232070   1.367   3.663   1.581
10391SOL     OW32071   1.605   5.834   5.201
10391SOL    HW132072   1.553   5.877   5.128
10391SOL    HW232073   1.549   5.826   5.283
10392SOL     OW32074   6.558   4.126   0.132
10392SOL    HW132075   6.509   4.122   0.044
10392SOL    HW232076   6.492   4.125   0.207
10393SOL     OW32077   2.185   2.159   2.798
10393SOL    HW132078   2.242   2.078   2.807
10393SOL    HW232079   2.100   2.146   2.850
10394SOL     OW32080   2.690   6.576   6.022
10394SOL    HW132081   2.599   6.542   6.047
10394SOL    HW232082   2.710   6.660   6.072
10395SOL     OW32083   6.147   0.426   3.805
10395SOL    HW132084   6.068   0.391   3.857
10395SOL    HW232085   6.120   0.510   3.757
10396SOL     OW32086   2.045   0.123   4.559
10396SOL    HW132087   2.120   0.103   4.496
10396SOL    HW232088   1.964   0.151   4.507
10397SOL     OW32089   3.193   1.965   3.181
10397SOL    HW132090   3.230   1.880   3.218
10397SOL    HW232091   3.257   2.003   3.114
10398SOL     OW32092   5.828   2.743   0.743
10398SOL    HW132093   5.815   2.664   0.685
10398SOL    HW232094   5.780   2.822   0.704
10399SOL     OW32095   4.253   1.632   5.025
10399SOL    HW132096   4.330   1.589   4.977
10399SOL    HW232097   4.270   1.630   5.124
10400SOL     OW32098   3.520   5.935   2.032
10400SOL    HW132099   3.453   5.936   2.107
10400SOL    HW232100   3.609   5.906   2.068
10401SOL     OW32101   6.960   0.454   2.319
10401SOL    HW132102   6.900   0.415   2.390
10401SOL    HW232103   6.940   0.411   2.231
10402SOL     OW32104   0.331   2.616   5.286
10402SOL    HW132105   0.408   2.666   5.246
10402SOL    HW232106   0.361   2.523   5.309
10403SOL     OW32107   5.090   1.508   2.037
10403SOL    HW132108   5.004   1.560   2.036
10403SOL    HW232109   5.070   1.412   2.019
10404SOL     OW32110   0.676   6.651   3.270
10404SOL    HW132111   0.607   6.624   3.337
10404SOL    HW232112   0.738   6.574   3.253
10405SOL     OW32113   1.116   5.382   4.838
10405SOL    HW132114   1.132   5.456   4.773
10405SOL    HW232115   1.161   5.403   4.925
10406SOL     OW32116   2.170   3.846   4.944
10406SOL    HW132117   2.209   3.923   4.994
10406SOL    HW232118   2.193   3.760   4.990
10407SOL     OW32119   1.838   0.558   6.667
10407SOL    HW132120   1.879   0.476   6.628
10407SOL    HW232121   1.749   0.536   6.707
10408SOL     OW32122   4.315   5.852   2.657
10408SOL    HW132123   4.343   5.895   2.571
10408SOL    HW232124   4.217   5.833   2.655
10409SOL     OW32125   0.927   4.542   0.678
10409SOL    HW132126   0.898   4.477   0.748
10409SOL    HW232127   1.025   4.531   0.660
10410SOL     OW32128   5.431   1.643   1.105
10410SOL    HW132129   5.497   1.717   1.112
10410SOL    HW232130   5.346   1.668   1.152
10411SOL     OW32131   3.293   5.377   3.906
10411SOL    HW132132   3.307   5.374   4.005
10411SOL    HW232133   3.227   5.306   3.880
10412SOL     OW32134   0.459   1.256   0.628
10412SOL    HW132135   0.548   1.285   0.590
10412SOL    HW232136   0.397   1.334   0.627
10413SOL     OW32137   0.606   2.141   0.868
10413SOL    HW132138   0.555   2.115   0.786
10413SOL    HW232139   0.704   2.132   0.851
10414SOL     OW32140   4.659   6.046   5.850
10414SOL    HW132141   4.713   5.980   5.797
10414SOL    HW232142   4.693   6.138   5.833
10415SOL     OW32143   2.074   5.118   4.306
10415SOL    HW132144   2.134   5.196   4.287
10415SOL    HW232145   2.095   5.082   4.398
10416SOL     OW32146   0.348   1.473   5.828
10416SOL    HW132147   0.250   1.468   5.847
10416SOL    HW232148   0.367   1.430   5.740
10417SOL     OW32149   4.707   4.403   4.088
10417SOL    HW132150   4.754   4.491   4.078
10417SOL    HW232151   4.775   4.330   4.098
10418SOL     OW32152   6.435   4.418   5.360
10418SOL    HW132153   6.470   4.365   5.283
10418SOL    HW232154   6.341   4.388   5.381
10419SOL     OW32155   2.944   0.584   5.175
10419SOL    HW132156   3.029   0.624   5.141
10419SOL    HW232157   2.909   0.640   5.250
10420SOL     OW32158   6.779   3.528   3.121
10420SOL    HW132159   6.716   3.586   3.068
10420SOL    HW232160   6.802   3.447   3.068
10421SOL     OW32161   1.262   3.387   3.890
10421SOL    HW132162   1.239   3.428   3.979
10421SOL    HW232163   1.193   3.413   3.822
10422SOL     OW32164   6.795   3.775   5.606
10422SOL    HW132165   6.887   3.799   5.636
10422SOL    HW232166   6.735   3.855   5.616
10423SOL     OW32167   4.110   4.970   4.740
10423SOL    HW132168   4.169   5.041   4.702
10423SOL    HW232169   4.048   4.936   4.669
10424SOL     OW32170   4.807   2.135   6.981
10424SOL    HW132171   4.830   2.221   7.026
10424SOL    HW232172   4.871   2.118   6.906
10425SOL     OW32173   0.694   6.363   1.684
10425SOL    HW132174   0.679   6.453   1.643
10425SOL    HW232175   0.664   6.292   1.620
10426SOL     OW32176   4.813   3.367   5.670
10426SOL    HW132177   4.854   3.457   5.687
10426SOL    HW232178   4.837   3.305   5.744
10427SOL     OW32179   5.298   5.398   5.779
10427SOL    HW132180   5.358   5.476   5.762
10427SOL    HW232181   5.247   5.411   5.864
10428SOL     OW32182   1.430   1.989   3.472
10428SOL    HW132183   1.385   2.008   3.559
10428SOL    HW232184   1.520   2.031   3.471
10429SOL     OW32185   1.501   3.812   2.871
10429SOL    HW132186   1.484   3.882   2.801
10429SOL    HW232187   1.596   3.819   2.902
10430SOL     OW32188   3.495   5.868   4.253
10430SOL    HW132189   3.415   5.836   4.203
10430SOL    HW232190   3.523   5.958   4.219
10431SOL     OW32191   2.879   0.767   3.925
10431SOL    HW132192   2.940   0.711   3.982
10431SOL    HW232193   2.857   0.852   3.973
10432SOL     OW32194   0.731   0.959   5.354
10432SOL    HW132195   0.722   0.945   5.453
10432SOL    HW232196   0.814   1.013   5.336
10433SOL     OW32197   0.560   6.170   1.542
10433SOL    HW132198   0.525   6.117   1.619
10433SOL    HW232199   0.597   6.107   1.473
10434SOL     OW32200   4.840   6.464   4.647
10434SOL    HW132201   4.892   6.528   4.590
10434SOL    HW232202   4.835   6.375   4.600
10435SOL     OW32203   1.337   2.057   6.249
10435SOL    HW132204   1.298   1.972   6.284
10435SOL    HW232205   1.354   2.048   6.151
10436SOL     OW32206   6.046   3.458   4.346
10436SOL    HW132207   6.005   3.493   4.261
10436SOL    HW232208   6.106   3.381   4.324
10437SOL     OW32209   5.526   5.181   5.153
10437SOL    HW132210   5.550   5.099   5.205
10437SOL    HW232211   5.511   5.257   5.216
10438SOL     OW32212   0.017   6.434   5.712
10438SOL    HW132213   0.107   6.398   5.739
10438SOL    HW232214   0.024   6.477   5.622
10439SOL     OW32215   6.290   0.495   4.529
10439SOL    HW132216   6.277   0.592   4.551
10439SOL    HW232217   6.206   0.445   4.547
10440SOL     OW32218   0.089   0.575   0.012
10440SOL    HW132219   0.015   0.631   7.006
10440SOL    HW232220   0.094   0.489   6.993
10441SOL     OW32221   3.296   1.700   0.577
10441SOL    HW132222   3.220   1.756   0.611
10441SOL    HW232223   3.369   1.760   0.544
10442SOL     OW32224   3.573   0.897   5.363
10442SOL    HW132225   3.672   0.892   5.349
10442SOL    HW232226   3.542   0.813   5.409
10443SOL     OW32227   6.799   2.256   2.925
10443SOL    HW132228   6.836   2.261   2.833
10443SOL    HW232229   6.803   2.346   2.968
10444SOL     OW32230   3.177   4.908   3.042
10444SOL    HW132231   3.273   4.906   3.015
10444SOL    HW232232   3.170   4.908   3.142
10445SOL     OW32233   0.369   3.720   2.366
10445SOL    HW132234   0.404   3.806   2.330
10445SOL    HW232235   0.369   3.724   2.466
10446SOL     OW32236   1.761   4.486   6.133
10446SOL    HW132237   1.765   4.399   6.085
10446SOL    HW232238   1.668   4.500   6.168
10447SOL     OW32239   6.282   1.200   1.766
10447SOL    HW132240   6.313   1.211   1.671
10447SOL    HW232241   6.359   1.212   1.828
10448SOL     OW32242   3.068   0.537   3.175
10448SOL    HW132243   3.014   0.453   3.175
10448SOL    HW232244   3.118   0.545   3.261
10449SOL     OW32245   3.630   5.524   6.914
10449SOL    HW132246   3.635   5.581   6.996
10449SOL    HW232247   3.708   5.462   6.912
10450SOL     OW32248   6.377   0.817   6.362
10450SOL    HW132249   6.365   0.904   6.314
10450SOL    HW232250   6.475   0.802   6.381
10451SOL     OW32251   3.039   0.576   3.480
10451SOL    HW132252   2.958   0.619   3.519
10451SOL    HW232253   3.074   0.507   3.544
10452SOL     OW32254   6.956   2.559   2.851
10452SOL    HW132255   6.940   2.652   2.820
10452SOL    HW232256   6.937   2.553   2.949
10453SOL     OW32257   4.656   6.242   3.114
10453SOL    HW132258   4.631   6.153   3.076
10453SOL    HW232259   4.574   6.297   3.128
10454SOL     OW32260   6.040   1.189   0.249
10454SOL    HW132261   6.105   1.141   0.191
10454SOL    HW232262   6.074   1.281   0.268
10455SOL     OW32263   6.528   5.887   4.067
10455SOL    HW132264   6.572   5.902   4.156
10455SOL    HW232265   6.429   5.878   4.081
10456SOL     OW32266   7.023   5.714   0.254
10456SOL    HW132267   6.940   5.769   0.264
10456SOL    HW232268   7.026   5.643   0.324
10457SOL     OW32269   4.395   3.701   6.917
10457SOL    HW132270   4.448   3.690   6.833
10457SOL    HW232271   4.433   3.642   6.989
10458SOL     OW32272   6.753   0.524   6.121
10458SOL    HW132273   6.775   0.507   6.025
10458SOL    HW232274   6.653   0.529   6.131
10459SOL     OW32275   5.795   5.207   0.773
10459SOL    HW132276   5.746   5.140   0.828
10459SOL    HW232277   5.892   5.184   0.772
10460SOL     OW32278   6.886   3.899   1.838
10460SOL    HW132279   6.867   3.938   1.929
10460SOL    HW232280   6.833   3.816   1.826
10461SOL     OW32281   6.556   4.557   5.561
10461SOL    HW132282   6.525   4.502   5.484
10461SOL    HW232283   6.529   4.513   5.647
10462SOL     OW32284   4.755   1.527   2.112
10462SOL    HW132285   4.742   1.430   2.092
10462SOL    HW232286   4.780   1.538   2.208
10463SOL     OW32287   4.624   1.535   5.959
10463SOL    HW132288   4.597   1.555   6.053
10463SOL    HW232289   4.685   1.607   5.926
10464SOL     OW32290   5.657   5.896   2.074
10464SOL    HW132291   5.586   5.950   2.119
10464SOL    HW232292   5.672   5.811   2.125
10465SOL     OW32293   4.979   4.685   2.692
10465SOL    HW132294   5.054   4.666   2.628
10465SOL    HW232295   4.998   4.770   2.741
10466SOL     OW32296   5.189   4.451   6.508
10466SOL    HW132297   5.134   4.459   6.592
10466SOL    HW232298   5.186   4.357   6.474
10467SOL     OW32299   1.494   2.586   6.634
10467SOL    HW132300   1.485   2.579   6.535
10467SOL    HW232301   1.490   2.494   6.674
10468SOL     OW32302   3.569   4.962   3.379
10468SOL    HW132303   3.507   4.972   3.458
10468SOL    HW232304   3.664   4.965   3.411
10469SOL     OW32305   4.657   4.419   5.990
10469SOL    HW132306   4.712   4.405   6.072
10469SOL    HW232307   4.582   4.352   5.988
10470SOL     OW32308   2.766   1.871   3.406
10470SOL    HW132309   2.799   1.880   3.500
10470SOL    HW232310   2.697   1.941   3.388
10471SOL     OW32311   2.953   0.536   0.166
10471SOL    HW132312   3.003   0.450   0.172
10471SOL    HW232313   2.888   0.543   0.243
10472SOL     OW32314   2.862   5.431   1.355
10472SOL    HW132315   2.907   5.416   1.444
10472SOL    HW232316   2.795   5.505   1.364
10473SOL     OW32317   5.823   6.237   5.701
10473SOL    HW132318   5.773   6.236   5.615
10473SOL    HW232319   5.921   6.243   5.683
10474SOL     OW32320   4.618   1.261   3.490
10474SOL    HW132321   4.665   1.250   3.577
10474SOL    HW232322   4.520   1.247   3.503
10475SOL     OW32323   2.954   6.720   1.774
10475SOL    HW132324   2.859   6.721   1.742
10475SOL    HW232325   2.994   6.630   1.758
10476SOL     OW32326   5.109   6.518   6.174
10476SOL    HW132327   5.020   6.563   6.181
10476SOL    HW232328   5.118   6.448   6.245
10477SOL     OW32329   0.215   0.429   4.699
10477SOL    HW132330   0.243   0.380   4.782
10477SOL    HW232331   0.118   0.414   4.682
10478SOL     OW32332   0.015   6.605   0.153
10478SOL    HW132333   7.002   6.542   0.216
10478SOL    HW232334   0.041   6.689   0.202
10479SOL     OW32335   6.482   1.809   2.029
10479SOL    HW132336   6.501   1.718   1.993
10479SOL    HW232337   6.405   1.804   2.093
10480SOL     OW32338   1.160   0.414   1.873
10480SOL    HW132339   1.119   0.339   1.821
10480SOL    HW232340   1.198   0.378   1.959
10481SOL     OW32341   1.783   6.286   2.902
10481SOL    HW132342   1.776   6.382   2.872
10481SOL    HW232343   1.707   6.265   2.964
10482SOL     OW32344   6.345   5.103   4.472
10482SOL    HW132345   6.397   5.028   4.432
10482SOL    HW232346   6.290   5.147   4.401
10483SOL     OW32347   5.477   6.028   0.336
10483SOL    HW132348   5.501   5.956   0.271
10483SOL    HW232349   5.489   6.118   0.293
10484SOL     OW32350   4.438   1.671   1.229
10484SOL    HW132351   4.411   1.605   1.159
10484SOL    HW232352   4.358   1.721   1.260
10485SOL     OW32353   3.259   4.605   6.920
10485SOL    HW132354   3.262   4.640   7.013
10485SOL    HW232355   3.220   4.513   6.920
10486SOL     OW32356   6.942   1.119   0.186
10486SOL    HW132357   6.950   1.019   0.190
10486SOL    HW232358   0.001   1.159   0.165
10487SOL     OW32359   5.264   6.648   2.225
10487SOL    HW132360   5.189   6.613   2.281
10487SOL    HW232361   5.318   6.571   2.189
10488SOL     OW32362   2.855   2.194   6.489
10488SOL    HW132363   2.887   2.242   6.571
10488SOL    HW232364   2.762   2.162   6.504
10489SOL     OW32365   0.602   0.037   5.415
10489SOL    HW132366   0.665   7.009   5.467
10489SOL    HW232367   0.558   0.102   5.477
10490SOL     OW32368   6.188   1.347   2.186
10490SOL    HW132369   6.120   1.384   2.249
10490SOL    HW232370   6.142   1.287   2.120
10491SOL     OW32371   1.361   3.470   0.071
10491SOL    HW132372   1.365   3.380   0.028
10491SOL    HW232373   1.276   3.478   0.124
10492SOL     OW32374   5.853   3.989   6.086
10492SOL    HW132375   5.935   3.936   6.063
10492SOL    HW232376   5.785   3.978   6.013
10493SOL     OW32377   3.212   1.361   1.637
10493SOL    HW132378   3.186   1.311   1.554
10493SOL    HW232379   3.261   1.299   1.699
10494SOL     OW32380   4.615   3.473   5.913
10494SOL    HW132381   4.515   3.474   5.921
10494SOL    HW232382   4.643   3.534   5.840
10495SOL     OW32383   2.272   6.815   0.415
10495SOL    HW132384   2.340   6.745   0.437
10495SOL    HW232385   2.304   6.904   0.448
10496SOL     OW32386   0.634   5.749   0.576
10496SOL    HW132387   0.676   5.658   0.575
10496SOL    HW232388   0.640   5.789   0.484
10497SOL     OW32389   2.285   0.034   2.205
10497SOL    HW132390   2.222   0.085   2.265
10497SOL    HW232391   2.371   0.018   2.253
10498SOL     OW32392   3.495   6.495   1.578
10498SOL    HW132393   3.452   6.406   1.592
10498SOL    HW232394   3.590   6.492   1.610
10499SOL     OW32395   3.240   6.576   2.407
10499SOL    HW132396   3.199   6.656   2.364
10499SOL    HW232397   3.184   6.548   2.486
10500SOL     OW32398   0.207   0.606   6.740
10500SOL    HW132399   0.167   0.630   6.652
10500SOL    HW232400   0.277   0.673   6.765
10501SOL     OW32401   2.056   5.364   3.108
10501SOL    HW132402   2.132   5.394   3.050
10501SOL    HW232403   1.990   5.439   3.118
10502SOL     OW32404   2.979   0.762   0.974
10502SOL    HW132405   3.077   0.745   0.991
10502SOL    HW232406   2.954   0.850   1.013
10503SOL     OW32407   3.986   2.977   6.961
10503SOL    HW132408   3.975   2.987   0.029
10503SOL    HW232409   3.935   3.048   6.914
10504SOL     OW32410   2.203   2.188   0.161
10504SOL    HW132411   2.245   2.102   0.188
10504SOL    HW232412   2.245   2.221   0.076
10505SOL     OW32413   5.827   5.453   0.599
10505SOL    HW132414   5.735   5.473   0.565
10505SOL    HW232415   5.820   5.399   0.683
10506SOL     OW32416   0.062   5.113   6.562
10506SOL    HW132417   0.097   5.044   6.498
10506SOL    HW232418   0.128   5.189   6.567
10507SOL     OW32419   2.559   6.734   6.825
10507SOL    HW132420   2.544   6.753   6.922
10507SOL    HW232421   2.596   6.642   6.815
10508SOL     OW32422   6.073   6.031   4.727
10508SOL    HW132423   6.015   5.983   4.792
10508SOL    HW232424   6.053   6.129   4.730
10509SOL     OW32425   1.053   6.182   5.523
10509SOL    HW132426   1.019   6.271   5.555
10509SOL    HW232427   0.992   6.146   5.453
10510SOL     OW32428   5.188   6.024   5.762
10510SOL    HW132429   5.242   6.106   5.779
10510SOL    HW232430   5.246   5.943   5.767
10511SOL     OW32431   4.719   2.251   1.502
10511SOL    HW132432   4.780   2.204   1.438
10511SOL    HW232433   4.694   2.340   1.464
10512SOL     OW32434   3.940   0.432   5.730
10512SOL    HW132435   3.894   0.475   5.653
10512SOL    HW232436   4.038   0.451   5.726
10513SOL     OW32437   6.879   2.441   4.600
10513SOL    HW132438   6.930   2.494   4.668
10513SOL    HW232439   6.782   2.441   4.624
10514SOL     OW32440   7.019   3.775   0.181
10514SOL    HW132441   0.019   3.866   0.208
10514SOL    HW232442   6.968   3.733   0.256
10515SOL     OW32443   6.734   2.849   3.025
10515SOL    HW132444   6.717   2.751   3.023
10515SOL    HW232445   6.823   2.867   3.066
10516SOL     OW32446   4.253   1.358   6.904
10516SOL    HW132447   4.265   1.259   6.897
10516SOL    HW232448   4.334   1.399   6.945
10517SOL     OW32449   6.987   2.030   2.759
10517SOL    HW132450   6.982   1.979   2.673
10517SOL    HW232451   6.911   2.004   2.818
10518SOL     OW32452   0.914   4.822   6.415
10518SOL    HW132453   0.963   4.739   6.441
10518SOL    HW232454   0.974   4.901   6.424
10519SOL     OW32455   2.152   2.388   6.308
10519SOL    HW132456   2.062   2.403   6.349
10519SOL    HW232457   2.166   2.455   6.235
10520SOL     OW32458   2.018   2.745   6.288
10520SOL    HW132459   1.935   2.710   6.331
10520SOL    HW232460   2.016   2.845   6.286
10521SOL     OW32461   5.929   5.523   1.646
10521SOL    HW132462   5.864   5.579   1.697
10521SOL    HW232463   5.991   5.582   1.595
10522SOL     OW32464   6.028   0.811   0.264
10522SOL    HW132465   5.956   0.839   0.201
10522SOL    HW232466   6.116   0.848   0.232
10523SOL     OW32467   0.968   5.893   4.644
10523SOL    HW132468   1.019   5.847   4.716
10523SOL    HW232469   1.018   5.976   4.617
10524SOL     OW32470   2.324   0.912   4.761
10524SOL    HW132471   2.233   0.930   4.799
10524SOL    HW232472   2.393   0.925   4.832
10525SOL     OW32473   3.190   0.218   5.771
10525SOL    HW132474   3.224   0.291   5.712
10525SOL    HW232475   3.219   0.129   5.735
10526SOL     OW32476   0.628   0.086   2.791
10526SOL    HW132477   0.618   0.047   2.882
10526SOL    HW232478   0.662   0.179   2.798
10527SOL     OW32479   6.472   2.588   4.624
10527SOL    HW132480   6.467   2.676   4.577
10527SOL    HW232481   6.480   2.604   4.723
10528SOL     OW32482   0.638   3.181   5.790
10528SOL    HW132483   0.625   3.111   5.720
10528SOL    HW232484   0.624   3.272   5.750
10529SOL     OW32485   2.250   6.303   3.749
10529SOL    HW132486   2.199   6.374   3.798
10529SOL    HW232487   2.301   6.345   3.673
10530SOL     OW32488   2.045   1.318   6.239
10530SOL    HW132489   2.051   1.374   6.156
10530SOL    HW232490   1.986   1.239   6.222
10531SOL     OW32491   0.970   2.600   4.186
10531SOL    HW132492   1.011   2.657   4.258
10531SOL    HW232493   1.033   2.596   4.108
10532SOL     OW32494   2.165   4.020   0.318
10532SOL    HW132495   2.200   4.027   0.224
10532SOL    HW232496   2.097   3.948   0.322
10533SOL     OW32497   3.168   1.829   4.902
10533SOL    HW132498   3.070   1.837   4.919
10533SOL    HW232499   3.191   1.878   4.818
10534SOL     OW32500   5.955   5.445   1.217
10534SOL    HW132501   5.917   5.427   1.126
10534SOL    HW232502   5.978   5.542   1.224
10535SOL     OW32503   0.834   1.673   1.069
10535SOL    HW132504   0.775   1.609   1.119
10535SOL    HW232505   0.779   1.723   1.002
10536SOL     OW32506   3.659   0.745   2.884
10536SOL    HW132507   3.746   0.779   2.847
10536SOL    HW232508   3.666   0.647   2.902
10537SOL     OW32509   3.652   5.204   4.122
10537SOL    HW132510   3.702   5.211   4.209
10537SOL    HW232511   3.621   5.294   4.094
10538SOL     OW32512   4.789   2.874   6.788
10538SOL    HW132513   4.803   2.806   6.860
10538SOL    HW232514   4.833   2.960   6.814
10539SOL     OW32515   0.473   4.341   6.605
10539SOL    HW132516   0.525   4.256   6.601
10539SOL    HW232517   0.509   4.406   6.538
10540SOL     OW32518   1.223   2.068   5.102
10540SOL    HW132519   1.214   2.151   5.045
10540SOL    HW232520   1.239   2.095   5.197
10541SOL     OW32521   3.654   3.806   1.785
10541SOL    HW132522   3.687   3.717   1.752
10541SOL    HW232523   3.615   3.794   1.877
10542SOL     OW32524   6.525   1.993   6.594
10542SOL    HW132525   6.429   2.010   6.572
10542SOL    HW232526   6.532   1.912   6.653
10543SOL     OW32527   6.837   1.103   5.154
10543SOL    HW132528   6.773   1.166   5.197
10543SOL    HW232529   6.918   1.092   5.212
10544SOL     OW32530   1.307   7.013   2.707
10544SOL    HW132531   1.216   0.024   2.699
10544SOL    HW232532   1.374   0.054   2.726
10545SOL     OW32533   5.620   1.195   2.787
10545SOL    HW132534   5.666   1.253   2.854
10545SOL    HW232535   5.536   1.159   2.827
10546SOL     OW32536   0.429   0.960   6.205
10546SOL    HW132537   0.408   0.892   6.275
10546SOL    HW232538   0.439   1.050   6.248
10547SOL     OW32539   4.591   2.283   1.807
10547SOL    HW132540   4.582   2.196   1.757
10547SOL    HW232541   4.630   2.352   1.746
10548SOL     OW32542   5.203   4.014   5.016
10548SOL    HW132543   5.183   4.096   4.963
10548SOL    HW232544   5.259   4.038   5.095
10549SOL     OW32545   6.491   0.387   2.457
10549SOL    HW132546   6.496   0.333   2.373
10549SOL    HW232547   6.418   0.455   2.448
10550SOL     OW32548   4.410   6.462   5.290
10550SOL    HW132549   4.430   6.541   5.232
10550SOL    HW232550   4.317   6.471   5.327
10551SOL     OW32551   1.493   2.772   5.588
10551SOL    HW132552   1.470   2.773   5.685
10551SOL    HW232553   1.569   2.834   5.571
10552SOL     OW32554   3.769   2.260   5.996
10552SOL    HW132555   3.767   2.241   5.898
10552SOL    HW232556   3.859   2.237   6.034
10553SOL     OW32557   1.296   5.239   1.746
10553SOL    HW132558   1.256   5.167   1.690
10553SOL    HW232559   1.387   5.262   1.712
10554SOL     OW32560   4.968   5.408   6.699
10554SOL    HW132561   4.963   5.339   6.627
10554SOL    HW232562   4.894   5.474   6.687
10555SOL     OW32563   2.559   3.316   1.075
10555SOL    HW132564   2.608   3.342   1.159
10555SOL    HW232565   2.601   3.234   1.037
10556SOL     OW32566   2.060   2.312   4.944
10556SOL    HW132567   2.135   2.262   4.901
10556SOL    HW232568   2.052   2.402   4.902
10557SOL     OW32569   1.989   2.056   3.369
10557SOL    HW132570   1.905   2.090   3.411
10557SOL    HW232571   2.052   2.026   3.441
10558SOL     OW32572   4.214   0.699   4.422
10558SOL    HW132573   4.283   0.627   4.431
10558SOL    HW232574   4.126   0.664   4.454
10559SOL     OW32575   4.410   0.876   1.227
10559SOL    HW132576   4.501   0.844   1.200
10559SOL    HW232577   4.345   0.859   1.152
10560SOL     OW32578   2.924   6.909   3.730
10560SOL    HW132579   2.976   6.834   3.688
10560SOL    HW232580   2.975   6.945   3.808
10561SOL     OW32581   2.601   4.859   0.835
10561SOL    HW132582   2.624   4.845   0.739
10561SOL    HW232583   2.660   4.929   0.873
10562SOL     OW32584   5.172   5.680   0.643
10562SOL    HW132585   5.182   5.756   0.579
10562SOL    HW232586   5.097   5.699   0.706
10563SOL     OW32587   1.172   0.487   4.115
10563SOL    HW132588   1.238   0.439   4.057
10563SOL    HW232589   1.156   0.578   4.079
10564SOL     OW32590   5.870   6.740   2.423
10564SOL    HW132591   5.795   6.676   2.406
10564SOL    HW232592   5.887   6.793   2.340
10565SOL     OW32593   0.123   0.811   5.346
10565SOL    HW132594   0.178   0.873   5.289
10565SOL    HW232595   0.114   0.723   5.300
10566SOL     OW32596   4.080   2.725   6.932
10566SOL    HW132597   4.122   2.713   6.842
10566SOL    HW232598   4.036   2.814   6.937
10567SOL     OW32599   2.594   2.185   4.321
10567SOL    HW132600   2.599   2.111   4.254
10567SOL    HW232601   2.650   2.262   4.291
10568SOL     OW32602   5.742   1.457   1.403
10568SOL    HW132603   5.753   1.395   1.325
10568SOL    HW232604   5.646   1.482   1.412
10569SOL     OW32605   6.160   2.430   1.605
10569SOL    HW132606   6.225   2.487   1.655
10569SOL    HW232607   6.073   2.427   1.654
10570SOL     OW32608   1.648   5.037   3.091
10570SOL    HW132609   1.605   5.116   3.135
10570SOL    HW232610   1.704   5.069   3.014
10571SOL     OW32611   0.288   4.480   4.411
10571SOL    HW132612   0.317   4.419   4.484
10571SOL    HW232613   0.278   4.427   4.326
10572SOL     OW32614   6.746   3.961   3.751
10572SOL    HW132615   6.688   3.913   3.817
10572SOL    HW232616   6.842   3.940   3.770
10573SOL     OW32617   4.552   6.258   4.766
10573SOL    HW132618   4.519   6.335   4.712
10573SOL    HW232619   4.504   6.255   4.854
10574SOL     OW32620   1.501   1.643   4.061
10574SOL    HW132621   1.422   1.599   4.105
10574SOL    HW232622   1.535   1.584   3.988
10575SOL     OW32623   7.016   1.057   3.183
10575SOL    HW132624   0.017   1.118   3.257
10575SOL    HW232625   0.064   1.011   3.142
10576SOL     OW32626   0.146   6.592   5.480
10576SOL    HW132627   0.164   6.510   5.426
10576SOL    HW232628   0.076   6.647   5.434
10577SOL     OW32629   1.677   2.313   6.557
10577SOL    HW132630   1.729   2.234   6.590
10577SOL    HW232631   1.582   2.305   6.589
10578SOL     OW32632   6.530   0.368   3.376
10578SOL    HW132633   6.508   0.434   3.449
10578SOL    HW232634   6.495   0.278   3.401
10579SOL     OW32635   3.575   1.448   0.634
10579SOL    HW132636   3.488   1.405   0.657
10579SOL    HW232637   3.639   1.438   0.711
10580SOL     OW32638   7.018   0.251   0.122
10580SOL    HW132639   6.977   0.339   0.143
10580SOL    HW232640   0.040   0.257   0.038
10581SOL     OW32641   6.164   6.605   2.851
10581SOL    HW132642   6.097   6.555   2.797
10581SOL    HW232643   6.187   6.691   2.805
10582SOL     OW32644   4.196   4.798   0.069
10582SOL    HW132645   4.218   4.866   0.139
10582SOL    HW232646   4.110   4.823   0.024
10583SOL     OW32647   3.711   1.113   5.564
10583SOL    HW132648   3.625   1.078   5.526
10583SOL    HW232649   3.772   1.139   5.490
10584SOL     OW32650   6.224   6.369   1.191
10584SOL    HW132651   6.133   6.331   1.209
10584SOL    HW232652   6.251   6.426   1.269
10585SOL     OW32653   1.503   3.146   5.627
10585SOL    HW132654   1.550   3.062   5.602
10585SOL    HW232655   1.422   3.158   5.570
10586SOL     OW32656   1.345   5.855   4.946
10586SOL    HW132657   1.307   5.763   4.954
10586SOL    HW232658   1.405   5.860   4.866
10587SOL     OW32659   6.106   4.758   0.246
10587SOL    HW132660   6.076   4.814   0.323
10587SOL    HW232661   6.091   4.808   0.161
10588SOL     OW32662   0.421   3.967   2.246
10588SOL    HW132663   0.363   4.017   2.310
10588SOL    HW232664   0.458   4.030   2.178
10589SOL     OW32665   5.878   1.538   4.298
10589SOL    HW132666   5.815   1.465   4.327
10589SOL    HW232667   5.932   1.568   4.376
10590SOL     OW32668   0.866   0.431   1.691
10590SOL    HW132669   0.890   0.337   1.717
10590SOL    HW232670   0.772   0.433   1.657
10591SOL     OW32671   1.103   1.140   6.347
10591SOL    HW132672   1.006   1.163   6.344
10591SOL    HW232673   1.157   1.224   6.347
10592SOL     OW32674   6.514   2.656   0.525
10592SOL    HW132675   6.452   2.686   0.597
10592SOL    HW232676   6.594   2.716   0.523
10593SOL     OW32677   2.573   5.147   0.652
10593SOL    HW132678   2.585   5.132   0.554
10593SOL    HW232679   2.479   5.128   0.678
10594SOL     OW32680   5.458   0.613   2.708
10594SOL    HW132681   5.519   0.691   2.716
10594SOL    HW232682   5.439   0.596   2.611
10595SOL     OW32683   3.433   0.298   6.071
10595SOL    HW132684   3.475   0.363   6.135
10595SOL    HW232685   3.369   0.347   6.011
10596SOL     OW32686   4.814   0.253   0.877
10596SOL    HW132687   4.720   0.271   0.846
10596SOL    HW232688   4.849   0.172   0.830
10597SOL     OW32689   2.938   0.974   5.133
10597SOL    HW132690   2.868   0.904   5.148
10597SOL    HW232691   2.904   1.041   5.067
10598SOL     OW32692   2.742   2.811   6.969
10598SOL    HW132693   2.784   2.898   6.944
10598SOL    HW232694   2.644   2.813   6.945
10599SOL     OW32695   5.062   2.322   6.717
10599SOL    HW132696   5.033   2.398   6.775
10599SOL    HW232697   5.068   2.354   6.622
10600SOL     OW32698   1.542   3.265   0.468
10600SOL    HW132699   1.603   3.337   0.501
10600SOL    HW232700   1.596   3.198   0.417
10601SOL     OW32701   1.702   4.953   6.351
10601SOL    HW132702   1.775   4.985   6.411
10601SOL    HW232703   1.732   4.958   6.256
10602SOL     OW32704   5.266   1.655   3.019
10602SOL    HW132705   5.297   1.612   3.104
10602SOL    HW232706   5.224   1.743   3.039
10603SOL     OW32707   2.314   5.710   3.650
10603SOL    HW132708   2.312   5.809   3.661
10603SOL    HW232709   2.399   5.674   3.688
10604SOL     OW32710   5.977   3.974   5.402
10604SOL    HW132711   6.029   3.938   5.324
10604SOL    HW232712   5.932   4.059   5.375
10605SOL     OW32713   1.862   4.976   1.231
10605SOL    HW132714   1.806   5.041   1.179
10605SOL    HW232715   1.808   4.939   1.307
10606SOL     OW32716   6.483   7.001   2.693
10606SOL    HW132717   6.492   0.067   2.718
10606SOL    HW232718   6.507   6.944   2.772
10607SOL     OW32719   4.210   3.925   5.728
10607SOL    HW132720   4.133   3.890   5.781
10607SOL    HW232721   4.293   3.876   5.753
10608SOL     OW32722   5.515   1.851   5.580
10608SOL    HW132723   5.583   1.777   5.582
10608SOL    HW232724   5.500   1.885   5.673
10609SOL     OW32725   3.719   6.877   1.713
10609SOL    HW132726   3.733   6.834   1.802
10609SOL    HW232727   3.645   6.831   1.665
10610SOL     OW32728   0.211   3.649   6.381
10610SOL    HW132729   0.267   3.568   6.397
10610SOL    HW232730   0.117   3.632   6.410
10611SOL     OW32731   4.402   3.740   5.785
10611SOL    HW132732   4.450   3.713   5.701
10611SOL    HW232733   4.371   3.658   5.833
10612SOL     OW32734   2.662   6.865   5.887
10612SOL    HW132735   2.661   6.849   5.986
10612SOL    HW232736   2.657   6.777   5.839
10613SOL     OW32737   6.881   0.245   5.173
10613SOL    HW132738   6.830   0.204   5.248
10613SOL    HW232739   6.868   0.345   5.175
10614SOL     OW32740   6.345   2.306   4.443
10614SOL    HW132741   6.358   2.222   4.495
10614SOL    HW232742   6.421   2.369   4.462
10615SOL     OW32743   3.417   6.141   5.945
10615SOL    HW132744   3.334   6.092   5.917
10615SOL    HW232745   3.495   6.079   5.945
10616SOL     OW32746   2.916   6.269   0.700
10616SOL    HW132747   2.864   6.203   0.754
10616SOL    HW232748   3.014   6.259   0.719
10617SOL     OW32749   2.355   2.977   0.890
10617SOL    HW132750   2.314   3.027   0.966
10617SOL    HW232751   2.289   2.969   0.815
10618SOL     OW32752   6.027   3.696   6.970
10618SOL    HW132753   6.041   3.606   7.012
10618SOL    HW232754   6.058   3.767   0.003
10619SOL     OW32755   0.619   3.731   1.647
10619SOL    HW132756   0.681   3.761   1.719
10619SOL    HW232757   0.529   3.715   1.685
10620SOL     OW32758   1.321   5.579   5.781
10620SOL    HW132759   1.418   5.599   5.771
10620SOL    HW232760   1.268   5.640   5.723
10621SOL     OW32761   1.532   6.535   0.950
10621SOL    HW132762   1.535   6.517   1.048
10621SOL    HW232763   1.536   6.634   0.934
10622SOL     OW32764   5.173   1.197   1.133
10622SOL    HW132765   5.172   1.297   1.145
10622SOL    HW232766   5.081   1.161   1.148
10623SOL     OW32767   6.715   4.573   4.096
10623SOL    HW132768   6.723   4.651   4.034
10623SOL    HW232769   6.768   4.496   4.060
10624SOL     OW32770   0.900   1.423   4.789
10624SOL    HW132771   0.954   1.358   4.842
10624SOL    HW232772   0.891   1.508   4.841
10625SOL     OW32773   0.743   4.887   0.187
10625SOL    HW132774   0.657   4.905   0.139
10625SOL    HW232775   0.815   4.869   0.121
10626SOL     OW32776   0.867   2.801   1.236
10626SOL    HW132777   0.827   2.742   1.306
10626SOL    HW232778   0.808   2.801   1.155
10627SOL     OW32779   5.215   5.749   1.771
10627SOL    HW132780   5.159   5.832   1.770
10627SOL    HW232781   5.203   5.702   1.859
10628SOL     OW32782   5.490   5.189   6.004
10628SOL    HW132783   5.459   5.249   5.930
10628SOL    HW232784   5.412   5.160   6.059
10629SOL     OW32785   2.605   4.629   4.810
10629SOL    HW132786   2.679   4.642   4.877
10629SOL    HW232787   2.571   4.536   4.816
10630SOL     OW32788   6.446   0.937   3.642
10630SOL    HW132789   6.484   0.884   3.566
10630SOL    HW232790   6.500   0.920   3.724
10631SOL     OW32791   1.696   5.089   4.918
10631SOL    HW132792   1.655   5.077   4.827
10631SOL    HW232793   1.769   5.021   4.931
10632SOL     OW32794   5.662   1.876   4.026
10632SOL    HW132795   5.622   1.893   3.935
10632SOL    HW232796   5.598   1.906   4.096
10633SOL     OW32797   2.522   4.073   1.457
10633SOL    HW132798   2.594   4.044   1.520
10633SOL    HW232799   2.437   4.028   1.481
10634SOL     OW32800   3.033   5.379   1.128
10634SOL    HW132801   3.061   5.474   1.118
10634SOL    HW232802   2.983   5.368   1.214
10635SOL     OW32803   3.598   1.414   1.357
10635SOL    HW132804   3.680   1.379   1.312
10635SOL    HW232805   3.522   1.352   1.339
10636SOL     OW32806   1.322   2.213   1.800
10636SOL    HW132807   1.351   2.211   1.704
10636SOL    HW232808   1.327   2.121   1.838
10637SOL     OW32809   3.267   4.784   5.319
10637SOL    HW132810   3.282   4.826   5.409
10637SOL    HW232811   3.220   4.697   5.330
10638SOL     OW32812   6.907   5.438   2.735
10638SOL    HW132813   6.984   5.410   2.793
10638SOL    HW232814   6.834   5.475   2.792
10639SOL     OW32815   0.192   2.297   3.361
10639SOL    HW132816   0.268   2.279   3.423
10639SOL    HW232817   0.179   2.396   3.351
10640SOL     OW32818   4.328   0.375   6.421
10640SOL    HW132819   4.265   0.444   6.457
10640SOL    HW232820   4.386   0.416   6.351
10641SOL     OW32821   3.160   1.866   0.123
10641SOL    HW132822   3.243   1.841   0.073
10641SOL    HW232823   3.168   1.961   0.155
10642SOL     OW32824   0.183   2.262   2.050
10642SOL    HW132825   0.219   2.354   2.033
10642SOL    HW232826   0.258   2.201   2.078
10643SOL     OW32827   1.844   4.858   5.462
10643SOL    HW132828   1.886   4.945   5.436
10643SOL    HW232829   1.827   4.858   5.561
10644SOL     OW32830   5.435   1.992   3.177
10644SOL    HW132831   5.492   2.075   3.179
10644SOL    HW232832   5.483   1.918   3.225
10645SOL     OW32833   0.682   1.156   4.632
10645SOL    HW132834   0.693   1.153   4.533
10645SOL    HW232835   0.756   1.105   4.676
10646SOL     OW32836   0.491   1.685   5.310
10646SOL    HW132837   0.519   1.636   5.392
10646SOL    HW232838   0.440   1.623   5.250
10647SOL     OW32839   4.389   5.926   6.637
10647SOL    HW132840   4.439   5.844   6.666
10647SOL    HW232841   4.425   5.959   6.550
10648SOL     OW32842   4.675   3.662   6.324
10648SOL    HW132843   4.713   3.723   6.394
10648SOL    HW232844   4.580   3.689   6.306
10649SOL     OW32845   0.467   4.560   3.207
10649SOL    HW132846   0.557   4.569   3.251
10649SOL    HW232847   0.417   4.484   3.247
10650SOL     OW32848   1.321   6.158   2.885
10650SOL    HW132849   1.407   6.108   2.894
10650SOL    HW232850   1.305   6.178   2.788
10651SOL     OW32851   5.283   6.958   5.749
10651SOL    HW132852   5.322   6.909   5.827
10651SOL    HW232853   5.308   0.024   5.755
10652SOL     OW32854   3.496   0.148   6.705
10652SOL    HW132855   3.478   0.133   6.802
10652SOL    HW232856   3.454   0.234   6.676
10653SOL     OW32857   5.109   4.854   4.483
10653SOL    HW132858   5.168   4.786   4.439
10653SOL    HW232859   5.084   4.924   4.417
10654SOL     OW32860   4.499   1.322   0.836
10654SOL    HW132861   4.594   1.348   0.816
10654SOL    HW232862   4.438   1.369   0.772
10655SOL     OW32863   3.015   5.427   1.616
10655SOL    HW132864   2.965   5.471   1.691
10655SOL    HW232865   3.046   5.336   1.646
10656SOL     OW32866   5.989   2.322   0.742
10656SOL    HW132867   5.918   2.260   0.775
10656SOL    HW232868   5.996   2.314   0.642
10657SOL     OW32869   6.121   6.618   0.225
10657SOL    HW132870   6.033   6.637   0.267
10657SOL    HW232871   6.194   6.634   0.290
10658SOL     OW32872   6.793   3.862   4.857
10658SOL    HW132873   6.853   3.880   4.779
10658SOL    HW232874   6.701   3.841   4.824
10659SOL     OW32875   6.695   6.431   0.858
10659SOL    HW132876   6.726   6.428   0.954
10659SOL    HW232877   6.599   6.459   0.855
10660SOL     OW32878   5.219   4.681   6.386
10660SOL    HW132879   5.225   4.682   6.287
10660SOL    HW232880   5.204   4.587   6.418
10661SOL     OW32881   0.155   6.608   2.341
10661SOL    HW132882   0.186   6.663   2.263
10661SOL    HW232883   0.233   6.590   2.402
10662SOL     OW32884   5.709   0.787   2.035
10662SOL    HW132885   5.707   0.882   2.002
10662SOL    HW232886   5.804   0.754   2.034
10663SOL     OW32887   0.314   6.689   1.252
10663SOL    HW132888   0.318   6.767   1.190
10663SOL    HW232889   0.244   6.706   1.322
10664SOL     OW32890   1.774   4.250   5.911
10664SOL    HW132891   1.801   4.161   5.873
10664SOL    HW232892   1.676   4.263   5.897
10665SOL     OW32893   1.109   0.657   0.358
10665SOL    HW132894   1.127   0.612   0.446
10665SOL    HW232895   1.114   0.756   0.370
10666SOL     OW32896   3.753   4.308   0.314
10666SOL    HW132897   3.770   4.398   0.273
10666SOL    HW232898   3.658   4.303   0.345
10667SOL     OW32899   3.436   2.341   5.686
10667SOL    HW132900   3.351   2.289   5.679
10667SOL    HW232901   3.473   2.357   5.595
10668SOL     OW32902   1.246   1.361   5.120
10668SOL    HW132903   1.239   1.407   5.208
10668SOL    HW232904   1.279   1.427   5.052
10669SOL     OW32905   6.669   6.585   0.557
10669SOL    HW132906   6.670   6.557   0.653
10669SOL    HW232907   6.632   6.678   0.550
10670SOL     OW32908   5.174   4.470   5.490
10670SOL    HW132909   5.112   4.425   5.554
10670SOL    HW232910   5.164   4.569   5.497
10671SOL     OW32911   2.246   3.002   2.636
10671SOL    HW132912   2.207   3.092   2.652
10671SOL    HW232913   2.256   2.954   2.723
10672SOL     OW32914   6.977   2.771   0.612
10672SOL    HW132915   6.892   2.802   0.570
10672SOL    HW232916   6.968   2.775   0.712
10673SOL     OW32917   1.915   2.175   5.509
10673SOL    HW132918   2.006   2.204   5.480
10673SOL    HW232919   1.919   2.081   5.543
10674SOL     OW32920   3.949   3.720   0.587
10674SOL    HW132921   3.955   3.645   0.653
10674SOL    HW232922   3.882   3.787   0.619
10675SOL     OW32923   1.935   1.083   6.258
10675SOL    HW132924   1.890   1.099   6.346
10675SOL    HW232925   1.989   0.999   6.263
10676SOL     OW32926   6.129   6.902   6.291
10676SOL    HW132927   6.080   6.990   6.292
10676SOL    HW232928   6.104   6.851   6.209
10677SOL     OW32929   0.806   0.763   2.364
10677SOL    HW132930   0.856   0.847   2.346
10677SOL    HW232931   0.708   0.783   2.368
10678SOL     OW32932   3.468   5.137   3.166
10678SOL    HW132933   3.521   5.134   3.251
10678SOL    HW232934   3.477   5.228   3.124
10679SOL     OW32935   5.335   4.974   5.888
10679SOL    HW132936   5.266   5.040   5.859
10679SOL    HW232937   5.418   4.987   5.834
10680SOL     OW32938   2.147   2.257   3.947
10680SOL    HW132939   2.047   2.250   3.950
10680SOL    HW232940   2.179   2.299   4.032
10681SOL     OW32941   6.978   3.991   6.605
10681SOL    HW132942   6.951   3.900   6.575
10681SOL    HW232943   6.964   4.000   6.703
10682SOL     OW32944   1.899   1.802   3.270
10682SOL    HW132945   1.955   1.865   3.324
10682SOL    HW232946   1.815   1.848   3.241
10683SOL     OW32947   2.939   2.246   3.877
10683SOL    HW132948   2.969   2.239   3.783
10683SOL    HW232949   2.923   2.154   3.914
10684SOL     OW32950   4.224   4.044   0.066
10684SOL    HW132951   4.235   4.021   0.162
10684SOL    HW232952   4.162   3.979   0.022
10685SOL     OW32953   0.095   3.937   2.408
10685SOL    HW132954   0.077   3.869   2.337
10685SOL    HW232955   0.063   3.903   2.496
10686SOL     OW32956   4.234   6.008   6.170
10686SOL    HW132957   4.141   6.041   6.153
10686SOL    HW232958   4.289   6.019   6.087
10687SOL     OW32959   0.120   5.281   1.876
10687SOL    HW132960   0.098   5.193   1.834
10687SOL    HW232961   0.206   5.273   1.926
10688SOL     OW32962   5.807   4.024   2.454
10688SOL    HW132963   5.771   3.931   2.462
10688SOL    HW232964   5.856   4.048   2.538
10689SOL     OW32965   0.298   0.219   2.950
10689SOL    HW132966   0.239   0.139   2.933
10689SOL    HW232967   0.307   0.233   3.049
10690SOL     OW32968   5.786   5.251   3.405
10690SOL    HW132969   5.864   5.245   3.343
10690SOL    HW232970   5.706   5.208   3.362
10691SOL     OW32971   0.027   1.996   2.096
10691SOL    HW132972   0.060   2.085   2.066
10691SOL    HW232973   7.024   2.003   2.190
10692SOL     OW32974   3.093   5.540   3.857
10692SOL    HW132975   3.120   5.627   3.814
10692SOL    HW232976   3.173   5.482   3.868
10693SOL     OW32977   2.152   0.741   1.344
10693SOL    HW132978   2.196   0.731   1.254
10693SOL    HW232979   2.130   0.650   1.380
10694SOL     OW32980   3.530   6.307   0.916
10694SOL    HW132981   3.557   6.356   0.833
10694SOL    HW232982   3.533   6.370   0.994
10695SOL     OW32983   6.416   1.975   4.005
10695SOL    HW132984   6.434   2.057   4.059
10695SOL    HW232985   6.432   1.994   3.909
10696SOL     OW32986   6.768   4.648   1.619
10696SOL    HW132987   6.787   4.603   1.531
10696SOL    HW232988   6.743   4.743   1.603
10697SOL     OW32989   0.296   6.531   3.911
10697SOL    HW132990   0.357   6.493   3.980
10697SOL    HW232991   0.348   6.554   3.829
10698SOL     OW32992   3.369   6.819   4.081
10698SOL    HW132993   3.311   6.900   4.081
10698SOL    HW232994   3.339   6.756   4.009
10699SOL     OW32995   4.808   1.818   3.006
10699SOL    HW132996   4.842   1.821   2.912
10699SOL    HW232997   4.800   1.723   3.036
10700SOL     OW32998   1.243   0.314   0.474
10700SOL    HW132999   1.238   0.345   0.379
10700SOL    HW233000   1.288   0.224   0.477
10701SOL     OW33001   4.406   6.197   7.023
10701SOL    HW133002   4.397   6.207   0.091
10701SOL    HW233003   4.343   6.260   6.977
10702SOL     OW33004   5.249   2.270   1.832
10702SOL    HW133005   5.153   2.245   1.821
10702SOL    HW233006   5.300   2.192   1.868
10703SOL     OW33007   3.717   3.337   3.923
10703SOL    HW133008   3.782   3.263   3.942
10703SOL    HW233009   3.624   3.301   3.921
10704SOL     OW33010   4.873   6.401   2.241
10704SOL    HW133011   4.906   6.382   2.149
10704SOL    HW233012   4.949   6.430   2.299
10705SOL     OW33013   1.286   3.783   0.348
10705SOL    HW133014   1.272   3.745   0.257
10705SOL    HW233015   1.328   3.715   0.407
10706SOL     OW33016   4.646   0.458   1.734
10706SOL    HW133017   4.633   0.452   1.635
10706SOL    HW233018   4.584   0.394   1.780
10707SOL     OW33019   0.330   6.933   5.380
10707SOL    HW133020   0.426   6.957   5.365
10707SOL    HW233021   0.276   6.958   5.300
10708SOL     OW33022   4.795   1.041   1.487
10708SOL    HW133023   4.864   1.046   1.559
10708SOL    HW233024   4.762   0.947   1.480
10709SOL     OW33025   6.183   0.529   5.665
10709SOL    HW133026   6.185   0.587   5.746
10709SOL    HW233027   6.097   0.478   5.663
10710SOL     OW33028   0.367   6.488   4.748
10710SOL    HW133029   0.306   6.467   4.824
10710SOL    HW233030   0.406   6.403   4.712
10711SOL     OW33031   2.158   0.074   3.927
10711SOL    HW133032   2.094   0.142   3.892
10711SOL    HW233033   2.248   0.087   3.884
10712SOL     OW33034   3.908   1.237   4.248
10712SOL    HW133035   3.999   1.254   4.210
10712SOL    HW233036   3.865   1.161   4.199
10713SOL     OW33037   1.859   5.421   1.787
10713SOL    HW133038   1.910   5.506   1.799
10713SOL    HW233039   1.913   5.345   1.824
10714SOL     OW33040   0.108   4.029   4.748
10714SOL    HW133041   0.167   4.050   4.670
10714SOL    HW233042   0.083   4.113   4.796
10715SOL     OW33043   5.573   0.444   3.481
10715SOL    HW133044   5.599   0.533   3.445
10715SOL    HW233045   5.622   0.428   3.567
10716SOL     OW33046   6.441   1.221   3.292
10716SOL    HW133047   6.508   1.150   3.315
10716SOL    HW233048   6.358   1.208   3.346
10717SOL     OW33049   0.664   1.495   1.209
10717SOL    HW133050   0.590   1.427   1.209
10717SOL    HW233051   0.733   1.468   1.276
10718SOL     OW33052   6.827   5.282   0.518
10718SOL    HW133053   6.810   5.190   0.554
10718SOL    HW233054   6.913   5.283   0.467
10719SOL     OW33055   5.060   6.811   2.089
10719SOL    HW133056   4.998   6.752   2.141
10719SOL    HW233057   5.155   6.787   2.112
10720SOL     OW33058   6.974   3.092   5.904
10720SOL    HW133059   0.009   3.016   5.897
10720SOL    HW233060   7.000   3.164   5.840
10721SOL     OW33061   5.898   2.234   4.012
10721SOL    HW133062   5.886   2.136   3.996
10721SOL    HW233063   5.810   2.277   4.029
10722SOL     OW33064   6.993   3.588   6.968
10722SOL    HW133065   0.022   3.594   6.887
10722SOL    HW233066   6.995   3.675   7.017
10723SOL     OW33067   5.416   4.021   6.833
10723SOL    HW133068   5.401   3.927   6.864
10723SOL    HW233069   5.341   4.078   6.865
10724SOL     OW33070   4.454   6.875   6.074
10724SOL    HW133071   4.545   6.859   6.036
10724SOL    HW233072   4.416   6.959   6.038
10725SOL     OW33073   0.043   5.311   4.365
10725SOL    HW133074   0.075   5.243   4.299
10725SOL    HW233075   0.015   5.264   4.449
10726SOL     OW33076   5.538   0.384   5.012
10726SOL    HW133077   5.463   0.450   5.001
10726SOL    HW233078   5.594   0.411   5.090
10727SOL     OW33079   1.505   4.464   5.163
10727SOL    HW133080   1.431   4.430   5.104
10727SOL    HW233081   1.534   4.554   5.131
10728SOL     OW33082   5.708   6.726   3.202
10728SOL    HW133083   5.788   6.768   3.159
10728SOL    HW233084   5.719   6.627   3.203
10729SOL     OW33085   6.298   1.990   2.494
10729SOL    HW133086   6.377   2.050   2.507
10729SOL    HW233087   6.282   1.938   2.578
10730SOL     OW33088   2.179   5.801   2.035
10730SOL    HW133089   2.102   5.801   2.100
10730SOL    HW233090   2.220   5.892   2.033
10731SOL     OW33091   2.927   5.550   0.531
10731SOL    HW133092   2.881   5.639   0.539
10731SOL    HW233093   2.977   5.531   0.616
10732SOL     OW33094   6.297   6.752   3.057
10732SOL    HW133095   6.293   6.708   2.967
10732SOL    HW233096   6.205   6.757   3.096
10733SOL     OW33097   6.062   1.862   6.968
10733SOL    HW133098   6.142   1.804   6.951
10733SOL    HW233099   6.087   1.937   7.028
10734SOL     OW33100   0.589   0.127   6.098
10734SOL    HW133101   0.532   0.057   6.142
10734SOL    HW233102   0.634   0.182   6.168
10735SOL     OW33103   0.880   5.442   2.343
10735SOL    HW133104   0.890   5.541   2.348
10735SOL    HW233105   0.950   5.398   2.400
10736SOL     OW33106   0.477   0.719   3.599
10736SOL    HW133107   0.459   0.625   3.571
10736SOL    HW233108   0.574   0.739   3.590
10737SOL     OW33109   0.512   2.256   1.103
10737SOL    HW133110   0.456   2.188   1.151
10737SOL    HW233111   0.533   2.222   1.011
10738SOL     OW33112   2.589   0.959   3.025
10738SOL    HW133113   2.613   1.020   3.100
10738SOL    HW233114   2.597   0.864   3.055
10739SOL     OW33115   5.775   1.906   1.896
10739SOL    HW133116   5.731   1.835   1.951
10739SOL    HW233117   5.874   1.892   1.896
10740SOL     OW33118   1.632   6.727   5.519
10740SOL    HW133119   1.551   6.668   5.515
10740SOL    HW233120   1.711   6.677   5.483
10741SOL     OW33121   1.892   2.431   3.853
10741SOL    HW133122   1.896   2.494   3.931
10741SOL    HW233123   1.922   2.478   3.770
10742SOL     OW33124   5.988   6.148   1.965
10742SOL    HW133125   5.899   6.132   1.923
10742SOL    HW233126   5.999   6.088   2.044
10743SOL     OW33127   3.628   1.412   5.193
10743SOL    HW133128   3.725   1.426   5.215
10743SOL    HW233129   3.603   1.470   5.115
10744SOL     OW33130   2.941   0.872   2.198
10744SOL    HW133131   2.910   0.913   2.284
10744SOL    HW233132   2.967   0.945   2.134
10745SOL     OW33133   2.467   4.616   0.841
10745SOL    HW133134   2.512   4.695   0.884
10745SOL    HW233135   2.384   4.593   0.892
10746SOL     OW33136   2.388   5.858   1.366
10746SOL    HW133137   2.406   5.760   1.358
10746SOL    HW233138   2.378   5.897   1.275
10747SOL     OW33139   5.320   2.046   3.621
10747SOL    HW133140   5.250   2.116   3.606
10747SOL    HW233141   5.406   2.076   3.580
10748SOL     OW33142   4.964   5.666   1.148
10748SOL    HW133143   4.979   5.735   1.218
10748SOL    HW233144   5.049   5.649   1.098
10749SOL     OW33145   5.873   4.750   3.165
10749SOL    HW133146   5.931   4.759   3.083
10749SOL    HW233147   5.836   4.657   3.168
10750SOL     OW33148   4.877   4.198   4.503
10750SOL    HW133149   4.867   4.235   4.596
10750SOL    HW233150   4.833   4.109   4.498
10751SOL     OW33151   1.055   2.888   5.033
10751SOL    HW133152   1.135   2.935   5.071
10751SOL    HW233153   0.982   2.954   5.017
10752SOL     OW33154   6.005   4.819   6.897
10752SOL    HW133155   6.064   4.846   6.973
10752SOL    HW233156   5.953   4.898   6.866
10753SOL     OW33157   4.672   0.371   4.167
10753SOL    HW133158   4.635   0.368   4.074
10753SOL    HW233159   4.660   0.464   4.204
10754SOL     OW33160   0.477   2.807   1.766
10754SOL    HW133161   0.423   2.723   1.774
10754SOL    HW233162   0.487   2.848   1.857
10755SOL     OW33163   0.056   1.566   0.966
10755SOL    HW133164   0.012   1.609   1.045
10755SOL    HW233165   7.023   1.503   0.922
10756SOL     OW33166   6.616   2.290   0.010
10756SOL    HW133167   6.656   2.255   0.095
10756SOL    HW233168   6.517   2.300   0.022
10757SOL     OW33169   0.083   4.266   0.481
10757SOL    HW133170   0.073   4.320   0.564
10757SOL    HW233171   0.002   4.278   0.424
10758SOL     OW33172   0.518   5.733   6.123
10758SOL    HW133173   0.531   5.766   6.030
10758SOL    HW233174   0.505   5.811   6.184
10759SOL     OW33175   1.300   3.134   6.073
10759SOL    HW133176   1.241   3.053   6.073
10759SOL    HW233177   1.377   3.119   6.011
10760SOL     OW33178   1.319   5.775   0.968
10760SOL    HW133179   1.381   5.766   1.046
10760SOL    HW233180   1.266   5.859   0.977
10761SOL     OW33181   0.851   2.564   6.201
10761SOL    HW133182   0.915   2.508   6.254
10761SOL    HW233183   0.812   2.635   6.259
10762SOL     OW33184   4.132   0.939   6.081
10762SOL    HW133185   4.050   0.906   6.128
10762SOL    HW233186   4.154   1.031   6.113
10763SOL     OW33187   5.081   0.606   2.363
10763SOL    HW133188   5.141   0.573   2.290
10763SOL    HW233189   5.094   0.705   2.373
10764SOL     OW33190   4.932   1.188   5.639
10764SOL    HW133191   4.997   1.222   5.707
10764SOL    HW233192   4.884   1.264   5.597
10765SOL     OW33193   5.508   1.231   2.447
10765SOL    HW133194   5.513   1.131   2.449
10765SOL    HW233195   5.468   1.264   2.533
10766SOL     OW33196   1.817   4.646   0.515
10766SOL    HW133197   1.797   4.585   0.438
10766SOL    HW233198   1.902   4.619   0.558
10767SOL     OW33199   2.183   6.239   0.948
10767SOL    HW133200   2.160   6.336   0.956
10767SOL    HW233201   2.142   6.202   0.864
10768SOL     OW33202   4.847   5.341   0.432
10768SOL    HW133203   4.934   5.379   0.401
10768SOL    HW233204   4.840   5.353   0.531
10769SOL     OW33205   2.831   4.357   5.325
10769SOL    HW133206   2.888   4.417   5.269
10769SOL    HW233207   2.867   4.263   5.319
10770SOL     OW33208   5.491   0.261   4.307
10770SOL    HW133209   5.486   0.346   4.255
10770SOL    HW233210   5.427   0.195   4.268
10771SOL     OW33211   4.486   0.125   5.050
10771SOL    HW133212   4.419   0.052   5.039
10771SOL    HW233213   4.546   0.104   5.127
10772SOL     OW33214   6.353   6.727   4.030
10772SOL    HW133215   6.452   6.740   4.034
10772SOL    HW233216   6.332   6.646   3.975
10773SOL     OW33217   0.088   4.549   6.837
10773SOL    HW133218   7.029   4.576   6.802
10773SOL    HW233219   0.141   4.632   6.857
10774SOL     OW33220   1.652   2.508   1.197
10774SOL    HW133221   1.748   2.497   1.221
10774SOL    HW233222   1.609   2.574   1.259
10775SOL     OW33223   1.884   4.451   1.898
10775SOL    HW133224   1.846   4.384   1.834
10775SOL    HW233225   1.982   4.434   1.909
10776SOL     OW33226   0.253   0.110   2.566
10776SOL    HW133227   0.181   0.175   2.588
10776SOL    HW233228   0.255   0.094   2.468
10777SOL     OW33229   4.039   0.404   3.667
10777SOL    HW133230   4.121   0.446   3.706
10777SOL    HW233231   3.963   0.412   3.731
10778SOL     OW33232   6.581   5.898   4.842
10778SOL    HW133233   6.482   5.898   4.829
10778SOL    HW233234   6.603   5.836   4.918
10779SOL     OW33235   6.271   4.748   2.904
10779SOL    HW133236   6.279   4.664   2.850
10779SOL    HW233237   6.298   4.729   2.998
10780SOL     OW33238   6.784   5.470   3.971
10780SOL    HW133239   6.856   5.409   3.939
10780SOL    HW233240   6.822   5.560   3.990
10781SOL     OW33241   5.507   0.818   4.230
10781SOL    HW133242   5.533   0.882   4.302
10781SOL    HW233243   5.558   0.839   4.147
10782SOL     OW33244   6.336   3.176   4.762
10782SOL    HW133245   6.426   3.137   4.778
10782SOL    HW233246   6.335   3.272   4.789
10783SOL     OW33247   1.791   2.578   2.586
10783SOL    HW133248   1.818   2.492   2.544
10783SOL    HW233249   1.873   2.630   2.612
10784SOL     OW33250   2.548   6.211   2.074
10784SOL    HW133251   2.536   6.148   1.997
10784SOL    HW233252   2.607   6.287   2.046
10785SOL     OW33253   1.700   5.113   1.861
10785SOL    HW133254   1.684   5.041   1.793
10785SOL    HW233255   1.799   5.129   1.869
10786SOL     OW33256   4.118   2.042   2.680
10786SOL    HW133257   4.067   2.007   2.601
10786SOL    HW233258   4.197   1.984   2.697
10787SOL     OW33259   3.230   1.238   4.181
10787SOL    HW133260   3.266   1.302   4.114
10787SOL    HW233261   3.149   1.278   4.225
10788SOL     OW33262   1.475   4.228   0.435
10788SOL    HW133263   1.545   4.258   0.500
10788SOL    HW233264   1.463   4.298   0.365
10789SOL     OW33265   6.421   0.947   0.558
10789SOL    HW133266   6.352   1.014   0.530
10789SOL    HW233267   6.421   0.870   0.494
10790SOL     OW33268   6.869   1.309   5.883
10790SOL    HW133269   6.810   1.336   5.958
10790SOL    HW233270   6.815   1.296   5.800
10791SOL     OW33271   1.858   1.825   2.263
10791SOL    HW133272   1.842   1.773   2.348
10791SOL    HW233273   1.918   1.773   2.203
10792SOL     OW33274   3.550   2.868   1.083
10792SOL    HW133275   3.527   2.786   1.029
10792SOL    HW233276   3.510   2.860   1.174
10793SOL     OW33277   5.232   1.743   4.552
10793SOL    HW133278   5.227   1.725   4.454
10793SOL    HW233279   5.143   1.722   4.594
10794SOL     OW33280   3.606   3.529   1.679
10794SOL    HW133281   3.677   3.519   1.609
10794SOL    HW233282   3.594   3.443   1.728
10795SOL     OW33283   6.741   3.702   2.633
10795SOL    HW133284   6.720   3.743   2.545
10795SOL    HW233285   6.668   3.724   2.698
10796SOL     OW33286   4.898   0.215   6.043
10796SOL    HW133287   4.900   0.166   5.956
10796SOL    HW233288   4.991   0.233   6.074
10797SOL     OW33289   3.854   3.138   6.781
10797SOL    HW133290   3.796   3.063   6.749
10797SOL    HW233291   3.798   3.220   6.793
10798SOL     OW33292   2.357   7.028   6.563
10798SOL    HW133293   2.271   0.031   6.600
10798SOL    HW233294   2.424   7.017   6.636
10799SOL     OW33295   3.473   2.114   2.561
10799SOL    HW133296   3.552   2.170   2.533
10799SOL    HW233297   3.407   2.109   2.486
10800SOL     OW33298   2.718   6.728   1.026
10800SOL    HW133299   2.636   6.681   0.993
10800SOL    HW233300   2.760   6.673   1.099
10801SOL     OW33301   1.941   6.423   5.705
10801SOL    HW133302   1.931   6.449   5.801
10801SOL    HW233303   2.017   6.358   5.695
10802SOL     OW33304   1.828   2.874   3.931
10802SOL    HW133305   1.918   2.864   3.974
10802SOL    HW233306   1.833   2.844   3.835
10803SOL     OW33307   5.497   4.673   5.885
10803SOL    HW133308   5.413   4.649   5.836
10803SOL    HW233309   5.474   4.730   5.964
10804SOL     OW33310   6.448   4.050   1.132
10804SOL    HW133311   6.460   3.969   1.076
10804SOL    HW233312   6.493   4.128   1.089
10805SOL     OW33313   3.324   6.695   0.231
10805SOL    HW133314   3.385   6.672   0.307
10805SOL    HW233315   3.258   6.620   0.218
10806SOL     OW33316   5.977   3.802   0.394
10806SOL    HW133317   6.034   3.874   0.354
10806SOL    HW233318   5.948   3.831   0.486
10807SOL     OW33319   3.460   6.215   3.692
10807SOL    HW133320   3.543   6.217   3.748
10807SOL    HW233321   3.485   6.219   3.595
10808SOL     OW33322   0.844   3.973   6.922
10808SOL    HW133323   0.866   4.053   6.977
10808SOL    HW233324   0.764   3.927   6.960
10809SOL     OW33325   2.830   1.088   4.271
10809SOL    HW133326   2.919   1.092   4.316
10809SOL    HW233327   2.842   1.063   4.175
10810SOL     OW33328   0.606   1.134   5.812
10810SOL    HW133329   0.626   1.160   5.907
10810SOL    HW233330   0.560   1.045   5.812
10811SOL     OW33331   3.673   4.998   5.779
10811SOL    HW133332   3.764   4.998   5.820
10811SOL    HW233333   3.636   5.091   5.781
10812SOL     OW33334   0.030   2.674   2.481
10812SOL    HW133335   0.075   2.685   2.393
10812SOL    HW233336   0.084   2.721   2.552
10813SOL     OW33337   3.255   6.450   1.825
10813SOL    HW133338   3.254   6.422   1.730
10813SOL    HW233339   3.326   6.399   1.874
10814SOL     OW33340   1.690   0.265   5.872
10814SOL    HW133341   1.683   0.306   5.781
10814SOL    HW233342   1.599   0.258   5.913
10815SOL     OW33343   4.712   4.418   3.286
10815SOL    HW133344   4.693   4.482   3.360
10815SOL    HW233345   4.642   4.427   3.215
10816SOL     OW33346   1.322   1.228   2.334
10816SOL    HW133347   1.244   1.286   2.357
10816SOL    HW233348   1.327   1.215   2.235
10817SOL     OW33349   5.592   0.089   2.794
10817SOL    HW133350   5.580   0.181   2.831
10817SOL    HW233351   5.509   0.062   2.746
10818SOL     OW33352   5.712   2.978   6.505
10818SOL    HW133353   5.723   3.030   6.589
10818SOL    HW233354   5.767   3.019   6.432
10819SOL     OW33355   0.666   3.789   6.324
10819SOL    HW133356   0.571   3.778   6.354
10819SOL    HW233357   0.674   3.759   6.229
10820SOL     OW33358   0.221   6.984   3.965
10820SOL    HW133359   0.244   6.903   3.911
10820SOL    HW233360   0.193   0.027   3.903
10821SOL     OW33361   6.997   6.336   1.896
10821SOL    HW133362   6.955   6.247   1.876
10821SOL    HW233363   6.934   6.409   1.870
10822SOL     OW33364   1.167   3.482   2.381
10822SOL    HW133365   1.203   3.530   2.461
10822SOL    HW233366   1.215   3.395   2.371
10823SOL     OW33367   2.295   5.919   1.810
10823SOL    HW133368   2.198   5.899   1.798
10823SOL    HW233369   2.348   5.836   1.792
10824SOL     OW33370   5.257   0.177   3.400
10824SOL    HW133371   5.248   0.103   3.466
10824SOL    HW233372   5.354   0.194   3.381
10825SOL     OW33373   2.687   1.544   0.981
10825SOL    HW133374   2.675   1.637   0.946
10825SOL    HW233375   2.648   1.537   1.072
10826SOL     OW33376   6.739   3.921   2.072
10826SOL    HW133377   6.769   3.840   2.123
10826SOL    HW233378   6.645   3.907   2.041
10827SOL     OW33379   6.080   3.175   3.898
10827SOL    HW133380   6.064   3.083   3.936
10827SOL    HW233381   6.166   3.211   3.934
10828SOL     OW33382   1.059   6.087   1.436
10828SOL    HW133383   1.071   6.170   1.490
10828SOL    HW233384   1.000   6.024   1.485
10829SOL     OW33385   2.341   3.653   1.410
10829SOL    HW133386   2.319   3.612   1.498
10829SOL    HW233387   2.270   3.629   1.343
10830SOL     OW33388   5.984   3.255   4.764
10830SOL    HW133389   6.066   3.199   4.751
10830SOL    HW233390   5.952   3.288   4.675
10831SOL     OW33391   4.974   0.489   2.674
10831SOL    HW133392   4.901   0.550   2.701
10831SOL    HW233393   4.992   0.499   2.576
10832SOL     OW33394   0.942   2.310   0.556
10832SOL    HW133395   0.996   2.392   0.574
10832SOL    HW233396   0.866   2.332   0.495
10833SOL     OW33397   2.619   0.297   3.501
10833SOL    HW133398   2.620   0.392   3.469
10833SOL    HW233399   2.695   0.248   3.459
10834SOL     OW33400   0.211   1.712   5.130
10834SOL    HW133401   0.179   1.805   5.118
10834SOL    HW233402   0.235   1.673   5.041
10835SOL     OW33403   6.700   1.715   2.188
10835SOL    HW133404   6.637   1.761   2.251
10835SOL    HW233405   6.691   1.755   2.097
10836SOL     OW33406   0.183   1.628   5.574
10836SOL    HW133407   0.258   1.592   5.518
10836SOL    HW233408   0.214   1.638   5.669
10837SOL     OW33409   6.773   4.785   0.181
10837SOL    HW133410   6.758   4.736   0.267
10837SOL    HW233411   6.839   4.736   0.125
10838SOL     OW33412   5.588   0.469   5.981
10838SOL    HW133413   5.637   0.536   6.037
10838SOL    HW233414   5.543   0.515   5.905
10839SOL     OW33415   2.757   2.334   0.250
10839SOL    HW133416   2.768   2.406   0.182
10839SOL    HW233417   2.834   2.336   0.313
10840SOL     OW33418   3.411   6.201   1.594
10840SOL    HW133419   3.325   6.151   1.582
10840SOL    HW233420   3.472   6.149   1.654
10841SOL     OW33421   3.886   6.279   6.086
10841SOL    HW133422   3.902   6.279   5.987
10841SOL    HW233423   3.848   6.367   6.114
10842SOL     OW33424   6.431   2.846   1.400
10842SOL    HW133425   6.437   2.865   1.302
10842SOL    HW233426   6.520   2.814   1.433
10843SOL     OW33427   1.220   1.857   1.960
10843SOL    HW133428   1.129   1.867   2.000
10843SOL    HW233429   1.213   1.860   1.860
10844SOL     OW33430   6.798   6.249   4.768
10844SOL    HW133431   6.867   6.197   4.717
10844SOL    HW233432   6.724   6.275   4.706
10845SOL     OW33433   1.120   1.361   1.668
10845SOL    HW133434   1.199   1.373   1.608
10845SOL    HW233435   1.120   1.431   1.739
10846SOL     OW33436   4.881   1.772   0.564
10846SOL    HW133437   4.823   1.781   0.645
10846SOL    HW233438   4.944   1.850   0.559
10847SOL     OW33439   2.436   1.516   5.864
10847SOL    HW133440   2.497   1.596   5.862
10847SOL    HW233441   2.374   1.521   5.786
10848SOL     OW33442   2.632   1.591   0.096
10848SOL    HW133443   2.664   1.678   0.059
10848SOL    HW233444   2.569   1.608   0.172
10849SOL     OW33445   3.001   4.800   3.816
10849SOL    HW133446   3.100   4.809   3.829
10849SOL    HW233447   2.980   4.709   3.781
10850SOL     OW33448   4.102   6.691   0.023
10850SOL    HW133449   4.084   6.597   0.053
10850SOL    HW233450   4.126   6.746   0.103
10851SOL     OW33451   3.129   2.858   5.882
10851SOL    HW133452   3.203   2.886   5.822
10851SOL    HW233453   3.111   2.760   5.870
10852SOL     OW33454   0.095   0.713   6.254
10852SOL    HW133455   0.066   0.621   6.226
10852SOL    HW233456   0.104   0.771   6.174
10853SOL     OW33457   2.988   1.636   4.360
10853SOL    HW133458   2.956   1.707   4.423
10853SOL    HW233459   3.007   1.678   4.271
10854SOL     OW33460   5.721   0.432   6.813
10854SOL    HW133461   5.805   0.453   6.863
10854SOL    HW233462   5.707   0.501   6.742
10855SOL     OW33463   2.657   5.946   2.479
10855SOL    HW133464   2.590   5.964   2.551
10855SOL    HW233465   2.634   6.002   2.399
10856SOL     OW33466   6.394   6.702   0.700
10856SOL    HW133467   6.452   6.783   0.705
10856SOL    HW233468   6.405   6.648   0.783
10857SOL     OW33469   6.253   2.355   2.935
10857SOL    HW133470   6.180   2.288   2.934
10857SOL    HW233471   6.217   2.445   2.911
10858SOL     OW33472   1.611   3.738   0.303
10858SOL    HW133473   1.547   3.763   0.231
10858SOL    HW233474   1.561   3.700   0.381
10859SOL     OW33475   1.691   3.842   3.179
10859SOL    HW133476   1.727   3.922   3.226
10859SOL    HW233477   1.737   3.832   3.090
10860SOL     OW33478   6.530   1.459   0.298
10860SOL    HW133479   6.488   1.549   0.311
10860SOL    HW233480   6.627   1.470   0.278
10861SOL     OW33481   3.621   2.789   1.891
10861SOL    HW133482   3.678   2.811   1.970
10861SOL    HW233483   3.618   2.868   1.829
10862SOL     OW33484   2.418   2.151   6.158
10862SOL    HW133485   2.326   2.125   6.129
10862SOL    HW233486   2.431   2.249   6.144
10863SOL     OW33487   2.619   0.222   2.865
10863SOL    HW133488   2.557   0.293   2.900
10863SOL    HW233489   2.704   0.265   2.835
10864SOL     OW33490   2.671   4.359   1.137
10864SOL    HW133491   2.713   4.427   1.077
10864SOL    HW233492   2.583   4.394   1.169
10865SOL     OW33493   5.322   2.786   3.866
10865SOL    HW133494   5.261   2.756   3.940
10865SOL    HW233495   5.278   2.860   3.815
10866SOL     OW33496   6.397   2.846   1.123
10866SOL    HW133497   6.375   2.749   1.129
10866SOL    HW233498   6.459   2.862   1.046
10867SOL     OW33499   2.647   3.142   0.361
10867SOL    HW133500   2.742   3.136   0.389
10867SOL    HW233501   2.594   3.068   0.403
10868SOL     OW33502   0.872   2.283   3.450
10868SOL    HW133503   0.868   2.355   3.519
10868SOL    HW233504   0.793   2.289   3.390
10869NA      NA33505   0.657   1.654   5.837
10870NA      NA33506   4.518   4.378   5.213
10871NA      NA33507   1.875   4.996   2.706
10872NA      NA33508   5.211   4.251   3.887
10873NA      NA33509   4.263   2.435   5.327
10874NA      NA33510   2.771   4.919   1.422
10875NA      NA33511   1.265   4.920   0.595
10876NA      NA33512   4.061   4.253   1.508
10877NA      NA33513   4.640   3.940   0.790
10878NA      NA33514   3.511   1.010   5.986
10879NA      NA33515   5.031   5.694   2.136
10880NA      NA33516   1.448   0.474   5.596
10881NA      NA33517   4.968   5.045   1.746
10882NA      NA33518   3.154   3.405   0.196
   7.03066   7.03066   7.03066
