Generated by trjconv : CNT in water t=  27.00000
33518
    1C        C    1   2.845   2.767   4.745
    1C        C    2   2.901   2.719   4.865
    1C        C    3   2.843   2.767   4.983
    1C        C    4   2.847   2.769   4.260
    1C        C    5   2.900   2.721   4.382
    1C        C    6   2.842   2.766   4.502
    1C        C    7   3.016   2.642   4.625
    1C        C    8   2.896   2.717   4.623
    1C        C    9   3.078   2.604   4.746
    1C        C   10   3.013   2.633   4.868
    1C        C   11   3.185   2.494   4.979
    1C        C   12   3.063   2.562   4.978
    1C        C   13   2.846   2.767   3.774
    1C        C   14   2.895   2.715   3.895
    1C        C   15   2.846   2.768   4.017
    1C        C   16   3.019   2.645   4.138
    1C        C   17   2.900   2.720   4.139
    1C        C   18   3.080   2.609   4.260
    1C        C   19   3.019   2.645   4.382
    1C        C   20   3.210   2.550   4.505
    1C        C   21   3.081   2.608   4.504
    1C        C   22   3.280   2.531   4.626
    1C        C   23   3.206   2.543   4.746
    1C        C   24   3.412   2.478   4.862
    1C        C   25   3.270   2.498   4.864
    1C        C   26   3.490   2.482   4.979
    1C        C   27   2.851   2.765   3.282
    1C        C   28   2.902   2.719   3.406
    1C        C   29   2.855   2.768   3.530
    1C        C   30   3.018   2.638   3.648
    1C        C   31   2.903   2.720   3.653
    1C        C   32   3.078   2.606   3.772
    1C        C   33   3.011   2.634   3.893
    1C        C   34   3.206   2.551   4.016
    1C        C   35   3.074   2.601   4.015
    1C        C   36   3.275   2.533   4.138
    1C        C   37   3.210   2.554   4.262
    1C        C   38   3.418   2.505   4.379
    1C        C   39   3.280   2.533   4.383
    1C        C   40   3.489   2.495   4.501
    1C        C   41   3.419   2.504   4.623
    1C        C   42   3.631   2.485   4.745
    1C        C   43   3.489   2.479   4.743
    1C        C   44   3.706   2.485   4.865
    1C        C   45   3.629   2.477   4.982
    1C        C   46   2.837   2.750   2.795
    1C        C   47   2.893   2.703   2.916
    1C        C   48   2.849   2.761   3.037
    1C        C   49   3.018   2.635   3.160
    1C        C   50   2.903   2.718   3.160
    1C        C   51   3.079   2.599   3.282
    1C        C   52   3.014   2.633   3.403
    1C        C   53   3.209   2.550   3.527
    1C        C   54   3.077   2.601   3.525
    1C        C   55   3.275   2.522   3.649
    1C        C   56   3.208   2.549   3.770
    1C        C   57   3.412   2.506   3.894
    1C        C   58   3.273   2.528   3.894
    1C        C   59   3.485   2.505   4.015
    1C        C   60   3.413   2.506   4.136
    1C        C   61   3.629   2.494   4.259
    1C        C   62   3.487   2.496   4.256
    1C        C   63   3.701   2.500   4.380
    1C        C   64   3.630   2.498   4.503
    1C        C   65   3.836   2.547   4.619
    1C        C   66   3.702   2.503   4.624
    1C        C   67   3.907   2.561   4.741
    1C        C   68   3.842   2.521   4.860
    1C        C   69   4.050   2.584   4.976
    1C        C   70   3.920   2.530   4.975
    1C        C   71   2.826   2.737   2.305
    1C        C   72   2.887   2.702   2.428
    1C        C   73   2.832   2.749   2.550
    1C        C   74   3.005   2.626   2.670
    1C        C   75   2.886   2.703   2.672
    1C        C   76   3.070   2.590   2.790
    1C        C   77   3.012   2.627   2.914
    1C        C   78   3.206   2.543   3.035
    1C        C   79   3.076   2.599   3.037
    1C        C   80   3.274   2.526   3.158
    1C        C   81   3.209   2.544   3.282
    1C        C   82   3.416   2.503   3.403
    1C        C   83   3.276   2.526   3.405
    1C        C   84   3.484   2.500   3.526
    1C        C   85   3.415   2.501   3.649
    1C        C   86   3.625   2.500   3.770
    1C        C   87   3.484   2.495   3.772
    1C        C   88   3.694   2.512   3.892
    1C        C   89   3.626   2.506   4.016
    1C        C   90   3.834   2.551   4.136
    1C        C   91   3.699   2.510   4.137
    1C        C   92   3.903   2.574   4.258
    1C        C   93   3.836   2.541   4.377
    1C        C   94   4.029   2.637   4.498
    1C        C   95   3.903   2.573   4.498
    1C        C   96   4.094   2.668   4.620
    1C        C   97   4.033   2.627   4.740
    1C        C   98   4.186   2.771   4.859
    1C        C   99   4.096   2.659   4.863
    1C        C  100   4.219   2.841   4.975
    1C        C  101   2.825   2.736   2.067
    1C        C  102   2.990   2.592   2.193
    1C        C  103   2.878   2.681   2.185
    1C        C  104   3.063   2.571   2.313
    1C        C  105   3.003   2.621   2.431
    1C        C  106   3.200   2.535   2.551
    1C        C  107   3.069   2.588   2.551
    1C        C  108   3.270   2.514   2.672
    1C        C  109   3.199   2.531   2.792
    1C        C  110   3.411   2.500   2.914
    1C        C  111   3.271   2.513   2.913
    1C        C  112   3.483   2.498   3.036
    1C        C  113   3.413   2.501   3.158
    1C        C  114   3.626   2.496   3.280
    1C        C  115   3.484   2.495   3.279
    1C        C  116   3.694   2.510   3.402
    1C        C  117   3.626   2.505   3.526
    1C        C  118   3.833   2.547   3.648
    1C        C  119   3.696   2.511   3.648
    1C        C  120   3.896   2.576   3.771
    1C        C  121   3.830   2.550   3.893
    1C        C  122   4.024   2.641   4.013
    1C        C  123   3.900   2.573   4.013
    1C        C  124   4.088   2.675   4.134
    1C        C  125   4.030   2.635   4.256
    1C        C  126   4.199   2.767   4.377
    1C        C  127   4.091   2.676   4.377
    1C        C  128   4.245   2.822   4.498
    1C        C  129   4.195   2.767   4.618
    1C        C  130   4.328   2.936   4.740
    1C        C  131   4.243   2.822   4.739
    1C        C  132   4.353   3.009   4.858
    1C        C  133   4.292   2.960   4.975
    1C        C  134   3.173   2.474   2.078
    1C        C  135   3.037   2.506   2.088
    1C        C  136   3.259   2.480   2.189
    1C        C  137   3.194   2.517   2.309
    1C        C  138   3.405   2.482   2.426
    1C        C  139   3.266   2.502   2.430
    1C        C  140   3.479   2.478   2.546
    1C        C  141   3.410   2.493   2.668
    1C        C  142   3.621   2.497   2.791
    1C        C  143   3.480   2.494   2.791
    1C        C  144   3.695   2.504   2.912
    1C        C  145   3.625   2.496   3.034
    1C        C  146   3.831   2.538   3.157
    1C        C  147   3.695   2.502   3.157
    1C        C  148   3.900   2.562   3.278
    1C        C  149   3.831   2.544   3.400
    1C        C  150   4.023   2.629   3.523
    1C        C  151   3.897   2.565   3.523
    1C        C  152   4.081   2.672   3.644
    1C        C  153   4.023   2.640   3.768
    1C        C  154   4.195   2.764   3.888
    1C        C  155   4.082   2.679   3.890
    1C        C  156   4.249   2.810   4.010
    1C        C  157   4.199   2.763   4.133
    1C        C  158   4.343   2.921   4.251
    1C        C  159   4.253   2.812   4.255
    1C        C  160   4.380   2.981   4.373
    1C        C  161   4.334   2.932   4.497
    1C        C  162   4.436   3.119   4.615
    1C        C  163   4.374   2.992   4.619
    1C        C  164   4.471   3.186   4.734
    1C        C  165   4.434   3.125   4.856
    1C        C  166   4.505   3.325   4.977
    1C        C  167   4.471   3.190   4.974
    1C        C  168   3.473   2.441   2.071
    1C        C  169   3.398   2.460   2.188
    1C        C  170   3.619   2.468   2.308
    1C        C  171   3.477   2.464   2.306
    1C        C  172   3.693   2.485   2.427
    1C        C  173   3.620   2.483   2.548
    1C        C  174   3.827   2.540   2.667
    1C        C  175   3.690   2.506   2.668
    1C        C  176   3.898   2.559   2.788
    1C        C  177   3.830   2.545   2.910
    1C        C  178   4.024   2.622   3.031
    1C        C  179   3.897   2.559   3.034
    1C        C  180   4.084   2.658   3.154
    1C        C  181   4.027   2.624   3.279
    1C        C  182   4.196   2.753   3.398
    1C        C  183   4.085   2.666   3.401
    1C        C  184   4.245   2.806   3.520
    1C        C  185   4.192   2.760   3.643
    1C        C  186   4.342   2.913   3.766
    1C        C  187   4.245   2.810   3.764
    1C        C  188   4.384   2.975   3.886
    1C        C  189   4.340   2.919   4.007
    1C        C  190   4.446   3.105   4.128
    1C        C  191   4.381   2.979   4.128
    1C        C  192   4.467   3.173   4.250
    1C        C  193   4.442   3.108   4.373
    1C        C  194   4.509   3.315   4.490
    1C        C  195   4.467   3.180   4.492
    1C        C  196   4.528   3.386   4.611
    1C        C  197   4.512   3.322   4.735
    1C        C  198   4.557   3.533   4.848
    1C        C  199   4.526   3.394   4.857
    1C        C  200   4.583   3.618   4.960
    1C        C  201   3.612   2.425   2.073
    1C        C  202   3.827   2.512   2.183
    1C        C  203   3.692   2.464   2.185
    1C        C  204   3.900   2.531   2.304
    1C        C  205   3.832   2.510   2.426
    1C        C  206   4.020   2.620   2.541
    1C        C  207   3.897   2.551   2.544
    1C        C  208   4.083   2.659   2.661
    1C        C  209   4.025   2.622   2.785
    1C        C  210   4.194   2.746   2.907
    1C        C  211   4.081   2.661   2.908
    1C        C  212   4.244   2.798   3.029
    1C        C  213   4.193   2.748   3.151
    1C        C  214   4.337   2.903   3.272
    1C        C  215   4.247   2.793   3.273
    1C        C  216   4.371   2.968   3.393
    1C        C  217   4.334   2.915   3.518
    1C        C  218   4.437   3.098   3.638
    1C        C  219   4.374   2.972   3.642
    1C        C  220   4.467   3.167   3.758
    1C        C  221   4.444   3.103   3.882
    1C        C  222   4.503   3.305   4.003
    1C        C  223   4.472   3.167   4.004
    1C        C  224   4.510   3.380   4.123
    1C        C  225   4.500   3.311   4.246
    1C        C  226   4.519   3.525   4.367
    1C        C  227   4.512   3.384   4.367
    1C        C  228   4.518   3.598   4.488
    1C        C  229   4.534   3.527   4.609
    1C        C  230   4.502   3.743   4.725
    1C        C  231   4.536   3.605   4.727
    1C        C  232   4.492   3.818   4.845
    1C        C  233   4.552   3.755   4.955
    1C        C  234   4.016   2.610   2.062
    1C        C  235   3.895   2.540   2.064
    1C        C  236   4.081   2.647   2.180
    1C        C  237   4.022   2.604   2.301
    1C        C  238   4.198   2.735   2.419
    1C        C  239   4.084   2.650   2.419
    1C        C  240   4.255   2.780   2.540
    1C        C  241   4.201   2.737   2.663
    1C        C  242   4.338   2.900   2.783
    1C        C  243   4.249   2.791   2.784
    1C        C  244   4.380   2.958   2.905
    1C        C  245   4.335   2.906   3.029
    1C        C  246   4.442   3.088   3.148
    1C        C  247   4.375   2.964   3.151
    1C        C  248   4.463   3.157   3.270
    1C        C  249   4.434   3.095   3.393
    1C        C  250   4.500   3.298   3.513
    1C        C  251   4.462   3.162   3.514
    1C        C  252   4.514   3.371   3.634
    1C        C  253   4.504   3.303   3.757
    1C        C  254   4.517   3.514   3.879
    1C        C  255   4.514   3.373   3.880
    1C        C  256   4.520   3.589   3.999
    1C        C  257   4.525   3.520   4.123
    1C        C  258   4.490   3.732   4.239
    1C        C  259   4.518   3.594   4.243
    1C        C  260   4.470   3.802   4.361
    1C        C  261   4.485   3.735   4.484
    1C        C  262   4.419   3.940   4.602
    1C        C  263   4.471   3.809   4.604
    1C        C  264   4.398   4.010   4.723
    1C        C  265   4.435   3.947   4.843
    1C        C  266   4.324   4.133   4.956
    1C        C  267   4.399   4.016   4.960
    1C        C  268   4.262   2.777   2.063
    1C        C  269   4.195   2.731   2.177
    1C        C  270   4.348   2.885   2.298
    1C        C  271   4.250   2.782   2.296
    1C        C  272   4.384   2.950   2.419
    1C        C  273   4.342   2.892   2.540
    1C        C  274   4.442   3.083   2.659
    1C        C  275   4.377   2.958   2.660
    1C        C  276   4.472   3.149   2.780
    1C        C  277   4.447   3.082   2.901
    1C        C  278   4.499   3.287   3.023
    1C        C  279   4.472   3.149   3.024
    1C        C  280   4.505   3.360   3.144
    1C        C  281   4.490   3.296   3.269
    1C        C  282   4.516   3.508   3.388
    1C        C  283   4.508   3.367   3.390
    1C        C  284   4.512   3.580   3.509
    1C        C  285   4.512   3.512   3.633
    1C        C  286   4.485   3.721   3.752
    1C        C  287   4.509   3.582   3.756
    1C        C  288   4.473   3.794   3.872
    1C        C  289   4.489   3.726   3.995
    1C        C  290   4.419   3.929   4.114
    1C        C  291   4.466   3.796   4.116
    1C        C  292   4.396   3.998   4.236
    1C        C  293   4.428   3.937   4.360
    1C        C  294   4.326   4.128   4.475
    1C        C  295   4.399   4.007   4.479
    1C        C  296   4.286   4.190   4.596
    1C        C  297   4.329   4.135   4.718
    1C        C  298   4.199   4.312   4.840
    1C        C  299   4.283   4.196   4.838
    1C        C  300   4.169   4.403   4.946
    1C        C  301   4.354   2.881   2.061
    1C        C  302   4.474   3.064   2.177
    1C        C  303   4.402   2.940   2.178
    1C        C  304   4.483   3.141   2.296
    1C        C  305   4.446   3.076   2.416
    1C        C  306   4.506   3.283   2.534
    1C        C  307   4.474   3.146   2.536
    1C        C  308   4.511   3.355   2.656
    1C        C  309   4.505   3.287   2.779
    1C        C  310   4.516   3.499   2.898
    1C        C  311   4.517   3.357   2.901
    1C        C  312   4.508   3.568   3.021
    1C        C  313   4.509   3.501   3.145
    1C        C  314   4.481   3.715   3.262
    1C        C  315   4.508   3.577   3.265
    1C        C  316   4.466   3.784   3.384
    1C        C  317   4.487   3.719   3.508
    1C        C  318   4.425   3.923   3.624
    1C        C  319   4.472   3.790   3.629
    1C        C  320   4.396   3.988   3.746
    1C        C  321   4.427   3.928   3.870
    1C        C  322   4.323   4.115   3.989
    1C        C  323   4.394   3.993   3.991
    1C        C  324   4.280   4.172   4.111
    1C        C  325   4.321   4.117   4.234
    1C        C  326   4.187   4.288   4.351
    1C        C  327   4.281   4.182   4.353
    1C        C  328   4.137   4.342   4.472
    1C        C  329   4.190   4.294   4.593
    1C        C  330   4.022   4.424   4.715
    1C        C  331   4.142   4.347   4.715
    1C        C  332   3.969   4.487   4.830
    1C        C  333   4.055   4.486   4.940
    1C        C  334   4.553   3.266   2.061
    1C        C  335   4.530   3.128   2.062
    1C        C  336   4.534   3.348   2.173
    1C        C  337   4.513   3.280   2.294
    1C        C  338   4.518   3.496   2.410
    1C        C  339   4.521   3.355   2.413
    1C        C  340   4.523   3.568   2.532
    1C        C  341   4.525   3.496   2.653
    1C        C  342   4.487   3.706   2.772
    1C        C  343   4.511   3.567   2.774
    1C        C  344   4.473   3.776   2.894
    1C        C  345   4.488   3.708   3.016
    1C        C  346   4.425   3.914   3.137
    1C        C  347   4.470   3.780   3.136
    1C        C  348   4.394   3.983   3.257
    1C        C  349   4.425   3.919   3.379
    1C        C  350   4.320   4.105   3.502
    1C        C  351   4.395   3.986   3.500
    1C        C  352   4.273   4.161   3.623
    1C        C  353   4.326   4.111   3.744
    1C        C  354   4.177   4.265   3.866
    1C        C  355   4.280   4.168   3.865
    1C        C  356   4.125   4.318   3.986
    1C        C  357   4.184   4.275   4.107
    1C        C  358   4.011   4.402   4.228
    1C        C  359   4.129   4.325   4.227
    1C        C  360   3.949   4.439   4.349
    1C        C  361   4.016   4.416   4.472
    1C        C  362   3.826   4.509   4.592
    1C        C  363   3.955   4.451   4.594
    1C        C  364   3.760   4.541   4.712
    1C        C  365   3.837   4.538   4.830
    1C        C  366   3.629   4.594   4.948
    1C        C  367   3.766   4.570   4.946
    1C        C  368   4.505   3.561   2.049
    1C        C  369   4.526   3.489   2.168
    1C        C  370   4.499   3.705   2.285
    1C        C  371   4.513   3.565   2.286
    1C        C  372   4.481   3.775   2.407
    1C        C  373   4.499   3.707   2.529
    1C        C  374   4.428   3.910   2.647
    1C        C  375   4.474   3.776   2.650
    1C        C  376   4.394   3.971   2.770
    1C        C  377   4.427   3.910   2.892
    1C        C  378   4.320   4.095   3.012
    1C        C  379   4.394   3.974   3.013
    1C        C  380   4.277   4.158   3.131
    1C        C  381   4.321   4.103   3.254
    1C        C  382   4.179   4.257   3.378
    1C        C  383   4.282   4.160   3.378
    1C        C  384   4.123   4.305   3.498
    1C        C  385   4.176   4.264   3.623
    1C        C  386   4.006   4.391   3.741
    1C        C  387   4.124   4.313   3.744
    1C        C  388   3.944   4.428   3.862
    1C        C  389   4.006   4.394   3.985
    1C        C  390   3.816   4.488   4.110
    1C        C  391   3.948   4.438   4.106
    1C        C  392   3.747   4.515   4.230
    1C        C  393   3.822   4.500   4.349
    1C        C  394   3.616   4.546   4.472
    1C        C  395   3.756   4.528   4.471
    1C        C  396   3.547   4.563   4.594
    1C        C  397   3.622   4.572   4.714
    1C        C  398   3.410   4.552   4.838
    1C        C  399   3.548   4.579   4.834
    1C        C  400   3.341   4.518   4.955
    1C        C  401   4.500   3.700   2.051
    1C        C  402   4.451   3.915   2.166
    1C        C  403   4.493   3.780   2.166
    1C        C  404   4.408   3.977   2.285
    1C        C  405   4.438   3.910   2.405
    1C        C  406   4.325   4.092   2.524
    1C        C  407   4.407   3.977   2.525
    1C        C  408   4.277   4.146   2.645
    1C        C  409   4.317   4.090   2.769
    1C        C  410   4.176   4.250   2.890
    1C        C  411   4.272   4.148   2.890
    1C        C  412   4.120   4.296   3.011
    1C        C  413   4.176   4.256   3.134
    1C        C  414   4.005   4.379   3.253
    1C        C  415   4.125   4.304   3.256
    1C        C  416   3.942   4.413   3.375
    1C        C  417   4.005   4.382   3.497
    1C        C  418   3.812   4.475   3.617
    1C        C  419   3.943   4.422   3.618
    1C        C  420   3.749   4.502   3.741
    1C        C  421   3.814   4.483   3.865
    1C        C  422   3.609   4.532   3.986
    1C        C  423   3.748   4.508   3.988
    1C        C  424   3.539   4.539   4.108
    1C        C  425   3.608   4.538   4.231
    1C        C  426   3.398   4.555   4.355
    1C        C  427   3.539   4.554   4.354
    1C        C  428   3.331   4.549   4.479
    1C        C  429   3.406   4.557   4.599
    1C        C  430   3.193   4.521   4.723
    1C        C  431   3.334   4.544   4.720
    1C        C  432   3.124   4.497   4.845
    1C        C  433   3.202   4.505   4.961
    1C        C  434   4.380   4.121   2.049
    1C        C  435   4.452   4.001   2.055
    1C        C  436   4.303   4.163   2.162
    1C        C  437   4.331   4.096   2.284
    1C        C  438   4.178   4.249   2.401
    1C        C  439   4.277   4.149   2.404
    1C        C  440   4.127   4.295   2.524
    1C        C  441   4.176   4.245   2.647
    1C        C  442   4.002   4.371   2.763
    1C        C  443   4.121   4.295   2.767
    1C        C  444   3.944   4.414   2.885
    1C        C  445   4.003   4.377   3.008
    1C        C  446   3.813   4.470   3.125
    1C        C  447   3.941   4.410   3.130
    1C        C  448   3.746   4.492   3.248
    1C        C  449   3.812   4.466   3.371
    1C        C  450   3.608   4.522   3.496
    1C        C  451   3.747   4.493   3.493
    1C        C  452   3.542   4.537   3.619
    1C        C  453   3.611   4.532   3.742
    1C        C  454   3.398   4.541   3.866
    1C        C  455   3.539   4.539   3.863
    1C        C  456   3.328   4.536   3.989
    1C        C  457   3.398   4.541   4.111
    1C        C  458   3.189   4.511   4.237
    1C        C  459   3.327   4.540   4.234
    1C        C  460   3.124   4.491   4.361
    1C        C  461   3.196   4.510   4.481
    1C        C  462   2.998   4.432   4.603
    1C        C  463   3.125   4.495   4.602
    1C        C  464   2.935   4.398   4.725
    1C        C  465   2.992   4.440   4.848
    1C        C  466   2.809   4.331   4.960
    1C        C  467   2.903   4.435   4.960
    1C        C  468   4.125   4.288   2.042
    1C        C  469   4.193   4.254   2.159
    1C        C  470   4.016   4.384   2.276
    1C        C  471   4.135   4.306   2.279
    1C        C  472   3.944   4.402   2.396
    1C        C  473   4.004   4.364   2.519
    1C        C  474   3.812   4.460   2.641
    1C        C  475   3.941   4.402   2.640
    1C        C  476   3.747   4.493   2.761
    1C        C  477   3.816   4.472   2.883
    1C        C  478   3.605   4.510   3.008
    1C        C  479   3.745   4.491   3.004
    1C        C  480   3.536   4.523   3.130
    1C        C  481   3.608   4.521   3.252
    1C        C  482   3.396   4.535   3.377
    1C        C  483   3.538   4.534   3.374
    1C        C  484   3.328   4.534   3.501
    1C        C  485   3.401   4.543   3.622
    1C        C  486   3.191   4.501   3.747
    1C        C  487   3.329   4.532   3.743
    1C        C  488   3.126   4.473   3.869
    1C        C  489   3.192   4.497   3.992
    1C        C  490   3.000   4.414   4.115
    1C        C  491   3.123   4.482   4.115
    1C        C  492   2.941   4.380   4.239
    1C        C  493   2.998   4.427   4.360
    1C        C  494   2.826   4.306   4.481
    1C        C  495   2.936   4.395   4.482
    1C        C  496   2.772   4.258   4.603
    1C        C  497   2.820   4.314   4.723
    1C        C  498   2.666   4.167   4.845
    1C        C  499   2.756   4.275   4.843
    1C        C  500   2.595   4.117   4.955
    1C        C  501   3.997   4.344   2.041
    1C        C  502   3.820   4.469   2.158
    1C        C  503   3.946   4.405   2.156
    1C        C  504   3.746   4.482   2.278
    1C        C  505   3.813   4.453   2.399
    1C        C  506   3.605   4.506   2.519
    1C        C  507   3.743   4.480   2.519
    1C        C  508   3.535   4.514   2.641
    1C        C  509   3.607   4.516   2.762
    1C        C  510   3.395   4.519   2.887
    1C        C  511   3.536   4.518   2.884
    1C        C  512   3.323   4.515   3.009
    1C        C  513   3.395   4.530   3.130
    1C        C  514   3.194   4.485   3.256
    1C        C  515   3.328   4.528   3.254
    1C        C  516   3.128   4.462   3.379
    1C        C  517   3.192   4.497   3.500
    1C        C  518   3.001   4.411   3.624
    1C        C  519   3.127   4.475   3.623
    1C        C  520   2.939   4.377   3.746
    1C        C  521   3.000   4.410   3.869
    1C        C  522   2.834   4.284   3.994
    1C        C  523   2.941   4.376   3.992
    1C        C  524   2.784   4.235   4.117
    1C        C  525   2.830   4.293   4.237
    1C        C  526   2.694   4.135   4.364
    1C        C  527   2.779   4.248   4.361
    1C        C  528   2.659   4.074   4.487
    1C        C  529   2.694   4.140   4.606
    1C        C  530   2.580   3.963   4.730
    1C        C  531   2.648   4.088   4.729
    1C        C  532   2.537   3.901   4.850
    1C        C  533   2.527   3.994   4.958
    1C        C  534   3.619   4.553   2.040
    1C        C  535   3.752   4.507   2.041
    1C        C  536   3.538   4.539   2.156
    1C        C  537   3.607   4.511   2.277
    1C        C  538   3.391   4.511   2.401
    1C        C  539   3.533   4.513   2.397
    1C        C  540   3.320   4.508   2.523
    1C        C  541   3.394   4.512   2.644
    1C        C  542   3.185   4.478   2.767
    1C        C  543   3.323   4.507   2.766
    1C        C  544   3.117   4.461   2.890
    1C        C  545   3.186   4.483   3.011
    1C        C  546   2.994   4.404   3.135
    1C        C  547   3.123   4.460   3.136
    1C        C  548   2.934   4.367   3.258
    1C        C  549   2.999   4.403   3.378
    1C        C  550   2.831   4.281   3.506
    1C        C  551   2.941   4.370   3.502
    1C        C  552   2.779   4.233   3.628
    1C        C  553   2.831   4.286   3.748
    1C        C  554   2.701   4.122   3.875
    1C        C  555   2.782   4.238   3.871
    1C        C  556   2.660   4.064   3.997
    1C        C  557   2.693   4.127   4.119
    1C        C  558   2.598   3.943   4.246
    1C        C  559   2.654   4.072   4.244
    1C        C  560   2.572   3.877   4.369
    1C        C  561   2.595   3.948   4.488
    1C        C  562   2.527   3.751   4.611
    1C        C  563   2.564   3.887   4.612
    1C        C  564   2.519   3.681   4.734
    1C        C  565   2.525   3.758   4.853
    1C        C  566   2.533   3.544   4.976
    1C        C  567   2.538   3.683   4.970
    1C        C  568   3.325   4.478   2.045
    1C        C  569   3.398   4.514   2.159
    1C        C  570   3.184   4.468   2.279
    1C        C  571   3.321   4.505   2.278
    1C        C  572   3.114   4.456   2.402
    1C        C  573   3.182   4.481   2.523
    1C        C  574   2.988   4.399   2.648
    1C        C  575   3.115   4.461   2.646
    1C        C  576   2.928   4.361   2.770
    1C        C  577   2.992   4.395   2.891
    1C        C  578   2.821   4.276   3.015
    1C        C  579   2.933   4.362   3.015
    1C        C  580   2.772   4.227   3.138
    1C        C  581   2.828   4.274   3.260
    1C        C  582   2.700   4.112   3.384
    1C        C  583   2.784   4.226   3.385
    1C        C  584   2.664   4.053   3.507
    1C        C  585   2.700   4.115   3.629
    1C        C  586   2.597   3.935   3.756
    1C        C  587   2.663   4.060   3.753
    1C        C  588   2.571   3.871   3.880
    1C        C  589   2.595   3.939   4.002
    1C        C  590   2.532   3.740   4.127
    1C        C  591   2.565   3.878   4.125
    1C        C  592   2.522   3.672   4.250
    1C        C  593   2.539   3.740   4.373
    1C        C  594   2.521   3.530   4.495
    1C        C  595   2.522   3.671   4.495
    1C        C  596   2.516   3.463   4.620
    1C        C  597   2.513   3.539   4.739
    1C        C  598   2.529   3.325   4.862
    1C        C  599   2.526   3.467   4.859
    1C        C  600   2.534   3.248   4.978
    1C        C  601   3.192   4.440   2.042
    1C        C  602   2.980   4.391   2.160
    1C        C  603   3.115   4.438   2.159
    1C        C  604   2.923   4.356   2.286
    1C        C  605   2.985   4.398   2.406
    1C        C  606   2.815   4.272   2.529
    1C        C  607   2.923   4.364   2.528
    1C        C  608   2.770   4.216   2.651
    1C        C  609   2.820   4.269   2.771
    1C        C  610   2.681   4.113   2.897
    1C        C  611   2.767   4.225   2.895
    1C        C  612   2.646   4.055   3.021
    1C        C  613   2.686   4.115   3.143
    1C        C  614   2.589   3.927   3.266
    1C        C  615   2.651   4.054   3.265
    1C        C  616   2.562   3.866   3.391
    1C        C  617   2.596   3.929   3.512
    1C        C  618   2.531   3.730   3.638
    1C        C  619   2.571   3.865   3.636
    1C        C  620   2.519   3.662   3.762
    1C        C  621   2.533   3.735   3.882
    1C        C  622   2.514   3.527   4.010
    1C        C  623   2.522   3.668   4.006
    1C        C  624   2.522   3.456   4.131
    1C        C  625   2.518   3.531   4.251
    1C        C  626   2.535   3.320   4.379
    1C        C  627   2.515   3.459   4.373
    1C        C  628   2.554   3.252   4.502
    1C        C  629   2.538   3.324   4.622
    1C        C  630   2.596   3.117   4.745
    1C        C  631   2.551   3.252   4.743
    1C        C  632   2.621   3.048   4.867
    1C        C  633   2.562   3.111   4.981
    1C        C  634   2.777   4.306   2.053
    1C        C  635   2.887   4.392   2.052
    1C        C  636   2.750   4.228   2.166
    1C        C  637   2.809   4.271   2.287
    1C        C  638   2.673   4.111   2.409
    1C        C  639   2.757   4.224   2.409
    1C        C  640   2.643   4.046   2.531
    1C        C  641   2.684   4.104   2.653
    1C        C  642   2.580   3.924   2.778
    1C        C  643   2.640   4.051   2.777
    1C        C  644   2.564   3.856   2.900
    1C        C  645   2.588   3.926   3.020
    1C        C  646   2.536   3.722   3.147
    1C        C  647   2.572   3.859   3.144
    1C        C  648   2.524   3.655   3.271
    1C        C  649   2.533   3.728   3.391
    1C        C  650   2.516   3.520   3.518
    1C        C  651   2.521   3.661   3.515
    1C        C  652   2.517   3.450   3.641
    1C        C  653   2.513   3.521   3.763
    1C        C  654   2.537   3.316   3.889
    1C        C  655   2.512   3.455   3.888
    1C        C  656   2.553   3.249   4.012
    1C        C  657   2.540   3.316   4.136
    1C        C  658   2.609   3.117   4.257
    1C        C  659   2.554   3.248   4.259
    1C        C  660   2.638   3.055   4.381
    1C        C  661   2.605   3.120   4.502
    1C        C  662   2.713   2.939   4.626
    1C        C  663   2.631   3.054   4.624
    1C        C  664   2.752   2.875   4.746
    1C        C  665   2.699   2.928   4.867
    1C        C  666   2.742   2.862   4.983
    1C        C  667   2.670   4.026   2.055
    1C        C  668   2.678   4.106   2.170
    1C        C  669   2.585   3.913   2.290
    1C        C  670   2.633   4.047   2.289
    1C        C  671   2.561   3.847   2.412
    1C        C  672   2.584   3.918   2.532
    1C        C  673   2.520   3.720   2.661
    1C        C  674   2.559   3.855   2.656
    1C        C  675   2.510   3.648   2.782
    1C        C  676   2.528   3.719   2.902
    1C        C  677   2.510   3.510   3.032
    1C        C  678   2.523   3.651   3.026
    1C        C  679   2.507   3.440   3.155
    1C        C  680   2.511   3.514   3.276
    1C        C  681   2.536   3.305   3.402
    1C        C  682   2.517   3.445   3.399
    1C        C  683   2.559   3.238   3.524
    1C        C  684   2.541   3.311   3.643
    1C        C  685   2.602   3.113   3.771
    1C        C  686   2.552   3.245   3.768
    1C        C  687   2.643   3.053   3.892
    1C        C  688   2.604   3.117   4.012
    1C        C  689   2.716   2.937   4.141
    1C        C  690   2.640   3.055   4.134
    1C        C  691   2.757   2.878   4.263
    1C        C  692   2.714   2.936   4.384
    1C        C  693   2.755   2.878   4.506
    1C        C  694   2.618   3.897   2.053
    1C        C  695   2.524   3.704   2.175
    1C        C  696   2.570   3.838   2.171
    1C        C  697   2.505   3.638   2.299
    1C        C  698   2.521   3.711   2.418
    1C        C  699   2.498   3.504   2.540
    1C        C  700   2.503   3.645   2.542
    1C        C  701   2.508   3.436   2.664
    1C        C  702   2.510   3.506   2.786
    1C        C  703   2.532   3.298   2.909
    1C        C  704   2.517   3.439   2.910
    1C        C  705   2.547   3.231   3.032
    1C        C  706   2.533   3.302   3.153
    1C        C  707   2.605   3.107   3.277
    1C        C  708   2.554   3.239   3.278
    1C        C  709   2.638   3.045   3.400
    1C        C  710   2.607   3.105   3.524
    1C        C  711   2.712   2.929   3.650
    1C        C  712   2.633   3.046   3.650
    1C        C  713   2.755   2.875   3.773
    1C        C  714   2.716   2.932   3.896
    1C        C  715   2.758   2.879   4.020
    1C        C  716   2.446   3.499   2.063
    1C        C  717   2.496   3.629   2.060
    1C        C  718   2.469   3.421   2.181
    1C        C  719   2.488   3.497   2.300
    1C        C  720   2.513   3.287   2.420
    1C        C  721   2.492   3.427   2.422
    1C        C  722   2.537   3.222   2.544
    1C        C  723   2.527   3.296   2.663
    1C        C  724   2.592   3.096   2.791
    1C        C  725   2.541   3.228   2.786
    1C        C  726   2.625   3.036   2.914
    1C        C  727   2.596   3.099   3.037
    1C        C  728   2.711   2.918   3.160
    1C        C  729   2.633   3.036   3.159
    1C        C  730   2.752   2.866   3.285
    1C        C  731   2.716   2.927   3.406
    1C        C  732   2.761   2.874   3.529
    1C        C  733   2.491   3.192   2.070
    1C        C  734   2.484   3.279   2.180
    1C        C  735   2.590   3.088   2.303
    1C        C  736   2.528   3.215   2.299
    1C        C  737   2.616   3.024   2.426
    1C        C  738   2.593   3.092   2.548
    1C        C  739   2.700   2.911   2.672
    1C        C  740   2.626   3.031   2.670
    1C        C  741   2.742   2.855   2.795
    1C        C  742   2.700   2.916   2.915
    1C        C  743   2.756   2.867   3.036
    1C        C  744   2.539   3.061   2.072
    1C        C  745   2.683   2.894   2.185
    1C        C  746   2.608   3.014   2.184
    1C        C  747   2.726   2.838   2.307
    1C        C  748   2.688   2.903   2.427
    1C        C  749   2.733   2.849   2.549
    1C        C  750   2.735   2.842   2.066
    1C        C  751   3.667   2.338   1.966
    1C        O  752   3.690   2.216   1.983
    1C        O  753   3.655   2.359   1.828
    1C        C  754   4.606   3.051   1.961
    1C        O  755   4.581   3.067   1.839
    1C        O  756   4.739   3.010   1.982
    1C        C  757   4.448   4.221   1.962
    1C        O  758   4.545   4.296   1.993
    1C        O  759   4.396   4.242   1.834
    1C        C  760   3.587   4.660   1.943
    1C        O  761   3.585   4.780   1.980
    1C        O  762   3.594   4.654   1.803
    1C        C  763   2.879   4.510   1.963
    1C        O  764   2.839   4.486   1.846
    1C        O  765   2.810   4.623   2.008
    1C        C  766   2.324   3.481   1.980
    1C        O  767   2.315   3.434   1.864
    1C        O  768   2.197   3.467   2.038
    1C        C  769   4.707   3.590   5.036
    1C        O  770   4.707   3.509   5.132
    1C        O  771   4.831   3.630   4.986
    1C        C  772   4.268   4.446   5.047
    1C        O  773   4.267   4.411   5.168
    1C        O  774   4.341   4.564   5.026
    1C        C  775   4.142   2.501   5.057
    1C        O  776   4.148   2.376   5.047
    1C        O  777   4.192   2.545   5.180
    1C        C  778   2.882   4.547   5.054
    1C        O  779   2.861   4.662   5.006
    1C        O  780   2.913   4.557   5.190
    1C        C  781   2.471   3.038   5.073
    1C        O  782   2.355   3.000   5.041
    1C        O  783   2.503   3.035   5.208
    1C        C  784   2.390   4.012   5.013
    1C        O  785   2.302   4.080   4.954
    1C        O  786   2.371   3.995   5.150
    1C        C  787   2.952   2.406   2.021
    1C        O  788   2.901   2.424   1.907
    1C        O  789   2.884   2.310   2.095
    1C        C  790   3.180   2.373   5.064
    1C        O  791   3.191   2.256   5.018
    1C        O  792   3.122   2.369   5.191
    1C        H  793   4.249   3.039   5.033
    1C        H  794   4.211   2.794   5.071
    1C        H  795   4.512   3.132   5.055
    1C        H  796   4.463   3.385   5.055
    1C        H  797   4.602   3.820   5.023
    1C        H  798   4.458   3.993   5.046
    1C        H  799   4.351   4.202   5.034
    1C        H  800   4.056   4.568   5.009
    1C        H  801   3.821   4.574   5.037
    1C        H  802   3.581   4.617   5.041
    1C        H  803   3.391   4.464   5.033
    1C        H  804   3.153   4.515   5.055
    1C        H  805   3.873   2.547   5.070
    1C        H  806   3.675   2.501   5.076
    1C        H  807   2.989   2.523   5.045
    1C        H  808   3.445   2.454   5.072
    1C        H  809   2.879   2.736   5.079
    1C        H  810   2.692   2.895   5.072
    1C        H  811   2.554   3.297   5.072
    1C        H  812   2.497   3.497   5.065
    1C        H  813   2.559   3.732   5.063
    1C        H  814   2.592   4.169   5.048
    1C        H  815   2.808   4.269   5.047
    1C        H  816   2.697   2.879   1.973
    1C        H  817   2.871   2.704   1.976
    1C        H  818   3.206   2.416   1.995
    1C        H  819   3.415   2.387   1.999
    1C        H  820   3.845   2.526   1.971
    1C        H  821   4.051   2.631   1.963
    1C        H  822   4.240   2.734   1.967
    1C        H  823   4.385   2.923   1.968
    1C        H  824   4.614   3.302   1.981
    1C        H  825   4.476   3.513   1.958
    1C        H  826   4.559   3.750   1.977
    1C        H  827   3.811   4.554   1.966
    1C        H  828   3.942   4.341   1.949
    1C        H  829   4.162   4.268   1.943
    1C        H  830   4.508   3.974   1.969
    1C        H  831   2.624   3.845   1.960
    1C        H  832   2.686   4.061   1.955
    1C        H  833   2.702   4.322   1.978
    1C        H  834   3.358   4.523   1.954
    1C        H  835   3.156   4.380   1.961
    1C        H  836   2.516   2.991   1.994
    1C        H  837   2.498   3.234   1.972
    1C        H  838   2.559   3.645   1.975
    2V3OU   H29  839   2.794   3.551   0.857
    2V3OU   C27  840   2.778   3.507   0.959
    2V3OU   H27  841   2.717   3.575   1.024
    2V3OU   H28  842   2.720   3.413   0.945
    2V3OU   O11  843   2.904   3.479   1.021
    2V3OU   C15  844   2.921   3.393   1.127
    2V3OU   C13  845   3.051   3.371   1.177
    2V3OU   C14  846   3.074   3.263   1.263
    2V3OU   C16  847   2.970   3.183   1.310
    2V3OU    H6  848   2.988   3.098   1.377
    2V3OU   C12  849   3.213   3.231   1.301
    2V3OU    O2  850   3.238   3.119   1.353
    2V3OU   C10  851   3.328   3.307   1.250
    2V3OU    C8  852   3.461   3.273   1.270
    2V3OU   O10  853   3.494   3.155   1.329
    2V3OU   H26  854   3.405   3.118   1.346
    2V3OU    C6  855   3.569   3.355   1.224
    2V3OU    C5  856   3.541   3.473   1.157
    2V3OU    C4  857   3.704   3.293   1.228
    2V3OU    H4  858   3.719   3.225   1.317
    2V3OU    H5  859   3.703   3.221   1.140
    2V3OU    C2  860   3.816   3.396   1.210
    2V3OU    O6  861   3.805   3.481   1.324
    2V3OU   H21  862   3.765   3.558   1.283
    2V3OU    C3  863   3.788   3.495   1.096
    2V3OU    H2  864   3.870   3.571   1.096
    2V3OU    H3  865   3.785   3.435   1.002
    2V3OU   C25  866   3.950   3.325   1.191
    2V3OU    O7  867   3.998   3.294   1.082
    2V3OU   C26  868   4.032   3.290   1.315
    2V3OU   H22  869   4.077   3.379   1.366
    2V3OU   H23  870   4.122   3.231   1.285
    2V3OU    O8  871   3.965   3.210   1.410
    2V3OU   H24  872   3.924   3.270   1.474
    2V3OU    C1  873   3.652   3.563   1.112
    2V3OU    H1  874   3.628   3.618   1.017
    2V3OU    O3  875   3.659   3.654   1.222
    2V3OU   C19  876   3.620   3.791   1.205
    2V3OU    H9  877   3.525   3.789   1.143
    2V3OU    O4  878   3.714   3.845   1.116
    2V3OU   C20  879   3.844   3.874   1.169
    2V3OU   H10  880   3.896   3.777   1.194
    2V3OU   C24  881   3.609   3.857   1.343
    2V3OU   H16  882   3.543   3.796   1.409
    2V3OU   H17  883   3.561   3.957   1.330
    2V3OU   C23  884   3.750   3.872   1.400
    2V3OU   H15  885   3.794   3.768   1.417
    2V3OU    N1  886   3.736   3.955   1.519
    2V3OU   H19  887   3.805   3.921   1.583
    2V3OU   H20  888   3.648   3.936   1.562
    2V3OU   C21  889   3.845   3.949   1.303
    2V3OU   H11  890   3.946   3.929   1.350
    2V3OU    O5  891   3.826   4.089   1.297
    2V3OU   H18  892   3.780   4.099   1.383
    2V3OU   C22  893   3.906   3.953   1.055
    2V3OU   H12  894   3.858   4.055   1.053
    2V3OU   H13  895   3.902   3.895   0.960
    2V3OU   H14  896   4.016   3.965   1.073
    2V3OU   C11  897   3.159   3.468   1.158
    2V3OU    O1  898   3.129   3.582   1.116
    2V3OU    C9  899   3.300   3.424   1.173
    2V3OU    C7  900   3.404   3.508   1.135
    2V3OU    O9  901   3.388   3.618   1.053
    2V3OU   H25  902   3.292   3.632   1.046
    2V3OU   C17  903   2.818   3.312   1.180
    2V3OU    H7  904   2.712   3.337   1.167
    2V3OU   C18  905   2.839   3.208   1.270
    2V3OU    H8  906   2.753   3.154   1.311
    3SOL     OW  907   0.584   4.339   0.815
    3SOL    HW1  908   0.631   4.331   0.727
    3SOL    HW2  909   0.645   4.312   0.889
    4SOL     OW  910   5.847   0.995   2.190
    4SOL    HW1  911   5.857   0.900   2.159
    4SOL    HW2  912   5.752   1.011   2.219
    5SOL     OW  913   3.703   2.984   1.411
    5SOL    HW1  914   3.725   3.014   1.504
    5SOL    HW2  915   3.633   3.044   1.372
    6SOL     OW  916   2.879   2.512   0.239
    6SOL    HW1  917   2.903   2.420   0.209
    6SOL    HW2  918   2.788   2.512   0.278
    7SOL     OW  919   5.952   1.191   1.925
    7SOL    HW1  920   5.919   1.223   2.013
    7SOL    HW2  921   5.883   1.132   1.882
    8SOL     OW  922   3.294   2.097   3.535
    8SOL    HW1  923   3.209   2.045   3.545
    8SOL    HW2  924   3.342   2.099   3.622
    9SOL     OW  925   6.544   4.212   5.972
    9SOL    HW1  926   6.473   4.175   6.033
    9SOL    HW2  927   6.529   4.310   5.959
   10SOL     OW  928   0.087   4.630   0.955
   10SOL    HW1  929   0.125   4.723   0.946
   10SOL    HW2  930   0.142   4.567   0.900
   11SOL     OW  931   4.234   6.784   6.695
   11SOL    HW1  932   4.270   6.699   6.657
   11SOL    HW2  933   4.136   6.791   6.673
   12SOL     OW  934   5.293   6.667   2.559
   12SOL    HW1  935   5.256   6.758   2.539
   12SOL    HW2  936   5.390   6.674   2.580
   13SOL     OW  937   1.892   0.407   2.884
   13SOL    HW1  938   1.944   0.337   2.835
   13SOL    HW2  939   1.806   0.369   2.916
   14SOL     OW  940   2.862   6.848   3.048
   14SOL    HW1  941   2.889   6.757   3.079
   14SOL    HW2  942   2.932   6.886   2.987
   15SOL     OW  943   2.381   6.672   6.328
   15SOL    HW1  944   2.346   6.603   6.264
   15SOL    HW2  945   2.412   6.752   6.276
   16SOL     OW  946   6.465   2.067   6.792
   16SOL    HW1  947   6.429   2.046   6.883
   16SOL    HW2  948   6.454   1.987   6.733
   17SOL     OW  949   4.131   6.018   2.933
   17SOL    HW1  950   4.076   5.939   2.960
   17SOL    HW2  951   4.071   6.092   2.904
   18SOL     OW  952   1.480   1.018   6.911
   18SOL    HW1  953   1.444   1.013   7.005
   18SOL    HW2  954   1.553   0.950   6.900
   19SOL     OW  955   1.108   6.873   0.996
   19SOL    HW1  956   1.187   6.812   1.000
   19SOL    HW2  957   1.099   6.923   1.082
   20SOL     OW  958   3.363   0.694   4.227
   20SOL    HW1  959   3.416   0.670   4.308
   20SOL    HW2  960   3.405   0.653   4.146
   21SOL     OW  961   2.868   3.150   1.867
   21SOL    HW1  962   2.885   3.071   1.808
   21SOL    HW2  963   2.810   3.216   1.820
   22SOL     OW  964   0.795   1.372   5.681
   22SOL    HW1  965   0.766   1.460   5.719
   22SOL    HW2  966   0.895   1.368   5.678
   23SOL     OW  967   3.234   6.147   4.957
   23SOL    HW1  968   3.331   6.140   4.979
   23SOL    HW2  969   3.198   6.235   4.989
   24SOL     OW  970   4.346   1.511   5.143
   24SOL    HW1  971   4.308   1.487   5.053
   24SOL    HW2  972   4.272   1.516   5.210
   25SOL     OW  973   2.232   5.516   0.745
   25SOL    HW1  974   2.243   5.430   0.794
   25SOL    HW2  975   2.270   5.507   0.653
   26SOL     OW  976   5.614   1.216   3.022
   26SOL    HW1  977   5.592   1.263   2.937
   26SOL    HW2  978   5.530   1.195   3.071
   27SOL     OW  979   6.202   0.295   2.714
   27SOL    HW1  980   6.133   0.280   2.785
   27SOL    HW2  981   6.224   0.392   2.710
   28SOL     OW  982   2.742   0.674   0.164
   28SOL    HW1  983   2.769   0.700   0.257
   28SOL    HW2  984   2.652   0.713   0.144
   29SOL     OW  985   4.612   2.793   1.701
   29SOL    HW1  986   4.626   2.885   1.739
   29SOL    HW2  987   4.673   2.779   1.623
   30SOL     OW  988   4.110   1.125   5.350
   30SOL    HW1  989   4.097   1.207   5.294
   30SOL    HW2  990   4.169   1.146   5.428
   31SOL     OW  991   0.767   1.340   5.390
   31SOL    HW1  992   0.805   1.423   5.349
   31SOL    HW2  993   0.763   1.350   5.489
   32SOL     OW  994   6.953   2.119   2.234
   32SOL    HW1  995   6.891   2.195   2.215
   32SOL    HW2  996   6.994   2.087   2.149
   33SOL     OW  997   1.486   1.495   5.487
   33SOL    HW1  998   1.515   1.400   5.484
   33SOL    HW2  999   1.449   1.516   5.577
   34SOL     OW 1000   0.362   1.125   5.109
   34SOL    HW1 1001   0.429   1.129   5.183
   34SOL    HW2 1002   0.402   1.164   5.026
   35SOL     OW 1003   4.386   2.006   6.602
   35SOL    HW1 1004   4.298   1.979   6.641
   35SOL    HW2 1005   4.458   1.991   6.670
   36SOL     OW 1006   1.334   1.807   5.793
   36SOL    HW1 1007   1.328   1.869   5.715
   36SOL    HW2 1008   1.243   1.792   5.830
   37SOL     OW 1009   2.752   6.615   1.407
   37SOL    HW1 1010   2.780   6.700   1.453
   37SOL    HW2 1011   2.819   6.593   1.336
   38SOL     OW 1012   0.167   6.185   2.059
   38SOL    HW1 1013   0.122   6.210   2.145
   38SOL    HW2 1014   0.222   6.103   2.073
   39SOL     OW 1015   6.791   2.712   6.380
   39SOL    HW1 1016   6.790   2.727   6.479
   39SOL    HW2 1017   6.698   2.712   6.344
   40SOL     OW 1018   6.969   1.522   1.351
   40SOL    HW1 1019   7.005   1.488   1.264
   40SOL    HW2 1020   6.870   1.510   1.353
   41SOL     OW 1021   1.303   0.914   6.149
   41SOL    HW1 1022   1.309   0.941   6.053
   41SOL    HW2 1023   1.239   0.974   6.197
   42SOL     OW 1024   3.646   0.244   0.575
   42SOL    HW1 1025   3.584   0.297   0.517
   42SOL    HW2 1026   3.732   0.229   0.526
   43SOL     OW 1027   4.450   5.594   5.546
   43SOL    HW1 1028   4.517   5.669   5.552
   43SOL    HW2 1029   4.495   5.508   5.569
   44SOL     OW 1030   0.881   4.174   6.797
   44SOL    HW1 1031   0.843   4.096   6.848
   44SOL    HW2 1032   0.861   4.259   6.847
   45SOL     OW 1033   2.388   0.363   1.399
   45SOL    HW1 1034   2.406   0.315   1.313
   45SOL    HW2 1035   2.454   0.438   1.410
   46SOL     OW 1036   1.113   5.660   3.986
   46SOL    HW1 1037   1.183   5.626   4.049
   46SOL    HW2 1038   1.157   5.705   3.909
   47SOL     OW 1039   5.617   4.523   3.148
   47SOL    HW1 1040   5.562   4.443   3.123
   47SOL    HW2 1041   5.707   4.493   3.180
   48SOL     OW 1042   0.514   1.033   5.572
   48SOL    HW1 1043   0.577   1.041   5.649
   48SOL    HW2 1044   0.435   0.977   5.600
   49SOL     OW 1045   5.819   3.458   0.367
   49SOL    HW1 1046   5.729   3.440   0.327
   49SOL    HW2 1047   5.890   3.433   0.302
   50SOL     OW 1048   0.374   3.775   4.879
   50SOL    HW1 1049   0.420   3.851   4.833
   50SOL    HW2 1050   0.346   3.707   4.811
   51SOL     OW 1051   3.703   5.390   1.909
   51SOL    HW1 1052   3.790   5.420   1.871
   51SOL    HW2 1053   3.679   5.300   1.872
   52SOL     OW 1054   0.821   2.410   2.196
   52SOL    HW1 1055   0.861   2.381   2.109
   52SOL    HW2 1056   0.830   2.509   2.206
   53SOL     OW 1057   5.107   6.123   4.243
   53SOL    HW1 1058   5.204   6.102   4.249
   53SOL    HW2 1059   5.080   6.129   4.146
   54SOL     OW 1060   5.194   4.657   5.413
   54SOL    HW1 1061   5.277   4.605   5.436
   54SOL    HW2 1062   5.185   4.733   5.477
   55SOL     OW 1063   3.758   1.774   0.967
   55SOL    HW1 1064   3.800   1.718   0.895
   55SOL    HW2 1065   3.659   1.776   0.954
   56SOL     OW 1066   0.634   0.287   1.884
   56SOL    HW1 1067   0.542   0.265   1.852
   56SOL    HW2 1068   0.681   0.203   1.910
   57SOL     OW 1069   5.672   0.928   1.249
   57SOL    HW1 1070   5.697   1.017   1.285
   57SOL    HW2 1071   5.591   0.894   1.297
   58SOL     OW 1072   6.803   0.077   7.006
   58SOL    HW1 1073   6.719   0.099   6.958
   58SOL    HW2 1074   6.874   0.053   6.940
   59SOL     OW 1075   0.815   0.322   5.113
   59SOL    HW1 1076   0.854   0.383   5.044
   59SOL    HW2 1077   0.856   0.231   5.103
   60SOL     OW 1078   4.964   6.775   4.911
   60SOL    HW1 1079   5.034   6.844   4.894
   60SOL    HW2 1080   4.973   6.701   4.845
   61SOL     OW 1081   4.085   0.129   5.443
   61SOL    HW1 1082   3.996   0.153   5.480
   61SOL    HW2 1083   4.104   0.185   5.362
   62SOL     OW 1084   2.985   0.690   5.144
   62SOL    HW1 1085   3.014   0.606   5.190
   62SOL    HW2 1086   3.061   0.727   5.091
   63SOL     OW 1087   6.865   3.313   3.690
   63SOL    HW1 1088   6.928   3.238   3.710
   63SOL    HW2 1089   6.835   3.306   3.594
   64SOL     OW 1090   6.963   2.421   5.315
   64SOL    HW1 1091   7.014   2.501   5.348
   64SOL    HW2 1092   7.020   2.370   5.251
   65SOL     OW 1093   0.915   3.939   5.968
   65SOL    HW1 1094   0.986   3.914   6.035
   65SOL    HW2 1095   0.872   3.856   5.933
   66SOL     OW 1096   2.411   1.006   0.984
   66SOL    HW1 1097   2.365   0.927   0.942
   66SOL    HW2 1098   2.453   0.978   1.071
   67SOL     OW 1099   4.802   5.134   4.073
   67SOL    HW1 1100   4.833   5.203   4.008
   67SOL    HW2 1101   4.866   5.129   4.150
   68SOL     OW 1102   5.606   2.765   6.987
   68SOL    HW1 1103   5.524   2.717   7.020
   68SOL    HW2 1104   5.619   2.745   6.890
   69SOL     OW 1105   2.569   2.625   5.905
   69SOL    HW1 1106   2.492   2.681   5.937
   69SOL    HW2 1107   2.534   2.544   5.858
   70SOL     OW 1108   6.186   6.694   2.648
   70SOL    HW1 1109   6.097   6.739   2.651
   70SOL    HW2 1110   6.230   6.713   2.560
   71SOL     OW 1111   1.911   4.279   2.465
   71SOL    HW1 1112   1.826   4.278   2.412
   71SOL    HW2 1113   1.966   4.199   2.440
   72SOL     OW 1114   3.437   5.183   3.440
   72SOL    HW1 1115   3.500   5.259   3.429
   72SOL    HW2 1116   3.421   5.167   3.537
   73SOL     OW 1117   3.825   2.741   6.563
   73SOL    HW1 1118   3.732   2.715   6.536
   73SOL    HW2 1119   3.830   2.840   6.576
   74SOL     OW 1120   4.950   6.964   6.350
   74SOL    HW1 1121   4.900   6.889   6.394
   74SOL    HW2 1122   5.048   6.949   6.363
   75SOL     OW 1123   3.323   4.967   5.373
   75SOL    HW1 1124   3.403   4.929   5.327
   75SOL    HW2 1125   3.290   5.047   5.322
   76SOL     OW 1126   2.639   3.019   0.941
   76SOL    HW1 1127   2.614   3.109   0.978
   76SOL    HW2 1128   2.565   2.954   0.959
   77SOL     OW 1129   5.493   4.327   6.444
   77SOL    HW1 1130   5.474   4.241   6.492
   77SOL    HW2 1131   5.407   4.364   6.408
   78SOL     OW 1132   6.005   6.613   6.113
   78SOL    HW1 1133   6.036   6.703   6.082
   78SOL    HW2 1134   5.905   6.613   6.119
   79SOL     OW 1135   3.170   6.822   0.564
   79SOL    HW1 1136   3.196   6.901   0.508
   79SOL    HW2 1137   3.143   6.747   0.504
   80SOL     OW 1138   0.304   0.929   4.553
   80SOL    HW1 1139   0.255   1.014   4.535
   80SOL    HW2 1140   0.396   0.951   4.587
   81SOL     OW 1141   1.992   0.471   3.411
   81SOL    HW1 1142   2.052   0.514   3.478
   81SOL    HW2 1143   1.899   0.504   3.423
   82SOL     OW 1144   6.562   4.472   5.918
   82SOL    HW1 1145   6.621   4.491   5.997
   82SOL    HW2 1146   6.481   4.530   5.923
   83SOL     OW 1147   6.354   6.609   5.891
   83SOL    HW1 1148   6.425   6.540   5.904
   83SOL    HW2 1149   6.265   6.571   5.914
   84SOL     OW 1150   6.319   3.817   1.713
   84SOL    HW1 1151   6.249   3.781   1.775
   84SOL    HW2 1152   6.343   3.748   1.645
   85SOL     OW 1153   0.502   0.708   5.097
   85SOL    HW1 1154   0.425   0.758   5.137
   85SOL    HW2 1155   0.543   0.762   5.024
   86SOL     OW 1156   2.133   0.995   4.729
   86SOL    HW1 1157   2.192   0.916   4.711
   86SOL    HW2 1158   2.188   1.071   4.761
   87SOL     OW 1159   4.524   0.009   1.921
   87SOL    HW1 1160   4.603   7.022   1.860
   87SOL    HW2 1161   4.458   6.959   1.901
   88SOL     OW 1162   6.226   1.070   1.628
   88SOL    HW1 1163   6.201   1.059   1.532
   88SOL    HW2 1164   6.143   1.070   1.684
   89SOL     OW 1165   2.032   1.668   5.443
   89SOL    HW1 1166   2.049   1.732   5.518
   89SOL    HW2 1167   1.999   1.719   5.363
   90SOL     OW 1168   6.638   5.677   3.764
   90SOL    HW1 1169   6.663   5.680   3.667
   90SOL    HW2 1170   6.591   5.761   3.789
   91SOL     OW 1171   4.427   4.920   4.778
   91SOL    HW1 1172   4.425   4.928   4.678
   91SOL    HW2 1173   4.513   4.959   4.812
   92SOL     OW 1174   3.121   5.870   1.334
   92SOL    HW1 1175   3.043   5.823   1.293
   92SOL    HW2 1176   3.090   5.931   1.406
   93SOL     OW 1177   3.100   4.693   5.917
   93SOL    HW1 1178   3.014   4.744   5.915
   93SOL    HW2 1179   3.175   4.754   5.890
   94SOL     OW 1180   1.975   6.724   1.863
   94SOL    HW1 1181   1.994   6.686   1.954
   94SOL    HW2 1182   1.946   6.820   1.873
   95SOL     OW 1183   6.655   0.139   5.226
   95SOL    HW1 1184   6.597   0.092   5.293
   95SOL    HW2 1185   6.658   0.085   5.142
   96SOL     OW 1186   1.895   6.958   4.950
   96SOL    HW1 1187   1.918   6.973   4.854
   96SOL    HW2 1188   1.802   6.922   4.957
   97SOL     OW 1189   6.139   2.839   4.521
   97SOL    HW1 1190   6.199   2.832   4.600
   97SOL    HW2 1191   6.060   2.896   4.544
   98SOL     OW 1192   5.301   1.399   6.010
   98SOL    HW1 1193   5.280   1.494   5.986
   98SOL    HW2 1194   5.274   1.339   5.934
   99SOL     OW 1195   5.035   1.739   0.878
   99SOL    HW1 1196   5.048   1.687   0.963
   99SOL    HW2 1197   5.046   1.837   0.897
  100SOL     OW 1198   6.061   5.345   6.772
  100SOL    HW1 1199   6.012   5.423   6.732
  100SOL    HW2 1200   6.145   5.377   6.815
  101SOL     OW 1201   0.963   6.690   4.522
  101SOL    HW1 1202   1.049   6.638   4.512
  101SOL    HW2 1203   0.887   6.634   4.490
  102SOL     OW 1204   4.329   0.209   3.306
  102SOL    HW1 1205   4.246   0.243   3.262
  102SOL    HW2 1206   4.364   0.279   3.368
  103SOL     OW 1207   3.369   1.881   1.669
  103SOL    HW1 1208   3.448   1.853   1.614
  103SOL    HW2 1209   3.401   1.922   1.755
  104SOL     OW 1210   0.260   6.464   2.031
  104SOL    HW1 1211   0.229   6.559   2.042
  104SOL    HW2 1212   0.270   6.444   1.934
  105SOL     OW 1213   5.356   0.821   6.163
  105SOL    HW1 1214   5.392   0.857   6.076
  105SOL    HW2 1215   5.264   0.857   6.178
  106SOL     OW 1216   3.352   6.680   1.176
  106SOL    HW1 1217   3.435   6.727   1.205
  106SOL    HW2 1218   3.373   6.584   1.157
  107SOL     OW 1219   2.664   3.257   0.668
  107SOL    HW1 1220   2.700   3.281   0.578
  107SOL    HW2 1221   2.715   3.179   0.705
  108SOL     OW 1222   4.794   4.065   4.963
  108SOL    HW1 1223   4.854   4.003   5.014
  108SOL    HW2 1224   4.734   4.114   5.026
  109SOL     OW 1225   5.939   1.014   1.526
  109SOL    HW1 1226   5.855   1.067   1.541
  109SOL    HW2 1227   6.002   1.066   1.469
  110SOL     OW 1228   3.421   6.219   4.609
  110SOL    HW1 1229   3.467   6.133   4.629
  110SOL    HW2 1230   3.329   6.218   4.648
  111SOL     OW 1231   3.323   1.327   3.474
  111SOL    HW1 1232   3.361   1.245   3.516
  111SOL    HW2 1233   3.229   1.309   3.443
  112SOL     OW 1234   6.724   1.358   6.685
  112SOL    HW1 1235   6.626   1.352   6.702
  112SOL    HW2 1236   6.741   1.353   6.587
  113SOL     OW 1237   6.753   6.329   3.525
  113SOL    HW1 1238   6.673   6.351   3.468
  113SOL    HW2 1239   6.757   6.393   3.602
  114SOL     OW 1240   1.251   6.479   0.409
  114SOL    HW1 1241   1.310   6.483   0.490
  114SOL    HW2 1242   1.265   6.393   0.361
  115SOL     OW 1243   5.220   0.496   5.240
  115SOL    HW1 1244   5.314   0.470   5.262
  115SOL    HW2 1245   5.218   0.540   5.150
  116SOL     OW 1246   6.190   4.049   2.937
  116SOL    HW1 1247   6.186   3.984   2.862
  116SOL    HW2 1248   6.279   4.042   2.983
  117SOL     OW 1249   1.223   6.800   6.720
  117SOL    HW1 1250   1.301   6.740   6.704
  117SOL    HW2 1251   1.193   6.790   6.815
  118SOL     OW 1252   2.436   1.280   2.998
  118SOL    HW1 1253   2.363   1.221   2.964
  118SOL    HW2 1254   2.420   1.300   3.095
  119SOL     OW 1255   6.578   2.441   6.176
  119SOL    HW1 1256   6.541   2.517   6.229
  119SOL    HW2 1257   6.672   2.423   6.203
  120SOL     OW 1258   5.125   6.425   1.667
  120SOL    HW1 1259   5.058   6.498   1.663
  120SOL    HW2 1260   5.201   6.452   1.726
  121SOL     OW 1261   2.780   3.035   5.705
  121SOL    HW1 1262   2.790   2.935   5.696
  121SOL    HW2 1263   2.871   3.076   5.713
  122SOL     OW 1264   0.952   3.694   4.632
  122SOL    HW1 1265   0.904   3.705   4.545
  122SOL    HW2 1266   0.931   3.771   4.692
  123SOL     OW 1267   0.061   2.167   1.943
  123SOL    HW1 1268   0.011   2.253   1.938
  123SOL    HW2 1269   0.159   2.184   1.941
  124SOL     OW 1270   4.834   3.722   1.327
  124SOL    HW1 1271   4.928   3.739   1.354
  124SOL    HW2 1272   4.809   3.783   1.251
  125SOL     OW 1273   2.192   3.518   1.647
  125SOL    HW1 1274   2.124   3.589   1.665
  125SOL    HW2 1275   2.234   3.489   1.733
  126SOL     OW 1276   4.147   4.168   0.775
  126SOL    HW1 1277   4.204   4.145   0.696
  126SOL    HW2 1278   4.065   4.216   0.744
  127SOL     OW 1279   0.727   5.438   5.620
  127SOL    HW1 1280   0.685   5.359   5.576
  127SOL    HW2 1281   0.824   5.419   5.639
  128SOL     OW 1282   4.512   2.409   0.551
  128SOL    HW1 1283   4.423   2.373   0.523
  128SOL    HW2 1284   4.573   2.411   0.471
  129SOL     OW 1285   2.661   3.803   0.188
  129SOL    HW1 1286   2.761   3.805   0.191
  129SOL    HW2 1287   2.630   3.841   0.101
  130SOL     OW 1288   1.856   2.374   4.781
  130SOL    HW1 1289   1.935   2.340   4.730
  130SOL    HW2 1290   1.877   2.465   4.817
  131SOL     OW 1291   5.720   1.686   1.923
  131SOL    HW1 1292   5.775   1.709   1.842
  131SOL    HW2 1293   5.631   1.651   1.894
  132SOL     OW 1294   0.641   2.205   2.164
  132SOL    HW1 1295   0.714   2.270   2.181
  132SOL    HW2 1296   0.648   2.170   2.071
  133SOL     OW 1297   6.593   5.665   2.840
  133SOL    HW1 1298   6.521   5.642   2.775
  133SOL    HW2 1299   6.558   5.732   2.905
  134SOL     OW 1300   1.420   3.167   2.577
  134SOL    HW1 1301   1.351   3.105   2.615
  134SOL    HW2 1302   1.491   3.183   2.645
  135SOL     OW 1303   4.389   1.223   4.314
  135SOL    HW1 1304   4.400   1.322   4.315
  135SOL    HW2 1305   4.295   1.199   4.337
  136SOL     OW 1306   4.872   4.757   5.612
  136SOL    HW1 1307   4.926   4.716   5.685
  136SOL    HW2 1308   4.775   4.754   5.637
  137SOL     OW 1309   3.703   0.539   5.670
  137SOL    HW1 1310   3.721   0.460   5.729
  137SOL    HW2 1311   3.754   0.528   5.585
  138SOL     OW 1312   5.982   4.385   5.758
  138SOL    HW1 1313   5.894   4.337   5.753
  138SOL    HW2 1314   6.045   4.346   5.691
  139SOL     OW 1315   3.308   5.711   5.650
  139SOL    HW1 1316   3.348   5.747   5.566
  139SOL    HW2 1317   3.331   5.614   5.659
  140SOL     OW 1318   6.814   4.250   4.672
  140SOL    HW1 1319   6.741   4.290   4.728
  140SOL    HW2 1320   6.901   4.292   4.696
  141SOL     OW 1321   1.210   1.802   2.149
  141SOL    HW1 1322   1.111   1.793   2.157
  141SOL    HW2 1323   1.235   1.807   2.052
  142SOL     OW 1324   1.677   4.850   1.224
  142SOL    HW1 1325   1.731   4.931   1.250
  142SOL    HW2 1326   1.738   4.782   1.182
  143SOL     OW 1327   5.221   4.248   2.305
  143SOL    HW1 1328   5.222   4.161   2.354
  143SOL    HW2 1329   5.130   4.289   2.310
  144SOL     OW 1330   2.732   6.416   0.990
  144SOL    HW1 1331   2.632   6.423   0.989
  144SOL    HW2 1332   2.770   6.494   1.038
  145SOL     OW 1333   6.532   5.450   0.563
  145SOL    HW1 1334   6.460   5.421   0.626
  145SOL    HW2 1335   6.581   5.528   0.601
  146SOL     OW 1336   6.667   4.636   0.670
  146SOL    HW1 1337   6.577   4.671   0.642
  146SOL    HW2 1338   6.726   4.628   0.590
  147SOL     OW 1339   6.092   2.532   0.840
  147SOL    HW1 1340   6.114   2.616   0.890
  147SOL    HW2 1341   6.069   2.554   0.746
  148SOL     OW 1342   0.866   5.436   5.119
  148SOL    HW1 1343   0.903   5.465   5.032
  148SOL    HW2 1344   0.768   5.418   5.109
  149SOL     OW 1345   3.091   1.250   6.228
  149SOL    HW1 1346   3.009   1.249   6.171
  149SOL    HW2 1347   3.166   1.206   6.178
  150SOL     OW 1348   6.996   5.779   4.980
  150SOL    HW1 1349   6.915   5.792   5.037
  150SOL    HW2 1350   0.026   5.864   4.976
  151SOL     OW 1351   4.435   0.832   1.830
  151SOL    HW1 1352   4.524   0.791   1.852
  151SOL    HW2 1353   4.367   0.803   1.897
  152SOL     OW 1354   2.748   1.108   4.839
  152SOL    HW1 1355   2.803   1.099   4.757
  152SOL    HW2 1356   2.765   1.029   4.899
  153SOL     OW 1357   1.132   0.579   2.780
  153SOL    HW1 1358   1.060   0.525   2.737
  153SOL    HW2 1359   1.091   0.647   2.841
  154SOL     OW 1360   6.892   1.681   2.875
  154SOL    HW1 1361   6.934   1.772   2.883
  154SOL    HW2 1362   6.802   1.691   2.831
  155SOL     OW 1363   0.509   0.977   3.037
  155SOL    HW1 1364   0.463   0.978   3.126
  155SOL    HW2 1365   0.572   1.055   3.031
  156SOL     OW 1366   0.299   2.426   1.423
  156SOL    HW1 1367   0.368   2.450   1.356
  156SOL    HW2 1368   0.260   2.509   1.462
  157SOL     OW 1369   6.467   2.920   2.718
  157SOL    HW1 1370   6.443   2.995   2.657
  157SOL    HW2 1371   6.386   2.893   2.772
  158SOL     OW 1372   1.969   2.140   4.099
  158SOL    HW1 1373   1.946   2.229   4.059
  158SOL    HW2 1374   1.885   2.089   4.116
  159SOL     OW 1375   4.980   3.089   1.947
  159SOL    HW1 1376   4.885   3.069   1.967
  159SOL    HW2 1377   5.001   3.063   1.853
  160SOL     OW 1378   6.295   4.187   6.161
  160SOL    HW1 1379   6.367   4.123   6.186
  160SOL    HW2 1380   6.322   4.280   6.187
  161SOL     OW 1381   3.150   4.662   5.289
  161SOL    HW1 1382   3.071   4.606   5.264
  161SOL    HW2 1383   3.155   4.742   5.229
  162SOL     OW 1384   4.677   6.125   2.380
  162SOL    HW1 1385   4.764   6.103   2.337
  162SOL    HW2 1386   4.627   6.040   2.399
  163SOL     OW 1387   6.012   0.690   1.841
  163SOL    HW1 1388   5.918   0.657   1.842
  163SOL    HW2 1389   6.038   0.716   1.748
  164SOL     OW 1390   6.514   3.074   1.104
  164SOL    HW1 1391   6.600   3.085   1.153
  164SOL    HW2 1392   6.447   3.029   1.163
  165SOL     OW 1393   6.205   3.658   7.005
  165SOL    HW1 1394   6.232   3.708   6.922
  165SOL    HW2 1395   6.172   3.567   6.980
  166SOL     OW 1396   1.502   0.595   0.943
  166SOL    HW1 1397   1.473   0.574   1.037
  166SOL    HW2 1398   1.491   0.693   0.926
  167SOL     OW 1399   6.456   2.370   1.210
  167SOL    HW1 1400   6.435   2.468   1.209
  167SOL    HW2 1401   6.479   2.341   1.303
  168SOL     OW 1402   2.643   5.412   1.543
  168SOL    HW1 1403   2.555   5.458   1.530
  168SOL    HW2 1404   2.632   5.335   1.606
  169SOL     OW 1405   1.051   6.968   1.262
  169SOL    HW1 1406   0.970   7.011   1.304
  169SOL    HW2 1407   1.100   6.916   1.332
  170SOL     OW 1408   0.420   1.259   3.181
  170SOL    HW1 1409   0.463   1.347   3.200
  170SOL    HW2 1410   0.461   1.188   3.240
  171SOL     OW 1411   3.645   3.849   0.339
  171SOL    HW1 1412   3.688   3.759   0.348
  171SOL    HW2 1413   3.618   3.864   0.244
  172SOL     OW 1414   0.148   2.963   1.764
  172SOL    HW1 1415   0.178   2.951   1.670
  172SOL    HW2 1416   0.195   3.042   1.804
  173SOL     OW 1417   0.288   6.599   5.841
  173SOL    HW1 1418   0.220   6.555   5.783
  173SOL    HW2 1419   0.306   6.542   5.921
  174SOL     OW 1420   2.621   5.874   3.892
  174SOL    HW1 1421   2.607   5.796   3.830
  174SOL    HW2 1422   2.686   5.849   3.963
  175SOL     OW 1423   0.767   4.922   3.266
  175SOL    HW1 1424   0.808   4.940   3.356
  175SOL    HW2 1425   0.696   4.990   3.247
  176SOL     OW 1426   2.676   4.946   6.978
  176SOL    HW1 1427   2.731   4.931   0.038
  176SOL    HW2 1428   2.728   4.917   6.898
  177SOL     OW 1429   4.464   2.028   2.892
  177SOL    HW1 1430   4.530   2.038   2.818
  177SOL    HW2 1431   4.372   2.039   2.857
  178SOL     OW 1432   5.365   3.970   5.842
  178SOL    HW1 1433   5.428   3.893   5.845
  178SOL    HW2 1434   5.358   4.004   5.748
  179SOL     OW 1435   3.041   6.803   0.786
  179SOL    HW1 1436   3.112   6.769   0.849
  179SOL    HW2 1437   3.084   6.849   0.709
  180SOL     OW 1438   1.006   1.960   0.084
  180SOL    HW1 1439   1.005   2.060   0.080
  180SOL    HW2 1440   0.966   1.923   0.000
  181SOL     OW 1441   2.989   3.478   4.486
  181SOL    HW1 1442   2.943   3.549   4.540
  181SOL    HW2 1443   3.062   3.436   4.540
  182SOL     OW 1444   5.063   2.806   4.731
  182SOL    HW1 1445   5.154   2.765   4.722
  182SOL    HW2 1446   5.019   2.771   4.814
  183SOL     OW 1447   5.964   1.780   2.509
  183SOL    HW1 1448   5.982   1.699   2.564
  183SOL    HW2 1449   5.989   1.762   2.414
  184SOL     OW 1450   0.344   4.432   2.757
  184SOL    HW1 1451   0.411   4.382   2.702
  184SOL    HW2 1452   0.262   4.449   2.704
  185SOL     OW 1453   2.594   3.306   6.292
  185SOL    HW1 1454   2.562   3.211   6.296
  185SOL    HW2 1455   2.651   3.319   6.211
  186SOL     OW 1456   5.837   6.075   3.530
  186SOL    HW1 1457   5.808   6.171   3.530
  186SOL    HW2 1458   5.781   6.023   3.466
  187SOL     OW 1459   5.194   6.909   4.058
  187SOL    HW1 1460   5.245   6.913   4.144
  187SOL    HW2 1461   5.232   6.975   3.993
  188SOL     OW 1462   5.928   2.039   4.664
  188SOL    HW1 1463   5.926   2.027   4.565
  188SOL    HW2 1464   5.863   2.109   4.690
  189SOL     OW 1465   1.419   4.485   3.239
  189SOL    HW1 1466   1.419   4.585   3.240
  189SOL    HW2 1467   1.458   4.453   3.152
  190SOL     OW 1468   3.395   1.026   6.454
  190SOL    HW1 1469   3.343   1.109   6.473
  190SOL    HW2 1470   3.477   1.048   6.402
  191SOL     OW 1471   5.397   6.047   6.299
  191SOL    HW1 1472   5.433   5.954   6.289
  191SOL    HW2 1473   5.380   6.086   6.209
  192SOL     OW 1474   6.158   0.803   0.348
  192SOL    HW1 1475   6.118   0.717   0.315
  192SOL    HW2 1476   6.225   0.782   0.419
  193SOL     OW 1477   5.907   4.463   0.064
  193SOL    HW1 1478   5.867   4.509   7.007
  193SOL    HW2 1479   5.971   4.392   0.033
  194SOL     OW 1480   4.183   0.267   4.775
  194SOL    HW1 1481   4.265   0.324   4.770
  194SOL    HW2 1482   4.194   0.188   4.715
  195SOL     OW 1483   6.827   5.025   3.010
  195SOL    HW1 1484   6.791   4.932   3.000
  195SOL    HW2 1485   6.791   5.083   2.937
  196SOL     OW 1486   0.647   1.142   0.645
  196SOL    HW1 1487   0.632   1.128   0.743
  196SOL    HW2 1488   0.588   1.216   0.613
  197SOL     OW 1489   1.690   0.884   0.541
  197SOL    HW1 1490   1.677   0.785   0.528
  197SOL    HW2 1491   1.634   0.934   0.475
  198SOL     OW 1492   2.864   1.167   4.188
  198SOL    HW1 1493   2.781   1.184   4.240
  198SOL    HW2 1494   2.944   1.180   4.247
  199SOL     OW 1495   1.065   1.819   4.862
  199SOL    HW1 1496   1.099   1.847   4.772
  199SOL    HW2 1497   1.127   1.751   4.901
  200SOL     OW 1498   6.103   2.361   6.879
  200SOL    HW1 1499   6.094   2.445   6.933
  200SOL    HW2 1500   6.125   2.385   6.785
  201SOL     OW 1501   6.726   1.421   5.844
  201SOL    HW1 1502   6.688   1.470   5.922
  201SOL    HW2 1503   6.740   1.325   5.867
  202SOL     OW 1504   5.204   0.325   0.208
  202SOL    HW1 1505   5.125   0.272   0.239
  202SOL    HW2 1506   5.193   0.350   0.112
  203SOL     OW 1507   6.355   3.353   6.674
  203SOL    HW1 1508   6.426   3.360   6.743
  203SOL    HW2 1509   6.396   3.350   6.583
  204SOL     OW 1510   6.438   0.622   5.398
  204SOL    HW1 1511   6.515   0.617   5.462
  204SOL    HW2 1512   6.408   0.529   5.375
  205SOL     OW 1513   1.835   4.288   3.073
  205SOL    HW1 1514   1.832   4.341   3.157
  205SOL    HW2 1515   1.806   4.194   3.091
  206SOL     OW 1516   0.691   3.945   0.746
  206SOL    HW1 1517   0.614   3.974   0.802
  206SOL    HW2 1518   0.659   3.879   0.677
  207SOL     OW 1519   6.248   3.034   4.872
  207SOL    HW1 1520   6.227   3.127   4.843
  207SOL    HW2 1521   6.312   3.036   4.949
  208SOL     OW 1522   1.093   2.972   5.064
  208SOL    HW1 1523   1.104   3.038   5.138
  208SOL    HW2 1524   1.054   3.017   4.984
  209SOL     OW 1525   6.717   4.537   2.709
  209SOL    HW1 1526   6.788   4.591   2.664
  209SOL    HW2 1527   6.736   4.533   2.808
  210SOL     OW 1528   4.764   3.555   0.870
  210SOL    HW1 1529   4.686   3.514   0.823
  210SOL    HW2 1530   4.795   3.635   0.819
  211SOL     OW 1531   1.521   1.424   1.671
  211SOL    HW1 1532   1.544   1.440   1.768
  211SOL    HW2 1533   1.523   1.512   1.622
  212SOL     OW 1534   2.323   4.003   1.542
  212SOL    HW1 1535   2.311   3.978   1.638
  212SOL    HW2 1536   2.360   4.096   1.536
  213SOL     OW 1537   0.988   5.347   1.194
  213SOL    HW1 1538   0.942   5.395   1.120
  213SOL    HW2 1539   0.932   5.352   1.277
  214SOL     OW 1540   5.573   6.690   2.234
  214SOL    HW1 1541   5.580   6.591   2.221
  214SOL    HW2 1542   5.479   6.719   2.216
  215SOL     OW 1543   1.858   5.162   2.612
  215SOL    HW1 1544   1.792   5.167   2.538
  215SOL    HW2 1545   1.882   5.066   2.629
  216SOL     OW 1546   1.724   6.078   3.233
  216SOL    HW1 1547   1.719   6.167   3.278
  216SOL    HW2 1548   1.649   6.020   3.266
  217SOL     OW 1549   0.428   5.332   5.475
  217SOL    HW1 1550   0.423   5.260   5.406
  217SOL    HW2 1551   0.475   5.296   5.556
  218SOL     OW 1552   2.806   2.103   5.625
  218SOL    HW1 1553   2.724   2.103   5.569
  218SOL    HW2 1554   2.881   2.061   5.574
  219SOL     OW 1555   4.560   2.282   1.191
  219SOL    HW1 1556   4.615   2.264   1.110
  219SOL    HW2 1557   4.464   2.263   1.171
  220SOL     OW 1558   2.863   6.587   0.646
  220SOL    HW1 1559   2.874   6.547   0.736
  220SOL    HW2 1560   2.899   6.681   0.646
  221SOL     OW 1561   4.832   4.591   2.080
  221SOL    HW1 1562   4.863   4.527   2.009
  221SOL    HW2 1563   4.787   4.669   2.036
  222SOL     OW 1564   1.803   4.532   6.653
  222SOL    HW1 1565   1.838   4.623   6.634
  222SOL    HW2 1566   1.760   4.531   6.744
  223SOL     OW 1567   6.444   2.200   5.264
  223SOL    HW1 1568   6.527   2.169   5.311
  223SOL    HW2 1569   6.453   2.298   5.243
  224SOL     OW 1570   3.503   2.306   5.821
  224SOL    HW1 1571   3.557   2.266   5.747
  224SOL    HW2 1572   3.517   2.254   5.905
  225SOL     OW 1573   4.207   5.861   6.679
  225SOL    HW1 1574   4.280   5.833   6.742
  225SOL    HW2 1575   4.204   5.798   6.602
  226SOL     OW 1576   1.853   2.494   0.244
  226SOL    HW1 1577   1.761   2.534   0.250
  226SOL    HW2 1578   1.916   2.548   0.300
  227SOL     OW 1579   1.379   3.958   0.745
  227SOL    HW1 1580   1.305   3.921   0.802
  227SOL    HW2 1581   1.395   4.054   0.769
  228SOL     OW 1582   1.026   0.687   2.502
  228SOL    HW1 1583   0.984   0.602   2.470
  228SOL    HW2 1584   1.079   0.728   2.428
  229SOL     OW 1585   4.033   0.293   5.910
  229SOL    HW1 1586   4.100   0.367   5.916
  229SOL    HW2 1587   4.065   0.226   5.843
  230SOL     OW 1588   5.719   4.417   6.043
  230SOL    HW1 1589   5.798   4.434   5.984
  230SOL    HW2 1590   5.664   4.343   6.004
  231SOL     OW 1591   5.097   1.399   6.898
  231SOL    HW1 1592   5.189   1.380   6.864
  231SOL    HW2 1593   5.103   1.450   6.984
  232SOL     OW 1594   1.268   1.915   5.538
  232SOL    HW1 1595   1.241   1.943   5.446
  232SOL    HW2 1596   1.351   1.860   5.533
  233SOL     OW 1597   3.495   1.490   2.995
  233SOL    HW1 1598   3.593   1.492   2.973
  233SOL    HW2 1599   3.462   1.583   3.009
  234SOL     OW 1600   5.117   0.339   0.760
  234SOL    HW1 1601   5.206   0.297   0.744
  234SOL    HW2 1602   5.071   0.291   0.835
  235SOL     OW 1603   5.224   3.150   2.688
  235SOL    HW1 1604   5.169   3.176   2.609
  235SOL    HW2 1605   5.227   3.051   2.695
  236SOL     OW 1606   3.868   3.275   6.040
  236SOL    HW1 1607   3.850   3.367   6.075
  236SOL    HW2 1608   3.802   3.211   6.079
  237SOL     OW 1609   5.641   3.603   2.733
  237SOL    HW1 1610   5.713   3.668   2.757
  237SOL    HW2 1611   5.645   3.524   2.795
  238SOL     OW 1612   6.098   1.697   0.529
  238SOL    HW1 1613   6.067   1.694   0.433
  238SOL    HW2 1614   6.123   1.605   0.558
  239SOL     OW 1615   1.126   3.573   0.257
  239SOL    HW1 1616   1.157   3.493   0.206
  239SOL    HW2 1617   1.204   3.635   0.273
  240SOL     OW 1618   4.951   3.367   4.305
  240SOL    HW1 1619   4.934   3.331   4.214
  240SOL    HW2 1620   4.954   3.292   4.371
  241SOL     OW 1621   2.465   2.037   3.907
  241SOL    HW1 1622   2.425   2.077   3.825
  241SOL    HW2 1623   2.557   2.003   3.887
  242SOL     OW 1624   3.774   3.488   2.477
  242SOL    HW1 1625   3.786   3.402   2.426
  242SOL    HW2 1626   3.798   3.474   2.573
  243SOL     OW 1627   3.867   2.758   6.205
  243SOL    HW1 1628   3.866   2.674   6.259
  243SOL    HW2 1629   3.867   2.837   6.266
  244SOL     OW 1630   5.086   3.549   4.986
  244SOL    HW1 1631   5.135   3.543   4.899
  244SOL    HW2 1632   4.989   3.565   4.968
  245SOL     OW 1633   3.732   1.289   3.285
  245SOL    HW1 1634   3.717   1.381   3.248
  245SOL    HW2 1635   3.821   1.255   3.255
  246SOL     OW 1636   6.797   1.155   2.353
  246SOL    HW1 1637   6.722   1.116   2.407
  246SOL    HW2 1638   6.822   1.092   2.280
  247SOL     OW 1639   1.609   1.724   1.462
  247SOL    HW1 1640   1.612   1.641   1.406
  247SOL    HW2 1641   1.697   1.735   1.510
  248SOL     OW 1642   3.151   3.549   1.584
  248SOL    HW1 1643   3.113   3.475   1.639
  248SOL    HW2 1644   3.078   3.609   1.553
  249SOL     OW 1645   5.167   6.678   5.140
  249SOL    HW1 1646   5.111   6.720   5.068
  249SOL    HW2 1647   5.141   6.582   5.150
  250SOL     OW 1648   4.258   2.179   6.983
  250SOL    HW1 1649   4.236   2.082   6.971
  250SOL    HW2 1650   4.203   2.218   0.034
  251SOL     OW 1651   4.450   5.096   5.055
  251SOL    HW1 1652   4.400   5.011   5.038
  251SOL    HW2 1653   4.526   5.079   5.118
  252SOL     OW 1654   6.627   6.346   5.030
  252SOL    HW1 1655   6.567   6.324   5.107
  252SOL    HW2 1656   6.627   6.270   4.965
  253SOL     OW 1657   4.189   6.115   6.593
  253SOL    HW1 1658   4.148   6.143   6.507
  253SOL    HW2 1659   4.185   6.015   6.601
  254SOL     OW 1660   6.388   1.793   5.380
  254SOL    HW1 1661   6.305   1.821   5.428
  254SOL    HW2 1662   6.388   1.694   5.368
  255SOL     OW 1663   0.925   4.398   6.957
  255SOL    HW1 1664   0.907   4.375   0.030
  255SOL    HW2 1665   1.023   4.415   6.944
  256SOL     OW 1666   5.286   2.299   5.069
  256SOL    HW1 1667   5.275   2.261   5.161
  256SOL    HW2 1668   5.331   2.388   5.075
  257SOL     OW 1669   4.657   6.437   2.266
  257SOL    HW1 1670   4.579   6.489   2.232
  257SOL    HW2 1671   4.641   6.409   2.360
  258SOL     OW 1672   2.081   3.342   5.848
  258SOL    HW1 1673   2.037   3.257   5.820
  258SOL    HW2 1674   2.119   3.388   5.767
  259SOL     OW 1675   3.301   6.785   3.968
  259SOL    HW1 1676   3.285   6.813   4.063
  259SOL    HW2 1677   3.369   6.712   3.966
  260SOL     OW 1678   3.943   5.497   3.108
  260SOL    HW1 1679   3.916   5.401   3.115
  260SOL    HW2 1680   4.035   5.503   3.069
  261SOL     OW 1681   4.069   5.000   0.072
  261SOL    HW1 1682   3.974   5.031   0.061
  261SOL    HW2 1683   4.108   5.042   0.154
  262SOL     OW 1684   0.968   3.819   6.692
  262SOL    HW1 1685   0.869   3.829   6.695
  262SOL    HW2 1686   1.010   3.908   6.671
  263SOL     OW 1687   1.245   0.183   4.009
  263SOL    HW1 1688   1.184   0.238   4.067
  263SOL    HW2 1689   1.330   0.234   3.994
  264SOL     OW 1690   6.513   2.949   6.684
  264SOL    HW1 1691   6.590   2.888   6.665
  264SOL    HW2 1692   6.544   3.028   6.736
  265SOL     OW 1693   0.218   0.324   3.250
  265SOL    HW1 1694   0.134   0.354   3.204
  265SOL    HW2 1695   0.196   0.250   3.313
  266SOL     OW 1696   3.778   0.379   5.871
  266SOL    HW1 1697   3.869   0.363   5.908
  266SOL    HW2 1698   3.716   0.409   5.944
  267SOL     OW 1699   2.131   0.188   3.158
  267SOL    HW1 1700   2.057   0.143   3.108
  267SOL    HW2 1701   2.168   0.262   3.101
  268SOL     OW 1702   3.358   2.392   0.869
  268SOL    HW1 1703   3.420   2.463   0.834
  268SOL    HW2 1704   3.275   2.391   0.813
  269SOL     OW 1705   5.097   1.924   0.333
  269SOL    HW1 1706   5.066   1.829   0.338
  269SOL    HW2 1707   5.112   1.958   0.426
  270SOL     OW 1708   5.689   0.883   0.625
  270SOL    HW1 1709   5.781   0.868   0.589
  270SOL    HW2 1710   5.671   0.981   0.633
  271SOL     OW 1711   0.493   4.211   6.423
  271SOL    HW1 1712   0.539   4.286   6.375
  271SOL    HW2 1713   0.511   4.125   6.375
  272SOL     OW 1714   2.832   5.936   3.132
  272SOL    HW1 1715   2.905   5.989   3.088
  272SOL    HW2 1716   2.773   5.998   3.184
  273SOL     OW 1717   1.590   5.310   6.067
  273SOL    HW1 1718   1.541   5.369   6.002
  273SOL    HW2 1719   1.541   5.308   6.154
  274SOL     OW 1720   4.686   2.233   4.059
  274SOL    HW1 1721   4.714   2.147   4.017
  274SOL    HW2 1722   4.621   2.279   4.000
  275SOL     OW 1723   6.151   6.519   1.586
  275SOL    HW1 1724   6.202   6.582   1.645
  275SOL    HW2 1725   6.205   6.501   1.503
  276SOL     OW 1726   0.969   0.102   4.805
  276SOL    HW1 1727   0.939   0.104   4.900
  276SOL    HW2 1728   0.891   0.116   4.745
  277SOL     OW 1729   1.936   4.412   1.032
  277SOL    HW1 1730   1.919   4.364   1.118
  277SOL    HW2 1731   1.951   4.510   1.051
  278SOL     OW 1732   0.474   2.860   2.968
  278SOL    HW1 1733   0.572   2.878   2.966
  278SOL    HW2 1734   0.456   2.776   3.018
  279SOL     OW 1735   6.464   1.133   3.172
  279SOL    HW1 1736   6.516   1.055   3.206
  279SOL    HW2 1737   6.427   1.113   3.082
  280SOL     OW 1738   1.678   4.542   2.852
  280SOL    HW1 1739   1.698   4.606   2.778
  280SOL    HW2 1740   1.763   4.518   2.898
  281SOL     OW 1741   2.448   4.824   1.134
  281SOL    HW1 1742   2.390   4.826   1.215
  281SOL    HW2 1743   2.542   4.805   1.160
  282SOL     OW 1744   2.167   1.252   5.834
  282SOL    HW1 1745   2.222   1.287   5.909
  282SOL    HW2 1746   2.093   1.316   5.814
  283SOL     OW 1747   3.513   3.092   5.965
  283SOL    HW1 1748   3.569   3.012   5.983
  283SOL    HW2 1749   3.417   3.070   5.981
  284SOL     OW 1750   0.521   3.372   4.021
  284SOL    HW1 1751   0.474   3.417   3.945
  284SOL    HW2 1752   0.502   3.421   4.106
  285SOL     OW 1753   4.989   4.513   4.025
  285SOL    HW1 1754   4.894   4.483   4.039
  285SOL    HW2 1755   5.039   4.443   3.973
  286SOL     OW 1756   3.140   4.325   0.325
  286SOL    HW1 1757   3.045   4.321   0.355
  286SOL    HW2 1758   3.196   4.370   0.394
  287SOL     OW 1759   1.386   2.764   0.343
  287SOL    HW1 1760   1.343   2.821   0.413
  287SOL    HW2 1761   1.449   2.820   0.289
  288SOL     OW 1762   4.916   3.245   1.224
  288SOL    HW1 1763   4.880   3.310   1.157
  288SOL    HW2 1764   4.841   3.211   1.281
  289SOL     OW 1765   4.110   5.417   6.801
  289SOL    HW1 1766   4.160   5.469   6.870
  289SOL    HW2 1767   4.114   5.320   6.823
  290SOL     OW 1768   1.572   1.025   4.664
  290SOL    HW1 1769   1.628   1.103   4.638
  290SOL    HW2 1770   1.592   1.001   4.759
  291SOL     OW 1771   6.301   2.366   3.060
  291SOL    HW1 1772   6.377   2.301   3.064
  291SOL    HW2 1773   6.246   2.358   3.143
  292SOL     OW 1774   3.521   0.410   3.538
  292SOL    HW1 1775   3.493   0.455   3.622
  292SOL    HW2 1776   3.512   0.311   3.548
  293SOL     OW 1777   3.733   5.173   3.696
  293SOL    HW1 1778   3.702   5.078   3.710
  293SOL    HW2 1779   3.805   5.194   3.762
  294SOL     OW 1780   5.077   0.632   0.773
  294SOL    HW1 1781   5.149   0.698   0.792
  294SOL    HW2 1782   5.115   0.539   0.771
  295SOL     OW 1783   5.733   6.960   3.598
  295SOL    HW1 1784   5.715   0.035   3.610
  295SOL    HW2 1785   5.832   6.943   3.604
  296SOL     OW 1786   2.408   2.029   3.170
  296SOL    HW1 1787   2.508   2.019   3.163
  296SOL    HW2 1788   2.365   1.984   3.091
  297SOL     OW 1789   1.884   4.871   2.371
  297SOL    HW1 1790   1.792   4.868   2.409
  297SOL    HW2 1791   1.887   4.943   2.301
  298SOL     OW 1792   6.462   5.011   0.726
  298SOL    HW1 1793   6.475   4.983   0.821
  298SOL    HW2 1794   6.365   5.026   0.709
  299SOL     OW 1795   5.911   2.097   4.383
  299SOL    HW1 1796   5.885   2.192   4.398
  299SOL    HW2 1797   5.832   2.046   4.348
  300SOL     OW 1798   6.279   6.631   2.105
  300SOL    HW1 1799   6.358   6.603   2.050
  300SOL    HW2 1800   6.245   6.719   2.073
  301SOL     OW 1801   4.718   2.580   5.457
  301SOL    HW1 1802   4.622   2.599   5.441
  301SOL    HW2 1803   4.727   2.519   5.536
  302SOL     OW 1804   1.117   5.910   4.181
  302SOL    HW1 1805   1.094   5.885   4.275
  302SOL    HW2 1806   1.130   5.827   4.127
  303SOL     OW 1807   6.260   0.256   3.538
  303SOL    HW1 1808   6.305   0.192   3.476
  303SOL    HW2 1809   6.162   0.260   3.517
  304SOL     OW 1810   3.789   0.162   3.337
  304SOL    HW1 1811   3.830   0.162   3.428
  304SOL    HW2 1812   3.703   0.111   3.339
  305SOL     OW 1813   1.498   4.794   0.899
  305SOL    HW1 1814   1.500   4.883   0.944
  305SOL    HW2 1815   1.418   4.742   0.928
  306SOL     OW 1816   2.204   0.971   3.470
  306SOL    HW1 1817   2.118   0.936   3.432
  306SOL    HW2 1818   2.279   0.908   3.447
  307SOL     OW 1819   3.396   0.447   1.565
  307SOL    HW1 1820   3.360   0.501   1.641
  307SOL    HW2 1821   3.447   0.369   1.601
  308SOL     OW 1822   0.622   4.625   3.719
  308SOL    HW1 1823   0.704   4.652   3.668
  308SOL    HW2 1824   0.542   4.632   3.660
  309SOL     OW 1825   3.518   4.771   5.209
  309SOL    HW1 1826   3.617   4.772   5.197
  309SOL    HW2 1827   3.491   4.686   5.255
  310SOL     OW 1828   1.484   6.076   6.268
  310SOL    HW1 1829   1.525   6.065   6.177
  310SOL    HW2 1830   1.536   6.023   6.335
  311SOL     OW 1831   0.230   0.623   1.445
  311SOL    HW1 1832   0.310   0.630   1.504
  311SOL    HW2 1833   0.257   0.635   1.350
  312SOL     OW 1834   4.173   1.313   5.612
  312SOL    HW1 1835   4.169   1.216   5.586
  312SOL    HW2 1836   4.094   1.334   5.670
  313SOL     OW 1837   0.201   4.947   1.386
  313SOL    HW1 1838   0.137   5.013   1.424
  313SOL    HW2 1839   0.150   4.869   1.348
  314SOL     OW 1840   3.477   5.801   2.024
  314SOL    HW1 1841   3.541   5.877   2.009
  314SOL    HW2 1842   3.387   5.825   1.987
  315SOL     OW 1843   1.036   3.817   2.640
  315SOL    HW1 1844   1.117   3.858   2.598
  315SOL    HW2 1845   0.966   3.802   2.571
  316SOL     OW 1846   2.216   3.144   4.661
  316SOL    HW1 1847   2.306   3.186   4.648
  316SOL    HW2 1848   2.225   3.064   4.721
  317SOL     OW 1849   6.695   1.247   0.261
  317SOL    HW1 1850   6.773   1.206   0.214
  317SOL    HW2 1851   6.647   1.177   0.314
  318SOL     OW 1852   2.832   4.297   1.078
  318SOL    HW1 1853   2.747   4.298   1.131
  318SOL    HW2 1854   2.899   4.239   1.125
  319SOL     OW 1855   0.907   0.290   6.284
  319SOL    HW1 1856   1.000   0.258   6.265
  319SOL    HW2 1857   0.863   0.317   6.198
  320SOL     OW 1858   5.415   3.300   1.080
  320SOL    HW1 1859   5.409   3.261   1.173
  320SOL    HW2 1860   5.503   3.276   1.040
  321SOL     OW 1861   2.148   1.496   2.378
  321SOL    HW1 1862   2.192   1.585   2.380
  321SOL    HW2 1863   2.216   1.425   2.400
  322SOL     OW 1864   3.380   2.616   5.337
  322SOL    HW1 1865   3.292   2.653   5.368
  322SOL    HW2 1866   3.385   2.518   5.359
  323SOL     OW 1867   1.585   4.143   1.740
  323SOL    HW1 1868   1.623   4.057   1.704
  323SOL    HW2 1869   1.652   4.216   1.730
  324SOL     OW 1870   6.895   2.628   4.209
  324SOL    HW1 1871   6.828   2.592   4.145
  324SOL    HW2 1872   6.986   2.624   4.167
  325SOL     OW 1873   2.173   2.007   2.706
  325SOL    HW1 1874   2.205   2.002   2.611
  325SOL    HW2 1875   2.133   1.919   2.732
  326SOL     OW 1876   1.659   4.043   4.621
  326SOL    HW1 1877   1.664   4.031   4.720
  326SOL    HW2 1878   1.751   4.037   4.582
  327SOL     OW 1879   6.136   3.674   6.419
  327SOL    HW1 1880   6.139   3.663   6.320
  327SOL    HW2 1881   6.224   3.647   6.458
  328SOL     OW 1882   3.476   5.989   2.615
  328SOL    HW1 1883   3.571   5.963   2.600
  328SOL    HW2 1884   3.432   6.007   2.526
  329SOL     OW 1885   3.680   3.912   2.369
  329SOL    HW1 1886   3.631   3.914   2.456
  329SOL    HW2 1887   3.647   3.986   2.311
  330SOL     OW 1888   2.531   2.022   1.911
  330SOL    HW1 1889   2.625   2.050   1.928
  330SOL    HW2 1890   2.501   1.960   1.984
  331SOL     OW 1891   6.258   3.938   5.489
  331SOL    HW1 1892   6.283   3.925   5.585
  331SOL    HW2 1893   6.271   3.853   5.439
  332SOL     OW 1894   3.912   1.968   3.778
  332SOL    HW1 1895   3.852   1.938   3.704
  332SOL    HW2 1896   3.933   1.891   3.838
  333SOL     OW 1897   4.773   6.584   0.790
  333SOL    HW1 1898   4.734   6.528   0.863
  333SOL    HW2 1899   4.745   6.679   0.801
  334SOL     OW 1900   4.977   6.332   2.784
  334SOL    HW1 1901   4.916   6.364   2.857
  334SOL    HW2 1902   5.068   6.372   2.797
  335SOL     OW 1903   3.300   0.267   2.507
  335SOL    HW1 1904   3.380   0.316   2.539
  335SOL    HW2 1905   3.307   0.253   2.408
  336SOL     OW 1906   3.968   0.488   4.943
  336SOL    HW1 1907   3.884   0.453   4.985
  336SOL    HW2 1908   3.947   0.521   4.850
  337SOL     OW 1909   0.415   4.234   2.060
  337SOL    HW1 1910   0.398   4.155   2.118
  337SOL    HW2 1911   0.407   4.318   2.114
  338SOL     OW 1912   2.285   2.390   1.255
  338SOL    HW1 1913   2.362   2.393   1.319
  338SOL    HW2 1914   2.243   2.300   1.258
  339SOL     OW 1915   4.097   1.454   3.507
  339SOL    HW1 1916   4.123   1.490   3.417
  339SOL    HW2 1917   4.102   1.354   3.505
  340SOL     OW 1918   4.845   3.932   4.702
  340SOL    HW1 1919   4.851   3.834   4.683
  340SOL    HW2 1920   4.832   3.946   4.800
  341SOL     OW 1921   4.609   4.689   5.678
  341SOL    HW1 1922   4.550   4.623   5.633
  341SOL    HW2 1923   4.636   4.654   5.768
  342SOL     OW 1924   6.085   3.974   0.715
  342SOL    HW1 1925   6.000   3.920   0.714
  342SOL    HW2 1926   6.163   3.914   0.699
  343SOL     OW 1927   2.194   0.852   2.595
  343SOL    HW1 1928   2.256   0.912   2.544
  343SOL    HW2 1929   2.240   0.817   2.676
  344SOL     OW 1930   3.693   6.629   0.155
  344SOL    HW1 1931   3.792   6.626   0.148
  344SOL    HW2 1932   3.665   6.615   0.250
  345SOL     OW 1933   1.513   1.360   5.210
  345SOL    HW1 1934   1.450   1.418   5.260
  345SOL    HW2 1935   1.596   1.346   5.263
  346SOL     OW 1936   2.951   0.933   5.313
  346SOL    HW1 1937   2.956   0.854   5.252
  346SOL    HW2 1938   2.874   0.922   5.376
  347SOL     OW 1939   5.156   6.435   6.075
  347SOL    HW1 1940   5.119   6.459   5.986
  347SOL    HW2 1941   5.185   6.339   6.074
  348SOL     OW 1942   2.654   6.703   2.885
  348SOL    HW1 1943   2.713   6.759   2.943
  348SOL    HW2 1944   2.616   6.628   2.940
  349SOL     OW 1945   2.303   5.422   2.139
  349SOL    HW1 1946   2.300   5.480   2.220
  349SOL    HW2 1947   2.301   5.326   2.166
  350SOL     OW 1948   4.833   3.125   0.969
  350SOL    HW1 1949   4.753   3.148   0.914
  350SOL    HW2 1950   4.916   3.154   0.921
  351SOL     OW 1951   3.434   1.791   1.066
  351SOL    HW1 1952   3.371   1.814   0.991
  351SOL    HW2 1953   3.479   1.875   1.098
  352SOL     OW 1954   3.059   2.014   6.120
  352SOL    HW1 1955   3.040   2.030   6.023
  352SOL    HW2 1956   3.043   2.098   6.171
  353SOL     OW 1957   2.207   0.085   1.256
  353SOL    HW1 1958   2.183   7.011   1.254
  353SOL    HW2 1959   2.306   0.095   1.266
  354SOL     OW 1960   5.220   0.267   2.195
  354SOL    HW1 1961   5.181   0.252   2.286
  354SOL    HW2 1962   5.152   0.243   2.125
  355SOL     OW 1963   0.827   1.260   2.472
  355SOL    HW1 1964   0.776   1.317   2.537
  355SOL    HW2 1965   0.831   1.306   2.384
  356SOL     OW 1966   3.332   0.183   2.769
  356SOL    HW1 1967   3.341   0.270   2.817
  356SOL    HW2 1968   3.313   0.200   2.673
  357SOL     OW 1969   1.227   5.201   5.153
  357SOL    HW1 1970   1.143   5.154   5.179
  357SOL    HW2 1971   1.241   5.280   5.212
  358SOL     OW 1972   4.598   1.094   3.281
  358SOL    HW1 1973   4.634   1.108   3.189
  358SOL    HW2 1974   4.510   1.141   3.289
  359SOL     OW 1975   7.018   1.788   0.261
  359SOL    HW1 1976   0.042   1.701   0.242
  359SOL    HW2 1977   6.921   1.771   0.279
  360SOL     OW 1978   4.844   0.377   6.956
  360SOL    HW1 1979   4.787   0.302   6.923
  360SOL    HW2 1980   4.875   0.432   6.878
  361SOL     OW 1981   3.058   0.249   2.600
  361SOL    HW1 1982   3.028   0.343   2.617
  361SOL    HW2 1983   3.148   0.250   2.557
  362SOL     OW 1984   2.900   3.827   0.728
  362SOL    HW1 1985   2.804   3.809   0.709
  362SOL    HW2 1986   2.912   3.923   0.754
  363SOL     OW 1987   5.168   4.647   3.621
  363SOL    HW1 1988   5.162   4.639   3.521
  363SOL    HW2 1989   5.076   4.639   3.660
  364SOL     OW 1990   2.682   5.907   6.564
  364SOL    HW1 1991   2.769   5.868   6.531
  364SOL    HW2 1992   2.689   6.006   6.565
  365SOL     OW 1993   5.037   6.452   3.195
  365SOL    HW1 1994   4.968   6.442   3.124
  365SOL    HW2 1995   5.003   6.515   3.265
  366SOL     OW 1996   5.450   1.091   0.361
  366SOL    HW1 1997   5.429   1.173   0.415
  366SOL    HW2 1998   5.519   1.114   0.292
  367SOL     OW 1999   5.347   2.309   2.216
  367SOL    HW1 2000   5.285   2.241   2.254
  367SOL    HW2 2001   5.346   2.302   2.116
  368SOL     OW 2002   0.392   5.139   5.289
  368SOL    HW1 2003   0.452   5.133   5.209
  368SOL    HW2 2004   0.297   5.146   5.259
  369SOL     OW 2005   1.097   3.970   1.772
  369SOL    HW1 2006   1.143   3.882   1.788
  369SOL    HW2 2007   1.102   4.026   1.855
  370SOL     OW 2008   3.912   1.503   6.509
  370SOL    HW1 2009   3.814   1.490   6.524
  370SOL    HW2 2010   3.936   1.598   6.529
  371SOL     OW 2011   3.586   2.742   6.434
  371SOL    HW1 2012   3.610   2.827   6.388
  371SOL    HW2 2013   3.491   2.719   6.415
  372SOL     OW 2014   2.097   5.418   0.203
  372SOL    HW1 2015   2.039   5.487   0.159
  372SOL    HW2 2016   2.193   5.439   0.185
  373SOL     OW 2017   5.978   6.677   6.414
  373SOL    HW1 2018   6.001   6.580   6.427
  373SOL    HW2 2019   5.986   6.700   6.317
  374SOL     OW 2020   5.083   0.896   1.091
  374SOL    HW1 2021   5.022   0.973   1.070
  374SOL    HW2 2022   5.177   0.922   1.070
  375SOL     OW 2023   6.635   4.599   1.440
  375SOL    HW1 2024   6.667   4.692   1.419
  375SOL    HW2 2025   6.654   4.539   1.363
  376SOL     OW 2026   2.043   4.027   4.986
  376SOL    HW1 2027   2.048   4.012   5.085
  376SOL    HW2 2028   2.135   4.042   4.950
  377SOL     OW 2029   4.978   1.211   4.077
  377SOL    HW1 2030   4.960   1.114   4.061
  377SOL    HW2 2031   4.974   1.261   3.990
  378SOL     OW 2032   5.261   2.161   5.311
  378SOL    HW1 2033   5.352   2.141   5.348
  378SOL    HW2 2034   5.204   2.200   5.383
  379SOL     OW 2035   6.371   2.906   1.257
  379SOL    HW1 2036   6.451   2.847   1.271
  379SOL    HW2 2037   6.319   2.911   1.342
  380SOL     OW 2038   0.903   2.445   0.201
  380SOL    HW1 2039   0.969   2.455   0.276
  380SOL    HW2 2040   0.838   2.372   0.223
  381SOL     OW 2041   4.884   4.825   0.089
  381SOL    HW1 2042   4.829   4.900   0.127
  381SOL    HW2 2043   4.856   4.809   7.016
  382SOL     OW 2044   1.946   5.570   6.618
  382SOL    HW1 2045   1.887   5.540   6.543
  382SOL    HW2 2046   1.969   5.667   6.606
  383SOL     OW 2047   6.303   1.347   6.880
  383SOL    HW1 2048   6.332   1.391   6.965
  383SOL    HW2 2049   6.209   1.374   6.859
  384SOL     OW 2050   1.114   5.580   4.369
  384SOL    HW1 2051   1.095   5.505   4.432
  384SOL    HW2 2052   1.054   5.657   4.389
  385SOL     OW 2053   4.702   5.113   1.237
  385SOL    HW1 2054   4.793   5.072   1.237
  385SOL    HW2 2055   4.642   5.061   1.176
  386SOL     OW 2056   2.370   5.687   4.431
  386SOL    HW1 2057   2.434   5.760   4.405
  386SOL    HW2 2058   2.333   5.645   4.348
  387SOL     OW 2059   0.373   0.683   5.506
  387SOL    HW1 2060   0.470   0.705   5.491
  387SOL    HW2 2061   0.322   0.694   5.421
  388SOL     OW 2062   0.502   1.922   4.527
  388SOL    HW1 2063   0.550   1.922   4.615
  388SOL    HW2 2064   0.566   1.900   4.454
  389SOL     OW 2065   4.923   3.492   2.459
  389SOL    HW1 2066   4.923   3.438   2.543
  389SOL    HW2 2067   5.005   3.550   2.456
  390SOL     OW 2068   3.591   2.767   0.546
  390SOL    HW1 2069   3.536   2.699   0.497
  390SOL    HW2 2070   3.622   2.837   0.482
  391SOL     OW 2071   4.106   3.620   3.828
  391SOL    HW1 2072   4.014   3.580   3.825
  391SOL    HW2 2073   4.128   3.647   3.921
  392SOL     OW 2074   2.233   3.789   1.359
  392SOL    HW1 2075   2.139   3.769   1.332
  392SOL    HW2 2076   2.233   3.864   1.426
  393SOL     OW 2077   1.474   6.030   1.207
  393SOL    HW1 2078   1.403   6.101   1.208
  393SOL    HW2 2079   1.487   5.997   1.114
  394SOL     OW 2080   5.818   1.340   6.040
  394SOL    HW1 2081   5.845   1.348   6.136
  394SOL    HW2 2082   5.718   1.343   6.034
  395SOL     OW 2083   6.060   5.093   6.834
  395SOL    HW1 2084   6.147   5.058   6.802
  395SOL    HW2 2085   6.052   5.190   6.812
  396SOL     OW 2086   0.914   0.785   1.315
  396SOL    HW1 2087   0.939   0.881   1.300
  396SOL    HW2 2088   0.898   0.740   1.227
  397SOL     OW 2089   4.835   2.028   4.689
  397SOL    HW1 2090   4.889   2.107   4.662
  397SOL    HW2 2091   4.829   2.024   4.788
  398SOL     OW 2092   0.069   1.510   2.909
  398SOL    HW1 2093   7.005   1.554   2.886
  398SOL    HW2 2094   0.060   1.463   2.997
  399SOL     OW 2095   6.110   5.528   3.817
  399SOL    HW1 2096   6.060   5.606   3.856
  399SOL    HW2 2097   6.104   5.450   3.879
  400SOL     OW 2098   6.874   6.434   3.064
  400SOL    HW1 2099   6.839   6.462   3.153
  400SOL    HW2 2100   6.906   6.515   3.014
  401SOL     OW 2101   1.212   6.059   4.918
  401SOL    HW1 2102   1.250   6.097   5.002
  401SOL    HW2 2103   1.221   5.959   4.919
  402SOL     OW 2104   6.260   1.096   4.346
  402SOL    HW1 2105   6.179   1.119   4.292
  402SOL    HW2 2106   6.275   0.997   4.341
  403SOL     OW 2107   2.399   1.866   5.220
  403SOL    HW1 2108   2.332   1.872   5.294
  403SOL    HW2 2109   2.480   1.919   5.244
  404SOL     OW 2110   2.841   5.825   3.437
  404SOL    HW1 2111   2.904   5.818   3.361
  404SOL    HW2 2112   2.800   5.917   3.438
  405SOL     OW 2113   2.552   4.818   3.876
  405SOL    HW1 2114   2.644   4.836   3.842
  405SOL    HW2 2115   2.547   4.841   3.973
  406SOL     OW 2116   0.827   6.924   6.734
  406SOL    HW1 2117   0.745   6.936   6.679
  406SOL    HW2 2118   0.837   6.828   6.759
  407SOL     OW 2119   2.104   3.559   4.255
  407SOL    HW1 2120   2.029   3.500   4.286
  407SOL    HW2 2121   2.093   3.578   4.158
  408SOL     OW 2122   2.634   2.421   2.105
  408SOL    HW1 2123   2.725   2.381   2.106
  408SOL    HW2 2124   2.608   2.443   2.011
  409SOL     OW 2125   0.631   2.676   2.276
  409SOL    HW1 2126   0.584   2.754   2.235
  409SOL    HW2 2127   0.580   2.644   2.356
  410SOL     OW 2128   1.656   3.432   1.636
  410SOL    HW1 2129   1.634   3.515   1.687
  410SOL    HW2 2130   1.685   3.456   1.544
  411SOL     OW 2131   6.902   1.639   1.032
  411SOL    HW1 2132   6.938   1.546   1.044
  411SOL    HW2 2133   6.804   1.634   1.014
  412SOL     OW 2134   2.359   4.351   2.942
  412SOL    HW1 2135   2.269   4.311   2.960
  412SOL    HW2 2136   2.399   4.382   3.029
  413SOL     OW 2137   6.441   5.284   2.618
  413SOL    HW1 2138   6.416   5.319   2.708
  413SOL    HW2 2139   6.495   5.353   2.569
  414SOL     OW 2140   2.269   0.007   2.759
  414SOL    HW1 2141   2.344   0.000   2.825
  414SOL    HW2 2142   2.304   0.038   2.671
  415SOL     OW 2143   5.847   3.023   0.625
  415SOL    HW1 2144   5.939   3.048   0.655
  415SOL    HW2 2145   5.836   3.046   0.528
  416SOL     OW 2146   6.099   3.517   0.210
  416SOL    HW1 2147   6.125   3.612   0.228
  416SOL    HW2 2148   6.079   3.505   0.113
  417SOL     OW 2149   2.382   2.354   5.393
  417SOL    HW1 2150   2.466   2.357   5.338
  417SOL    HW2 2151   2.321   2.284   5.356
  418SOL     OW 2152   3.748   5.970   6.536
  418SOL    HW1 2153   3.739   6.057   6.584
  418SOL    HW2 2154   3.808   5.909   6.588
  419SOL     OW 2155   5.778   0.267   0.570
  419SOL    HW1 2156   5.811   0.261   0.664
  419SOL    HW2 2157   5.808   0.354   0.530
  420SOL     OW 2158   3.263   6.707   0.938
  420SOL    HW1 2159   3.315   6.766   0.876
  420SOL    HW2 2160   3.295   6.723   1.032
  421SOL     OW 2161   5.205   4.668   2.708
  421SOL    HW1 2162   5.113   4.687   2.744
  421SOL    HW2 2163   5.247   4.754   2.678
  422SOL     OW 2164   4.184   1.486   2.311
  422SOL    HW1 2165   4.182   1.480   2.411
  422SOL    HW2 2166   4.145   1.574   2.282
  423SOL     OW 2167   2.411   0.973   5.590
  423SOL    HW1 2168   2.432   1.065   5.557
  423SOL    HW2 2169   2.451   0.961   5.681
  424SOL     OW 2170   1.326   4.368   4.454
  424SOL    HW1 2171   1.377   4.310   4.391
  424SOL    HW2 2172   1.380   4.450   4.475
  425SOL     OW 2173   3.325   1.427   0.154
  425SOL    HW1 2174   3.259   1.409   0.082
  425SOL    HW2 2175   3.353   1.340   0.196
  426SOL     OW 2176   2.482   2.636   3.337
  426SOL    HW1 2177   2.533   2.581   3.270
  426SOL    HW2 2178   2.443   2.716   3.291
  427SOL     OW 2179   4.404   1.480   4.399
  427SOL    HW1 2180   4.475   1.473   4.469
  427SOL    HW2 2181   4.329   1.536   4.433
  428SOL     OW 2182   2.251   2.167   5.880
  428SOL    HW1 2183   2.220   2.073   5.866
  428SOL    HW2 2184   2.311   2.195   5.805
  429SOL     OW 2185   6.975   0.015   3.053
  429SOL    HW1 2186   0.027   7.006   2.994
  429SOL    HW2 2187   6.989   7.003   3.146
  430SOL     OW 2188   1.960   1.449   3.458
  430SOL    HW1 2189   1.863   1.469   3.445
  430SOL    HW2 2190   2.000   1.421   3.371
  431SOL     OW 2191   2.253   0.979   1.381
  431SOL    HW1 2192   2.307   1.038   1.322
  431SOL    HW2 2193   2.223   1.030   1.462
  432SOL     OW 2194   5.299   1.814   1.718
  432SOL    HW1 2195   5.259   1.870   1.646
  432SOL    HW2 2196   5.307   1.868   1.802
  433SOL     OW 2197   2.067   4.254   6.990
  433SOL    HW1 2198   1.973   4.270   6.959
  433SOL    HW2 2199   2.122   4.223   6.913
  434SOL     OW 2200   3.603   5.542   2.684
  434SOL    HW1 2201   3.669   5.467   2.695
  434SOL    HW2 2202   3.627   5.617   2.745
  435SOL     OW 2203   2.717   2.576   6.587
  435SOL    HW1 2204   2.752   2.492   6.627
  435SOL    HW2 2205   2.754   2.589   6.495
  436SOL     OW 2206   5.165   6.567   2.807
  436SOL    HW1 2207   5.197   6.589   2.715
  436SOL    HW2 2208   5.238   6.524   2.859
  437SOL     OW 2209   6.919   0.827   5.704
  437SOL    HW1 2210   6.844   0.770   5.739
  437SOL    HW2 2211   6.882   0.902   5.650
  438SOL     OW 2212   0.913   3.735   1.656
  438SOL    HW1 2213   0.870   3.823   1.637
  438SOL    HW2 2214   1.012   3.742   1.641
  439SOL     OW 2215   0.400   1.287   6.271
  439SOL    HW1 2216   0.438   1.283   6.178
  439SOL    HW2 2217   0.462   1.239   6.333
  440SOL     OW 2218   3.543   1.621   1.386
  440SOL    HW1 2219   3.475   1.551   1.366
  440SOL    HW2 2220   3.606   1.630   1.308
  441SOL     OW 2221   1.102   4.580   2.573
  441SOL    HW1 2222   1.055   4.609   2.490
  441SOL    HW2 2223   1.087   4.649   2.645
  442SOL     OW 2224   3.197   3.344   5.000
  442SOL    HW1 2225   3.177   3.397   4.918
  442SOL    HW2 2226   3.188   3.246   4.980
  443SOL     OW 2227   4.964   2.436   2.280
  443SOL    HW1 2228   4.891   2.444   2.213
  443SOL    HW2 2229   5.039   2.383   2.241
  444SOL     OW 2230   3.987   2.681   1.203
  444SOL    HW1 2231   3.929   2.662   1.124
  444SOL    HW2 2232   3.948   2.639   1.285
  445SOL     OW 2233   2.051   5.828   3.913
  445SOL    HW1 2234   2.083   5.833   3.819
  445SOL    HW2 2235   1.957   5.793   3.915
  446SOL     OW 2236   0.022   6.586   0.657
  446SOL    HW1 2237   0.036   6.577   0.559
  446SOL    HW2 2238   0.082   6.657   0.693
  447SOL     OW 2239   6.487   3.260   0.078
  447SOL    HW1 2240   6.525   3.172   0.106
  447SOL    HW2 2241   6.443   3.305   0.156
  448SOL     OW 2242   3.447   6.638   4.264
  448SOL    HW1 2243   3.408   6.730   4.261
  448SOL    HW2 2244   3.542   6.642   4.233
  449SOL     OW 2245   0.841   3.693   4.933
  449SOL    HW1 2246   0.758   3.637   4.923
  449SOL    HW2 2247   0.825   3.783   4.893
  450SOL     OW 2248   6.209   4.135   3.675
  450SOL    HW1 2249   6.296   4.100   3.641
  450SOL    HW2 2250   6.141   4.061   3.672
  451SOL     OW 2251   2.607   1.540   6.365
  451SOL    HW1 2252   2.641   1.633   6.346
  451SOL    HW2 2253   2.507   1.541   6.369
  452SOL     OW 2254   4.885   5.397   1.412
  452SOL    HW1 2255   4.867   5.306   1.449
  452SOL    HW2 2256   4.876   5.395   1.312
  453SOL     OW 2257   3.897   0.890   7.013
  453SOL    HW1 2258   3.925   0.948   0.066
  453SOL    HW2 2259   3.799   0.901   6.996
  454SOL     OW 2260   6.980   3.043   3.804
  454SOL    HW1 2261   6.983   2.959   3.750
  454SOL    HW2 2262   6.948   3.024   3.896
  455SOL     OW 2263   6.182   5.306   0.336
  455SOL    HW1 2264   6.102   5.288   0.279
  455SOL    HW2 2265   6.176   5.398   0.373
  456SOL     OW 2266   1.699   1.343   3.376
  456SOL    HW1 2267   1.655   1.333   3.466
  456SOL    HW2 2268   1.637   1.310   3.305
  457SOL     OW 2269   3.234   5.700   0.568
  457SOL    HW1 2270   3.294   5.730   0.494
  457SOL    HW2 2271   3.139   5.702   0.536
  458SOL     OW 2272   3.060   1.271   4.349
  458SOL    HW1 2273   3.142   1.233   4.391
  458SOL    HW2 2274   3.083   1.354   4.299
  459SOL     OW 2275   3.062   1.443   3.781
  459SOL    HW1 2276   2.994   1.423   3.851
  459SOL    HW2 2277   3.035   1.400   3.695
  460SOL     OW 2278   1.047   1.584   6.854
  460SOL    HW1 2279   0.992   1.665   6.876
  460SOL    HW2 2280   1.124   1.611   6.795
  461SOL     OW 2281   1.180   6.962   5.012
  461SOL    HW1 2282   1.212   7.013   4.933
  461SOL    HW2 2283   1.111   6.895   4.984
  462SOL     OW 2284   3.548   4.308   5.430
  462SOL    HW1 2285   3.551   4.295   5.530
  462SOL    HW2 2286   3.634   4.279   5.390
  463SOL     OW 2287   5.494   6.353   3.334
  463SOL    HW1 2288   5.502   6.297   3.416
  463SOL    HW2 2289   5.508   6.296   3.253
  464SOL     OW 2290   4.590   6.091   4.644
  464SOL    HW1 2291   4.536   6.021   4.691
  464SOL    HW2 2292   4.623   6.158   4.710
  465SOL     OW 2293   0.731   5.288   0.861
  465SOL    HW1 2294   0.778   5.331   0.939
  465SOL    HW2 2295   0.765   5.328   0.776
  466SOL     OW 2296   3.682   4.942   3.855
  466SOL    HW1 2297   3.634   4.984   3.932
  466SOL    HW2 2298   3.704   4.847   3.877
  467SOL     OW 2299   6.499   6.720   1.417
  467SOL    HW1 2300   6.451   6.635   1.395
  467SOL    HW2 2301   6.588   6.721   1.372
  468SOL     OW 2302   2.469   6.468   6.699
  468SOL    HW1 2303   2.521   6.432   6.777
  468SOL    HW2 2304   2.521   6.543   6.657
  469SOL     OW 2305   3.618   4.682   5.519
  469SOL    HW1 2306   3.550   4.657   5.450
  469SOL    HW2 2307   3.599   4.774   5.553
  470SOL     OW 2308   2.602   5.123   2.287
  470SOL    HW1 2309   2.666   5.143   2.213
  470SOL    HW2 2310   2.511   5.156   2.263
  471SOL     OW 2311   1.653   1.875   4.741
  471SOL    HW1 2312   1.587   1.853   4.669
  471SOL    HW2 2313   1.654   1.801   4.809
  472SOL     OW 2314   5.142   4.110   6.326
  472SOL    HW1 2315   5.054   4.155   6.312
  472SOL    HW2 2316   5.187   4.096   6.238
  473SOL     OW 2317   5.557   3.493   1.605
  473SOL    HW1 2318   5.504   3.473   1.688
  473SOL    HW2 2319   5.574   3.408   1.554
  474SOL     OW 2320   5.208   4.931   3.623
  474SOL    HW1 2321   5.202   4.831   3.615
  474SOL    HW2 2322   5.194   4.957   3.719
  475SOL     OW 2323   4.535   1.527   0.575
  475SOL    HW1 2324   4.500   1.545   0.483
  475SOL    HW2 2325   4.612   1.463   0.569
  476SOL     OW 2326   1.063   2.968   0.184
  476SOL    HW1 2327   1.019   2.882   0.160
  476SOL    HW2 2328   1.102   3.010   0.102
  477SOL     OW 2329   5.951   5.725   3.645
  477SOL    HW1 2330   5.987   5.738   3.737
  477SOL    HW2 2331   6.002   5.652   3.600
  478SOL     OW 2332   6.627   5.128   1.999
  478SOL    HW1 2333   6.683   5.210   2.007
  478SOL    HW2 2334   6.640   5.071   2.080
  479SOL     OW 2335   3.504   3.845   3.036
  479SOL    HW1 2336   3.572   3.916   3.054
  479SOL    HW2 2337   3.412   3.882   3.054
  480SOL     OW 2338   0.225   0.175   2.055
  480SOL    HW1 2339   0.149   0.238   2.047
  480SOL    HW2 2340   0.272   0.167   1.967
  481SOL     OW 2341   6.055   5.978   0.735
  481SOL    HW1 2342   6.048   5.886   0.695
  481SOL    HW2 2343   6.150   6.008   0.733
  482SOL     OW 2344   3.511   4.933   2.646
  482SOL    HW1 2345   3.461   4.880   2.577
  482SOL    HW2 2346   3.447   4.993   2.694
  483SOL     OW 2347   6.192   1.599   4.409
  483SOL    HW1 2348   6.202   1.503   4.436
  483SOL    HW2 2349   6.255   1.655   4.463
  484SOL     OW 2350   2.497   5.325   3.575
  484SOL    HW1 2351   2.580   5.363   3.535
  484SOL    HW2 2352   2.521   5.267   3.652
  485SOL     OW 2353   4.655   2.251   0.745
  485SOL    HW1 2354   4.619   2.305   0.669
  485SOL    HW2 2355   4.753   2.235   0.732
  486SOL     OW 2356   5.979   6.064   5.480
  486SOL    HW1 2357   6.016   6.147   5.520
  486SOL    HW2 2358   6.039   6.032   5.407
  487SOL     OW 2359   6.505   0.820   6.790
  487SOL    HW1 2360   6.442   0.896   6.781
  487SOL    HW2 2361   6.455   0.737   6.816
  488SOL     OW 2362   1.823   6.185   3.658
  488SOL    HW1 2363   1.787   6.193   3.751
  488SOL    HW2 2364   1.884   6.262   3.639
  489SOL     OW 2365   2.641   4.525   5.225
  489SOL    HW1 2366   2.621   4.480   5.312
  489SOL    HW2 2367   2.731   4.568   5.229
  490SOL     OW 2368   1.487   3.569   5.072
  490SOL    HW1 2369   1.422   3.499   5.100
  490SOL    HW2 2370   1.445   3.630   5.005
  491SOL     OW 2371   6.489   3.293   1.583
  491SOL    HW1 2372   6.540   3.337   1.509
  491SOL    HW2 2373   6.476   3.358   1.658
  492SOL     OW 2374   1.721   2.564   5.518
  492SOL    HW1 2375   1.745   2.523   5.605
  492SOL    HW2 2376   1.804   2.585   5.467
  493SOL     OW 2377   1.283   5.536   3.668
  493SOL    HW1 2378   1.377   5.571   3.662
  493SOL    HW2 2379   1.223   5.592   3.611
  494SOL     OW 2380   2.764   0.250   2.723
  494SOL    HW1 2381   2.669   0.280   2.736
  494SOL    HW2 2382   2.824   0.329   2.718
  495SOL     OW 2383   4.022   4.594   0.397
  495SOL    HW1 2384   4.119   4.615   0.411
  495SOL    HW2 2385   3.991   4.635   0.311
  496SOL     OW 2386   4.757   0.049   3.492
  496SOL    HW1 2387   4.700   0.101   3.556
  496SOL    HW2 2388   4.724   0.061   3.399
  497SOL     OW 2389   4.701   2.724   1.045
  497SOL    HW1 2390   4.797   2.738   1.066
  497SOL    HW2 2391   4.687   2.629   1.017
  498SOL     OW 2392   0.892   0.143   1.009
  498SOL    HW1 2393   0.844   0.131   1.096
  498SOL    HW2 2394   0.881   0.060   0.954
  499SOL     OW 2395   3.094   6.624   6.671
  499SOL    HW1 2396   3.029   6.694   6.642
  499SOL    HW2 2397   3.145   6.590   6.592
  500SOL     OW 2398   6.174   1.685   6.498
  500SOL    HW1 2399   6.235   1.760   6.474
  500SOL    HW2 2400   6.131   1.703   6.586
  501SOL     OW 2401   2.048   2.284   4.602
  501SOL    HW1 2402   2.059   2.317   4.508
  501SOL    HW2 2403   2.137   2.279   4.647
  502SOL     OW 2404   2.480   2.860   6.818
  502SOL    HW1 2405   2.385   2.838   6.841
  502SOL    HW2 2406   2.490   2.866   6.719
  503SOL     OW 2407   4.691   5.309   0.823
  503SOL    HW1 2408   4.759   5.238   0.806
  503SOL    HW2 2409   4.601   5.266   0.835
  504SOL     OW 2410   6.078   0.549   0.254
  504SOL    HW1 2411   6.172   0.529   0.280
  504SOL    HW2 2412   6.034   0.466   0.221
  505SOL     OW 2413   0.128   3.698   5.291
  505SOL    HW1 2414   0.184   3.671   5.213
  505SOL    HW2 2415   0.049   3.750   5.259
  506SOL     OW 2416   2.762   5.817   2.248
  506SOL    HW1 2417   2.667   5.825   2.280
  506SOL    HW2 2418   2.791   5.904   2.209
  507SOL     OW 2419   2.664   6.728   3.650
  507SOL    HW1 2420   2.644   6.820   3.618
  507SOL    HW2 2421   2.732   6.686   3.589
  508SOL     OW 2422   0.499   5.056   2.854
  508SOL    HW1 2423   0.462   5.137   2.810
  508SOL    HW2 2424   0.426   5.008   2.903
  509SOL     OW 2425   4.862   0.425   5.977
  509SOL    HW1 2426   4.870   0.357   6.050
  509SOL    HW2 2427   4.827   0.510   6.014
  510SOL     OW 2428   6.418   4.135   0.417
  510SOL    HW1 2429   6.321   4.130   0.440
  510SOL    HW2 2430   6.463   4.049   0.444
  511SOL     OW 2431   0.051   1.823   0.700
  511SOL    HW1 2432   0.126   1.770   0.741
  511SOL    HW2 2433   0.080   1.858   0.611
  512SOL     OW 2434   1.730   2.136   4.855
  512SOL    HW1 2435   1.693   2.051   4.818
  512SOL    HW2 2436   1.759   2.195   4.779
  513SOL     OW 2437   5.777   5.541   2.886
  513SOL    HW1 2438   5.825   5.593   2.815
  513SOL    HW2 2439   5.728   5.604   2.946
  514SOL     OW 2440   4.981   1.472   4.380
  514SOL    HW1 2441   5.013   1.453   4.473
  514SOL    HW2 2442   4.883   1.487   4.380
  515SOL     OW 2443   3.268   0.535   6.657
  515SOL    HW1 2444   3.191   0.478   6.627
  515SOL    HW2 2445   3.237   0.597   6.729
  516SOL     OW 2446   0.533   5.664   2.654
  516SOL    HW1 2447   0.601   5.737   2.649
  516SOL    HW2 2448   0.531   5.626   2.746
  517SOL     OW 2449   3.794   5.433   0.849
  517SOL    HW1 2450   3.721   5.407   0.912
  517SOL    HW2 2451   3.848   5.506   0.890
  518SOL     OW 2452   2.023   7.008   3.829
  518SOL    HW1 2453   2.111   6.979   3.791
  518SOL    HW2 2454   2.000   0.076   3.795
  519SOL     OW 2455   6.756   6.928   2.921
  519SOL    HW1 2456   6.820   6.976   2.982
  519SOL    HW2 2457   6.807   6.884   2.847
  520SOL     OW 2458   3.804   5.659   0.538
  520SOL    HW1 2459   3.809   5.561   0.557
  520SOL    HW2 2460   3.728   5.699   0.590
  521SOL     OW 2461   6.954   6.639   5.280
  521SOL    HW1 2462   6.906   6.592   5.206
  521SOL    HW2 2463   6.887   6.682   5.341
  522SOL     OW 2464   3.497   4.885   6.443
  522SOL    HW1 2465   3.422   4.827   6.412
  522SOL    HW2 2466   3.583   4.856   6.400
  523SOL     OW 2467   1.694   0.172   5.995
  523SOL    HW1 2468   1.628   0.195   5.924
  523SOL    HW2 2469   1.738   0.256   6.028
  524SOL     OW 2470   6.470   1.340   1.090
  524SOL    HW1 2471   6.488   1.257   1.038
  524SOL    HW2 2472   6.445   1.317   1.183
  525SOL     OW 2473   0.896   3.096   3.857
  525SOL    HW1 2474   0.861   3.123   3.767
  525SOL    HW2 2475   0.885   3.173   3.921
  526SOL     OW 2476   4.135   6.043   4.279
  526SOL    HW1 2477   4.165   6.022   4.372
  526SOL    HW2 2478   4.082   6.128   4.280
  527SOL     OW 2479   6.544   1.133   0.926
  527SOL    HW1 2480   6.538   1.140   0.827
  527SOL    HW2 2481   6.512   1.042   0.955
  528SOL     OW 2482   6.930   1.647   3.870
  528SOL    HW1 2483   6.930   1.742   3.902
  528SOL    HW2 2484   6.889   1.643   3.779
  529SOL     OW 2485   1.205   1.640   6.109
  529SOL    HW1 2486   1.123   1.668   6.059
  529SOL    HW2 2487   1.228   1.545   6.085
  530SOL     OW 2488   3.568   4.445   1.626
  530SOL    HW1 2489   3.580   4.513   1.698
  530SOL    HW2 2490   3.486   4.467   1.573
  531SOL     OW 2491   6.744   1.829   5.960
  531SOL    HW1 2492   6.822   1.871   6.007
  531SOL    HW2 2493   6.737   1.733   5.987
  532SOL     OW 2494   3.705   1.190   6.811
  532SOL    HW1 2495   3.682   1.095   6.829
  532SOL    HW2 2496   3.762   1.197   6.729
  533SOL     OW 2497   3.777   0.153   4.894
  533SOL    HW1 2498   3.760   0.247   4.865
  533SOL    HW2 2499   3.813   0.100   4.817
  534SOL     OW 2500   1.895   4.086   1.085
  534SOL    HW1 2501   1.973   4.026   1.106
  534SOL    HW2 2502   1.861   4.126   1.170
  535SOL     OW 2503   4.311   4.629   3.363
  535SOL    HW1 2504   4.271   4.693   3.428
  535SOL    HW2 2505   4.341   4.547   3.411
  536SOL     OW 2506   6.457   6.422   1.453
  536SOL    HW1 2507   6.400   6.456   1.379
  536SOL    HW2 2508   6.550   6.406   1.419
  537SOL     OW 2509   3.361   1.742   3.032
  537SOL    HW1 2510   3.300   1.732   2.953
  537SOL    HW2 2511   3.312   1.786   3.107
  538SOL     OW 2512   4.086   5.378   5.931
  538SOL    HW1 2513   4.039   5.467   5.928
  538SOL    HW2 2514   4.174   5.387   5.885
  539SOL     OW 2515   2.076   0.142   0.088
  539SOL    HW1 2516   2.097   0.081   0.012
  539SOL    HW2 2517   2.030   0.224   0.052
  540SOL     OW 2518   2.453   1.611   5.357
  540SOL    HW1 2519   2.513   1.542   5.319
  540SOL    HW2 2520   2.472   1.699   5.314
  541SOL     OW 2521   5.409   5.663   2.287
  541SOL    HW1 2522   5.418   5.629   2.193
  541SOL    HW2 2523   5.365   5.753   2.284
  542SOL     OW 2524   4.108   5.859   5.884
  542SOL    HW1 2525   4.049   5.939   5.881
  542SOL    HW2 2526   4.165   5.856   5.801
  543SOL     OW 2527   6.394   1.945   5.128
  543SOL    HW1 2528   6.435   2.032   5.156
  543SOL    HW2 2529   6.357   1.899   5.209
  544SOL     OW 2530   1.207   2.721   1.176
  544SOL    HW1 2531   1.116   2.678   1.170
  544SOL    HW2 2532   1.199   2.809   1.223
  545SOL     OW 2533   0.032   5.421   0.596
  545SOL    HW1 2534   0.123   5.440   0.634
  545SOL    HW2 2535   0.037   5.341   0.537
  546SOL     OW 2536   6.594   5.927   2.677
  546SOL    HW1 2537   6.670   5.922   2.741
  546SOL    HW2 2538   6.530   5.998   2.706
  547SOL     OW 2539   3.742   6.295   6.701
  547SOL    HW1 2540   3.664   6.356   6.711
  547SOL    HW2 2541   3.746   6.232   6.779
  548SOL     OW 2542   3.933   2.809   6.887
  548SOL    HW1 2543   3.945   2.750   6.808
  548SOL    HW2 2544   4.022   2.844   6.916
  549SOL     OW 2545   5.514   2.444   3.875
  549SOL    HW1 2546   5.445   2.464   3.944
  549SOL    HW2 2547   5.516   2.346   3.855
  550SOL     OW 2548   0.352   5.486   3.774
  550SOL    HW1 2549   0.294   5.546   3.830
  550SOL    HW2 2550   0.310   5.396   3.767
  551SOL     OW 2551   5.539   0.700   0.784
  551SOL    HW1 2552   5.596   0.767   0.737
  551SOL    HW2 2553   5.512   0.628   0.720
  552SOL     OW 2554   0.521   0.369   4.852
  552SOL    HW1 2555   0.610   0.355   4.809
  552SOL    HW2 2556   0.517   0.319   4.938
  553SOL     OW 2557   3.625   2.263   5.321
  553SOL    HW1 2558   3.689   2.337   5.302
  553SOL    HW2 2559   3.646   2.184   5.262
  554SOL     OW 2560   6.998   5.061   0.426
  554SOL    HW1 2561   0.005   4.967   0.444
  554SOL    HW2 2562   6.925   5.085   0.490
  555SOL     OW 2563   3.336   4.364   5.785
  555SOL    HW1 2564   3.270   4.298   5.822
  555SOL    HW2 2565   3.287   4.442   5.746
  556SOL     OW 2566   5.565   6.058   3.046
  556SOL    HW1 2567   5.523   6.016   2.965
  556SOL    HW2 2568   5.551   6.157   3.044
  557SOL     OW 2569   6.447   3.739   0.140
  557SOL    HW1 2570   6.365   3.690   0.109
  557SOL    HW2 2571   6.468   3.712   0.234
  558SOL     OW 2572   3.063   3.618   1.859
  558SOL    HW1 2573   3.116   3.589   1.939
  558SOL    HW2 2574   3.110   3.693   1.812
  559SOL     OW 2575   6.063   1.104   6.388
  559SOL    HW1 2576   6.085   1.190   6.341
  559SOL    HW2 2577   5.975   1.113   6.434
  560SOL     OW 2578   1.424   2.371   3.394
  560SOL    HW1 2579   1.511   2.333   3.364
  560SOL    HW2 2580   1.440   2.443   3.462
  561SOL     OW 2581   0.254   4.286   0.415
  561SOL    HW1 2582   0.275   4.235   0.332
  561SOL    HW2 2583   0.268   4.384   0.399
  562SOL     OW 2584   3.483   5.670   3.413
  562SOL    HW1 2585   3.484   5.640   3.318
  562SOL    HW2 2586   3.577   5.689   3.442
  563SOL     OW 2587   0.577   1.042   4.558
  563SOL    HW1 2588   0.583   1.104   4.480
  563SOL    HW2 2589   0.648   0.972   4.551
  564SOL     OW 2590   5.716   1.441   5.542
  564SOL    HW1 2591   5.747   1.406   5.453
  564SOL    HW2 2592   5.633   1.392   5.570
  565SOL     OW 2593   3.347   3.452   3.892
  565SOL    HW1 2594   3.314   3.402   3.812
  565SOL    HW2 2595   3.334   3.550   3.878
  566SOL     OW 2596   1.350   2.809   3.371
  566SOL    HW1 2597   1.410   2.756   3.311
  566SOL    HW2 2598   1.300   2.747   3.431
  567SOL     OW 2599   1.698   3.170   5.358
  567SOL    HW1 2600   1.759   3.241   5.392
  567SOL    HW2 2601   1.619   3.161   5.419
  568SOL     OW 2602   1.261   0.665   6.835
  568SOL    HW1 2603   1.179   0.676   6.778
  568SOL    HW2 2604   1.234   0.643   6.928
  569SOL     OW 2605   5.321   3.441   5.354
  569SOL    HW1 2606   5.389   3.512   5.368
  569SOL    HW2 2607   5.235   3.482   5.324
  570SOL     OW 2608   3.408   0.423   6.138
  570SOL    HW1 2609   3.361   0.370   6.068
  570SOL    HW2 2610   3.342   0.465   6.200
  571SOL     OW 2611   2.448   4.343   1.863
  571SOL    HW1 2612   2.541   4.329   1.830
  571SOL    HW2 2613   2.417   4.435   1.838
  572SOL     OW 2614   2.790   1.581   4.862
  572SOL    HW1 2615   2.699   1.545   4.883
  572SOL    HW2 2616   2.809   1.566   4.765
  573SOL     OW 2617   0.718   0.010   5.859
  573SOL    HW1 2618   0.642   0.060   5.898
  573SOL    HW2 2619   0.795   0.072   5.844
  574SOL     OW 2620   2.531   0.842   5.795
  574SOL    HW1 2621   2.487   0.836   5.885
  574SOL    HW2 2622   2.627   0.867   5.807
  575SOL     OW 2623   4.009   3.405   0.457
  575SOL    HW1 2624   4.011   3.325   0.396
  575SOL    HW2 2625   3.940   3.389   0.528
  576SOL     OW 2626   0.238   0.753   3.180
  576SOL    HW1 2627   0.150   0.774   3.139
  576SOL    HW2 2628   0.271   0.665   3.146
  577SOL     OW 2629   6.963   6.702   2.387
  577SOL    HW1 2630   6.927   6.731   2.476
  577SOL    HW2 2631   6.906   6.629   2.350
  578SOL     OW 2632   4.104   6.606   0.544
  578SOL    HW1 2633   4.053   6.598   0.630
  578SOL    HW2 2634   4.177   6.538   0.542
  579SOL     OW 2635   0.736   3.820   2.238
  579SOL    HW1 2636   0.830   3.847   2.220
  579SOL    HW2 2637   0.687   3.809   2.151
  580SOL     OW 2638   4.724   4.689   4.662
  580SOL    HW1 2639   4.722   4.769   4.601
  580SOL    HW2 2640   4.800   4.700   4.727
  581SOL     OW 2641   2.151   2.324   3.738
  581SOL    HW1 2642   2.180   2.230   3.722
  581SOL    HW2 2643   2.211   2.366   3.806
  582SOL     OW 2644   5.555   3.975   4.846
  582SOL    HW1 2645   5.620   4.014   4.780
  582SOL    HW2 2646   5.514   3.893   4.807
  583SOL     OW 2647   3.516   5.553   5.245
  583SOL    HW1 2648   3.524   5.461   5.285
  583SOL    HW2 2649   3.553   5.620   5.310
  584SOL     OW 2650   3.839   1.060   5.225
  584SOL    HW1 2651   3.890   0.974   5.232
  584SOL    HW2 2652   3.876   1.126   5.290
  585SOL     OW 2653   3.376   6.545   1.744
  585SOL    HW1 2654   3.405   6.456   1.708
  585SOL    HW2 2655   3.389   6.615   1.674
  586SOL     OW 2656   3.812   0.356   1.169
  586SOL    HW1 2657   3.892   0.403   1.130
  586SOL    HW2 2658   3.829   0.257   1.169
  587SOL     OW 2659   4.594   0.608   3.003
  587SOL    HW1 2660   4.669   0.674   2.997
  587SOL    HW2 2661   4.584   0.578   3.098
  588SOL     OW 2662   2.470   4.447   2.472
  588SOL    HW1 2663   2.503   4.352   2.467
  588SOL    HW2 2664   2.425   4.471   2.386
  589SOL     OW 2665   3.497   4.523   6.421
  589SOL    HW1 2666   3.455   4.608   6.388
  589SOL    HW2 2667   3.426   4.465   6.462
  590SOL     OW 2668   2.255   1.906   6.163
  590SOL    HW1 2669   2.326   1.973   6.184
  590SOL    HW2 2670   2.297   1.819   6.138
  591SOL     OW 2671   2.954   0.467   4.063
  591SOL    HW1 2672   3.039   0.433   4.104
  591SOL    HW2 2673   2.879   0.458   4.129
  592SOL     OW 2674   4.555   2.074   4.250
  592SOL    HW1 2675   4.465   2.116   4.250
  592SOL    HW2 2676   4.619   2.131   4.199
  593SOL     OW 2677   1.336   0.148   0.252
  593SOL    HW1 2678   1.365   0.243   0.259
  593SOL    HW2 2679   1.380   0.094   0.323
  594SOL     OW 2680   3.262   1.119   5.244
  594SOL    HW1 2681   3.350   1.081   5.215
  594SOL    HW2 2682   3.200   1.121   5.165
  595SOL     OW 2683   6.509   3.733   2.178
  595SOL    HW1 2684   6.437   3.782   2.227
  595SOL    HW2 2685   6.550   3.664   2.238
  596SOL     OW 2686   5.976   4.639   4.291
  596SOL    HW1 2687   5.976   4.728   4.247
  596SOL    HW2 2688   5.943   4.570   4.227
  597SOL     OW 2689   4.001   1.440   6.236
  597SOL    HW1 2690   4.052   1.524   6.219
  597SOL    HW2 2691   4.015   1.412   6.331
  598SOL     OW 2692   3.230   2.957   2.549
  598SOL    HW1 2693   3.319   2.945   2.593
  598SOL    HW2 2694   3.189   2.867   2.533
  599SOL     OW 2695   2.189   4.711   1.118
  599SOL    HW1 2696   2.173   4.808   1.132
  599SOL    HW2 2697   2.243   4.698   1.034
  600SOL     OW 2698   0.541   3.447   6.209
  600SOL    HW1 2699   0.575   3.357   6.239
  600SOL    HW2 2700   0.442   3.449   6.217
  601SOL     OW 2701   6.988   0.171   5.782
  601SOL    HW1 2702   0.038   0.205   5.723
  601SOL    HW2 2703   7.001   0.205   5.875
  602SOL     OW 2704   0.679   0.590   3.426
  602SOL    HW1 2705   0.733   0.659   3.474
  602SOL    HW2 2706   0.656   0.622   3.335
  603SOL     OW 2707   1.187   1.758   4.175
  603SOL    HW1 2708   1.176   1.696   4.097
  603SOL    HW2 2709   1.269   1.733   4.226
  604SOL     OW 2710   5.329   2.560   0.622
  604SOL    HW1 2711   5.374   2.595   0.539
  604SOL    HW2 2712   5.297   2.467   0.606
  605SOL     OW 2713   5.660   6.401   2.155
  605SOL    HW1 2714   5.657   6.323   2.218
  605SOL    HW2 2715   5.648   6.368   2.062
  606SOL     OW 2716   3.201   6.448   4.995
  606SOL    HW1 2717   3.217   6.429   5.092
  606SOL    HW2 2718   3.116   6.499   4.985
  607SOL     OW 2719   1.559   3.309   6.074
  607SOL    HW1 2720   1.517   3.399   6.065
  607SOL    HW2 2721   1.643   3.317   6.128
  608SOL     OW 2722   3.155   1.304   0.484
  608SOL    HW1 2723   3.168   1.382   0.545
  608SOL    HW2 2724   3.093   1.238   0.526
  609SOL     OW 2725   3.920   3.122   2.551
  609SOL    HW1 2726   3.882   3.099   2.641
  609SOL    HW2 2727   4.017   3.141   2.561
  610SOL     OW 2728   5.146   2.800   1.993
  610SOL    HW1 2729   5.067   2.858   2.014
  610SOL    HW2 2730   5.138   2.714   2.043
  611SOL     OW 2731   3.704   1.780   2.253
  611SOL    HW1 2732   3.624   1.728   2.223
  611SOL    HW2 2733   3.728   1.847   2.184
  612SOL     OW 2734   4.432   5.143   4.450
  612SOL    HW1 2735   4.355   5.197   4.482
  612SOL    HW2 2736   4.514   5.165   4.503
  613SOL     OW 2737   3.629   5.306   6.009
  613SOL    HW1 2738   3.571   5.234   6.048
  613SOL    HW2 2739   3.637   5.380   6.075
  614SOL     OW 2740   3.495   6.144   5.947
  614SOL    HW1 2741   3.418   6.194   5.987
  614SOL    HW2 2742   3.464   6.057   5.910
  615SOL     OW 2743   6.773   5.050   3.777
  615SOL    HW1 2744   6.853   5.110   3.766
  615SOL    HW2 2745   6.735   5.061   3.868
  616SOL     OW 2746   5.826   2.614   4.051
  616SOL    HW1 2747   5.836   2.710   4.080
  616SOL    HW2 2748   5.845   2.554   4.128
  617SOL     OW 2749   2.261   0.415   6.306
  617SOL    HW1 2750   2.261   0.514   6.296
  617SOL    HW2 2751   2.174   0.378   6.273
  618SOL     OW 2752   2.239   0.638   2.813
  618SOL    HW1 2753   2.167   0.607   2.750
  618SOL    HW2 2754   2.327   0.638   2.766
  619SOL     OW 2755   1.233   2.478   6.788
  619SOL    HW1 2756   1.172   2.399   6.789
  619SOL    HW2 2757   1.219   2.528   6.702
  620SOL     OW 2758   4.347   3.815   0.591
  620SOL    HW1 2759   4.304   3.729   0.564
  620SOL    HW2 2760   4.387   3.806   0.682
  621SOL     OW 2761   6.945   6.134   1.103
  621SOL    HW1 2762   7.001   6.216   1.110
  621SOL    HW2 2763   6.984   6.062   1.160
  622SOL     OW 2764   0.869   1.195   6.968
  622SOL    HW1 2765   0.860   1.249   6.885
  622SOL    HW2 2766   0.863   1.098   6.946
  623SOL     OW 2767   6.704   5.707   5.206
  623SOL    HW1 2768   6.703   5.746   5.114
  623SOL    HW2 2769   6.623   5.738   5.256
  624SOL     OW 2770   0.428   1.747   1.467
  624SOL    HW1 2771   0.460   1.690   1.391
  624SOL    HW2 2772   0.405   1.689   1.545
  625SOL     OW 2773   1.413   1.274   1.900
  625SOL    HW1 2774   1.329   1.228   1.930
  625SOL    HW2 2775   1.438   1.241   1.809
  626SOL     OW 2776   3.491   5.503   4.759
  626SOL    HW1 2777   3.574   5.542   4.798
  626SOL    HW2 2778   3.413   5.527   4.815
  627SOL     OW 2779   4.352   5.971   0.149
  627SOL    HW1 2780   4.267   5.922   0.133
  627SOL    HW2 2781   4.394   5.995   0.062
  628SOL     OW 2782   4.945   3.578   3.439
  628SOL    HW1 2783   4.956   3.512   3.364
  628SOL    HW2 2784   4.924   3.668   3.401
  629SOL     OW 2785   1.724   6.988   1.113
  629SOL    HW1 2786   1.760   6.928   1.041
  629SOL    HW2 2787   1.624   6.993   1.104
  630SOL     OW 2788   2.414   0.912   2.240
  630SOL    HW1 2789   2.477   0.845   2.282
  630SOL    HW2 2790   2.353   0.864   2.178
  631SOL     OW 2791   2.316   1.425   4.009
  631SOL    HW1 2792   2.240   1.487   4.032
  631SOL    HW2 2793   2.339   1.370   4.089
  632SOL     OW 2794   2.874   0.298   0.472
  632SOL    HW1 2795   2.858   0.216   0.527
  632SOL    HW2 2796   2.920   0.367   0.527
  633SOL     OW 2797   2.077   0.259   4.943
  633SOL    HW1 2798   2.033   0.311   4.870
  633SOL    HW2 2799   2.103   0.169   4.909
  634SOL     OW 2800   3.165   5.648   1.993
  634SOL    HW1 2801   3.164   5.584   1.915
  634SOL    HW2 2802   3.220   5.608   2.067
  635SOL     OW 2803   3.146   0.152   2.117
  635SOL    HW1 2804   3.135   0.060   2.155
  635SOL    HW2 2805   3.058   0.184   2.083
  636SOL     OW 2806   4.921   4.789   6.393
  636SOL    HW1 2807   4.961   4.881   6.402
  636SOL    HW2 2808   4.822   4.795   6.406
  637SOL     OW 2809   5.883   5.073   6.334
  637SOL    HW1 2810   5.784   5.072   6.350
  637SOL    HW2 2811   5.909   4.995   6.278
  638SOL     OW 2812   5.741   1.681   3.334
  638SOL    HW1 2813   5.838   1.657   3.324
  638SOL    HW2 2814   5.686   1.597   3.334
  639SOL     OW 2815   3.856   3.778   1.767
  639SOL    HW1 2816   3.760   3.793   1.790
  639SOL    HW2 2817   3.914   3.840   1.820
  640SOL     OW 2818   2.817   2.342   5.270
  640SOL    HW1 2819   2.914   2.366   5.272
  640SOL    HW2 2820   2.778   2.352   5.362
  641SOL     OW 2821   0.102   6.889   4.577
  641SOL    HW1 2822   0.078   6.986   4.568
  641SOL    HW2 2823   0.026   6.841   4.622
  642SOL     OW 2824   0.408   4.532   5.926
  642SOL    HW1 2825   0.505   4.509   5.917
  642SOL    HW2 2826   0.355   4.448   5.937
  643SOL     OW 2827   5.693   6.130   4.768
  643SOL    HW1 2828   5.672   6.211   4.823
  643SOL    HW2 2829   5.647   6.138   4.679
  644SOL     OW 2830   3.169   6.412   1.581
  644SOL    HW1 2831   3.110   6.489   1.554
  644SOL    HW2 2832   3.263   6.445   1.593
  645SOL     OW 2833   0.730   2.889   2.934
  645SOL    HW1 2834   0.729   2.932   2.844
  645SOL    HW2 2835   0.819   2.903   2.977
  646SOL     OW 2836   1.730   3.087   4.239
  646SOL    HW1 2837   1.761   3.142   4.316
  646SOL    HW2 2838   1.716   3.146   4.159
  647SOL     OW 2839   5.784   4.640   0.487
  647SOL    HW1 2840   5.762   4.640   0.390
  647SOL    HW2 2841   5.862   4.579   0.504
  648SOL     OW 2842   4.294   2.333   3.917
  648SOL    HW1 2843   4.208   2.284   3.906
  648SOL    HW2 2844   4.333   2.354   3.827
  649SOL     OW 2845   4.246   4.317   1.453
  649SOL    HW1 2846   4.203   4.294   1.541
  649SOL    HW2 2847   4.265   4.415   1.451
  650SOL     OW 2848   5.683   4.917   0.337
  650SOL    HW1 2849   5.616   4.917   0.412
  650SOL    HW2 2850   5.771   4.950   0.371
  651SOL     OW 2851   1.344   5.752   6.383
  651SOL    HW1 2852   1.392   5.702   6.311
  651SOL    HW2 2853   1.260   5.703   6.408
  652SOL     OW 2854   5.017   2.512   1.448
  652SOL    HW1 2855   4.969   2.508   1.361
  652SOL    HW2 2856   5.108   2.550   1.434
  653SOL     OW 2857   3.467   5.504   2.434
  653SOL    HW1 2858   3.465   5.408   2.406
  653SOL    HW2 2859   3.517   5.513   2.520
  654SOL     OW 2860   6.997   5.144   6.828
  654SOL    HW1 2861   0.071   5.132   6.806
  654SOL    HW2 2862   6.972   5.085   6.905
  655SOL     OW 2863   1.650   1.765   0.265
  655SOL    HW1 2864   1.705   1.838   0.225
  655SOL    HW2 2865   1.684   1.677   0.233
  656SOL     OW 2866   1.920   6.625   1.146
  656SOL    HW1 2867   1.908   6.649   1.242
  656SOL    HW2 2868   1.923   6.525   1.136
  657SOL     OW 2869   3.954   0.320   0.204
  657SOL    HW1 2870   4.048   0.286   0.193
  657SOL    HW2 2871   3.944   0.405   0.153
  658SOL     OW 2872   3.492   5.439   0.054
  658SOL    HW1 2873   3.557   5.398   7.013
  658SOL    HW2 2874   3.470   5.532   0.024
  659SOL     OW 2875   3.754   0.200   6.220
  659SOL    HW1 2876   3.689   0.158   6.282
  659SOL    HW2 2877   3.822   0.252   6.272
  660SOL     OW 2878   2.940   6.663   3.408
  660SOL    HW1 2879   2.922   6.565   3.409
  660SOL    HW2 2880   3.033   6.680   3.438
  661SOL     OW 2881   6.403   4.698   2.788
  661SOL    HW1 2882   6.460   4.647   2.723
  661SOL    HW2 2883   6.402   4.795   2.762
  662SOL     OW 2884   4.540   2.222   7.013
  662SOL    HW1 2885   4.561   2.132   0.029
  662SOL    HW2 2886   4.448   2.223   6.975
  663SOL     OW 2887   1.101   4.318   4.593
  663SOL    HW1 2888   1.197   4.338   4.571
  663SOL    HW2 2889   1.074   4.373   4.672
  664SOL     OW 2890   5.722   0.040   6.442
  664SOL    HW1 2891   5.753   7.013   6.523
  664SOL    HW2 2892   5.625   0.019   6.426
  665SOL     OW 2893   1.608   3.939   2.190
  665SOL    HW1 2894   1.532   3.891   2.235
  665SOL    HW2 2895   1.630   3.894   2.104
  666SOL     OW 2896   4.060   0.709   2.685
  666SOL    HW1 2897   4.054   0.636   2.617
  666SOL    HW2 2898   4.110   0.675   2.765
  667SOL     OW 2899   0.577   0.477   1.380
  667SOL    HW1 2900   0.669   0.451   1.351
  667SOL    HW2 2901   0.530   0.524   1.306
  668SOL     OW 2902   5.315   3.143   6.962
  668SOL    HW1 2903   5.321   3.043   6.966
  668SOL    HW2 2904   5.395   3.179   6.915
  669SOL     OW 2905   5.071   1.566   3.215
  669SOL    HW1 2906   5.078   1.567   3.115
  669SOL    HW2 2907   5.012   1.641   3.245
  670SOL     OW 2908   4.069   2.212   2.299
  670SOL    HW1 2909   4.023   2.180   2.382
  670SOL    HW2 2910   4.006   2.207   2.222
  671SOL     OW 2911   1.150   5.699   1.730
  671SOL    HW1 2912   1.182   5.604   1.736
  671SOL    HW2 2913   1.057   5.700   1.693
  672SOL     OW 2914   0.641   0.115   1.135
  672SOL    HW1 2915   0.566   0.092   1.073
  672SOL    HW2 2916   0.611   0.104   1.230
  673SOL     OW 2917   6.246   7.019   6.524
  673SOL    HW1 2918   6.177   0.034   6.586
  673SOL    HW2 2919   6.269   0.065   6.454
  674SOL     OW 2920   5.328   6.942   4.359
  674SOL    HW1 2921   5.410   6.987   4.324
  674SOL    HW2 2922   5.348   6.846   4.378
  675SOL     OW 2923   1.026   4.922   2.213
  675SOL    HW1 2924   0.964   4.998   2.237
  675SOL    HW2 2925   1.050   4.929   2.116
  676SOL     OW 2926   2.387   5.813   6.591
  676SOL    HW1 2927   2.354   5.841   6.681
  676SOL    HW2 2928   2.478   5.852   6.575
  677SOL     OW 2929   5.752   0.705   1.541
  677SOL    HW1 2930   5.684   0.777   1.531
  677SOL    HW2 2931   5.746   0.643   1.462
  678SOL     OW 2932   0.859   5.221   4.132
  678SOL    HW1 2933   0.772   5.211   4.178
  678SOL    HW2 2934   0.862   5.310   4.085
  679SOL     OW 2935   4.999   1.474   5.704
  679SOL    HW1 2936   4.953   1.540   5.764
  679SOL    HW2 2937   4.996   1.508   5.610
  680SOL     OW 2938   6.067   6.574   4.268
  680SOL    HW1 2939   5.992   6.526   4.223
  680SOL    HW2 2940   6.154   6.532   4.242
  681SOL     OW 2941   4.205   4.736   2.704
  681SOL    HW1 2942   4.272   4.676   2.661
  681SOL    HW2 2943   4.121   4.739   2.649
  682SOL     OW 2944   6.368   1.226   2.748
  682SOL    HW1 2945   6.378   1.129   2.771
  682SOL    HW2 2946   6.296   1.237   2.680
  683SOL     OW 2947   3.192   5.129   7.012
  683SOL    HW1 2948   3.273   5.072   6.996
  683SOL    HW2 2949   3.211   5.194   0.062
  684SOL     OW 2950   6.268   1.900   6.272
  684SOL    HW1 2951   6.286   1.997   6.290
  684SOL    HW2 2952   6.317   1.872   6.189
  685SOL     OW 2953   3.135   6.858   3.746
  685SOL    HW1 2954   3.154   6.949   3.708
  685SOL    HW2 2955   3.206   6.834   3.812
  686SOL     OW 2956   3.531   0.093   5.491
  686SOL    HW1 2957   3.630   0.086   5.504
  686SOL    HW2 2958   3.491   0.146   5.566
  687SOL     OW 2959   6.957   0.867   4.411
  687SOL    HW1 2960   6.988   0.910   4.496
  687SOL    HW2 2961   6.927   0.938   4.347
  688SOL     OW 2962   5.131   3.544   7.010
  688SOL    HW1 2963   5.175   3.514   6.926
  688SOL    HW2 2964   5.179   3.624   0.024
  689SOL     OW 2965   2.583   5.583   0.197
  689SOL    HW1 2966   2.540   5.671   0.219
  689SOL    HW2 2967   2.681   5.597   0.181
  690SOL     OW 2968   5.758   3.827   4.126
  690SOL    HW1 2969   5.761   3.773   4.210
  690SOL    HW2 2970   5.662   3.846   4.102
  691SOL     OW 2971   5.615   1.038   2.284
  691SOL    HW1 2972   5.543   1.108   2.290
  691SOL    HW2 2973   5.573   0.947   2.281
  692SOL     OW 2974   1.077   0.033   3.329
  692SOL    HW1 2975   1.078   0.020   3.229
  692SOL    HW2 2976   1.144   0.103   3.354
  693SOL     OW 2977   5.919   4.060   2.555
  693SOL    HW1 2978   5.994   4.125   2.563
  693SOL    HW2 2979   5.838   4.106   2.518
  694SOL     OW 2980   4.466   4.666   4.469
  694SOL    HW1 2981   4.560   4.664   4.435
  694SOL    HW2 2982   4.458   4.608   4.550
  695SOL     OW 2983   4.613   6.770   3.898
  695SOL    HW1 2984   4.588   6.751   3.993
  695SOL    HW2 2985   4.638   6.685   3.852
  696SOL     OW 2986   6.419   4.376   1.731
  696SOL    HW1 2987   6.398   4.282   1.705
  696SOL    HW2 2988   6.403   4.437   1.653
  697SOL     OW 2989   0.301   6.155   2.868
  697SOL    HW1 2990   0.264   6.176   2.777
  697SOL    HW2 2991   0.349   6.068   2.865
  698SOL     OW 2992   5.825   6.099   6.009
  698SOL    HW1 2993   5.831   6.158   6.089
  698SOL    HW2 2994   5.830   6.155   5.926
  699SOL     OW 2995   4.041   2.958   0.872
  699SOL    HW1 2996   3.954   3.007   0.876
  699SOL    HW2 2997   4.087   2.964   0.960
  700SOL     OW 2998   3.883   6.453   5.408
  700SOL    HW1 2999   3.970   6.496   5.432
  700SOL    HW2 3000   3.878   6.443   5.308
  701SOL     OW 3001   4.483   4.587   1.937
  701SOL    HW1 3002   4.556   4.655   1.937
  701SOL    HW2 3003   4.523   4.496   1.944
  702SOL     OW 3004   4.197   0.612   4.995
  702SOL    HW1 3005   4.125   0.544   5.008
  702SOL    HW2 3006   4.244   0.596   4.909
  703SOL     OW 3007   3.825   2.782   0.699
  703SOL    HW1 3008   3.860   2.784   0.605
  703SOL    HW2 3009   3.727   2.802   0.699
  704SOL     OW 3010   3.765   1.634   0.391
  704SOL    HW1 3011   3.678   1.601   0.426
  704SOL    HW2 3012   3.791   1.718   0.439
  705SOL     OW 3013   0.157   6.430   5.651
  705SOL    HW1 3014   0.060   6.455   5.654
  705SOL    HW2 3015   0.193   6.450   5.560
  706SOL     OW 3016   4.038   0.199   5.017
  706SOL    HW1 3017   3.941   0.191   4.995
  706SOL    HW2 3018   4.086   0.245   4.942
  707SOL     OW 3019   3.280   5.091   4.115
  707SOL    HW1 3020   3.250   5.186   4.116
  707SOL    HW2 3021   3.216   5.034   4.166
  708SOL     OW 3022   3.166   6.238   3.970
  708SOL    HW1 3023   3.166   6.310   3.902
  708SOL    HW2 3024   3.258   6.227   4.008
  709SOL     OW 3025   2.065   7.012   1.889
  709SOL    HW1 3026   2.157   6.974   1.890
  709SOL    HW2 3027   2.037   0.009   1.795
  710SOL     OW 3028   4.785   2.976   2.793
  710SOL    HW1 3029   4.730   3.048   2.749
  710SOL    HW2 3030   4.798   2.999   2.889
  711SOL     OW 3031   6.976   1.370   1.101
  711SOL    HW1 3032   6.910   1.298   1.124
  711SOL    HW2 3033   0.036   1.328   1.064
  712SOL     OW 3034   5.012   4.024   0.217
  712SOL    HW1 3035   5.081   3.982   0.158
  712SOL    HW2 3036   5.039   4.118   0.238
  713SOL     OW 3037   4.157   2.792   6.054
  713SOL    HW1 3038   4.079   2.851   6.034
  713SOL    HW2 3039   4.153   2.763   6.149
  714SOL     OW 3040   4.439   6.645   2.980
  714SOL    HW1 3041   4.435   6.550   2.949
  714SOL    HW2 3042   4.360   6.695   2.945
  715SOL     OW 3043   6.120   4.262   5.549
  715SOL    HW1 3044   6.213   4.274   5.584
  715SOL    HW2 3045   6.100   4.164   5.540
  716SOL     OW 3046   3.461   1.797   3.787
  716SOL    HW1 3047   3.445   1.783   3.689
  716SOL    HW2 3048   3.462   1.895   3.807
  717SOL     OW 3049   4.899   5.050   3.623
  717SOL    HW1 3050   4.931   5.035   3.530
  717SOL    HW2 3051   4.962   5.006   3.688
  718SOL     OW 3052   6.704   1.673   5.269
  718SOL    HW1 3053   6.618   1.647   5.314
  718SOL    HW2 3054   6.686   1.692   5.172
  719SOL     OW 3055   4.746   5.728   2.524
  719SOL    HW1 3056   4.810   5.708   2.598
  719SOL    HW2 3057   4.705   5.643   2.493
  720SOL     OW 3058   3.048   1.680   1.216
  720SOL    HW1 3059   3.067   1.766   1.170
  720SOL    HW2 3060   2.956   1.648   1.191
  721SOL     OW 3061   0.306   2.964   2.284
  721SOL    HW1 3062   0.317   3.057   2.318
  721SOL    HW2 3063   0.278   2.904   2.359
  722SOL     OW 3064   5.628   6.391   1.868
  722SOL    HW1 3065   5.618   6.292   1.863
  722SOL    HW2 3066   5.540   6.434   1.849
  723SOL     OW 3067   2.023   0.731   4.458
  723SOL    HW1 3068   2.017   0.713   4.359
  723SOL    HW2 3069   1.971   0.814   4.479
  724SOL     OW 3070   1.426   2.853   4.875
  724SOL    HW1 3071   1.382   2.848   4.965
  724SOL    HW2 3072   1.516   2.896   4.884
  725SOL     OW 3073   1.796   4.021   3.456
  725SOL    HW1 3074   1.845   3.976   3.382
  725SOL    HW2 3075   1.749   3.952   3.512
  726SOL     OW 3076   2.183   3.833   0.415
  726SOL    HW1 3077   2.251   3.770   0.452
  726SOL    HW2 3078   2.095   3.786   0.407
  727SOL     OW 3079   3.750   5.240   4.640
  727SOL    HW1 3080   3.673   5.286   4.685
  727SOL    HW2 3081   3.808   5.308   4.596
  728SOL     OW 3082   6.049   3.603   3.385
  728SOL    HW1 3083   6.080   3.676   3.324
  728SOL    HW2 3084   5.950   3.607   3.394
  729SOL     OW 3085   0.787   5.184   0.440
  729SOL    HW1 3086   0.751   5.174   0.347
  729SOL    HW2 3087   0.733   5.127   0.503
  730SOL     OW 3088   4.133   1.657   3.290
  730SOL    HW1 3089   4.138   1.716   3.209
  730SOL    HW2 3090   4.185   1.699   3.365
  731SOL     OW 3091   4.846   4.317   4.832
  731SOL    HW1 3092   4.824   4.232   4.879
  731SOL    HW2 3093   4.944   4.319   4.811
  732SOL     OW 3094   4.460   0.704   4.306
  732SOL    HW1 3095   4.533   0.636   4.304
  732SOL    HW2 3096   4.466   0.763   4.226
  733SOL     OW 3097   0.493   4.959   4.173
  733SOL    HW1 3098   0.509   5.048   4.131
  733SOL    HW2 3099   0.508   4.887   4.105
  734SOL     OW 3100   5.916   5.860   3.262
  734SOL    HW1 3101   5.892   5.810   3.179
  734SOL    HW2 3102   5.837   5.914   3.293
  735SOL     OW 3103   4.410   0.674   2.819
  735SOL    HW1 3104   4.334   0.609   2.820
  735SOL    HW2 3105   4.482   0.643   2.881
  736SOL     OW 3106   1.770   2.064   3.862
  736SOL    HW1 3107   1.803   2.120   3.787
  736SOL    HW2 3108   1.681   2.025   3.838
  737SOL     OW 3109   3.299   1.105   6.126
  737SOL    HW1 3110   3.395   1.119   6.150
  737SOL    HW2 3111   3.288   1.016   6.082
  738SOL     OW 3112   1.653   5.346   0.220
  738SOL    HW1 3113   1.681   5.388   0.306
  738SOL    HW2 3114   1.574   5.287   0.236
  739SOL     OW 3115   1.731   0.603   3.283
  739SOL    HW1 3116   1.756   0.645   3.195
  739SOL    HW2 3117   1.701   0.509   3.267
  740SOL     OW 3118   4.719   2.676   2.757
  740SOL    HW1 3119   4.698   2.768   2.790
  740SOL    HW2 3120   4.712   2.674   2.657
  741SOL     OW 3121   3.156   1.693   2.819
  741SOL    HW1 3122   3.130   1.596   2.817
  741SOL    HW2 3123   3.174   1.724   2.726
  742SOL     OW 3124   2.311   0.536   2.337
  742SOL    HW1 3125   2.242   0.607   2.354
  742SOL    HW2 3126   2.269   0.460   2.287
  743SOL     OW 3127   7.005   6.645   2.911
  743SOL    HW1 3128   0.034   6.583   2.852
  743SOL    HW2 3129   0.046   6.705   2.960
  744SOL     OW 3130   5.441   1.469   1.031
  744SOL    HW1 3131   5.523   1.433   0.984
  744SOL    HW2 3132   5.427   1.564   1.003
  745SOL     OW 3133   1.759   0.012   5.640
  745SOL    HW1 3134   1.757   6.998   5.547
  745SOL    HW2 3135   1.778   0.110   5.638
  746SOL     OW 3136   6.151   5.832   4.758
  746SOL    HW1 3137   6.055   5.804   4.762
  746SOL    HW2 3138   6.156   5.927   4.725
  747SOL     OW 3139   3.691   5.190   2.418
  747SOL    HW1 3140   3.620   5.196   2.489
  747SOL    HW2 3141   3.681   5.266   2.355
  748SOL     OW 3142   6.075   4.909   2.268
  748SOL    HW1 3143   6.103   4.907   2.172
  748SOL    HW2 3144   6.053   5.003   2.294
  749SOL     OW 3145   4.778   4.155   4.388
  749SOL    HW1 3146   4.873   4.146   4.420
  749SOL    HW2 3147   4.723   4.080   4.426
  750SOL     OW 3148   2.665   2.013   3.109
  750SOL    HW1 3149   2.685   1.993   3.013
  750SOL    HW2 3150   2.743   2.061   3.149
  751SOL     OW 3151   3.882   0.089   0.518
  751SOL    HW1 3152   3.856   0.034   0.596
  751SOL    HW2 3153   3.971   0.058   0.483
  752SOL     OW 3154   3.135   3.055   4.662
  752SOL    HW1 3155   3.101   3.102   4.581
  752SOL    HW2 3156   3.177   2.968   4.635
  753SOL     OW 3157   3.719   3.761   3.529
  753SOL    HW1 3158   3.799   3.820   3.540
  753SOL    HW2 3159   3.735   3.696   3.455
  754SOL     OW 3160   4.668   0.617   6.771
  754SOL    HW1 3161   4.586   0.590   6.720
  754SOL    HW2 3162   4.748   0.571   6.733
  755SOL     OW 3163   4.655   4.203   5.175
  755SOL    HW1 3164   4.605   4.184   5.260
  755SOL    HW2 3165   4.604   4.270   5.121
  756SOL     OW 3166   3.140   5.624   5.883
  756SOL    HW1 3167   3.215   5.677   5.843
  756SOL    HW2 3168   3.076   5.597   5.811
  757SOL     OW 3169   1.372   6.858   1.805
  757SOL    HW1 3170   1.379   6.933   1.739
  757SOL    HW2 3171   1.461   6.813   1.814
  758SOL     OW 3172   3.878   1.320   5.010
  758SOL    HW1 3173   3.886   1.351   5.105
  758SOL    HW2 3174   3.811   1.376   4.962
  759SOL     OW 3175   7.016   2.825   3.642
  759SOL    HW1 3176   7.013   2.896   3.572
  759SOL    HW2 3177   0.051   2.750   3.611
  760SOL     OW 3178   0.029   5.683   4.317
  760SOL    HW1 3179   0.112   5.645   4.277
  760SOL    HW2 3180   0.008   5.636   4.403
  761SOL     OW 3181   4.975   4.862   5.979
  761SOL    HW1 3182   5.059   4.916   5.979
  761SOL    HW2 3183   4.916   4.891   6.055
  762SOL     OW 3184   4.109   5.929   3.418
  762SOL    HW1 3185   4.137   5.835   3.439
  762SOL    HW2 3186   4.029   5.927   3.358
  763SOL     OW 3187   5.645   1.425   0.645
  763SOL    HW1 3188   5.692   1.495   0.592
  763SOL    HW2 3189   5.663   1.440   0.743
  764SOL     OW 3190   5.336   6.183   4.812
  764SOL    HW1 3191   5.348   6.083   4.806
  764SOL    HW2 3192   5.333   6.210   4.908
  765SOL     OW 3193   5.671   6.216   0.407
  765SOL    HW1 3194   5.751   6.157   0.419
  765SOL    HW2 3195   5.700   6.307   0.378
  766SOL     OW 3196   2.329   1.805   3.954
  766SOL    HW1 3197   2.377   1.883   3.996
  766SOL    HW2 3198   2.265   1.766   4.020
  767SOL     OW 3199   6.689   5.803   3.238
  767SOL    HW1 3200   6.720   5.887   3.283
  767SOL    HW2 3201   6.626   5.755   3.299
  768SOL     OW 3202   2.830   5.588   1.612
  768SOL    HW1 3203   2.773   5.508   1.594
  768SOL    HW2 3204   2.881   5.575   1.697
  769SOL     OW 3205   3.524   1.625   5.424
  769SOL    HW1 3206   3.488   1.535   5.400
  769SOL    HW2 3207   3.465   1.667   5.493
  770SOL     OW 3208   0.711   4.781   5.860
  770SOL    HW1 3209   0.738   4.700   5.808
  770SOL    HW2 3210   0.789   4.843   5.869
  771SOL     OW 3211   1.360   4.818   2.504
  771SOL    HW1 3212   1.379   4.753   2.577
  771SOL    HW2 3213   1.273   4.863   2.521
  772SOL     OW 3214   6.251   4.777   0.380
  772SOL    HW1 3215   6.245   4.693   0.327
  772SOL    HW2 3216   6.202   4.851   0.333
  773SOL     OW 3217   1.877   5.039   4.476
  773SOL    HW1 3218   1.910   5.130   4.452
  773SOL    HW2 3219   1.786   5.024   4.436
  774SOL     OW 3220   1.876   2.275   3.685
  774SOL    HW1 3221   1.839   2.366   3.703
  774SOL    HW2 3222   1.976   2.280   3.681
  775SOL     OW 3223   0.659   4.258   2.248
  775SOL    HW1 3224   0.677   4.193   2.174
  775SOL    HW2 3225   0.615   4.340   2.210
  776SOL     OW 3226   3.051   4.913   7.019
  776SOL    HW1 3227   3.082   5.007   0.008
  776SOL    HW2 3228   3.108   4.866   6.952
  777SOL     OW 3229   1.922   3.734   6.531
  777SOL    HW1 3230   1.890   3.700   6.619
  777SOL    HW2 3231   2.003   3.791   6.545
  778SOL     OW 3232   3.627   5.299   6.868
  778SOL    HW1 3233   3.552   5.324   6.808
  778SOL    HW2 3234   3.714   5.323   6.825
  779SOL     OW 3235   5.849   1.875   3.520
  779SOL    HW1 3236   5.782   1.923   3.576
  779SOL    HW2 3237   5.806   1.796   3.476
  780SOL     OW 3238   5.944   1.628   4.619
  780SOL    HW1 3239   6.019   1.652   4.558
  780SOL    HW2 3240   5.859   1.620   4.567
  781SOL     OW 3241   0.647   5.166   6.377
  781SOL    HW1 3242   0.700   5.240   6.418
  781SOL    HW2 3243   0.609   5.109   6.449
  782SOL     OW 3244   2.057   4.292   5.396
  782SOL    HW1 3245   2.060   4.391   5.387
  782SOL    HW2 3246   2.146   4.253   5.371
  783SOL     OW 3247   6.961   4.980   6.176
  783SOL    HW1 3248   6.922   4.996   6.267
  783SOL    HW2 3249   0.038   4.977   6.183
  784SOL     OW 3250   2.103   5.957   6.126
  784SOL    HW1 3251   2.176   5.930   6.188
  784SOL    HW2 3252   2.107   6.056   6.110
  785SOL     OW 3253   0.409   0.007   3.742
  785SOL    HW1 3254   0.501   0.014   3.781
  785SOL    HW2 3255   0.346   6.999   3.813
  786SOL     OW 3256   6.087   1.081   4.745
  786SOL    HW1 3257   6.101   1.090   4.843
  786SOL    HW2 3258   6.157   1.021   4.707
  787SOL     OW 3259   2.177   6.689   0.486
  787SOL    HW1 3260   2.139   6.700   0.578
  787SOL    HW2 3261   2.262   6.740   0.479
  788SOL     OW 3262   2.133   3.251   2.244
  788SOL    HW1 3263   2.150   3.197   2.162
  788SOL    HW2 3264   2.206   3.319   2.256
  789SOL     OW 3265   3.396   5.236   2.561
  789SOL    HW1 3266   3.321   5.205   2.619
  789SOL    HW2 3267   3.400   5.179   2.479
  790SOL     OW 3268   0.076   3.243   2.397
  790SOL    HW1 3269   0.113   3.275   2.310
  790SOL    HW2 3270   7.000   3.253   2.398
  791SOL     OW 3271   3.508   1.538   3.474
  791SOL    HW1 3272   3.453   1.457   3.457
  791SOL    HW2 3273   3.594   1.531   3.424
  792SOL     OW 3274   2.517   0.587   0.389
  792SOL    HW1 3275   2.558   0.497   0.407
  792SOL    HW2 3276   2.495   0.594   0.291
  793SOL     OW 3277   1.928   5.800   4.584
  793SOL    HW1 3278   1.873   5.871   4.627
  793SOL    HW2 3279   1.906   5.794   4.487
  794SOL     OW 3280   3.168   3.576   2.485
  794SOL    HW1 3281   3.246   3.513   2.480
  794SOL    HW2 3282   3.196   3.665   2.450
  795SOL     OW 3283   4.369   6.657   5.445
  795SOL    HW1 3284   4.451   6.657   5.502
  795SOL    HW2 3285   4.356   6.748   5.405
  796SOL     OW 3286   1.116   2.651   6.448
  796SOL    HW1 3287   1.199   2.617   6.404
  796SOL    HW2 3288   1.044   2.583   6.441
  797SOL     OW 3289   3.411   6.912   0.835
  797SOL    HW1 3290   3.510   6.899   0.843
  797SOL    HW2 3291   3.389   6.948   0.744
  798SOL     OW 3292   4.999   4.210   1.668
  798SOL    HW1 3293   5.056   4.258   1.735
  798SOL    HW2 3294   5.038   4.221   1.577
  799SOL     OW 3295   3.772   3.361   5.244
  799SOL    HW1 3296   3.845   3.347   5.176
  799SOL    HW2 3297   3.688   3.387   5.197
  800SOL     OW 3298   5.553   3.181   3.063
  800SOL    HW1 3299   5.463   3.220   3.080
  800SOL    HW2 3300   5.556   3.143   2.971
  801SOL     OW 3301   2.146   5.379   6.688
  801SOL    HW1 3302   2.092   5.462   6.674
  801SOL    HW2 3303   2.229   5.402   6.739
  802SOL     OW 3304   4.072   2.401   5.892
  802SOL    HW1 3305   3.995   2.421   5.832
  802SOL    HW2 3306   4.041   2.344   5.968
  803SOL     OW 3307   2.740   2.317   3.317
  803SOL    HW1 3308   2.705   2.369   3.238
  803SOL    HW2 3309   2.805   2.248   3.285
  804SOL     OW 3310   4.764   6.856   3.143
  804SOL    HW1 3311   4.725   6.943   3.173
  804SOL    HW2 3312   4.790   6.863   3.046
  805SOL     OW 3313   3.685   1.756   3.933
  805SOL    HW1 3314   3.720   1.663   3.943
  805SOL    HW2 3315   3.585   1.755   3.938
  806SOL     OW 3316   4.356   5.805   6.353
  806SOL    HW1 3317   4.274   5.776   6.402
  806SOL    HW2 3318   4.331   5.868   6.280
  807SOL     OW 3319   1.126   6.585   6.352
  807SOL    HW1 3320   1.204   6.627   6.399
  807SOL    HW2 3321   1.092   6.647   6.282
  808SOL     OW 3322   5.339   2.267   6.036
  808SOL    HW1 3323   5.366   2.361   6.017
  808SOL    HW2 3324   5.365   2.209   5.959
  809SOL     OW 3325   3.126   6.542   6.009
  809SOL    HW1 3326   3.046   6.493   6.043
  809SOL    HW2 3327   3.098   6.629   5.970
  810SOL     OW 3328   4.158   4.026   6.748
  810SOL    HW1 3329   4.123   3.949   6.695
  810SOL    HW2 3330   4.244   3.999   6.793
  811SOL     OW 3331   5.556   5.439   5.054
  811SOL    HW1 3332   5.630   5.505   5.067
  811SOL    HW2 3333   5.481   5.483   5.004
  812SOL     OW 3334   1.265   2.740   0.917
  812SOL    HW1 3335   1.230   2.652   0.884
  812SOL    HW2 3336   1.246   2.748   1.015
  813SOL     OW 3337   3.191   1.865   5.399
  813SOL    HW1 3338   3.219   1.833   5.308
  813SOL    HW2 3339   3.266   1.916   5.441
  814SOL     OW 3340   0.414   4.768   1.355
  814SOL    HW1 3341   0.511   4.794   1.362
  814SOL    HW2 3342   0.358   4.851   1.348
  815SOL     OW 3343   4.721   0.704   3.942
  815SOL    HW1 3344   4.811   0.678   3.905
  815SOL    HW2 3345   4.705   0.655   4.028
  816SOL     OW 3346   5.371   3.794   6.416
  816SOL    HW1 3347   5.330   3.762   6.330
  816SOL    HW2 3348   5.444   3.859   6.396
  817SOL     OW 3349   6.840   5.297   6.694
  817SOL    HW1 3350   6.751   5.258   6.669
  817SOL    HW2 3351   6.894   5.228   6.743
  818SOL     OW 3352   6.280   0.983   5.668
  818SOL    HW1 3353   6.300   0.988   5.766
  818SOL    HW2 3354   6.286   0.888   5.637
  819SOL     OW 3355   5.738   3.757   2.021
  819SOL    HW1 3356   5.728   3.677   1.961
  819SOL    HW2 3357   5.831   3.758   2.059
  820SOL     OW 3358   2.447   1.912   5.623
  820SOL    HW1 3359   2.451   1.882   5.718
  820SOL    HW2 3360   2.526   1.876   5.573
  821SOL     OW 3361   5.229   3.129   6.044
  821SOL    HW1 3362   5.154   3.175   5.995
  821SOL    HW2 3363   5.274   3.064   5.982
  822SOL     OW 3364   6.759   4.427   3.382
  822SOL    HW1 3365   6.675   4.374   3.367
  822SOL    HW2 3366   6.794   4.460   3.295
  823SOL     OW 3367   1.842   2.881   4.110
  823SOL    HW1 3368   1.797   2.959   4.153
  823SOL    HW2 3369   1.779   2.839   4.044
  824SOL     OW 3370   5.180   0.577   6.555
  824SOL    HW1 3371   5.253   0.602   6.492
  824SOL    HW2 3372   5.110   0.525   6.507
  825SOL     OW 3373   6.126   5.765   0.980
  825SOL    HW1 3374   6.115   5.851   0.931
  825SOL    HW2 3375   6.170   5.697   0.921
  826SOL     OW 3376   3.627   1.961   0.636
  826SOL    HW1 3377   3.671   2.046   0.666
  826SOL    HW2 3378   3.679   1.921   0.561
  827SOL     OW 3379   3.467   3.331   4.827
  827SOL    HW1 3380   3.450   3.271   4.905
  827SOL    HW2 3381   3.539   3.292   4.769
  828SOL     OW 3382   0.729   6.628   6.231
  828SOL    HW1 3383   0.750   6.551   6.170
  828SOL    HW2 3384   0.720   6.712   6.178
  829SOL     OW 3385   3.841   3.356   1.624
  829SOL    HW1 3386   3.884   3.415   1.693
  829SOL    HW2 3387   3.743   3.374   1.621
  830SOL     OW 3388   6.994   3.600   6.282
  830SOL    HW1 3389   0.007   3.567   6.370
  830SOL    HW2 3390   6.963   3.694   6.292
  831SOL     OW 3391   5.941   1.439   3.219
  831SOL    HW1 3392   5.971   1.506   3.151
  831SOL    HW2 3393   5.920   1.352   3.173
  832SOL     OW 3394   3.283   2.144   4.791
  832SOL    HW1 3395   3.258   2.193   4.875
  832SOL    HW2 3396   3.347   2.071   4.813
  833SOL     OW 3397   3.834   3.009   6.577
  833SOL    HW1 3398   3.891   3.051   6.648
  833SOL    HW2 3399   3.746   3.055   6.573
  834SOL     OW 3400   6.133   3.460   0.749
  834SOL    HW1 3401   6.052   3.484   0.695
  834SOL    HW2 3402   6.106   3.441   0.844
  835SOL     OW 3403   6.384   6.642   5.399
  835SOL    HW1 3404   6.340   6.691   5.324
  835SOL    HW2 3405   6.468   6.599   5.366
  836SOL     OW 3406   5.815   6.639   4.142
  836SOL    HW1 3407   5.821   6.613   4.046
  836SOL    HW2 3408   5.728   6.608   4.180
  837SOL     OW 3409   0.761   0.725   6.618
  837SOL    HW1 3410   0.814   0.695   6.538
  837SOL    HW2 3411   0.673   0.761   6.588
  838SOL     OW 3412   1.348   5.862   3.027
  838SOL    HW1 3413   1.323   5.808   2.947
  838SOL    HW2 3414   1.435   5.830   3.063
  839SOL     OW 3415   1.271   2.481   0.170
  839SOL    HW1 3416   1.354   2.426   0.157
  839SOL    HW2 3417   1.290   2.576   0.145
  840SOL     OW 3418   4.402   5.298   0.368
  840SOL    HW1 3419   4.339   5.376   0.365
  840SOL    HW2 3420   4.495   5.330   0.379
  841SOL     OW 3421   2.966   5.394   6.431
  841SOL    HW1 3422   2.926   5.427   6.517
  841SOL    HW2 3423   3.038   5.458   6.401
  842SOL     OW 3424   4.666   6.725   1.511
  842SOL    HW1 3425   4.614   6.788   1.569
  842SOL    HW2 3426   4.615   6.707   1.427
  843SOL     OW 3427   1.384   0.253   2.106
  843SOL    HW1 3428   1.349   0.326   2.047
  843SOL    HW2 3429   1.479   0.232   2.080
  844SOL     OW 3430   6.965   6.695   1.763
  844SOL    HW1 3431   6.994   6.736   1.849
  844SOL    HW2 3432   6.895   6.626   1.780
  845SOL     OW 3433   3.766   1.436   1.620
  845SOL    HW1 3434   3.836   1.505   1.636
  845SOL    HW2 3435   3.716   1.459   1.536
  846SOL     OW 3436   1.213   1.083   1.213
  846SOL    HW1 3437   1.246   1.030   1.135
  846SOL    HW2 3438   1.290   1.129   1.257
  847SOL     OW 3439   2.491   3.207   1.352
  847SOL    HW1 3440   2.414   3.265   1.380
  847SOL    HW2 3441   2.509   3.220   1.254
  848SOL     OW 3442   6.434   5.986   0.949
  848SOL    HW1 3443   6.455   6.067   0.894
  848SOL    HW2 3444   6.498   5.912   0.926
  849SOL     OW 3445   5.315   3.291   6.242
  849SOL    HW1 3446   5.244   3.320   6.306
  849SOL    HW2 3447   5.274   3.239   6.167
  850SOL     OW 3448   2.016   1.325   4.786
  850SOL    HW1 3449   2.053   1.385   4.716
  850SOL    HW2 3450   2.055   1.347   4.875
  851SOL     OW 3451   5.032   2.596   6.113
  851SOL    HW1 3452   4.962   2.543   6.065
  851SOL    HW2 3453   5.109   2.536   6.137
  852SOL     OW 3454   6.625   4.810   1.784
  852SOL    HW1 3455   6.673   4.793   1.698
  852SOL    HW2 3456   6.535   4.849   1.764
  853SOL     OW 3457   3.447   2.741   0.776
  853SOL    HW1 3458   3.499   2.741   0.691
  853SOL    HW2 3459   3.351   2.724   0.757
  854SOL     OW 3460   6.989   0.080   6.313
  854SOL    HW1 3461   0.057   0.086   6.355
  854SOL    HW2 3462   6.998   0.048   6.218
  855SOL     OW 3463   4.945   2.053   0.169
  855SOL    HW1 3464   4.907   1.994   0.098
  855SOL    HW2 3465   5.009   2.000   0.226
  856SOL     OW 3466   1.928   5.592   1.746
  856SOL    HW1 3467   1.857   5.521   1.748
  856SOL    HW2 3468   2.018   5.550   1.759
  857SOL     OW 3469   0.006   6.326   4.871
  857SOL    HW1 3470   0.105   6.312   4.876
  857SOL    HW2 3471   7.003   6.351   4.778
  858SOL     OW 3472   3.313   4.167   0.226
  858SOL    HW1 3473   3.235   4.219   0.261
  858SOL    HW2 3474   3.287   4.122   0.141
  859SOL     OW 3475   4.577   5.835   5.651
  859SOL    HW1 3476   4.536   5.899   5.715
  859SOL    HW2 3477   4.627   5.764   5.701
  860SOL     OW 3478   4.591   3.107   6.496
  860SOL    HW1 3479   4.668   3.045   6.511
  860SOL    HW2 3480   4.609   3.195   6.541
  861SOL     OW 3481   0.623   5.869   2.394
  861SOL    HW1 3482   0.599   5.832   2.304
  861SOL    HW2 3483   0.594   5.964   2.400
  862SOL     OW 3484   0.983   4.604   3.928
  862SOL    HW1 3485   0.974   4.704   3.931
  862SOL    HW2 3486   0.953   4.565   4.015
  863SOL     OW 3487   5.349   0.350   1.593
  863SOL    HW1 3488   5.393   0.412   1.657
  863SOL    HW2 3489   5.275   0.398   1.545
  864SOL     OW 3490   6.006   4.966   3.174
  864SOL    HW1 3491   6.022   4.996   3.268
  864SOL    HW2 3492   6.010   5.044   3.112
  865SOL     OW 3493   1.360   5.215   4.610
  865SOL    HW1 3494   1.385   5.180   4.700
  865SOL    HW2 3495   1.400   5.305   4.597
  866SOL     OW 3496   4.080   6.997   1.435
  866SOL    HW1 3497   3.985   7.018   1.412
  866SOL    HW2 3498   4.097   0.002   1.530
  867SOL     OW 3499   5.714   3.628   5.100
  867SOL    HW1 3500   5.764   3.586   5.176
  867SOL    HW2 3501   5.753   3.718   5.081
  868SOL     OW 3502   0.882   1.492   2.285
  868SOL    HW1 3503   0.783   1.506   2.274
  868SOL    HW2 3504   0.931   1.541   2.213
  869SOL     OW 3505   0.710   3.141   2.040
  869SOL    HW1 3506   0.644   3.077   2.078
  869SOL    HW2 3507   0.803   3.109   2.060
  870SOL     OW 3508   3.828   4.689   1.682
  870SOL    HW1 3509   3.751   4.658   1.737
  870SOL    HW2 3510   3.893   4.614   1.669
  871SOL     OW 3511   4.526   1.651   3.874
  871SOL    HW1 3512   4.472   1.569   3.892
  871SOL    HW2 3513   4.478   1.710   3.809
  872SOL     OW 3514   1.651   2.753   5.337
  872SOL    HW1 3515   1.667   2.677   5.400
  872SOL    HW2 3516   1.715   2.748   5.261
  873SOL     OW 3517   3.874   0.333   6.429
  873SOL    HW1 3518   3.781   0.339   6.467
  873SOL    HW2 3519   3.922   0.257   6.472
  874SOL     OW 3520   6.319   3.876   2.267
  874SOL    HW1 3521   6.235   3.857   2.317
  874SOL    HW2 3522   6.326   3.974   2.248
  875SOL     OW 3523   5.589   5.299   2.316
  875SOL    HW1 3524   5.649   5.228   2.280
  875SOL    HW2 3525   5.494   5.276   2.296
  876SOL     OW 3526   6.084   1.194   6.019
  876SOL    HW1 3527   6.165   1.240   5.983
  876SOL    HW2 3528   6.006   1.257   6.013
  877SOL     OW 3529   1.516   3.404   6.719
  877SOL    HW1 3530   1.500   3.312   6.756
  877SOL    HW2 3531   1.481   3.408   6.625
  878SOL     OW 3532   4.159   6.469   4.500
  878SOL    HW1 3533   4.191   6.378   4.473
  878SOL    HW2 3534   4.108   6.462   4.585
  879SOL     OW 3535   5.664   6.933   6.119
  879SOL    HW1 3536   5.730   6.990   6.168
  879SOL    HW2 3537   5.577   6.933   6.168
  880SOL     OW 3538   3.408   2.902   3.074
  880SOL    HW1 3539   3.323   2.953   3.086
  880SOL    HW2 3540   3.431   2.854   3.159
  881SOL     OW 3541   4.256   2.333   0.498
  881SOL    HW1 3542   4.190   2.303   0.568
  881SOL    HW2 3543   4.270   2.259   0.432
  882SOL     OW 3544   1.939   2.845   3.255
  882SOL    HW1 3545   1.988   2.920   3.300
  882SOL    HW2 3546   1.909   2.779   3.323
  883SOL     OW 3547   2.574   6.494   2.732
  883SOL    HW1 3548   2.611   6.571   2.783
  883SOL    HW2 3549   2.486   6.520   2.692
  884SOL     OW 3550   2.489   3.366   5.993
  884SOL    HW1 3551   2.546   3.286   5.974
  884SOL    HW2 3552   2.538   3.448   5.963
  885SOL     OW 3553   4.331   3.121   6.467
  885SOL    HW1 3554   4.429   3.113   6.484
  885SOL    HW2 3555   4.284   3.141   6.553
  886SOL     OW 3556   3.631   1.543   6.577
  886SOL    HW1 3557   3.575   1.584   6.505
  886SOL    HW2 3558   3.578   1.470   6.621
  887SOL     OW 3559   4.217   0.949   5.183
  887SOL    HW1 3560   4.170   0.999   5.256
  887SOL    HW2 3561   4.255   1.013   5.117
  888SOL     OW 3562   0.767   0.065   1.998
  888SOL    HW1 3563   0.856   0.095   2.031
  888SOL    HW2 3564   0.702   0.065   2.073
  889SOL     OW 3565   0.413   4.016   0.854
  889SOL    HW1 3566   0.356   4.098   0.860
  889SOL    HW2 3567   0.358   3.939   0.825
  890SOL     OW 3568   2.208   5.840   4.605
  890SOL    HW1 3569   2.109   5.837   4.588
  890SOL    HW2 3570   2.253   5.767   4.554
  891SOL     OW 3571   4.942   4.747   2.298
  891SOL    HW1 3572   4.930   4.697   2.212
  891SOL    HW2 3573   5.038   4.773   2.307
  892SOL     OW 3574   2.335   4.356   0.986
  892SOL    HW1 3575   2.253   4.359   0.929
  892SOL    HW2 3576   2.347   4.263   1.022
  893SOL     OW 3577   1.592   5.212   2.524
  893SOL    HW1 3578   1.618   5.258   2.439
  893SOL    HW2 3579   1.526   5.268   2.573
  894SOL     OW 3580   0.939   4.762   1.320
  894SOL    HW1 3581   0.947   4.663   1.310
  894SOL    HW2 3582   1.026   4.806   1.297
  895SOL     OW 3583   0.026   5.387   4.228
  895SOL    HW1 3584   0.107   5.396   4.287
  895SOL    HW2 3585   6.981   5.329   4.273
  896SOL     OW 3586   0.087   1.055   6.249
  896SOL    HW1 3587   0.109   0.959   6.267
  896SOL    HW2 3588   0.132   1.083   6.164
  897SOL     OW 3589   5.691   0.874   0.979
  897SOL    HW1 3590   5.648   0.792   0.940
  897SOL    HW2 3591   5.687   0.870   1.078
  898SOL     OW 3592   3.954   1.316   3.130
  898SOL    HW1 3593   4.042   1.279   3.158
  898SOL    HW2 3594   3.935   1.291   3.035
  899SOL     OW 3595   6.386   6.446   6.979
  899SOL    HW1 3596   6.437   6.399   0.029
  899SOL    HW2 3597   6.390   6.545   6.994
  900SOL     OW 3598   5.117   5.619   6.474
  900SOL    HW1 3599   5.164   5.610   6.386
  900SOL    HW2 3600   5.165   5.686   6.531
  901SOL     OW 3601   1.347   0.797   3.157
  901SOL    HW1 3602   1.352   0.844   3.069
  901SOL    HW2 3603   1.254   0.762   3.171
  902SOL     OW 3604   0.024   3.370   1.742
  902SOL    HW1 3605   6.947   3.361   1.741
  902SOL    HW2 3606   0.052   3.415   1.827
  903SOL     OW 3607   6.756   0.692   0.460
  903SOL    HW1 3608   6.757   0.596   0.489
  903SOL    HW2 3609   6.745   0.751   0.540
  904SOL     OW 3610   2.707   0.934   3.333
  904SOL    HW1 3611   2.664   0.958   3.420
  904SOL    HW2 3612   2.703   1.012   3.271
  905SOL     OW 3613   6.056   2.128   6.127
  905SOL    HW1 3614   6.120   2.179   6.184
  905SOL    HW2 3615   5.979   2.187   6.103
  906SOL     OW 3616   5.765   3.492   0.764
  906SOL    HW1 3617   5.686   3.554   0.763
  906SOL    HW2 3618   5.821   3.509   0.683
  907SOL     OW 3619   5.287   4.141   6.554
  907SOL    HW1 3620   5.216   4.115   6.488
  907SOL    HW2 3621   5.353   4.067   6.563
  908SOL     OW 3622   0.196   3.841   3.171
  908SOL    HW1 3623   0.119   3.803   3.221
  908SOL    HW2 3624   0.257   3.890   3.234
  909SOL     OW 3625   5.210   5.097   5.958
  909SOL    HW1 3626   5.181   5.150   5.879
  909SOL    HW2 3627   5.275   5.026   5.929
  910SOL     OW 3628   3.453   4.535   0.251
  910SOL    HW1 3629   3.487   4.450   0.291
  910SOL    HW2 3630   3.477   4.538   0.154
  911SOL     OW 3631   1.102   4.612   5.952
  911SOL    HW1 3632   1.171   4.636   6.021
  911SOL    HW2 3633   1.031   4.557   5.995
  912SOL     OW 3634   5.147   1.358   5.286
  912SOL    HW1 3635   5.138   1.386   5.190
  912SOL    HW2 3636   5.068   1.391   5.337
  913SOL     OW 3637   4.654   6.143   3.112
  913SOL    HW1 3638   4.736   6.105   3.154
  913SOL    HW2 3639   4.573   6.106   3.157
  914SOL     OW 3640   3.067   6.897   5.630
  914SOL    HW1 3641   3.167   6.904   5.622
  914SOL    HW2 3642   3.033   6.831   5.564
  915SOL     OW 3643   5.380   5.543   1.667
  915SOL    HW1 3644   5.442   5.553   1.589
  915SOL    HW2 3645   5.401   5.612   1.736
  916SOL     OW 3646   1.213   3.596   2.720
  916SOL    HW1 3647   1.221   3.533   2.643
  916SOL    HW2 3648   1.163   3.677   2.691
  917SOL     OW 3649   0.486   0.108   6.663
  917SOL    HW1 3650   0.540   0.053   6.599
  917SOL    HW2 3651   0.532   0.111   6.751
  918SOL     OW 3652   3.495   6.081   6.810
  918SOL    HW1 3653   3.580   6.107   6.856
  918SOL    HW2 3654   3.492   6.122   6.719
  919SOL     OW 3655   4.629   0.787   6.431
  919SOL    HW1 3656   4.548   0.826   6.387
  919SOL    HW2 3657   4.639   0.827   6.522
  920SOL     OW 3658   3.128   4.763   1.703
  920SOL    HW1 3659   3.166   4.699   1.636
  920SOL    HW2 3660   3.029   4.748   1.711
  921SOL     OW 3661   4.828   5.485   5.198
  921SOL    HW1 3662   4.761   5.526   5.136
  921SOL    HW2 3663   4.801   5.502   5.292
  922SOL     OW 3664   3.105   3.781   3.301
  922SOL    HW1 3665   3.135   3.840   3.226
  922SOL    HW2 3666   3.181   3.764   3.364
  923SOL     OW 3667   2.342   3.975   5.715
  923SOL    HW1 3668   2.282   3.939   5.644
  923SOL    HW2 3669   2.290   3.987   5.800
  924SOL     OW 3670   0.774   3.440   1.422
  924SOL    HW1 3671   0.861   3.491   1.424
  924SOL    HW2 3672   0.774   3.377   1.344
  925SOL     OW 3673   0.457   1.472   6.781
  925SOL    HW1 3674   0.538   1.414   6.790
  925SOL    HW2 3675   0.450   1.507   6.687
  926SOL     OW 3676   2.303   2.207   0.977
  926SOL    HW1 3677   2.293   2.259   1.062
  926SOL    HW2 3678   2.212   2.186   0.940
  927SOL     OW 3679   6.646   3.424   4.828
  927SOL    HW1 3680   6.736   3.408   4.786
  927SOL    HW2 3681   6.574   3.402   4.762
  928SOL     OW 3682   2.766   5.251   5.714
  928SOL    HW1 3683   2.689   5.223   5.771
  928SOL    HW2 3684   2.773   5.190   5.635
  929SOL     OW 3685   0.637   1.936   4.763
  929SOL    HW1 3686   0.690   1.855   4.787
  929SOL    HW2 3687   0.623   1.992   4.845
  930SOL     OW 3688   6.201   5.118   5.128
  930SOL    HW1 3689   6.108   5.083   5.143
  930SOL    HW2 3690   6.239   5.079   5.044
  931SOL     OW 3691   6.205   0.705   3.627
  931SOL    HW1 3692   6.195   0.785   3.568
  931SOL    HW2 3693   6.173   0.727   3.719
  932SOL     OW 3694   3.790   6.916   3.698
  932SOL    HW1 3695   3.786   7.016   3.697
  932SOL    HW2 3696   3.886   6.887   3.707
  933SOL     OW 3697   1.003   5.586   2.046
  933SOL    HW1 3698   0.971   5.534   2.125
  933SOL    HW2 3699   1.098   5.612   2.059
  934SOL     OW 3700   1.864   2.926   0.514
  934SOL    HW1 3701   1.943   2.916   0.453
  934SOL    HW2 3702   1.795   2.858   0.489
  935SOL     OW 3703   5.402   2.789   5.425
  935SOL    HW1 3704   5.457   2.842   5.361
  935SOL    HW2 3705   5.461   2.723   5.473
  936SOL     OW 3706   1.969   0.557   6.417
  936SOL    HW1 3707   1.932   0.578   6.327
  936SOL    HW2 3708   2.035   0.627   6.443
  937SOL     OW 3709   3.344   2.627   6.431
  937SOL    HW1 3710   3.265   2.572   6.457
  937SOL    HW2 3711   3.366   2.609   6.335
  938SOL     OW 3712   5.023   6.304   5.244
  938SOL    HW1 3713   5.066   6.346   5.164
  938SOL    HW2 3714   5.076   6.225   5.274
  939SOL     OW 3715   1.392   0.366   4.535
  939SOL    HW1 3716   1.343   0.291   4.490
  939SOL    HW2 3717   1.457   0.407   4.471
  940SOL     OW 3718   1.971   5.374   0.535
  940SOL    HW1 3719   2.055   5.428   0.541
  940SOL    HW2 3720   1.970   5.306   0.608
  941SOL     OW 3721   3.822   6.933   0.744
  941SOL    HW1 3722   3.820   7.011   0.806
  941SOL    HW2 3723   3.913   6.891   0.746
  942SOL     OW 3724   6.467   5.312   0.248
  942SOL    HW1 3725   6.376   5.351   0.260
  942SOL    HW2 3726   6.511   5.353   0.169
  943SOL     OW 3727   3.644   6.160   1.111
  943SOL    HW1 3728   3.694   6.118   1.035
  943SOL    HW2 3729   3.683   6.128   1.197
  944SOL     OW 3730   6.409   6.302   3.114
  944SOL    HW1 3731   6.486   6.270   3.060
  944SOL    HW2 3732   6.368   6.226   3.163
  945SOL     OW 3733   0.277   5.332   6.659
  945SOL    HW1 3734   0.229   5.365   6.578
  945SOL    HW2 3735   0.369   5.370   6.661
  946SOL     OW 3736   5.916   1.952   3.823
  946SOL    HW1 3737   5.899   2.046   3.851
  946SOL    HW2 3738   5.972   1.951   3.740
  947SOL     OW 3739   3.893   3.946   2.541
  947SOL    HW1 3740   3.827   3.897   2.485
  947SOL    HW2 3741   3.940   4.014   2.485
  948SOL     OW 3742   3.551   1.420   3.733
  948SOL    HW1 3743   3.648   1.433   3.754
  948SOL    HW2 3744   3.533   1.455   3.641
  949SOL     OW 3745   2.693   6.947   5.517
  949SOL    HW1 3746   2.661   6.987   5.431
  949SOL    HW2 3747   2.641   6.863   5.535
  950SOL     OW 3748   0.125   6.689   1.549
  950SOL    HW1 3749   0.208   6.698   1.605
  950SOL    HW2 3750   0.044   6.695   1.607
  951SOL     OW 3751   1.433   0.031   3.265
  951SOL    HW1 3752   1.377   6.971   3.255
  951SOL    HW2 3753   1.441   0.077   3.176
  952SOL     OW 3754   3.794   1.538   2.931
  952SOL    HW1 3755   3.864   1.599   2.894
  952SOL    HW2 3756   3.837   1.454   2.964
  953SOL     OW 3757   1.077   6.066   5.789
  953SOL    HW1 3758   1.018   5.993   5.753
  953SOL    HW2 3759   1.021   6.139   5.827
  954SOL     OW 3760   4.763   6.656   2.556
  954SOL    HW1 3761   4.689   6.610   2.605
  954SOL    HW2 3762   4.842   6.667   2.616
  955SOL     OW 3763   3.191   4.584   1.471
  955SOL    HW1 3764   3.138   4.650   1.418
  955SOL    HW2 3765   3.128   4.520   1.516
  956SOL     OW 3766   3.156   0.438   0.863
  956SOL    HW1 3767   3.156   0.509   0.933
  956SOL    HW2 3768   3.247   0.432   0.822
  957SOL     OW 3769   5.805   6.678   3.187
  957SOL    HW1 3770   5.798   6.610   3.260
  957SOL    HW2 3771   5.729   6.742   3.193
  958SOL     OW 3772   5.704   5.862   1.845
  958SOL    HW1 3773   5.794   5.822   1.831
  958SOL    HW2 3774   5.714   5.952   1.887
  959SOL     OW 3775   4.837   0.442   2.960
  959SOL    HW1 3776   4.748   0.430   2.916
  959SOL    HW2 3777   4.823   0.482   3.051
  960SOL     OW 3778   1.789   6.476   5.579
  960SOL    HW1 3779   1.740   6.436   5.502
  960SOL    HW2 3780   1.875   6.426   5.593
  961SOL     OW 3781   3.928   1.238   4.022
  961SOL    HW1 3782   3.855   1.194   3.970
  961SOL    HW2 3783   3.888   1.289   4.098
  962SOL     OW 3784   0.163   0.220   4.811
  962SOL    HW1 3785   0.205   0.311   4.805
  962SOL    HW2 3786   0.187   0.167   4.730
  963SOL     OW 3787   6.036   2.608   1.226
  963SOL    HW1 3788   5.975   2.671   1.177
  963SOL    HW2 3789   6.024   2.515   1.190
  964SOL     OW 3790   3.717   6.381   4.950
  964SOL    HW1 3791   3.788   6.439   4.989
  964SOL    HW2 3792   3.634   6.388   5.005
  965SOL     OW 3793   5.179   1.794   4.117
  965SOL    HW1 3794   5.278   1.795   4.127
  965SOL    HW2 3795   5.151   1.705   4.079
  966SOL     OW 3796   5.341   0.853   3.217
  966SOL    HW1 3797   5.253   0.823   3.254
  966SOL    HW2 3798   5.363   0.799   3.135
  967SOL     OW 3799   3.637   5.339   5.720
  967SOL    HW1 3800   3.641   5.329   5.820
  967SOL    HW2 3801   3.672   5.255   5.677
  968SOL     OW 3802   4.091   0.402   1.500
  968SOL    HW1 3803   4.011   0.346   1.480
  968SOL    HW2 3804   4.063   0.485   1.547
  969SOL     OW 3805   2.698   3.645   6.965
  969SOL    HW1 3806   2.721   3.599   6.879
  969SOL    HW2 3807   2.774   3.636   0.006
  970SOL     OW 3808   4.422   6.272   5.205
  970SOL    HW1 3809   4.378   6.200   5.259
  970SOL    HW2 3810   4.495   6.232   5.149
  971SOL     OW 3811   5.171   3.374   3.284
  971SOL    HW1 3812   5.087   3.363   3.231
  971SOL    HW2 3813   5.216   3.459   3.257
  972SOL     OW 3814   0.632   1.944   0.674
  972SOL    HW1 3815   0.548   1.898   0.645
  972SOL    HW2 3816   0.612   2.006   0.750
  973SOL     OW 3817   6.474   2.651   4.929
  973SOL    HW1 3818   6.458   2.559   4.895
  973SOL    HW2 3819   6.541   2.698   4.872
  974SOL     OW 3820   1.162   3.162   1.748
  974SOL    HW1 3821   1.209   3.198   1.667
  974SOL    HW2 3822   1.136   3.067   1.731
  975SOL     OW 3823   3.095   0.276   1.666
  975SOL    HW1 3824   3.094   0.375   1.652
  975SOL    HW2 3825   3.109   0.230   1.578
  976SOL     OW 3826   6.949   2.940   4.090
  976SOL    HW1 3827   6.876   2.926   4.157
  976SOL    HW2 3828   6.993   2.853   4.069
  977SOL     OW 3829   6.527   1.590   2.309
  977SOL    HW1 3830   6.465   1.564   2.236
  977SOL    HW2 3831   6.527   1.519   2.380
  978SOL     OW 3832   5.211   2.385   0.972
  978SOL    HW1 3833   5.214   2.472   0.924
  978SOL    HW2 3834   5.156   2.395   1.055
  979SOL     OW 3835   0.131   5.043   6.529
  979SOL    HW1 3836   0.086   5.129   6.504
  979SOL    HW2 3837   0.160   4.996   6.446
  980SOL     OW 3838   4.851   1.607   3.842
  980SOL    HW1 3839   4.752   1.605   3.828
  980SOL    HW2 3840   4.882   1.702   3.854
  981SOL     OW 3841   0.789   5.929   5.486
  981SOL    HW1 3842   0.746   6.017   5.507
  981SOL    HW2 3843   0.753   5.858   5.546
  982SOL     OW 3844   0.050   1.127   6.741
  982SOL    HW1 3845   0.011   1.068   6.671
  982SOL    HW2 3846   7.001   1.183   6.782
  983SOL     OW 3847   0.103   3.857   2.530
  983SOL    HW1 3848   0.138   3.950   2.540
  983SOL    HW2 3849   0.106   3.810   2.618
  984SOL     OW 3850   0.328   3.500   3.869
  984SOL    HW1 3851   0.231   3.480   3.852
  984SOL    HW2 3852   0.361   3.563   3.799
  985SOL     OW 3853   5.721   5.293   5.611
  985SOL    HW1 3854   5.809   5.272   5.567
  985SOL    HW2 3855   5.735   5.364   5.681
  986SOL     OW 3856   4.143   5.248   1.603
  986SOL    HW1 3857   4.099   5.178   1.545
  986SOL    HW2 3858   4.241   5.252   1.581
  987SOL     OW 3859   4.711   4.413   4.356
  987SOL    HW1 3860   4.733   4.316   4.372
  987SOL    HW2 3861   4.795   4.464   4.338
  988SOL     OW 3862   2.983   4.890   2.276
  988SOL    HW1 3863   2.908   4.825   2.268
  988SOL    HW2 3864   3.026   4.904   2.187
  989SOL     OW 3865   0.534   2.746   1.055
  989SOL    HW1 3866   0.554   2.841   1.032
  989SOL    HW2 3867   0.485   2.703   0.979
  990SOL     OW 3868   3.365   0.047   5.290
  990SOL    HW1 3869   3.418   0.069   5.372
  990SOL    HW2 3870   3.418   0.072   5.208
  991SOL     OW 3871   1.317   6.176   3.671
  991SOL    HW1 3872   1.368   6.257   3.644
  991SOL    HW2 3873   1.330   6.159   3.768
  992SOL     OW 3874   6.451   3.472   0.684
  992SOL    HW1 3875   6.353   3.468   0.665
  992SOL    HW2 3876   6.474   3.401   0.751
  993SOL     OW 3877   1.893   5.554   6.340
  993SOL    HW1 3878   1.928   5.502   6.262
  993SOL    HW2 3879   1.967   5.607   6.381
  994SOL     OW 3880   2.702   0.073   1.509
  994SOL    HW1 3881   2.751   0.129   1.442
  994SOL    HW2 3882   2.608   0.106   1.518
  995SOL     OW 3883   5.732   4.343   5.699
  995SOL    HW1 3884   5.656   4.358   5.635
  995SOL    HW2 3885   5.702   4.283   5.773
  996SOL     OW 3886   4.167   6.465   5.066
  996SOL    HW1 3887   4.262   6.434   5.056
  996SOL    HW2 3888   4.167   6.563   5.087
  997SOL     OW 3889   1.365   6.271   3.344
  997SOL    HW1 3890   1.382   6.225   3.257
  997SOL    HW2 3891   1.452   6.296   3.386
  998SOL     OW 3892   4.447   0.130   0.342
  998SOL    HW1 3893   4.445   0.140   0.242
  998SOL    HW2 3894   4.444   0.220   0.384
  999SOL     OW 3895   5.718   3.132   2.410
  999SOL    HW1 3896   5.648   3.071   2.373
  999SOL    HW2 3897   5.808   3.092   2.396
 1000SOL     OW 3898   5.776   1.814   2.177
 1000SOL    HW1 3899   5.756   1.744   2.110
 1000SOL    HW2 3900   5.875   1.817   2.194
 1001SOL     OW 3901   2.141   6.548   3.348
 1001SOL    HW1 3902   2.232   6.563   3.386
 1001SOL    HW2 3903   2.074   6.599   3.402
 1002SOL     OW 3904   3.646   2.227   0.769
 1002SOL    HW1 3905   3.620   2.318   0.735
 1002SOL    HW2 3906   3.745   2.217   0.764
 1003SOL     OW 3907   0.646   1.389   3.944
 1003SOL    HW1 3908   0.568   1.380   3.884
 1003SOL    HW2 3909   0.669   1.300   3.984
 1004SOL     OW 3910   4.610   1.451   4.589
 1004SOL    HW1 3911   4.630   1.529   4.648
 1004SOL    HW2 3912   4.613   1.367   4.643
 1005SOL     OW 3913   0.772   5.655   1.975
 1005SOL    HW1 3914   0.868   5.629   1.981
 1005SOL    HW2 3915   0.726   5.599   1.906
 1006SOL     OW 3916   1.984   4.743   1.490
 1006SOL    HW1 3917   2.024   4.780   1.406
 1006SOL    HW2 3918   2.057   4.703   1.546
 1007SOL     OW 3919   4.660   1.238   6.439
 1007SOL    HW1 3920   4.697   1.165   6.381
 1007SOL    HW2 3921   4.730   1.267   6.505
 1008SOL     OW 3922   0.369   4.743   4.880
 1008SOL    HW1 3923   0.353   4.740   4.979
 1008SOL    HW2 3924   0.332   4.660   4.838
 1009SOL     OW 3925   6.497   6.285   6.211
 1009SOL    HW1 3926   6.472   6.366   6.265
 1009SOL    HW2 3927   6.431   6.273   6.136
 1010SOL     OW 3928   2.913   3.894   0.408
 1010SOL    HW1 3929   2.816   3.907   0.427
 1010SOL    HW2 3930   2.964   3.891   0.494
 1011SOL     OW 3931   0.227   5.223   2.361
 1011SOL    HW1 3932   0.297   5.208   2.431
 1011SOL    HW2 3933   0.262   5.285   2.291
 1012SOL     OW 3934   5.254   5.915   3.169
 1012SOL    HW1 3935   5.329   5.850   3.181
 1012SOL    HW2 3936   5.240   5.965   3.255
 1013SOL     OW 3937   0.621   1.146   6.405
 1013SOL    HW1 3938   0.702   1.142   6.463
 1013SOL    HW2 3939   0.643   1.111   6.314
 1014SOL     OW 3940   0.895   4.840   4.243
 1014SOL    HW1 3941   0.833   4.842   4.165
 1014SOL    HW2 3942   0.907   4.746   4.273
 1015SOL     OW 3943   3.308   6.387   6.988
 1015SOL    HW1 3944   3.334   6.318   0.033
 1015SOL    HW2 3945   3.213   6.375   6.962
 1016SOL     OW 3946   6.618   4.596   0.290
 1016SOL    HW1 3947   6.639   4.520   0.351
 1016SOL    HW2 3948   6.695   4.659   0.288
 1017SOL     OW 3949   1.996   0.994   2.261
 1017SOL    HW1 3950   2.064   1.066   2.275
 1017SOL    HW2 3951   1.940   0.984   2.343
 1018SOL     OW 3952   5.817   6.574   5.530
 1018SOL    HW1 3953   5.803   6.535   5.621
 1018SOL    HW2 3954   5.907   6.617   5.525
 1019SOL     OW 3955   6.282   3.464   1.422
 1019SOL    HW1 3956   6.255   3.439   1.328
 1019SOL    HW2 3957   6.331   3.388   1.464
 1020SOL     OW 3958   5.216   1.193   1.279
 1020SOL    HW1 3959   5.267   1.260   1.332
 1020SOL    HW2 3960   5.168   1.130   1.340
 1021SOL     OW 3961   1.441   6.721   0.603
 1021SOL    HW1 3962   1.443   6.748   0.700
 1021SOL    HW2 3963   1.439   6.621   0.597
 1022SOL     OW 3964   1.550   5.043   6.033
 1022SOL    HW1 3965   1.591   5.125   5.992
 1022SOL    HW2 3966   1.457   5.064   6.062
 1023SOL     OW 3967   1.201   1.527   2.339
 1023SOL    HW1 3968   1.201   1.626   2.330
 1023SOL    HW2 3969   1.236   1.501   2.429
 1024SOL     OW 3970   1.893   2.420   4.033
 1024SOL    HW1 3971   1.933   2.483   4.099
 1024SOL    HW2 3972   1.916   2.450   3.940
 1025SOL     OW 3973   4.462   4.011   0.904
 1025SOL    HW1 3974   4.406   4.094   0.903
 1025SOL    HW2 3975   4.428   3.948   0.973
 1026SOL     OW 3976   3.226   2.821   1.765
 1026SOL    HW1 3977   3.171   2.737   1.767
 1026SOL    HW2 3978   3.200   2.880   1.841
 1027SOL     OW 3979   6.535   6.961   0.049
 1027SOL    HW1 3980   6.575   6.966   6.981
 1027SOL    HW2 3981   6.579   6.887   0.101
 1028SOL     OW 3982   0.996   4.612   3.274
 1028SOL    HW1 3983   0.902   4.619   3.239
 1028SOL    HW2 3984   1.052   4.684   3.233
 1029SOL     OW 3985   0.132   0.860   4.857
 1029SOL    HW1 3986   0.173   0.920   4.788
 1029SOL    HW2 3987   0.097   0.778   4.812
 1030SOL     OW 3988   3.896   3.691   0.735
 1030SOL    HW1 3989   3.902   3.767   0.671
 1030SOL    HW2 3990   3.988   3.662   0.761
 1031SOL     OW 3991   3.615   2.491   0.711
 1031SOL    HW1 3992   3.678   2.512   0.786
 1031SOL    HW2 3993   3.664   2.501   0.624
 1032SOL     OW 3994   1.479   1.222   1.209
 1032SOL    HW1 3995   1.416   1.292   1.244
 1032SOL    HW2 3996   1.537   1.189   1.283
 1033SOL     OW 3997   6.407   0.002   2.111
 1033SOL    HW1 3998   6.329   0.035   2.165
 1033SOL    HW2 3999   6.378   7.003   2.018
 1034SOL     OW 4000   2.658   0.894   5.414
 1034SOL    HW1 4001   2.569   0.886   5.458
 1034SOL    HW2 4002   2.717   0.820   5.446
 1035SOL     OW 4003   1.389   0.414   0.322
 1035SOL    HW1 4004   1.456   0.476   0.283
 1035SOL    HW2 4005   1.420   0.384   0.413
 1036SOL     OW 4006   5.167   1.431   2.359
 1036SOL    HW1 4007   5.186   1.528   2.342
 1036SOL    HW2 4008   5.084   1.422   2.413
 1037SOL     OW 4009   1.538   3.734   2.878
 1037SOL    HW1 4010   1.569   3.674   2.951
 1037SOL    HW2 4011   1.478   3.804   2.915
 1038SOL     OW 4012   1.811   6.451   6.932
 1038SOL    HW1 4013   1.837   6.530   6.877
 1038SOL    HW2 4014   1.788   6.480   0.002
 1039SOL     OW 4015   2.872   3.575   2.913
 1039SOL    HW1 4016   2.837   3.578   2.819
 1039SOL    HW2 4017   2.890   3.668   2.945
 1040SOL     OW 4018   3.774   1.315   2.718
 1040SOL    HW1 4019   3.676   1.309   2.700
 1040SOL    HW2 4020   3.795   1.403   2.761
 1041SOL     OW 4021   6.742   6.539   6.809
 1041SOL    HW1 4022   6.727   6.633   6.777
 1041SOL    HW2 4023   6.682   6.477   6.759
 1042SOL     OW 4024   5.204   3.850   3.975
 1042SOL    HW1 4025   5.206   3.841   3.875
 1042SOL    HW2 4026   5.131   3.791   4.012
 1043SOL     OW 4027   2.506   2.201   3.495
 1043SOL    HW1 4028   2.586   2.246   3.454
 1043SOL    HW2 4029   2.427   2.213   3.435
 1044SOL     OW 4030   5.887   4.312   2.135
 1044SOL    HW1 4031   5.886   4.243   2.063
 1044SOL    HW2 4032   5.981   4.327   2.166
 1045SOL     OW 4033   2.232   0.337   2.557
 1045SOL    HW1 4034   2.237   0.432   2.524
 1045SOL    HW2 4035   2.150   0.325   2.613
 1046SOL     OW 4036   3.164   2.697   0.718
 1046SOL    HW1 4037   3.195   2.781   0.672
 1046SOL    HW2 4038   3.097   2.721   0.788
 1047SOL     OW 4039   3.799   0.799   3.531
 1047SOL    HW1 4040   3.800   0.723   3.596
 1047SOL    HW2 4041   3.724   0.862   3.554
 1048SOL     OW 4042   0.677   0.276   2.441
 1048SOL    HW1 4043   0.687   0.177   2.448
 1048SOL    HW2 4044   0.606   0.298   2.375
 1049SOL     OW 4045   3.460   6.730   0.551
 1049SOL    HW1 4046   3.425   6.688   0.468
 1049SOL    HW2 4047   3.385   6.773   0.601
 1050SOL     OW 4048   2.462   2.118   4.643
 1050SOL    HW1 4049   2.453   2.053   4.718
 1050SOL    HW2 4050   2.418   2.081   4.561
 1051SOL     OW 4051   1.760   2.035   5.403
 1051SOL    HW1 4052   1.685   2.072   5.347
 1051SOL    HW2 4053   1.728   2.017   5.495
 1052SOL     OW 4054   4.393   2.227   6.423
 1052SOL    HW1 4055   4.480   2.277   6.422
 1052SOL    HW2 4056   4.396   2.155   6.493
 1053SOL     OW 4057   5.134   2.955   3.961
 1053SOL    HW1 4058   5.191   3.035   3.939
 1053SOL    HW2 4059   5.054   2.954   3.901
 1054SOL     OW 4060   4.739   5.414   6.642
 1054SOL    HW1 4061   4.782   5.455   6.562
 1054SOL    HW2 4062   4.659   5.468   6.669
 1055SOL     OW 4063   5.376   5.638   6.113
 1055SOL    HW1 4064   5.280   5.653   6.087
 1055SOL    HW2 4065   5.412   5.561   6.060
 1056SOL     OW 4066   3.851   3.594   0.274
 1056SOL    HW1 4067   3.859   3.535   0.354
 1056SOL    HW2 4068   3.815   3.541   0.197
 1057SOL     OW 4069   2.719   3.233   6.657
 1057SOL    HW1 4070   2.723   3.251   6.559
 1057SOL    HW2 4071   2.756   3.141   6.675
 1058SOL     OW 4072   3.062   2.077   2.081
 1058SOL    HW1 4073   2.980   2.129   2.102
 1058SOL    HW2 4074   3.067   2.062   1.982
 1059SOL     OW 4075   2.306   5.930   2.519
 1059SOL    HW1 4076   2.232   5.882   2.473
 1059SOL    HW2 4077   2.300   5.913   2.618
 1060SOL     OW 4078   6.516   0.231   5.674
 1060SOL    HW1 4079   6.532   0.330   5.678
 1060SOL    HW2 4080   6.442   0.207   5.736
 1061SOL     OW 4081   6.960   3.408   6.564
 1061SOL    HW1 4082   0.004   3.470   6.606
 1061SOL    HW2 4083   7.002   3.363   6.485
 1062SOL     OW 4084   3.162   4.559   5.665
 1062SOL    HW1 4085   3.163   4.642   5.608
 1062SOL    HW2 4086   3.152   4.585   5.761
 1063SOL     OW 4087   2.750   6.521   4.198
 1063SOL    HW1 4088   2.690   6.531   4.277
 1063SOL    HW2 4089   2.760   6.424   4.175
 1064SOL     OW 4090   0.929   4.081   0.700
 1064SOL    HW1 4091   0.969   4.051   0.787
 1064SOL    HW2 4092   0.835   4.047   0.694
 1065SOL     OW 4093   5.951   0.796   4.970
 1065SOL    HW1 4094   5.895   0.880   4.968
 1065SOL    HW2 4095   5.907   0.725   4.915
 1066SOL     OW 4096   4.840   6.222   0.917
 1066SOL    HW1 4097   4.925   6.175   0.941
 1066SOL    HW2 4098   4.821   6.209   0.819
 1067SOL     OW 4099   3.231   1.107   0.231
 1067SOL    HW1 4100   3.191   1.180   0.287
 1067SOL    HW2 4101   3.303   1.062   0.283
 1068SOL     OW 4102   6.032   3.115   1.915
 1068SOL    HW1 4103   5.975   3.142   1.993
 1068SOL    HW2 4104   6.127   3.137   1.935
 1069SOL     OW 4105   0.103   2.446   2.829
 1069SOL    HW1 4106   0.028   2.408   2.883
 1069SOL    HW2 4107   0.177   2.473   2.890
 1070SOL     OW 4108   0.635   1.112   2.247
 1070SOL    HW1 4109   0.722   1.063   2.251
 1070SOL    HW2 4110   0.642   1.197   2.298
 1071SOL     OW 4111   0.459   3.032   5.449
 1071SOL    HW1 4112   0.502   3.092   5.517
 1071SOL    HW2 4113   0.490   3.058   5.358
 1072SOL     OW 4114   2.375   1.207   1.914
 1072SOL    HW1 4115   2.422   1.292   1.937
 1072SOL    HW2 4116   2.436   1.148   1.860
 1073SOL     OW 4117   5.130   2.188   3.045
 1073SOL    HW1 4118   5.133   2.162   2.948
 1073SOL    HW2 4119   5.105   2.285   3.053
 1074SOL     OW 4120   3.521   5.525   2.058
 1074SOL    HW1 4121   3.503   5.620   2.033
 1074SOL    HW2 4122   3.600   5.492   2.006
 1075SOL     OW 4123   6.866   3.933   4.838
 1075SOL    HW1 4124   6.827   3.868   4.903
 1075SOL    HW2 4125   6.801   3.949   4.764
 1076SOL     OW 4126   2.312   4.248   5.243
 1076SOL    HW1 4127   2.346   4.162   5.206
 1076SOL    HW2 4128   2.267   4.300   5.169
 1077SOL     OW 4129   6.963   6.147   0.818
 1077SOL    HW1 4130   0.009   6.218   0.803
 1077SOL    HW2 4131   6.961   6.121   0.914
 1078SOL     OW 4132   5.518   6.589   4.144
 1078SOL    HW1 4133   5.565   6.504   4.116
 1078SOL    HW2 4134   5.482   6.634   4.062
 1079SOL     OW 4135   1.209   6.520   1.374
 1079SOL    HW1 4136   1.260   6.435   1.387
 1079SOL    HW2 4137   1.126   6.501   1.321
 1080SOL     OW 4138   4.980   5.755   0.269
 1080SOL    HW1 4139   5.020   5.665   0.247
 1080SOL    HW2 4140   4.903   5.772   0.208
 1081SOL     OW 4141   6.916   6.726   3.419
 1081SOL    HW1 4142   6.862   6.670   3.356
 1081SOL    HW2 4143   6.951   6.806   3.369
 1082SOL     OW 4144   4.408   0.114   6.809
 1082SOL    HW1 4145   4.356   0.044   6.858
 1082SOL    HW2 4146   4.360   0.138   6.725
 1083SOL     OW 4147   6.318   4.127   2.196
 1083SOL    HW1 4148   6.249   4.199   2.193
 1083SOL    HW2 4149   6.409   4.167   2.205
 1084SOL     OW 4150   4.487   0.943   5.183
 1084SOL    HW1 4151   4.507   1.041   5.179
 1084SOL    HW2 4152   4.388   0.929   5.176
 1085SOL     OW 4153   1.691   3.333   4.972
 1085SOL    HW1 4154   1.593   3.336   4.951
 1085SOL    HW2 4155   1.724   3.425   4.992
 1086SOL     OW 4156   6.094   4.774   2.026
 1086SOL    HW1 4157   6.180   4.756   2.074
 1086SOL    HW2 4158   6.021   4.722   2.069
 1087SOL     OW 4159   3.788   6.917   5.671
 1087SOL    HW1 4160   3.709   6.886   5.723
 1087SOL    HW2 4161   3.872   6.885   5.715
 1088SOL     OW 4162   6.647   5.269   4.593
 1088SOL    HW1 4163   6.696   5.349   4.559
 1088SOL    HW2 4164   6.712   5.195   4.611
 1089SOL     OW 4165   5.917   5.109   4.400
 1089SOL    HW1 4166   6.005   5.121   4.446
 1089SOL    HW2 4167   5.862   5.043   4.450
 1090SOL     OW 4168   5.906   2.690   5.067
 1090SOL    HW1 4169   5.933   2.595   5.082
 1090SOL    HW2 4170   5.873   2.730   5.152
 1091SOL     OW 4171   2.112   3.780   3.175
 1091SOL    HW1 4172   2.200   3.733   3.164
 1091SOL    HW2 4173   2.070   3.792   3.085
 1092SOL     OW 4174   1.356   6.477   0.664
 1092SOL    HW1 4175   1.284   6.443   0.724
 1092SOL    HW2 4176   1.441   6.428   0.681
 1093SOL     OW 4177   1.545   0.590   2.997
 1093SOL    HW1 4178   1.491   0.666   3.034
 1093SOL    HW2 4179   1.641   0.617   2.993
 1094SOL     OW 4180   0.359   0.073   3.006
 1094SOL    HW1 4181   0.418   0.046   3.082
 1094SOL    HW2 4182   0.414   0.122   2.938
 1095SOL     OW 4183   6.250   3.886   0.978
 1095SOL    HW1 4184   6.204   3.810   1.025
 1095SOL    HW2 4185   6.270   3.859   0.884
 1096SOL     OW 4186   1.903   5.982   1.983
 1096SOL    HW1 4187   1.826   6.039   2.011
 1096SOL    HW2 4188   1.980   6.040   1.957
 1097SOL     OW 4189   2.730   5.927   4.653
 1097SOL    HW1 4190   2.810   5.869   4.634
 1097SOL    HW2 4191   2.744   6.017   4.610
 1098SOL     OW 4192   6.522   3.968   7.005
 1098SOL    HW1 4193   6.515   3.879   0.027
 1098SOL    HW2 4194   6.590   3.964   6.932
 1099SOL     OW 4195   5.322   0.542   6.844
 1099SOL    HW1 4196   5.366   0.618   6.892
 1099SOL    HW2 4197   5.297   0.571   6.752
 1100SOL     OW 4198   4.729   1.313   4.145
 1100SOL    HW1 4199   4.821   1.279   4.166
 1100SOL    HW2 4200   4.705   1.386   4.209
 1101SOL     OW 4201   4.843   2.982   6.883
 1101SOL    HW1 4202   4.790   2.905   6.920
 1101SOL    HW2 4203   4.908   2.947   6.816
 1102SOL     OW 4204   3.350   0.969   4.182
 1102SOL    HW1 4205   3.297   1.038   4.232
 1102SOL    HW2 4206   3.319   0.878   4.208
 1103SOL     OW 4207   3.486   6.091   0.656
 1103SOL    HW1 4208   3.504   6.070   0.560
 1103SOL    HW2 4209   3.548   6.038   0.714
 1104SOL     OW 4210   6.351   1.289   3.367
 1104SOL    HW1 4211   6.354   1.213   3.302
 1104SOL    HW2 4212   6.420   1.275   3.438
 1105SOL     OW 4213   4.838   0.870   6.178
 1105SOL    HW1 4214   4.807   0.965   6.190
 1105SOL    HW2 4215   4.771   0.808   6.219
 1106SOL     OW 4216   6.075   1.959   1.889
 1106SOL    HW1 4217   6.077   1.966   1.789
 1106SOL    HW2 4218   5.981   1.963   1.921
 1107SOL     OW 4219   1.448   2.254   0.169
 1107SOL    HW1 4220   1.432   2.156   0.182
 1107SOL    HW2 4221   1.526   2.266   0.107
 1108SOL     OW 4222   2.120   1.564   3.639
 1108SOL    HW1 4223   2.207   1.516   3.624
 1108SOL    HW2 4224   2.051   1.526   3.578
 1109SOL     OW 4225   5.013   1.710   5.156
 1109SOL    HW1 4226   4.924   1.680   5.189
 1109SOL    HW2 4227   5.017   1.810   5.157
 1110SOL     OW 4228   1.321   0.702   2.635
 1110SOL    HW1 4229   1.249   0.633   2.650
 1110SOL    HW2 4230   1.302   0.752   2.550
 1111SOL     OW 4231   5.826   3.167   6.098
 1111SOL    HW1 4232   5.858   3.157   6.193
 1111SOL    HW2 4233   5.881   3.110   6.038
 1112SOL     OW 4234   5.696   0.641   2.229
 1112SOL    HW1 4235   5.778   0.653   2.286
 1112SOL    HW2 4236   5.668   0.546   2.230
 1113SOL     OW 4237   6.994   2.326   3.067
 1113SOL    HW1 4238   0.017   2.352   3.152
 1113SOL    HW2 4239   6.896   2.341   3.076
 1114SOL     OW 4240   3.230   3.432   4.682
 1114SOL    HW1 4241   3.306   3.390   4.732
 1114SOL    HW2 4242   3.244   3.421   4.584
 1115SOL     OW 4243   1.950   5.156   5.772
 1115SOL    HW1 4244   2.030   5.208   5.739
 1115SOL    HW2 4245   1.905   5.208   5.844
 1116SOL     OW 4246   4.374   7.009   0.649
 1116SOL    HW1 4247   4.299   7.014   0.584
 1116SOL    HW2 4248   4.460   0.006   0.602
 1117SOL     OW 4249   2.098   2.721   1.725
 1117SOL    HW1 4250   2.112   2.655   1.799
 1117SOL    HW2 4251   2.018   2.694   1.671
 1118SOL     OW 4252   4.753   6.501   0.072
 1118SOL    HW1 4253   4.667   6.498   0.021
 1118SOL    HW2 4254   4.830   6.493   0.009
 1119SOL     OW 4255   2.567   5.452   3.884
 1119SOL    HW1 4256   2.496   5.506   3.837
 1119SOL    HW2 4257   2.562   5.357   3.854
 1120SOL     OW 4258   0.058   3.364   1.475
 1120SOL    HW1 4259   0.142   3.411   1.447
 1120SOL    HW2 4260   0.053   3.364   1.575
 1121SOL     OW 4261   5.692   4.626   5.732
 1121SOL    HW1 4262   5.733   4.538   5.710
 1121SOL    HW2 4263   5.608   4.638   5.679
 1122SOL     OW 4264   6.156   0.812   2.037
 1122SOL    HW1 4265   6.170   0.755   2.118
 1122SOL    HW2 4266   6.098   0.763   1.972
 1123SOL     OW 4267   4.065   1.550   4.916
 1123SOL    HW1 4268   4.000   1.570   4.842
 1123SOL    HW2 4269   4.030   1.474   4.972
 1124SOL     OW 4270   2.255   2.766   3.586
 1124SOL    HW1 4271   2.283   2.672   3.567
 1124SOL    HW2 4272   2.215   2.771   3.677
 1125SOL     OW 4273   1.442   3.147   4.086
 1125SOL    HW1 4274   1.380   3.150   4.008
 1125SOL    HW2 4275   1.536   3.131   4.053
 1126SOL     OW 4276   4.364   4.593   3.798
 1126SOL    HW1 4277   4.431   4.537   3.846
 1126SOL    HW2 4278   4.374   4.580   3.699
 1127SOL     OW 4279   6.063   6.471   1.050
 1127SOL    HW1 4280   5.996   6.398   1.061
 1127SOL    HW2 4281   6.024   6.558   1.081
 1128SOL     OW 4282   4.092   1.812   5.063
 1128SOL    HW1 4283   4.101   1.729   5.007
 1128SOL    HW2 4284   3.999   1.848   5.054
 1129SOL     OW 4285   1.329   0.962   0.124
 1129SOL    HW1 4286   1.359   0.894   0.192
 1129SOL    HW2 4287   1.248   1.009   0.158
 1130SOL     OW 4288   2.346   5.163   1.577
 1130SOL    HW1 4289   2.281   5.237   1.557
 1130SOL    HW2 4290   2.364   5.161   1.676
 1131SOL     OW 4291   1.461   5.394   4.003
 1131SOL    HW1 4292   1.501   5.420   3.915
 1131SOL    HW2 4293   1.389   5.326   3.988
 1132SOL     OW 4294   1.417   1.776   2.915
 1132SOL    HW1 4295   1.339   1.725   2.879
 1132SOL    HW2 4296   1.392   1.873   2.923
 1133SOL     OW 4297   1.418   6.598   6.666
 1133SOL    HW1 4298   1.512   6.628   6.685
 1133SOL    HW2 4299   1.399   6.608   6.568
 1134SOL     OW 4300   4.837   5.684   0.916
 1134SOL    HW1 4301   4.934   5.669   0.935
 1134SOL    HW2 4302   4.783   5.662   0.997
 1135SOL     OW 4303   1.796   0.659   3.022
 1135SOL    HW1 4304   1.855   0.581   3.000
 1135SOL    HW2 4305   1.849   0.744   3.014
 1136SOL     OW 4306   1.656   4.528   2.446
 1136SOL    HW1 4307   1.604   4.594   2.500
 1136SOL    HW2 4308   1.745   4.513   2.489
 1137SOL     OW 4309   1.115   5.633   4.815
 1137SOL    HW1 4310   1.082   5.549   4.772
 1137SOL    HW2 4311   1.166   5.687   4.748
 1138SOL     OW 4312   1.953   4.045   4.555
 1138SOL    HW1 4313   1.995   4.070   4.467
 1138SOL    HW2 4314   2.022   4.003   4.614
 1139SOL     OW 4315   3.282   5.927   4.725
 1139SOL    HW1 4316   3.227   5.909   4.807
 1139SOL    HW2 4317   3.225   5.969   4.655
 1140SOL     OW 4318   2.272   2.672   1.532
 1140SOL    HW1 4319   2.308   2.580   1.519
 1140SOL    HW2 4320   2.204   2.672   1.605
 1141SOL     OW 4321   6.441   5.112   5.553
 1141SOL    HW1 4322   6.435   5.136   5.456
 1141SOL    HW2 4323   6.353   5.128   5.597
 1142SOL     OW 4324   0.898   5.456   2.778
 1142SOL    HW1 4325   0.832   5.461   2.854
 1142SOL    HW2 4326   0.880   5.374   2.724
 1143SOL     OW 4327   6.744   4.450   1.657
 1143SOL    HW1 4328   6.672   4.380   1.655
 1143SOL    HW2 4329   6.744   4.500   1.571
 1144SOL     OW 4330   5.243   4.752   0.512
 1144SOL    HW1 4331   5.298   4.727   0.432
 1144SOL    HW2 4332   5.262   4.688   0.587
 1145SOL     OW 4333   6.434   6.790   0.418
 1145SOL    HW1 4334   6.338   6.761   0.416
 1145SOL    HW2 4335   6.484   6.736   0.485
 1146SOL     OW 4336   1.577   0.886   1.455
 1146SOL    HW1 4337   1.673   0.879   1.428
 1146SOL    HW2 4338   1.519   0.875   1.374
 1147SOL     OW 4339   2.011   6.334   1.135
 1147SOL    HW1 4340   1.987   6.281   1.053
 1147SOL    HW2 4341   2.080   6.403   1.111
 1148SOL     OW 4342   3.634   5.965   2.279
 1148SOL    HW1 4343   3.588   5.956   2.191
 1148SOL    HW2 4344   3.588   5.908   2.347
 1149SOL     OW 4345   5.587   2.276   1.193
 1149SOL    HW1 4346   5.488   2.276   1.204
 1149SOL    HW2 4347   5.626   2.195   1.238
 1150SOL     OW 4348   1.227   2.309   1.004
 1150SOL    HW1 4349   1.307   2.262   0.966
 1150SOL    HW2 4350   1.250   2.346   1.094
 1151SOL     OW 4351   5.468   4.932   4.162
 1151SOL    HW1 4352   5.448   4.834   4.157
 1151SOL    HW2 4353   5.564   4.944   4.188
 1152SOL     OW 4354   3.326   6.491   5.784
 1152SOL    HW1 4355   3.285   6.455   5.700
 1152SOL    HW2 4356   3.253   6.519   5.847
 1153SOL     OW 4357   5.402   6.817   1.532
 1153SOL    HW1 4358   5.369   6.836   1.624
 1153SOL    HW2 4359   5.500   6.835   1.527
 1154SOL     OW 4360   1.630   3.096   0.588
 1154SOL    HW1 4361   1.667   3.146   0.509
 1154SOL    HW2 4362   1.680   3.010   0.599
 1155SOL     OW 4363   3.758   6.151   4.048
 1155SOL    HW1 4364   3.690   6.130   3.978
 1155SOL    HW2 4365   3.723   6.222   4.108
 1156SOL     OW 4366   2.573   1.056   1.813
 1156SOL    HW1 4367   2.558   0.966   1.772
 1156SOL    HW2 4368   2.634   1.109   1.754
 1157SOL     OW 4369   2.510   2.145   0.484
 1157SOL    HW1 4370   2.473   2.054   0.499
 1157SOL    HW2 4371   2.574   2.168   0.558
 1158SOL     OW 4372   5.466   4.664   3.984
 1158SOL    HW1 4373   5.461   4.568   4.012
 1158SOL    HW2 4374   5.374   4.701   3.975
 1159SOL     OW 4375   5.977   4.959   0.574
 1159SOL    HW1 4376   5.967   4.973   0.476
 1159SOL    HW2 4377   6.007   4.866   0.592
 1160SOL     OW 4378   4.367   2.054   0.637
 1160SOL    HW1 4379   4.410   2.088   0.721
 1160SOL    HW2 4380   4.412   1.970   0.608
 1161SOL     OW 4381   6.740   5.165   0.957
 1161SOL    HW1 4382   6.643   5.152   0.978
 1161SOL    HW2 4383   6.760   5.128   0.867
 1162SOL     OW 4384   2.280   2.618   4.872
 1162SOL    HW1 4385   2.375   2.586   4.873
 1162SOL    HW2 4386   2.219   2.541   4.854
 1163SOL     OW 4387   5.068   2.178   1.662
 1163SOL    HW1 4388   4.991   2.217   1.611
 1163SOL    HW2 4389   5.108   2.103   1.609
 1164SOL     OW 4390   4.123   2.125   5.583
 1164SOL    HW1 4391   4.195   2.112   5.514
 1164SOL    HW2 4392   4.127   2.050   5.649
 1165SOL     OW 4393   4.389   7.020   3.528
 1165SOL    HW1 4394   4.295   0.006   3.496
 1165SOL    HW2 4395   4.391   6.966   3.612
 1166SOL     OW 4396   3.625   4.146   6.443
 1166SOL    HW1 4397   3.645   4.194   6.528
 1166SOL    HW2 4398   3.543   4.089   6.455
 1167SOL     OW 4399   5.439   4.236   3.397
 1167SOL    HW1 4400   5.532   4.216   3.426
 1167SOL    HW2 4401   5.428   4.334   3.383
 1168SOL     OW 4402   0.638   6.724   0.872
 1168SOL    HW1 4403   0.621   6.671   0.789
 1168SOL    HW2 4404   0.550   6.750   0.913
 1169SOL     OW 4405   4.951   1.856   5.610
 1169SOL    HW1 4406   4.966   1.948   5.647
 1169SOL    HW2 4407   5.037   1.821   5.574
 1170SOL     OW 4408   4.815   4.539   2.467
 1170SOL    HW1 4409   4.766   4.549   2.554
 1170SOL    HW2 4410   4.852   4.628   2.439
 1171SOL     OW 4411   0.670   6.315   0.788
 1171SOL    HW1 4412   0.641   6.383   0.721
 1171SOL    HW2 4413   0.602   6.242   0.793
 1172SOL     OW 4414   5.917   3.125   0.083
 1172SOL    HW1 4415   5.819   3.133   0.068
 1172SOL    HW2 4416   5.960   3.087   0.002
 1173SOL     OW 4417   4.282   2.626   1.181
 1173SOL    HW1 4418   4.185   2.637   1.158
 1173SOL    HW2 4419   4.290   2.599   1.277
 1174SOL     OW 4420   2.961   4.847   0.392
 1174SOL    HW1 4421   2.977   4.796   0.476
 1174SOL    HW2 4422   3.047   4.860   0.344
 1175SOL     OW 4423   3.136   4.070   4.132
 1175SOL    HW1 4424   3.120   4.092   4.228
 1175SOL    HW2 4425   3.059   4.017   4.096
 1176SOL     OW 4426   5.636   3.152   0.066
 1176SOL    HW1 4427   5.605   3.159   6.994
 1176SOL    HW2 4428   5.559   3.127   0.124
 1177SOL     OW 4429   0.936   1.920   5.098
 1177SOL    HW1 4430   0.840   1.899   5.116
 1177SOL    HW2 4431   0.953   1.914   5.000
 1178SOL     OW 4432   4.537   6.811   0.054
 1178SOL    HW1 4433   4.547   6.803   0.154
 1178SOL    HW2 4434   4.625   6.838   0.014
 1179SOL     OW 4435   0.050   5.803   0.814
 1179SOL    HW1 4436   0.092   5.790   0.903
 1179SOL    HW2 4437   0.105   5.757   0.744
 1180SOL     OW 4438   3.813   6.459   0.639
 1180SOL    HW1 4439   3.719   6.435   0.663
 1180SOL    HW2 4440   3.859   6.378   0.601
 1181SOL     OW 4441   6.510   6.089   6.377
 1181SOL    HW1 4442   6.550   6.014   6.324
 1181SOL    HW2 4443   6.488   6.165   6.315
 1182SOL     OW 4444   4.854   3.834   3.830
 1182SOL    HW1 4445   4.825   3.845   3.925
 1182SOL    HW2 4446   4.884   3.922   3.794
 1183SOL     OW 4447   1.948   4.634   6.985
 1183SOL    HW1 4448   1.981   4.711   0.017
 1183SOL    HW2 4449   1.848   4.635   6.983
 1184SOL     OW 4450   0.028   0.945   5.398
 1184SOL    HW1 4451   0.060   0.963   5.491
 1184SOL    HW2 4452   0.029   1.030   5.345
 1185SOL     OW 4453   6.492   1.759   6.801
 1185SOL    HW1 4454   6.566   1.798   6.856
 1185SOL    HW2 4455   6.422   1.723   6.862
 1186SOL     OW 4456   5.406   6.353   4.410
 1186SOL    HW1 4457   5.487   6.409   4.423
 1186SOL    HW2 4458   5.326   6.400   4.448
 1187SOL     OW 4459   6.342   2.342   5.940
 1187SOL    HW1 4460   6.404   2.299   6.005
 1187SOL    HW2 4461   6.341   2.289   5.855
 1188SOL     OW 4462   4.133   1.948   6.643
 1188SOL    HW1 4463   4.092   1.875   6.588
 1188SOL    HW2 4464   4.061   2.008   6.677
 1189SOL     OW 4465   5.999   3.677   3.730
 1189SOL    HW1 4466   5.963   3.635   3.813
 1189SOL    HW2 4467   6.042   3.607   3.673
 1190SOL     OW 4468   3.103   0.357   3.839
 1190SOL    HW1 4469   3.136   0.450   3.860
 1190SOL    HW2 4470   3.054   0.322   3.919
 1191SOL     OW 4471   3.293   6.753   2.999
 1191SOL    HW1 4472   3.229   6.747   3.075
 1191SOL    HW2 4473   3.243   6.745   2.913
 1192SOL     OW 4474   6.382   5.553   3.732
 1192SOL    HW1 4475   6.428   5.614   3.797
 1192SOL    HW2 4476   6.290   5.534   3.764
 1193SOL     OW 4477   6.355   6.012   4.496
 1193SOL    HW1 4478   6.402   6.057   4.420
 1193SOL    HW2 4479   6.379   6.058   4.582
 1194SOL     OW 4480   3.568   0.212   1.003
 1194SOL    HW1 4481   3.553   0.137   1.068
 1194SOL    HW2 4482   3.632   0.182   0.932
 1195SOL     OW 4483   4.575   2.555   2.980
 1195SOL    HW1 4484   4.594   2.600   2.894
 1195SOL    HW2 4485   4.634   2.475   2.990
 1196SOL     OW 4486   0.303   6.793   5.021
 1196SOL    HW1 4487   0.340   6.811   4.930
 1196SOL    HW2 4488   0.273   6.697   5.027
 1197SOL     OW 4489   2.024   6.304   0.190
 1197SOL    HW1 4490   2.039   6.289   0.092
 1197SOL    HW2 4491   1.926   6.301   0.209
 1198SOL     OW 4492   1.465   2.493   6.938
 1198SOL    HW1 4493   1.418   2.463   6.855
 1198SOL    HW2 4494   1.536   2.426   6.961
 1199SOL     OW 4495   6.080   3.837   2.397
 1199SOL    HW1 4496   6.042   3.924   2.427
 1199SOL    HW2 4497   6.050   3.819   2.303
 1200SOL     OW 4498   3.355   4.037   2.714
 1200SOL    HW1 4499   3.427   3.970   2.698
 1200SOL    HW2 4500   3.368   4.078   2.805
 1201SOL     OW 4501   1.686   2.303   5.086
 1201SOL    HW1 4502   1.662   2.294   4.989
 1201SOL    HW2 4503   1.772   2.355   5.094
 1202SOL     OW 4504   1.353   6.065   5.178
 1202SOL    HW1 4505   1.409   5.983   5.184
 1202SOL    HW2 4506   1.332   6.098   5.270
 1203SOL     OW 4507   4.118   5.879   5.172
 1203SOL    HW1 4508   4.095   5.920   5.261
 1203SOL    HW2 4509   4.217   5.867   5.166
 1204SOL     OW 4510   1.988   0.011   3.010
 1204SOL    HW1 4511   1.938   7.020   2.925
 1204SOL    HW2 4512   2.056   6.961   3.021
 1205SOL     OW 4513   5.701   3.629   2.473
 1205SOL    HW1 4514   5.682   3.716   2.427
 1205SOL    HW2 4515   5.644   3.622   2.555
 1206SOL     OW 4516   3.202   3.723   4.269
 1206SOL    HW1 4517   3.208   3.624   4.288
 1206SOL    HW2 4518   3.106   3.748   4.254
 1207SOL     OW 4519   0.948   5.779   2.807
 1207SOL    HW1 4520   0.966   5.808   2.901
 1207SOL    HW2 4521   0.964   5.681   2.799
 1208SOL     OW 4522   3.375   3.284   6.347
 1208SOL    HW1 4523   3.297   3.222   6.357
 1208SOL    HW2 4524   3.451   3.251   6.403
 1209SOL     OW 4525   3.993   6.289   5.179
 1209SOL    HW1 4526   4.042   6.363   5.133
 1209SOL    HW2 4527   3.983   6.211   5.117
 1210SOL     OW 4528   2.987   0.952   2.711
 1210SOL    HW1 4529   3.036   0.970   2.796
 1210SOL    HW2 4530   2.902   0.903   2.730
 1211SOL     OW 4531   0.744   2.825   0.392
 1211SOL    HW1 4532   0.720   2.845   0.297
 1211SOL    HW2 4533   0.737   2.727   0.408
 1212SOL     OW 4534   0.616   6.834   0.356
 1212SOL    HW1 4535   0.700   6.798   0.397
 1212SOL    HW2 4536   0.564   6.758   0.316
 1213SOL     OW 4537   5.717   2.909   1.340
 1213SOL    HW1 4538   5.742   2.883   1.433
 1213SOL    HW2 4539   5.633   2.964   1.342
 1214SOL     OW 4540   6.854   2.571   2.434
 1214SOL    HW1 4541   6.886   2.633   2.506
 1214SOL    HW2 4542   6.889   2.479   2.453
 1215SOL     OW 4543   2.165   6.000   2.758
 1215SOL    HW1 4544   2.196   6.095   2.759
 1215SOL    HW2 4545   2.119   5.980   2.844
 1216SOL     OW 4546   4.256   0.025   1.661
 1216SOL    HW1 4547   4.264   0.117   1.699
 1216SOL    HW2 4548   4.345   7.018   1.626
 1217SOL     OW 4549   2.787   4.056   6.828
 1217SOL    HW1 4550   2.772   4.154   6.821
 1217SOL    HW2 4551   2.699   4.008   6.826
 1218SOL     OW 4552   2.232   5.350   3.932
 1218SOL    HW1 4553   2.148   5.360   3.878
 1218SOL    HW2 4554   2.240   5.256   3.963
 1219SOL     OW 4555   3.973   5.411   1.782
 1219SOL    HW1 4556   4.057   5.419   1.837
 1219SOL    HW2 4557   3.989   5.347   1.707
 1220SOL     OW 4558   0.341   4.722   2.236
 1220SOL    HW1 4559   0.285   4.694   2.314
 1220SOL    HW2 4560   0.336   4.821   2.225
 1221SOL     OW 4561   4.628   4.490   6.853
 1221SOL    HW1 4562   4.547   4.467   6.799
 1221SOL    HW2 4563   4.602   4.497   6.950
 1222SOL     OW 4564   6.651   1.086   6.685
 1222SOL    HW1 4565   6.558   1.110   6.660
 1222SOL    HW2 4566   6.706   1.170   6.690
 1223SOL     OW 4567   4.040   6.698   1.301
 1223SOL    HW1 4568   4.053   6.784   1.350
 1223SOL    HW2 4569   4.094   6.699   1.217
 1224SOL     OW 4570   3.169   1.017   1.598
 1224SOL    HW1 4571   3.110   1.092   1.571
 1224SOL    HW2 4572   3.200   1.030   1.692
 1225SOL     OW 4573   2.901   3.570   6.196
 1225SOL    HW1 4574   2.834   3.631   6.154
 1225SOL    HW2 4575   2.993   3.608   6.182
 1226SOL     OW 4576   2.365   4.898   0.215
 1226SOL    HW1 4577   2.290   4.850   0.259
 1226SOL    HW2 4578   2.403   4.966   0.278
 1227SOL     OW 4579   1.496   4.387   6.098
 1227SOL    HW1 4580   1.509   4.326   6.176
 1227SOL    HW2 4581   1.542   4.349   6.017
 1228SOL     OW 4582   3.897   2.100   6.722
 1228SOL    HW1 4583   3.976   2.159   6.737
 1228SOL    HW2 4584   3.869   2.059   6.809
 1229SOL     OW 4585   3.478   3.866   6.754
 1229SOL    HW1 4586   3.454   3.770   6.741
 1229SOL    HW2 4587   3.437   3.900   6.839
 1230SOL     OW 4588   4.238   0.341   3.798
 1230SOL    HW1 4589   4.279   0.418   3.750
 1230SOL    HW2 4590   4.210   0.370   3.889
 1231SOL     OW 4591   0.984   3.437   3.980
 1231SOL    HW1 4592   0.956   3.342   3.971
 1231SOL    HW2 4593   1.054   3.444   4.051
 1232SOL     OW 4594   1.924   3.016   2.897
 1232SOL    HW1 4595   2.017   3.049   2.913
 1232SOL    HW2 4596   1.879   3.075   2.830
 1233SOL     OW 4597   0.697   2.182   4.328
 1233SOL    HW1 4598   0.679   2.088   4.300
 1233SOL    HW2 4599   0.788   2.210   4.296
 1234SOL     OW 4600   6.201   4.472   4.367
 1234SOL    HW1 4601   6.203   4.440   4.462
 1234SOL    HW2 4602   6.111   4.510   4.348
 1235SOL     OW 4603   6.733   5.006   3.458
 1235SOL    HW1 4604   6.760   4.944   3.531
 1235SOL    HW2 4605   6.696   4.953   3.381
 1236SOL     OW 4606   5.442   0.847   6.624
 1236SOL    HW1 4607   5.392   0.929   6.653
 1236SOL    HW2 4608   5.450   0.846   6.524
 1237SOL     OW 4609   2.025   4.579   6.434
 1237SOL    HW1 4610   1.945   4.568   6.375
 1237SOL    HW2 4611   2.009   4.654   6.498
 1238SOL     OW 4612   1.641   1.507   1.270
 1238SOL    HW1 4613   1.625   1.410   1.254
 1238SOL    HW2 4614   1.610   1.559   1.191
 1239SOL     OW 4615   0.883   0.218   5.785
 1239SOL    HW1 4616   0.842   0.221   5.693
 1239SOL    HW2 4617   0.977   0.252   5.780
 1240SOL     OW 4618   5.581   5.524   0.871
 1240SOL    HW1 4619   5.582   5.444   0.812
 1240SOL    HW2 4620   5.531   5.503   0.956
 1241SOL     OW 4621   7.015   2.033   4.613
 1241SOL    HW1 4622   6.986   2.051   4.707
 1241SOL    HW2 4623   0.035   2.116   4.575
 1242SOL     OW 4624   2.205   2.365   6.708
 1242SOL    HW1 4625   2.192   2.464   6.715
 1242SOL    HW2 4626   2.201   2.324   6.799
 1243SOL     OW 4627   3.000   5.072   5.090
 1243SOL    HW1 4628   3.049   4.987   5.069
 1243SOL    HW2 4629   2.949   5.101   5.009
 1244SOL     OW 4630   0.512   1.862   2.875
 1244SOL    HW1 4631   0.595   1.901   2.835
 1244SOL    HW2 4632   0.442   1.853   2.805
 1245SOL     OW 4633   3.048   2.752   5.483
 1245SOL    HW1 4634   2.977   2.754   5.553
 1245SOL    HW2 4635   3.050   2.839   5.434
 1246SOL     OW 4636   1.413   6.590   1.573
 1246SOL    HW1 4637   1.443   6.684   1.558
 1246SOL    HW2 4638   1.316   6.590   1.597
 1247SOL     OW 4639   0.917   6.669   6.764
 1247SOL    HW1 4640   0.922   6.686   6.665
 1247SOL    HW2 4641   1.004   6.694   6.806
 1248SOL     OW 4642   2.368   0.057   3.859
 1248SOL    HW1 4643   2.328   0.092   3.775
 1248SOL    HW2 4644   2.419   6.996   3.839
 1249SOL     OW 4645   5.761   3.023   3.144
 1249SOL    HW1 4646   5.673   3.071   3.138
 1249SOL    HW2 4647   5.779   2.974   3.059
 1250SOL     OW 4648   0.120   3.304   4.679
 1250SOL    HW1 4649   0.153   3.226   4.625
 1250SOL    HW2 4650   0.190   3.331   4.745
 1251SOL     OW 4651   3.251   0.536   6.330
 1251SOL    HW1 4652   3.258   0.496   6.421
 1251SOL    HW2 4653   3.304   0.621   6.327
 1252SOL     OW 4654   3.318   3.882   0.267
 1252SOL    HW1 4655   3.416   3.891   0.252
 1252SOL    HW2 4656   3.294   3.918   0.357
 1253SOL     OW 4657   4.690   1.170   3.039
 1253SOL    HW1 4658   4.742   1.255   3.028
 1253SOL    HW2 4659   4.662   1.136   2.949
 1254SOL     OW 4660   5.517   1.090   3.762
 1254SOL    HW1 4661   5.501   1.174   3.710
 1254SOL    HW2 4662   5.452   1.085   3.838
 1255SOL     OW 4663   5.829   0.397   2.027
 1255SOL    HW1 4664   5.800   0.309   2.064
 1255SOL    HW2 4665   5.782   0.414   1.941
 1256SOL     OW 4666   4.969   2.562   3.708
 1256SOL    HW1 4667   5.024   2.483   3.736
 1256SOL    HW2 4668   4.888   2.531   3.658
 1257SOL     OW 4669   5.756   1.049   4.360
 1257SOL    HW1 4670   5.713   0.963   4.335
 1257SOL    HW2 4671   5.690   1.107   4.408
 1258SOL     OW 4672   0.216   5.008   3.419
 1258SOL    HW1 4673   0.128   5.053   3.432
 1258SOL    HW2 4674   0.252   5.030   3.328
 1259SOL     OW 4675   5.378   2.398   4.343
 1259SOL    HW1 4676   5.379   2.446   4.255
 1259SOL    HW2 4677   5.303   2.333   4.345
 1260SOL     OW 4678   0.789   1.751   4.835
 1260SOL    HW1 4679   0.889   1.755   4.834
 1260SOL    HW2 4680   0.759   1.672   4.888
 1261SOL     OW 4681   6.804   3.562   1.037
 1261SOL    HW1 4682   6.774   3.586   1.130
 1261SOL    HW2 4683   6.729   3.579   0.973
 1262SOL     OW 4684   4.758   6.245   2.084
 1262SOL    HW1 4685   4.825   6.177   2.113
 1262SOL    HW2 4686   4.725   6.296   2.163
 1263SOL     OW 4687   0.764   2.156   3.148
 1263SOL    HW1 4688   0.765   2.059   3.123
 1263SOL    HW2 4689   0.688   2.173   3.210
 1264SOL     OW 4690   1.246   2.607   5.498
 1264SOL    HW1 4691   1.185   2.596   5.420
 1264SOL    HW2 4692   1.322   2.541   5.490
 1265SOL     OW 4693   6.049   0.031   5.737
 1265SOL    HW1 4694   6.116   0.093   5.776
 1265SOL    HW2 4695   6.009   6.997   5.809
 1266SOL     OW 4696   3.274   1.204   5.518
 1266SOL    HW1 4697   3.278   1.135   5.445
 1266SOL    HW2 4698   3.179   1.229   5.535
 1267SOL     OW 4699   2.903   0.246   2.080
 1267SOL    HW1 4700   2.953   0.315   2.027
 1267SOL    HW2 4701   2.829   0.289   2.130
 1268SOL     OW 4702   4.022   2.325   5.339
 1268SOL    HW1 4703   4.005   2.227   5.333
 1268SOL    HW2 4704   3.937   2.375   5.321
 1269SOL     OW 4705   5.594   1.794   3.692
 1269SOL    HW1 4706   5.514   1.752   3.734
 1269SOL    HW2 4707   5.675   1.772   3.746
 1270SOL     OW 4708   5.756   5.279   3.154
 1270SOL    HW1 4709   5.724   5.199   3.205
 1270SOL    HW2 4710   5.721   5.274   3.060
 1271SOL     OW 4711   1.536   0.930   2.015
 1271SOL    HW1 4712   1.631   0.916   2.045
 1271SOL    HW2 4713   1.532   0.927   1.916
 1272SOL     OW 4714   6.355   2.039   0.535
 1272SOL    HW1 4715   6.414   1.979   0.589
 1272SOL    HW2 4716   6.260   2.019   0.555
 1273SOL     OW 4717   1.691   4.470   5.526
 1273SOL    HW1 4718   1.631   4.464   5.446
 1273SOL    HW2 4719   1.735   4.381   5.541
 1274SOL     OW 4720   0.268   4.536   4.242
 1274SOL    HW1 4721   0.189   4.489   4.204
 1274SOL    HW2 4722   0.263   4.535   4.342
 1275SOL     OW 4723   1.892   1.577   2.892
 1275SOL    HW1 4724   1.973   1.525   2.920
 1275SOL    HW2 4725   1.918   1.671   2.872
 1276SOL     OW 4726   5.687   4.313   3.776
 1276SOL    HW1 4727   5.685   4.413   3.763
 1276SOL    HW2 4728   5.600   4.274   3.749
 1277SOL     OW 4729   1.522   6.313   6.392
 1277SOL    HW1 4730   1.573   6.313   6.478
 1277SOL    HW2 4731   1.526   6.222   6.350
 1278SOL     OW 4732   6.962   6.125   2.734
 1278SOL    HW1 4733   6.991   6.188   2.807
 1278SOL    HW2 4734   0.020   6.092   2.686
 1279SOL     OW 4735   2.999   3.463   0.500
 1279SOL    HW1 4736   3.015   3.438   0.596
 1279SOL    HW2 4737   3.084   3.497   0.460
 1280SOL     OW 4738   2.659   2.432   3.972
 1280SOL    HW1 4739   2.618   2.450   3.883
 1280SOL    HW2 4740   2.729   2.361   3.963
 1281SOL     OW 4741   5.214   6.420   5.509
 1281SOL    HW1 4742   5.170   6.509   5.505
 1281SOL    HW2 4743   5.283   6.413   5.436
 1282SOL     OW 4744   1.082   2.944   0.840
 1282SOL    HW1 4745   1.029   2.896   0.770
 1282SOL    HW2 4746   1.144   2.880   0.885
 1283SOL     OW 4747   0.508   1.184   4.331
 1283SOL    HW1 4748   0.521   1.255   4.262
 1283SOL    HW2 4749   0.513   1.094   4.288
 1284SOL     OW 4750   3.814   2.191   1.707
 1284SOL    HW1 4751   3.750   2.238   1.768
 1284SOL    HW2 4752   3.907   2.197   1.745
 1285SOL     OW 4753   4.228   1.311   4.634
 1285SOL    HW1 4754   4.242   1.372   4.711
 1285SOL    HW2 4755   4.134   1.320   4.601
 1286SOL     OW 4756   4.916   1.117   2.194
 1286SOL    HW1 4757   4.850   1.187   2.168
 1286SOL    HW2 4758   4.871   1.028   2.197
 1287SOL     OW 4759   5.139   5.115   6.235
 1287SOL    HW1 4760   5.212   5.156   6.289
 1287SOL    HW2 4761   5.162   5.121   6.138
 1288SOL     OW 4762   4.688   4.206   6.534
 1288SOL    HW1 4763   4.713   4.248   6.622
 1288SOL    HW2 4764   4.636   4.122   6.551
 1289SOL     OW 4765   1.147   6.902   0.482
 1289SOL    HW1 4766   1.203   6.820   0.470
 1289SOL    HW2 4767   1.198   6.971   0.534
 1290SOL     OW 4768   1.085   6.754   4.787
 1290SOL    HW1 4769   1.184   6.744   4.794
 1290SOL    HW2 4770   1.060   6.783   4.695
 1291SOL     OW 4771   5.478   5.413   3.165
 1291SOL    HW1 4772   5.536   5.333   3.147
 1291SOL    HW2 4773   5.507   5.489   3.105
 1292SOL     OW 4774   0.461   6.660   3.018
 1292SOL    HW1 4775   0.527   6.586   3.009
 1292SOL    HW2 4776   0.500   6.745   2.982
 1293SOL     OW 4777   4.981   0.072   0.882
 1293SOL    HW1 4778   4.993   0.018   0.799
 1293SOL    HW2 4779   5.067   0.072   0.934
 1294SOL     OW 4780   2.074   4.583   5.327
 1294SOL    HW1 4781   2.164   4.609   5.291
 1294SOL    HW2 4782   2.055   4.636   5.409
 1295SOL     OW 4783   0.242   4.550   0.371
 1295SOL    HW1 4784   0.315   4.612   0.400
 1295SOL    HW2 4785   0.192   4.591   0.294
 1296SOL     OW 4786   4.548   0.708   5.294
 1296SOL    HW1 4787   4.530   0.795   5.248
 1296SOL    HW2 4788   4.590   0.725   5.383
 1297SOL     OW 4789   6.375   6.723   6.748
 1297SOL    HW1 4790   6.289   6.764   6.719
 1297SOL    HW2 4791   6.367   6.694   6.843
 1298SOL     OW 4792   5.202   0.519   3.175
 1298SOL    HW1 4793   5.187   0.420   3.173
 1298SOL    HW2 4794   5.135   0.562   3.236
 1299SOL     OW 4795   1.030   4.745   4.604
 1299SOL    HW1 4796   1.128   4.762   4.589
 1299SOL    HW2 4797   0.987   4.722   4.517
 1300SOL     OW 4798   1.555   5.640   6.988
 1300SOL    HW1 4799   1.466   5.641   0.012
 1300SOL    HW2 4800   1.579   5.732   6.959
 1301SOL     OW 4801   6.250   1.029   0.255
 1301SOL    HW1 4802   6.259   1.035   0.155
 1301SOL    HW2 4803   6.233   0.933   0.280
 1302SOL     OW 4804   6.814   6.741   4.955
 1302SOL    HW1 4805   6.735   6.743   5.016
 1302SOL    HW2 4806   6.851   6.648   4.952
 1303SOL     OW 4807   3.086   6.745   1.212
 1303SOL    HW1 4808   3.057   6.838   1.192
 1303SOL    HW2 4809   3.184   6.736   1.197
 1304SOL     OW 4810   6.859   6.945   0.220
 1304SOL    HW1 4811   6.946   6.951   0.170
 1304SOL    HW2 4812   6.790   6.999   0.172
 1305SOL     OW 4813   4.254   3.841   5.744
 1305SOL    HW1 4814   4.186   3.863   5.674
 1305SOL    HW2 4815   4.254   3.912   5.814
 1306SOL     OW 4816   2.884   6.314   4.379
 1306SOL    HW1 4817   2.861   6.318   4.282
 1306SOL    HW2 4818   2.984   6.311   4.390
 1307SOL     OW 4819   2.059   3.273   4.193
 1307SOL    HW1 4820   2.066   3.205   4.266
 1307SOL    HW2 4821   2.139   3.333   4.197
 1308SOL     OW 4822   0.254   3.882   6.488
 1308SOL    HW1 4823   0.320   3.840   6.550
 1308SOL    HW2 4824   0.257   3.837   6.399
 1309SOL     OW 4825   5.958   4.040   6.751
 1309SOL    HW1 4826   5.868   4.078   6.769
 1309SOL    HW2 4827   5.967   4.019   6.653
 1310SOL     OW 4828   2.212   3.111   3.177
 1310SOL    HW1 4829   2.208   3.063   3.090
 1310SOL    HW2 4830   2.295   3.083   3.227
 1311SOL     OW 4831   6.270   4.987   0.169
 1311SOL    HW1 4832   6.332   4.920   0.209
 1311SOL    HW2 4833   6.297   5.004   0.074
 1312SOL     OW 4834   2.852   1.411   6.298
 1312SOL    HW1 4835   2.757   1.442   6.287
 1312SOL    HW2 4836   2.852   1.315   6.324
 1313SOL     OW 4837   5.788   5.101   2.285
 1313SOL    HW1 4838   5.767   5.066   2.193
 1313SOL    HW2 4839   5.879   5.142   2.285
 1314SOL     OW 4840   2.453   1.581   3.816
 1314SOL    HW1 4841   2.418   1.668   3.850
 1314SOL    HW2 4842   2.480   1.523   3.893
 1315SOL     OW 4843   6.263   1.033   2.981
 1315SOL    HW1 4844   6.211   1.103   2.932
 1315SOL    HW2 4845   6.286   0.958   2.918
 1316SOL     OW 4846   5.303   0.154   6.237
 1316SOL    HW1 4847   5.282   0.061   6.207
 1316SOL    HW2 4848   5.238   0.181   6.308
 1317SOL     OW 4849   3.825   3.001   4.300
 1317SOL    HW1 4850   3.803   3.098   4.317
 1317SOL    HW2 4851   3.880   2.994   4.217
 1318SOL     OW 4852   2.045   1.508   6.496
 1318SOL    HW1 4853   2.002   1.598   6.490
 1318SOL    HW2 4854   2.008   1.448   6.425
 1319SOL     OW 4855   6.417   1.359   0.441
 1319SOL    HW1 4856   6.499   1.304   0.426
 1319SOL    HW2 4857   6.341   1.321   0.388
 1320SOL     OW 4858   2.691   2.902   6.026
 1320SOL    HW1 4859   2.788   2.893   6.047
 1320SOL    HW2 4860   2.652   2.811   6.007
 1321SOL     OW 4861   0.057   2.690   1.325
 1321SOL    HW1 4862   0.154   2.714   1.326
 1321SOL    HW2 4863   0.039   2.623   1.397
 1322SOL     OW 4864   2.392   2.557   6.854
 1322SOL    HW1 4865   2.389   2.577   6.756
 1322SOL    HW2 4866   2.468   2.494   6.873
 1323SOL     OW 4867   4.038   0.731   1.236
 1323SOL    HW1 4868   4.021   0.689   1.146
 1323SOL    HW2 4869   4.136   0.748   1.245
 1324SOL     OW 4870   2.133   4.007   5.929
 1324SOL    HW1 4871   2.056   4.052   5.975
 1324SOL    HW2 4872   2.182   3.950   5.995
 1325SOL     OW 4873   4.282   6.213   4.536
 1325SOL    HW1 4874   4.254   6.118   4.553
 1325SOL    HW2 4875   4.311   6.254   4.622
 1326SOL     OW 4876   4.669   1.253   4.801
 1326SOL    HW1 4877   4.709   1.190   4.733
 1326SOL    HW2 4878   4.740   1.315   4.834
 1327SOL     OW 4879   4.846   5.829   2.078
 1327SOL    HW1 4880   4.878   5.784   2.162
 1327SOL    HW2 4881   4.879   5.778   1.998
 1328SOL     OW 4882   1.933   2.154   5.797
 1328SOL    HW1 4883   1.848   2.175   5.846
 1328SOL    HW2 4884   2.010   2.158   5.861
 1329SOL     OW 4885   1.007   2.931   4.183
 1329SOL    HW1 4886   0.909   2.952   4.177
 1329SOL    HW2 4887   1.020   2.840   4.221
 1330SOL     OW 4888   6.454   3.200   3.197
 1330SOL    HW1 4889   6.372   3.161   3.237
 1330SOL    HW2 4890   6.492   3.136   3.130
 1331SOL     OW 4891   4.179   1.840   3.062
 1331SOL    HW1 4892   4.193   1.887   2.975
 1331SOL    HW2 4893   4.175   1.907   3.136
 1332SOL     OW 4894   2.246   6.159   6.648
 1332SOL    HW1 4895   2.174   6.091   6.657
 1332SOL    HW2 4896   2.211   6.249   6.675
 1333SOL     OW 4897   3.777   3.483   2.774
 1333SOL    HW1 4898   3.867   3.446   2.795
 1333SOL    HW2 4899   3.779   3.583   2.780
 1334SOL     OW 4900   6.531   4.194   1.231
 1334SOL    HW1 4901   6.552   4.167   1.325
 1334SOL    HW2 4902   6.550   4.117   1.169
 1335SOL     OW 4903   0.511   3.675   2.991
 1335SOL    HW1 4904   0.412   3.669   3.001
 1335SOL    HW2 4905   0.555   3.662   3.080
 1336SOL     OW 4906   2.103   6.503   5.837
 1336SOL    HW1 4907   2.026   6.566   5.831
 1336SOL    HW2 4908   2.124   6.469   5.745
 1337SOL     OW 4909   0.614   0.048   2.221
 1337SOL    HW1 4910   0.586   6.975   2.230
 1337SOL    HW2 4911   0.533   0.105   2.209
 1338SOL     OW 4912   0.067   4.144   5.139
 1338SOL    HW1 4913   0.090   4.202   5.217
 1338SOL    HW2 4914   0.149   4.096   5.108
 1339SOL     OW 4915   5.702   1.129   0.269
 1339SOL    HW1 4916   5.755   1.208   0.241
 1339SOL    HW2 4917   5.759   1.047   0.268
 1340SOL     OW 4918   2.967   2.725   0.923
 1340SOL    HW1 4919   3.030   2.673   0.981
 1340SOL    HW2 4920   2.934   2.805   0.973
 1341SOL     OW 4921   5.788   6.018   6.645
 1341SOL    HW1 4922   5.754   5.942   6.701
 1341SOL    HW2 4923   5.710   6.073   6.612
 1342SOL     OW 4924   1.812   5.713   1.515
 1342SOL    HW1 4925   1.880   5.688   1.585
 1342SOL    HW2 4926   1.783   5.807   1.530
 1343SOL     OW 4927   4.959   5.999   2.729
 1343SOL    HW1 4928   4.970   6.066   2.656
 1343SOL    HW2 4929   4.968   6.044   2.817
 1344SOL     OW 4930   0.950   0.759   4.002
 1344SOL    HW1 4931   0.869   0.722   3.956
 1344SOL    HW2 4932   0.995   0.826   3.942
 1345SOL     OW 4933   1.587   6.799   5.584
 1345SOL    HW1 4934   1.592   6.883   5.638
 1345SOL    HW2 4935   1.599   6.720   5.645
 1346SOL     OW 4936   3.382   5.650   3.911
 1346SOL    HW1 4937   3.426   5.688   3.829
 1346SOL    HW2 4938   3.452   5.613   3.972
 1347SOL     OW 4939   1.345   0.979   6.517
 1347SOL    HW1 4940   1.306   0.961   6.608
 1347SOL    HW2 4941   1.315   0.908   6.453
 1348SOL     OW 4942   1.366   6.759   4.804
 1348SOL    HW1 4943   1.392   6.780   4.710
 1348SOL    HW2 4944   1.405   6.827   4.866
 1349SOL     OW 4945   5.459   3.816   4.067
 1349SOL    HW1 4946   5.388   3.809   3.998
 1349SOL    HW2 4947   5.424   3.782   4.155
 1350SOL     OW 4948   5.084   4.998   6.495
 1350SOL    HW1 4949   5.109   4.992   6.592
 1350SOL    HW2 4950   5.164   4.980   6.438
 1351SOL     OW 4951   0.034   2.600   6.386
 1351SOL    HW1 4952   6.957   2.610   6.378
 1351SOL    HW2 4953   0.055   2.509   6.422
 1352SOL     OW 4954   6.913   0.676   2.804
 1352SOL    HW1 4955   6.816   0.677   2.830
 1352SOL    HW2 4956   6.921   0.681   2.704
 1353SOL     OW 4957   6.417   2.208   6.163
 1353SOL    HW1 4958   6.373   2.188   6.250
 1353SOL    HW2 4959   6.484   2.282   6.176
 1354SOL     OW 4960   5.001   4.900   2.793
 1354SOL    HW1 4961   4.908   4.937   2.795
 1354SOL    HW2 4962   5.066   4.974   2.812
 1355SOL     OW 4963   4.248   3.569   5.055
 1355SOL    HW1 4964   4.339   3.584   5.016
 1355SOL    HW2 4965   4.258   3.529   5.147
 1356SOL     OW 4966   2.817   3.357   6.901
 1356SOL    HW1 4967   2.780   3.330   6.813
 1356SOL    HW2 4968   2.907   3.399   6.888
 1357SOL     OW 4969   1.024   3.277   5.788
 1357SOL    HW1 4970   1.001   3.372   5.768
 1357SOL    HW2 4971   1.117   3.258   5.757
 1358SOL     OW 4972   2.518   6.889   6.761
 1358SOL    HW1 4973   2.529   6.923   6.854
 1358SOL    HW2 4974   2.473   6.959   6.705
 1359SOL     OW 4975   6.202   4.658   6.874
 1359SOL    HW1 4976   6.169   4.704   6.791
 1359SOL    HW2 4977   6.156   4.697   6.954
 1360SOL     OW 4978   2.609   1.365   5.947
 1360SOL    HW1 4979   2.617   1.464   5.942
 1360SOL    HW2 4980   2.561   1.340   6.032
 1361SOL     OW 4981   6.567   5.443   5.271
 1361SOL    HW1 4982   6.662   5.421   5.294
 1361SOL    HW2 4983   6.544   5.532   5.309
 1362SOL     OW 4984   3.625   3.948   4.269
 1362SOL    HW1 4985   3.549   3.927   4.207
 1362SOL    HW2 4986   3.679   3.866   4.285
 1363SOL     OW 4987   0.128   6.615   3.484
 1363SOL    HW1 4988   0.053   6.675   3.513
 1363SOL    HW2 4989   0.091   6.541   3.427
 1364SOL     OW 4990   4.000   4.039   6.978
 1364SOL    HW1 4991   4.052   4.034   6.893
 1364SOL    HW2 4992   3.976   3.946   7.008
 1365SOL     OW 4993   5.701   2.698   6.126
 1365SOL    HW1 4994   5.676   2.657   6.039
 1365SOL    HW2 4995   5.801   2.699   6.135
 1366SOL     OW 4996   2.307   0.581   5.068
 1366SOL    HW1 4997   2.251   0.604   4.988
 1366SOL    HW2 4998   2.335   0.485   5.062
 1367SOL     OW 4999   2.584   1.797   2.352
 1367SOL    HW1 5000   2.681   1.775   2.354
 1367SOL    HW2 5001   2.571   1.893   2.376
 1368SOL     OW 5002   0.060   0.382   3.506
 1368SOL    HW1 5003   0.072   0.469   3.459
 1368SOL    HW2 5004   0.040   0.399   3.603
 1369SOL     OW 5005   7.022   0.447   2.523
 1369SOL    HW1 5006   6.926   0.448   2.550
 1369SOL    HW2 5007   0.057   0.466   2.603
 1370SOL     OW 5008   1.614   0.899   2.322
 1370SOL    HW1 5009   1.703   0.920   2.363
 1370SOL    HW2 5010   1.555   0.980   2.328
 1371SOL     OW 5011   3.277   0.245   5.967
 1371SOL    HW1 5012   3.213   0.255   6.043
 1371SOL    HW2 5013   3.259   0.159   5.919
 1372SOL     OW 5014   2.691   1.879   1.699
 1372SOL    HW1 5015   2.649   1.969   1.710
 1372SOL    HW2 5016   2.621   1.809   1.694
 1373SOL     OW 5017   1.634   5.556   6.640
 1373SOL    HW1 5018   1.664   5.652   6.641
 1373SOL    HW2 5019   1.682   5.506   6.711
 1374SOL     OW 5020   5.142   3.778   5.440
 1374SOL    HW1 5021   5.222   3.832   5.416
 1374SOL    HW2 5022   5.135   3.699   5.379
 1375SOL     OW 5023   1.340   4.026   4.338
 1375SOL    HW1 5024   1.429   4.069   4.350
 1375SOL    HW2 5025   1.271   4.096   4.321
 1376SOL     OW 5026   4.933   0.509   1.936
 1376SOL    HW1 5027   4.936   0.417   1.975
 1376SOL    HW2 5028   4.839   0.545   1.943
 1377SOL     OW 5029   0.497   4.242   5.027
 1377SOL    HW1 5030   0.491   4.178   5.104
 1377SOL    HW2 5031   0.446   4.325   5.050
 1378SOL     OW 5032   1.817   1.852   0.521
 1378SOL    HW1 5033   1.819   1.857   0.621
 1378SOL    HW2 5034   1.805   1.757   0.493
 1379SOL     OW 5035   4.393   5.564   1.612
 1379SOL    HW1 5036   4.309   5.610   1.585
 1379SOL    HW2 5037   4.457   5.630   1.651
 1380SOL     OW 5038   6.088   5.025   2.647
 1380SOL    HW1 5039   6.112   4.944   2.701
 1380SOL    HW2 5040   6.000   5.061   2.679
 1381SOL     OW 5041   4.461   0.061   2.746
 1381SOL    HW1 5042   4.392   0.077   2.816
 1381SOL    HW2 5043   4.513   7.001   2.769
 1382SOL     OW 5044   0.320   4.252   0.682
 1382SOL    HW1 5045   0.313   4.267   0.583
 1382SOL    HW2 5046   0.415   4.258   0.709
 1383SOL     OW 5047   2.648   0.122   0.561
 1383SOL    HW1 5048   2.722   0.056   0.573
 1383SOL    HW2 5049   2.637   0.177   0.644
 1384SOL     OW 5050   1.249   1.439   1.710
 1384SOL    HW1 5051   1.347   1.427   1.725
 1384SOL    HW2 5052   1.207   1.473   1.794
 1385SOL     OW 5053   4.947   3.518   3.942
 1385SOL    HW1 5054   4.891   3.586   3.894
 1385SOL    HW2 5055   4.913   3.426   3.921
 1386SOL     OW 5056   2.768   2.309   3.586
 1386SOL    HW1 5057   2.754   2.297   3.487
 1386SOL    HW2 5058   2.776   2.220   3.630
 1387SOL     OW 5059   3.517   0.933   3.790
 1387SOL    HW1 5060   3.518   0.919   3.691
 1387SOL    HW2 5061   3.439   0.885   3.830
 1388SOL     OW 5062   4.985   1.988   3.718
 1388SOL    HW1 5063   4.986   1.990   3.818
 1388SOL    HW2 5064   5.023   1.901   3.687
 1389SOL     OW 5065   6.420   0.452   3.742
 1389SOL    HW1 5066   6.459   0.492   3.659
 1389SOL    HW2 5067   6.392   0.357   3.723
 1390SOL     OW 5068   5.524   1.832   2.327
 1390SOL    HW1 5069   5.525   1.832   2.427
 1390SOL    HW2 5070   5.618   1.835   2.293
 1391SOL     OW 5071   5.542   0.779   5.248
 1391SOL    HW1 5072   5.458   0.792   5.300
 1391SOL    HW2 5073   5.541   0.689   5.204
 1392SOL     OW 5074   3.755   6.873   5.097
 1392SOL    HW1 5075   3.686   6.939   5.069
 1392SOL    HW2 5076   3.778   6.886   5.193
 1393SOL     OW 5077   5.108   0.317   6.949
 1393SOL    HW1 5078   5.031   0.372   6.981
 1393SOL    HW2 5079   5.173   0.375   6.900
 1394SOL     OW 5080   4.143   0.892   4.202
 1394SOL    HW1 5081   4.167   0.798   4.229
 1394SOL    HW2 5082   4.078   0.930   4.268
 1395SOL     OW 5083   0.547   4.861   2.490
 1395SOL    HW1 5084   0.598   4.785   2.450
 1395SOL    HW2 5085   0.566   4.866   2.588
 1396SOL     OW 5086   1.357   1.707   3.622
 1396SOL    HW1 5087   1.344   1.728   3.525
 1396SOL    HW2 5088   1.388   1.613   3.632
 1397SOL     OW 5089   2.471   4.213   5.716
 1397SOL    HW1 5090   2.569   4.230   5.708
 1397SOL    HW2 5091   2.450   4.119   5.689
 1398SOL     OW 5092   3.212   6.952   6.332
 1398SOL    HW1 5093   3.280   6.908   6.390
 1398SOL    HW2 5094   3.257   6.998   6.256
 1399SOL     OW 5095   3.710   6.944   6.841
 1399SOL    HW1 5096   3.764   6.981   6.917
 1399SOL    HW2 5097   3.737   6.849   6.824
 1400SOL     OW 5098   0.513   1.558   5.514
 1400SOL    HW1 5099   0.474   1.510   5.436
 1400SOL    HW2 5100   0.611   1.575   5.498
 1401SOL     OW 5101   4.416   0.215   2.262
 1401SOL    HW1 5102   4.398   0.307   2.296
 1401SOL    HW2 5103   4.417   0.151   2.339
 1402SOL     OW 5104   4.934   3.948   1.949
 1402SOL    HW1 5105   4.889   3.937   1.861
 1402SOL    HW2 5106   4.900   4.031   1.994
 1403SOL     OW 5107   3.139   3.238   6.733
 1403SOL    HW1 5108   3.129   3.299   6.654
 1403SOL    HW2 5109   3.102   3.148   6.711
 1404SOL     OW 5110   3.625   6.367   0.014
 1404SOL    HW1 5111   3.552   6.369   6.969
 1404SOL    HW2 5112   3.634   6.457   0.057
 1405SOL     OW 5113   1.160   4.313   6.677
 1405SOL    HW1 5114   1.236   4.274   6.626
 1405SOL    HW2 5115   1.084   4.247   6.679
 1406SOL     OW 5116   1.997   2.507   7.018
 1406SOL    HW1 5117   2.090   2.513   0.032
 1406SOL    HW2 5118   1.932   2.515   0.070
 1407SOL     OW 5119   0.046   2.634   1.805
 1407SOL    HW1 5120   7.000   2.706   1.792
 1407SOL    HW2 5121   0.135   2.676   1.824
 1408SOL     OW 5122   5.776   6.462   1.349
 1408SOL    HW1 5123   5.846   6.432   1.285
 1408SOL    HW2 5124   5.729   6.542   1.312
 1409SOL     OW 5125   5.738   2.035   5.886
 1409SOL    HW1 5126   5.768   2.006   5.977
 1409SOL    HW2 5127   5.816   2.071   5.835
 1410SOL     OW 5128   3.059   0.470   0.583
 1410SOL    HW1 5129   3.046   0.487   0.681
 1410SOL    HW2 5130   3.145   0.422   0.568
 1411SOL     OW 5131   3.161   6.868   7.019
 1411SOL    HW1 5132   3.200   6.786   6.977
 1411SOL    HW2 5133   3.207   6.949   6.983
 1412SOL     OW 5134   2.693   1.352   6.657
 1412SOL    HW1 5135   2.707   1.414   6.580
 1412SOL    HW2 5136   2.733   1.391   6.739
 1413SOL     OW 5137   2.554   1.504   4.919
 1413SOL    HW1 5138   2.545   1.406   4.939
 1413SOL    HW2 5139   2.476   1.553   4.956
 1414SOL     OW 5140   0.266   5.191   1.985
 1414SOL    HW1 5141   0.257   5.103   2.031
 1414SOL    HW2 5142   0.362   5.212   1.970
 1415SOL     OW 5143   3.705   1.789   5.282
 1415SOL    HW1 5144   3.758   1.815   5.363
 1415SOL    HW2 5145   3.643   1.714   5.306
 1416SOL     OW 5146   4.754   0.531   4.891
 1416SOL    HW1 5147   4.796   0.495   4.808
 1416SOL    HW2 5148   4.706   0.616   4.871
 1417SOL     OW 5149   3.779   3.725   4.475
 1417SOL    HW1 5150   3.756   3.718   4.572
 1417SOL    HW2 5151   3.833   3.807   4.459
 1418SOL     OW 5152   3.174   3.715   5.045
 1418SOL    HW1 5153   3.270   3.734   5.027
 1418SOL    HW2 5154   3.149   3.627   5.004
 1419SOL     OW 5155   0.378   5.410   1.723
 1419SOL    HW1 5156   0.389   5.474   1.798
 1419SOL    HW2 5157   0.465   5.366   1.702
 1420SOL     OW 5158   2.673   6.714   3.295
 1420SOL    HW1 5159   2.758   6.688   3.342
 1420SOL    HW2 5160   2.638   6.636   3.244
 1421SOL     OW 5161   2.020   5.198   0.731
 1421SOL    HW1 5162   2.056   5.140   0.657
 1421SOL    HW2 5163   2.093   5.218   0.796
 1422SOL     OW 5164   1.764   4.039   6.864
 1422SOL    HW1 5165   1.782   4.125   6.911
 1422SOL    HW2 5166   1.721   4.057   6.776
 1423SOL     OW 5167   4.793   1.080   4.639
 1423SOL    HW1 5168   4.837   1.125   4.561
 1423SOL    HW2 5169   4.735   1.006   4.606
 1424SOL     OW 5170   6.714   3.637   1.296
 1424SOL    HW1 5171   6.663   3.571   1.352
 1424SOL    HW2 5172   6.671   3.727   1.302
 1425SOL     OW 5173   5.722   6.315   3.619
 1425SOL    HW1 5174   5.629   6.293   3.588
 1425SOL    HW2 5175   5.731   6.292   3.716
 1426SOL     OW 5176   3.807   1.409   1.006
 1426SOL    HW1 5177   3.844   1.323   0.971
 1426SOL    HW2 5178   3.804   1.406   1.106
 1427SOL     OW 5179   0.984   1.019   4.197
 1427SOL    HW1 5180   0.981   0.935   4.252
 1427SOL    HW2 5181   0.990   0.995   4.100
 1428SOL     OW 5182   1.780   3.653   3.788
 1428SOL    HW1 5183   1.713   3.581   3.802
 1428SOL    HW2 5184   1.816   3.683   3.877
 1429SOL     OW 5185   6.258   0.556   1.394
 1429SOL    HW1 5186   6.203   0.637   1.379
 1429SOL    HW2 5187   6.350   0.583   1.422
 1430SOL     OW 5188   2.130   3.779   4.423
 1430SOL    HW1 5189   2.130   3.700   4.362
 1430SOL    HW2 5190   2.126   3.863   4.369
 1431SOL     OW 5191   3.444   2.078   0.869
 1431SOL    HW1 5192   3.537   2.110   0.851
 1431SOL    HW2 5193   3.382   2.156   0.873
 1432SOL     OW 5194   3.235   0.554   2.597
 1432SOL    HW1 5195   3.320   0.521   2.637
 1432SOL    HW2 5196   3.206   0.638   2.644
 1433SOL     OW 5197   3.156   1.839   4.316
 1433SOL    HW1 5198   3.100   1.908   4.361
 1433SOL    HW2 5199   3.237   1.883   4.277
 1434SOL     OW 5200   5.913   3.401   0.990
 1434SOL    HW1 5201   5.862   3.439   0.912
 1434SOL    HW2 5202   5.922   3.302   0.980
 1435SOL     OW 5203   0.092   6.210   4.451
 1435SOL    HW1 5204   0.126   6.138   4.512
 1435SOL    HW2 5205   0.089   6.175   4.357
 1436SOL     OW 5206   5.823   0.927   7.003
 1436SOL    HW1 5207   5.871   0.970   0.057
 1436SOL    HW2 5208   5.763   0.854   0.014
 1437SOL     OW 5209   4.215   0.896   0.438
 1437SOL    HW1 5210   4.200   0.807   0.480
 1437SOL    HW2 5211   4.200   0.968   0.507
 1438SOL     OW 5212   2.291   6.905   3.124
 1438SOL    HW1 5213   2.273   6.999   3.096
 1438SOL    HW2 5214   2.388   6.893   3.144
 1439SOL     OW 5215   6.984   5.198   4.920
 1439SOL    HW1 5216   0.001   5.116   4.960
 1439SOL    HW2 5217   6.979   5.270   4.990
 1440SOL     OW 5218   3.586   3.286   2.759
 1440SOL    HW1 5219   3.631   3.375   2.753
 1440SOL    HW2 5220   3.508   3.292   2.820
 1441SOL     OW 5221   0.529   2.163   6.155
 1441SOL    HW1 5222   0.557   2.144   6.249
 1441SOL    HW2 5223   0.432   2.186   6.154
 1442SOL     OW 5224   5.322   6.058   6.899
 1442SOL    HW1 5225   5.380   6.057   6.981
 1442SOL    HW2 5226   5.226   6.049   6.925
 1443SOL     OW 5227   1.697   3.198   3.995
 1443SOL    HW1 5228   1.716   3.292   3.969
 1443SOL    HW2 5229   1.739   3.136   3.929
 1444SOL     OW 5230   4.919   6.698   4.606
 1444SOL    HW1 5231   4.882   6.783   4.643
 1444SOL    HW2 5232   4.887   6.686   4.512
 1445SOL     OW 5233   6.770   2.342   6.931
 1445SOL    HW1 5234   6.689   2.349   6.989
 1445SOL    HW2 5235   6.748   2.288   6.850
 1446SOL     OW 5236   2.883   5.604   2.126
 1446SOL    HW1 5237   2.959   5.662   2.096
 1446SOL    HW2 5238   2.809   5.662   2.159
 1447SOL     OW 5239   6.768   0.934   4.806
 1447SOL    HW1 5240   6.809   0.945   4.896
 1447SOL    HW2 5241   6.772   0.838   4.778
 1448SOL     OW 5242   5.655   1.162   0.575
 1448SOL    HW1 5243   5.599   1.127   0.500
 1448SOL    HW2 5244   5.647   1.261   0.580
 1449SOL     OW 5245   4.654   5.365   0.319
 1449SOL    HW1 5246   4.732   5.329   0.370
 1449SOL    HW2 5247   4.683   5.386   0.225
 1450SOL     OW 5248   5.253   1.238   3.415
 1450SOL    HW1 5249   5.160   1.276   3.424
 1450SOL    HW2 5250   5.308   1.267   3.494
 1451SOL     OW 5251   0.624   0.013   2.512
 1451SOL    HW1 5252   0.603   6.938   2.513
 1451SOL    HW2 5253   0.538   0.065   2.512
 1452SOL     OW 5254   2.064   0.234   6.154
 1452SOL    HW1 5255   2.065   0.136   6.135
 1452SOL    HW2 5256   2.022   0.250   6.243
 1453SOL     OW 5257   6.093   4.133   4.422
 1453SOL    HW1 5258   6.063   4.124   4.327
 1453SOL    HW2 5259   6.193   4.144   4.424
 1454SOL     OW 5260   5.946   3.789   1.536
 1454SOL    HW1 5261   5.972   3.882   1.512
 1454SOL    HW2 5262   5.944   3.733   1.454
 1455SOL     OW 5263   2.084   1.916   1.823
 1455SOL    HW1 5264   2.021   1.922   1.900
 1455SOL    HW2 5265   2.037   1.940   1.738
 1456SOL     OW 5266   5.583   5.236   4.895
 1456SOL    HW1 5267   5.632   5.172   4.954
 1456SOL    HW2 5268   5.553   5.315   4.949
 1457SOL     OW 5269   1.883   1.098   4.815
 1457SOL    HW1 5270   1.921   1.189   4.799
 1457SOL    HW2 5271   1.940   1.030   4.769
 1458SOL     OW 5272   6.807   5.374   0.222
 1458SOL    HW1 5273   6.793   5.353   0.319
 1458SOL    HW2 5274   6.726   5.346   0.170
 1459SOL     OW 5275   2.893   0.091   1.724
 1459SOL    HW1 5276   2.942   0.178   1.717
 1459SOL    HW2 5277   2.829   0.082   1.647
 1460SOL     OW 5278   0.221   1.348   6.669
 1460SOL    HW1 5279   0.179   1.260   6.692
 1460SOL    HW2 5280   0.295   1.368   6.733
 1461SOL     OW 5281   4.749   4.247   2.618
 1461SOL    HW1 5282   4.745   4.227   2.716
 1461SOL    HW2 5283   4.750   4.346   2.605
 1462SOL     OW 5284   5.932   6.849   5.047
 1462SOL    HW1 5285   5.918   6.938   5.003
 1462SOL    HW2 5286   6.019   6.810   5.017
 1463SOL     OW 5287   0.962   1.958   5.571
 1463SOL    HW1 5288   1.052   1.955   5.613
 1463SOL    HW2 5289   0.923   2.049   5.583
 1464SOL     OW 5290   0.573   1.132   0.893
 1464SOL    HW1 5291   0.548   1.204   0.957
 1464SOL    HW2 5292   0.667   1.103   0.911
 1465SOL     OW 5293   2.007   1.154   3.863
 1465SOL    HW1 5294   1.908   1.141   3.856
 1465SOL    HW2 5295   2.044   1.173   3.772
 1466SOL     OW 5296   5.973   5.717   3.961
 1466SOL    HW1 5297   5.898   5.656   3.933
 1466SOL    HW2 5298   5.975   5.724   4.061
 1467SOL     OW 5299   0.077   4.010   4.702
 1467SOL    HW1 5300   0.001   3.971   4.753
 1467SOL    HW2 5301   0.163   3.988   4.748
 1468SOL     OW 5302   4.643   0.352   2.780
 1468SOL    HW1 5303   4.619   0.265   2.737
 1468SOL    HW2 5304   4.642   0.425   2.712
 1469SOL     OW 5305   6.735   0.495   2.264
 1469SOL    HW1 5306   6.792   0.422   2.225
 1469SOL    HW2 5307   6.656   0.455   2.310
 1470SOL     OW 5308   0.666   0.531   2.990
 1470SOL    HW1 5309   0.570   0.545   2.963
 1470SOL    HW2 5310   0.722   0.521   2.907
 1471SOL     OW 5311   6.146   1.443   1.203
 1471SOL    HW1 5312   6.178   1.487   1.286
 1471SOL    HW2 5313   6.209   1.370   1.176
 1472SOL     OW 5314   4.238   4.791   4.964
 1472SOL    HW1 5315   4.312   4.831   4.909
 1472SOL    HW2 5316   4.267   4.702   4.999
 1473SOL     OW 5317   0.179   3.058   4.173
 1473SOL    HW1 5318   0.221   3.098   4.092
 1473SOL    HW2 5319   0.096   3.008   4.147
 1474SOL     OW 5320   4.501   6.323   2.488
 1474SOL    HW1 5321   4.509   6.339   2.586
 1474SOL    HW2 5322   4.571   6.257   2.459
 1475SOL     OW 5323   6.031   6.437   2.969
 1475SOL    HW1 5324   6.045   6.360   3.030
 1475SOL    HW2 5325   6.019   6.404   2.875
 1476SOL     OW 5326   0.785   2.354   0.964
 1476SOL    HW1 5327   0.856   2.414   0.928
 1476SOL    HW2 5328   0.792   2.350   1.064
 1477SOL     OW 5329   2.520   6.439   4.700
 1477SOL    HW1 5330   2.435   6.389   4.681
 1477SOL    HW2 5331   2.508   6.494   4.783
 1478SOL     OW 5332   0.383   4.035   1.163
 1478SOL    HW1 5333   0.390   3.994   1.072
 1478SOL    HW2 5334   0.351   4.129   1.155
 1479SOL     OW 5335   1.596   5.247   6.923
 1479SOL    HW1 5336   1.618   5.169   6.864
 1479SOL    HW2 5337   1.577   5.215   7.016
 1480SOL     OW 5338   3.217   0.605   0.098
 1480SOL    HW1 5339   3.152   0.589   0.172
 1480SOL    HW2 5340   3.212   0.701   0.069
 1481SOL     OW 5341   0.204   3.561   0.612
 1481SOL    HW1 5342   0.303   3.565   0.629
 1481SOL    HW2 5343   0.157   3.616   0.681
 1482SOL     OW 5344   5.728   0.480   6.284
 1482SOL    HW1 5345   5.797   0.498   6.214
 1482SOL    HW2 5346   5.696   0.386   6.276
 1483SOL     OW 5347   0.320   2.853   0.438
 1483SOL    HW1 5348   0.245   2.788   0.425
 1483SOL    HW2 5349   0.368   2.832   0.523
 1484SOL     OW 5350   6.441   6.665   3.374
 1484SOL    HW1 5351   6.503   6.732   3.414
 1484SOL    HW2 5352   6.359   6.711   3.340
 1485SOL     OW 5353   5.311   3.659   4.355
 1485SOL    HW1 5354   5.330   3.562   4.369
 1485SOL    HW2 5355   5.259   3.671   4.271
 1486SOL     OW 5356   5.147   2.891   1.508
 1486SOL    HW1 5357   5.229   2.874   1.563
 1486SOL    HW2 5358   5.076   2.826   1.534
 1487SOL     OW 5359   0.548   0.059   5.516
 1487SOL    HW1 5360   0.507   0.103   5.436
 1487SOL    HW2 5361   0.479   0.046   5.587
 1488SOL     OW 5362   4.864   1.967   4.308
 1488SOL    HW1 5363   4.769   1.971   4.276
 1488SOL    HW2 5364   4.866   1.945   4.406
 1489SOL     OW 5365   3.285   5.049   4.928
 1489SOL    HW1 5366   3.372   4.999   4.929
 1489SOL    HW2 5367   3.243   5.044   5.019
 1490SOL     OW 5368   2.863   2.829   0.282
 1490SOL    HW1 5369   2.907   2.850   0.195
 1490SOL    HW2 5370   2.932   2.797   0.347
 1491SOL     OW 5371   0.820   1.958   3.969
 1491SOL    HW1 5372   0.881   1.966   4.048
 1491SOL    HW2 5373   0.734   1.917   3.998
 1492SOL     OW 5374   0.455   2.282   1.696
 1492SOL    HW1 5375   0.425   2.243   1.608
 1492SOL    HW2 5376   0.539   2.334   1.682
 1493SOL     OW 5377   6.696   3.067   5.064
 1493SOL    HW1 5378   6.758   3.012   5.008
 1493SOL    HW2 5379   6.721   3.058   5.161
 1494SOL     OW 5380   5.380   1.828   3.879
 1494SOL    HW1 5381   5.383   1.925   3.901
 1494SOL    HW2 5382   5.296   1.807   3.830
 1495SOL     OW 5383   1.688   3.898   1.684
 1495SOL    HW1 5384   1.683   3.842   1.601
 1495SOL    HW2 5385   1.783   3.928   1.698
 1496SOL     OW 5386   0.595   0.635   2.528
 1496SOL    HW1 5387   0.571   0.551   2.576
 1496SOL    HW2 5388   0.674   0.678   2.573
 1497SOL     OW 5389   5.779   5.033   6.034
 1497SOL    HW1 5390   5.724   4.982   5.969
 1497SOL    HW2 5391   5.731   5.039   6.121
 1498SOL     OW 5392   3.230   5.596   6.833
 1498SOL    HW1 5393   3.144   5.643   6.852
 1498SOL    HW2 5394   3.304   5.641   6.884
 1499SOL     OW 5395   1.251   4.349   4.168
 1499SOL    HW1 5396   1.285   4.443   4.174
 1499SOL    HW2 5397   1.250   4.320   4.072
 1500SOL     OW 5398   3.953   6.328   6.112
 1500SOL    HW1 5399   4.026   6.306   6.047
 1500SOL    HW2 5400   3.937   6.427   6.112
 1501SOL     OW 5401   3.391   0.357   1.126
 1501SOL    HW1 5402   3.410   0.453   1.105
 1501SOL    HW2 5403   3.463   0.300   1.086
 1502SOL     OW 5404   0.493   1.094   6.644
 1502SOL    HW1 5405   0.546   1.120   6.563
 1502SOL    HW2 5406   0.471   0.997   6.639
 1503SOL     OW 5407   3.592   3.912   5.095
 1503SOL    HW1 5408   3.632   3.928   5.186
 1503SOL    HW2 5409   3.550   3.997   5.062
 1504SOL     OW 5410   2.962   0.092   3.911
 1504SOL    HW1 5411   3.044   0.050   3.873
 1504SOL    HW2 5412   2.891   0.094   3.840
 1505SOL     OW 5413   5.261   6.786   2.921
 1505SOL    HW1 5414   5.265   6.795   3.020
 1505SOL    HW2 5415   5.242   6.691   2.897
 1506SOL     OW 5416   6.986   6.116   4.190
 1506SOL    HW1 5417   7.013   6.042   4.128
 1506SOL    HW2 5418   6.922   6.080   4.258
 1507SOL     OW 5419   2.257   1.879   0.025
 1507SOL    HW1 5420   2.181   1.814   0.031
 1507SOL    HW2 5421   2.270   1.924   0.113
 1508SOL     OW 5422   4.665   6.434   1.012
 1508SOL    HW1 5423   4.722   6.357   0.982
 1508SOL    HW2 5424   4.573   6.401   1.033
 1509SOL     OW 5425   5.453   1.518   6.600
 1509SOL    HW1 5426   5.441   1.430   6.646
 1509SOL    HW2 5427   5.449   1.592   6.667
 1510SOL     OW 5428   6.704   1.726   2.182
 1510SOL    HW1 5429   6.733   1.812   2.225
 1510SOL    HW2 5430   6.638   1.680   2.242
 1511SOL     OW 5431   0.482   3.112   0.318
 1511SOL    HW1 5432   0.442   3.029   0.278
 1511SOL    HW2 5433   0.575   3.125   0.282
 1512SOL     OW 5434   7.015   0.629   2.326
 1512SOL    HW1 5435   7.002   0.543   2.376
 1512SOL    HW2 5436   0.064   0.617   2.258
 1513SOL     OW 5437   2.097   1.045   2.790
 1513SOL    HW1 5438   2.115   1.130   2.740
 1513SOL    HW2 5439   2.126   0.967   2.736
 1514SOL     OW 5440   4.624   0.561   6.092
 1514SOL    HW1 5441   4.633   0.544   5.994
 1514SOL    HW2 5442   4.555   0.631   6.108
 1515SOL     OW 5443   5.951   5.228   5.870
 1515SOL    HW1 5444   5.909   5.317   5.847
 1515SOL    HW2 5445   5.885   5.173   5.922
 1516SOL     OW 5446   6.061   1.746   2.232
 1516SOL    HW1 5447   6.074   1.699   2.144
 1516SOL    HW2 5448   6.140   1.730   2.291
 1517SOL     OW 5449   3.650   5.242   2.142
 1517SOL    HW1 5450   3.627   5.145   2.145
 1517SOL    HW2 5451   3.654   5.272   2.047
 1518SOL     OW 5452   0.921   4.956   0.994
 1518SOL    HW1 5453   0.931   4.857   0.984
 1518SOL    HW2 5454   1.005   4.994   1.031
 1519SOL     OW 5455   0.430   4.568   1.142
 1519SOL    HW1 5456   0.428   4.577   1.042
 1519SOL    HW2 5457   0.400   4.654   1.184
 1520SOL     OW 5458   1.477   4.308   2.663
 1520SOL    HW1 5459   1.410   4.371   2.702
 1520SOL    HW2 5460   1.553   4.296   2.727
 1521SOL     OW 5461   2.400   6.007   5.315
 1521SOL    HW1 5462   2.487   5.982   5.356
 1521SOL    HW2 5463   2.351   5.923   5.289
 1522SOL     OW 5464   1.692   2.165   5.894
 1522SOL    HW1 5465   1.724   2.189   5.986
 1522SOL    HW2 5466   1.601   2.202   5.880
 1523SOL     OW 5467   5.733   0.624   1.804
 1523SOL    HW1 5468   5.734   0.655   1.709
 1523SOL    HW2 5469   5.709   0.700   1.864
 1524SOL     OW 5470   0.790   2.024   1.064
 1524SOL    HW1 5471   0.877   2.034   1.015
 1524SOL    HW2 5472   0.784   1.933   1.104
 1525SOL     OW 5473   5.097   0.827   5.129
 1525SOL    HW1 5474   5.074   0.779   5.044
 1525SOL    HW2 5475   5.013   0.859   5.173
 1526SOL     OW 5476   5.538   2.800   0.232
 1526SOL    HW1 5477   5.548   2.891   0.271
 1526SOL    HW2 5478   5.568   2.800   0.137
 1527SOL     OW 5479   2.582   0.502   5.271
 1527SOL    HW1 5480   2.621   0.584   5.229
 1527SOL    HW2 5481   2.497   0.525   5.318
 1528SOL     OW 5482   5.243   5.936   3.865
 1528SOL    HW1 5483   5.340   5.942   3.890
 1528SOL    HW2 5484   5.235   5.928   3.766
 1529SOL     OW 5485   1.714   6.883   5.372
 1529SOL    HW1 5486   1.655   6.846   5.444
 1529SOL    HW2 5487   1.802   6.836   5.374
 1530SOL     OW 5488   3.071   6.648   1.480
 1530SOL    HW1 5489   3.081   6.708   1.400
 1530SOL    HW2 5490   3.039   6.703   1.558
 1531SOL     OW 5491   5.918   1.398   6.562
 1531SOL    HW1 5492   5.953   1.418   6.470
 1531SOL    HW2 5493   5.869   1.311   6.561
 1532SOL     OW 5494   2.967   1.651   5.322
 1532SOL    HW1 5495   3.021   1.683   5.400
 1532SOL    HW2 5496   2.973   1.717   5.247
 1533SOL     OW 5497   4.703   3.349   0.465
 1533SOL    HW1 5498   4.661   3.371   0.553
 1533SOL    HW2 5499   4.655   3.396   0.392
 1534SOL     OW 5500   0.393   0.261   0.399
 1534SOL    HW1 5501   0.491   0.279   0.395
 1534SOL    HW2 5502   0.347   0.311   0.326
 1535SOL     OW 5503   5.396   4.178   4.522
 1535SOL    HW1 5504   5.416   4.173   4.620
 1535SOL    HW2 5505   5.344   4.098   4.494
 1536SOL     OW 5506   2.911   6.230   3.128
 1536SOL    HW1 5507   2.952   6.260   3.214
 1536SOL    HW2 5508   2.977   6.175   3.077
 1537SOL     OW 5509   1.564   5.711   4.089
 1537SOL    HW1 5510   1.524   5.783   4.146
 1537SOL    HW2 5511   1.561   5.624   4.138
 1538SOL     OW 5512   3.462   6.186   0.118
 1538SOL    HW1 5513   3.464   6.091   0.086
 1538SOL    HW2 5514   3.551   6.228   0.101
 1539SOL     OW 5515   2.615   6.748   2.338
 1539SOL    HW1 5516   2.551   6.672   2.324
 1539SOL    HW2 5517   2.628   6.762   2.436
 1540SOL     OW 5518   6.035   0.384   5.139
 1540SOL    HW1 5519   6.050   0.475   5.176
 1540SOL    HW2 5520   6.098   0.369   5.062
 1541SOL     OW 5521   5.303   2.218   1.963
 1541SOL    HW1 5522   5.213   2.262   1.956
 1541SOL    HW2 5523   5.356   2.237   1.880
 1542SOL     OW 5524   6.850   5.600   1.546
 1542SOL    HW1 5525   6.862   5.632   1.452
 1542SOL    HW2 5526   6.756   5.568   1.558
 1543SOL     OW 5527   3.499   3.164   3.146
 1543SOL    HW1 5528   3.482   3.220   3.065
 1543SOL    HW2 5529   3.508   3.068   3.119
 1544SOL     OW 5530   3.427   3.573   1.568
 1544SOL    HW1 5531   3.328   3.559   1.568
 1544SOL    HW2 5532   3.448   3.670   1.578
 1545SOL     OW 5533   0.443   6.657   5.418
 1545SOL    HW1 5534   0.389   6.736   5.389
 1545SOL    HW2 5535   0.538   6.669   5.390
 1546SOL     OW 5536   0.395   6.705   0.682
 1546SOL    HW1 5537   0.333   6.708   0.604
 1546SOL    HW2 5538   0.372   6.779   0.746
 1547SOL     OW 5539   2.911   6.139   0.034
 1547SOL    HW1 5540   2.934   6.183   6.969
 1547SOL    HW2 5541   2.986   6.078   0.061
 1548SOL     OW 5542   6.567   4.228   3.347
 1548SOL    HW1 5543   6.498   4.280   3.296
 1548SOL    HW2 5544   6.533   4.136   3.366
 1549SOL     OW 5545   5.871   1.943   1.132
 1549SOL    HW1 5546   5.876   1.929   1.034
 1549SOL    HW2 5547   5.953   1.905   1.176
 1550SOL     OW 5548   2.287   5.067   2.478
 1550SOL    HW1 5549   2.205   5.124   2.481
 1550SOL    HW2 5550   2.364   5.117   2.518
 1551SOL     OW 5551   0.956   2.589   1.868
 1551SOL    HW1 5552   0.888   2.661   1.876
 1551SOL    HW2 5553   1.013   2.605   1.787
 1552SOL     OW 5554   1.555   6.626   2.124
 1552SOL    HW1 5555   1.481   6.569   2.088
 1552SOL    HW2 5556   1.641   6.574   2.123
 1553SOL     OW 5557   5.704   1.713   5.483
 1553SOL    HW1 5558   5.673   1.750   5.571
 1553SOL    HW2 5559   5.737   1.619   5.496
 1554SOL     OW 5560   3.003   3.137   0.371
 1554SOL    HW1 5561   2.912   3.179   0.360
 1554SOL    HW2 5562   2.995   3.055   0.427
 1555SOL     OW 5563   4.599   1.411   0.983
 1555SOL    HW1 5564   4.510   1.397   1.026
 1555SOL    HW2 5565   4.645   1.489   1.026
 1556SOL     OW 5566   2.943   2.364   0.779
 1556SOL    HW1 5567   2.938   2.461   0.802
 1556SOL    HW2 5568   3.028   2.347   0.728
 1557SOL     OW 5569   2.384   2.415   1.601
 1557SOL    HW1 5570   2.396   2.414   1.701
 1557SOL    HW2 5571   2.472   2.404   1.556
 1558SOL     OW 5572   4.636   2.787   6.900
 1558SOL    HW1 5573   4.572   2.788   6.823
 1558SOL    HW2 5574   4.598   2.732   6.974
 1559SOL     OW 5575   2.510   6.496   3.594
 1559SOL    HW1 5576   2.545   6.589   3.581
 1559SOL    HW2 5577   2.427   6.500   3.649
 1560SOL     OW 5578   4.769   2.675   1.487
 1560SOL    HW1 5579   4.732   2.586   1.459
 1560SOL    HW2 5580   4.854   2.661   1.537
 1561SOL     OW 5581   6.253   6.219   0.587
 1561SOL    HW1 5582   6.333   6.169   0.554
 1561SOL    HW2 5583   6.278   6.314   0.603
 1562SOL     OW 5584   2.544   6.957   3.236
 1562SOL    HW1 5585   2.621   6.893   3.232
 1562SOL    HW2 5586   2.577   0.025   3.263
 1563SOL     OW 5587   2.228   4.151   3.686
 1563SOL    HW1 5588   2.132   4.175   3.699
 1563SOL    HW2 5589   2.286   4.217   3.734
 1564SOL     OW 5590   1.553   1.951   3.316
 1564SOL    HW1 5591   1.592   2.042   3.298
 1564SOL    HW2 5592   1.623   1.882   3.298
 1565SOL     OW 5593   5.424   1.650   5.434
 1565SOL    HW1 5594   5.516   1.687   5.420
 1565SOL    HW2 5595   5.414   1.565   5.384
 1566SOL     OW 5596   1.259   3.146   3.897
 1566SOL    HW1 5597   1.267   3.246   3.888
 1566SOL    HW2 5598   1.251   3.105   3.807
 1567SOL     OW 5599   5.561   0.295   4.811
 1567SOL    HW1 5600   5.592   0.389   4.796
 1567SOL    HW2 5601   5.474   0.295   4.860
 1568SOL     OW 5602   2.138   4.417   0.808
 1568SOL    HW1 5603   2.048   4.398   0.848
 1568SOL    HW2 5604   2.150   4.515   0.798
 1569SOL     OW 5605   2.260   1.089   2.411
 1569SOL    HW1 5606   2.315   1.059   2.333
 1569SOL    HW2 5607   2.319   1.096   2.492
 1570SOL     OW 5608   3.064   6.050   6.080
 1570SOL    HW1 5609   2.986   6.045   6.018
 1570SOL    HW2 5610   3.116   5.965   6.076
 1571SOL     OW 5611   0.954   1.327   5.011
 1571SOL    HW1 5612   0.874   1.326   4.950
 1571SOL    HW2 5613   0.940   1.395   5.083
 1572SOL     OW 5614   1.665   6.284   3.409
 1572SOL    HW1 5615   1.686   6.377   3.379
 1572SOL    HW2 5616   1.709   6.266   3.497
 1573SOL     OW 5617   5.316   5.915   0.333
 1573SOL    HW1 5618   5.353   5.893   0.423
 1573SOL    HW2 5619   5.389   5.910   0.265
 1574SOL     OW 5620   0.398   3.299   3.115
 1574SOL    HW1 5621   0.450   3.275   3.032
 1574SOL    HW2 5622   0.461   3.313   3.191
 1575SOL     OW 5623   6.568   2.594   0.177
 1575SOL    HW1 5624   6.596   2.684   0.145
 1575SOL    HW2 5625   6.557   2.532   0.099
 1576SOL     OW 5626   1.359   6.300   2.260
 1576SOL    HW1 5627   1.358   6.351   2.174
 1576SOL    HW2 5628   1.442   6.243   2.264
 1577SOL     OW 5629   4.400   5.814   3.824
 1577SOL    HW1 5630   4.352   5.746   3.879
 1577SOL    HW2 5631   4.416   5.896   3.879
 1578SOL     OW 5632   5.470   2.136   1.511
 1578SOL    HW1 5633   5.558   2.091   1.497
 1578SOL    HW2 5634   5.436   2.170   1.423
 1579SOL     OW 5635   1.430   3.360   2.272
 1579SOL    HW1 5636   1.334   3.368   2.245
 1579SOL    HW2 5637   1.456   3.438   2.329
 1580SOL     OW 5638   3.362   3.727   3.857
 1580SOL    HW1 5639   3.457   3.719   3.827
 1580SOL    HW2 5640   3.357   3.784   3.938
 1581SOL     OW 5641   5.204   4.233   5.642
 1581SOL    HW1 5642   5.123   4.201   5.690
 1581SOL    HW2 5643   5.271   4.267   5.709
 1582SOL     OW 5644   3.882   5.911   3.605
 1582SOL    HW1 5645   3.853   6.007   3.605
 1582SOL    HW2 5646   3.979   5.906   3.580
 1583SOL     OW 5647   0.600   5.711   4.539
 1583SOL    HW1 5648   0.636   5.621   4.563
 1583SOL    HW2 5649   0.503   5.703   4.514
 1584SOL     OW 5650   0.369   4.388   0.113
 1584SOL    HW1 5651   0.390   4.320   0.043
 1584SOL    HW2 5652   0.426   4.469   0.100
 1585SOL     OW 5653   4.774   6.017   4.302
 1585SOL    HW1 5654   4.868   6.033   4.274
 1585SOL    HW2 5655   4.717   6.096   4.278
 1586SOL     OW 5656   2.692   6.159   3.787
 1586SOL    HW1 5657   2.647   6.225   3.847
 1586SOL    HW2 5658   2.678   6.067   3.823
 1587SOL     OW 5659   3.906   0.232   6.876
 1587SOL    HW1 5660   3.902   0.165   6.951
 1587SOL    HW2 5661   3.818   0.235   6.829
 1588SOL     OW 5662   6.557   1.755   3.899
 1588SOL    HW1 5663   6.559   1.798   3.809
 1588SOL    HW2 5664   6.525   1.661   3.890
 1589SOL     OW 5665   6.946   1.571   4.178
 1589SOL    HW1 5666   7.005   1.651   4.175
 1589SOL    HW2 5667   6.856   1.594   4.141
 1590SOL     OW 5668   5.875   0.679   3.732
 1590SOL    HW1 5669   5.965   0.647   3.704
 1590SOL    HW2 5670   5.817   0.689   3.651
 1591SOL     OW 5671   0.302   5.393   0.663
 1591SOL    HW1 5672   0.329   5.385   0.567
 1591SOL    HW2 5673   0.382   5.376   0.722
 1592SOL     OW 5674   0.044   4.760   4.841
 1592SOL    HW1 5675   0.034   4.674   4.891
 1592SOL    HW2 5676   6.979   4.810   4.843
 1593SOL     OW 5677   3.914   5.516   1.423
 1593SOL    HW1 5678   3.979   5.463   1.477
 1593SOL    HW2 5679   3.945   5.611   1.418
 1594SOL     OW 5680   5.550   1.128   2.565
 1594SOL    HW1 5681   5.528   1.143   2.469
 1594SOL    HW2 5682   5.640   1.085   2.573
 1595SOL     OW 5683   0.137   3.884   0.476
 1595SOL    HW1 5684   0.119   3.982   0.487
 1595SOL    HW2 5685   0.231   3.872   0.444
 1596SOL     OW 5686   5.311   4.394   4.313
 1596SOL    HW1 5687   5.366   4.421   4.234
 1596SOL    HW2 5688   5.369   4.352   4.382
 1597SOL     OW 5689   4.006   0.030   1.129
 1597SOL    HW1 5690   3.971   0.038   1.222
 1597SOL    HW2 5691   3.967   6.972   1.085
 1598SOL     OW 5692   0.887   5.572   5.817
 1598SOL    HW1 5693   0.927   5.649   5.866
 1598SOL    HW2 5694   0.805   5.601   5.769
 1599SOL     OW 5695   5.245   5.059   4.233
 1599SOL    HW1 5696   5.237   5.138   4.172
 1599SOL    HW2 5697   5.334   5.016   4.221
 1600SOL     OW 5698   4.927   1.236   1.634
 1600SOL    HW1 5699   4.871   1.251   1.552
 1600SOL    HW2 5700   4.883   1.169   1.693
 1601SOL     OW 5701   6.043   0.680   4.536
 1601SOL    HW1 5702   5.974   0.703   4.605
 1601SOL    HW2 5703   6.019   0.725   4.449
 1602SOL     OW 5704   3.852   5.903   3.282
 1602SOL    HW1 5705   3.810   5.857   3.360
 1602SOL    HW2 5706   3.793   5.977   3.250
 1603SOL     OW 5707   3.368   5.202   1.693
 1603SOL    HW1 5708   3.416   5.240   1.615
 1603SOL    HW2 5709   3.324   5.115   1.667
 1604SOL     OW 5710   4.661   5.277   1.689
 1604SOL    HW1 5711   4.634   5.190   1.732
 1604SOL    HW2 5712   4.736   5.260   1.625
 1605SOL     OW 5713   4.571   4.875   0.177
 1605SOL    HW1 5714   4.503   4.947   0.193
 1605SOL    HW2 5715   4.527   4.786   0.184
 1606SOL     OW 5716   4.780   5.425   4.817
 1606SOL    HW1 5717   4.843   5.356   4.853
 1606SOL    HW2 5718   4.686   5.400   4.841
 1607SOL     OW 5719   4.763   4.170   3.919
 1607SOL    HW1 5720   4.783   4.075   3.942
 1607SOL    HW2 5721   4.805   4.230   3.987
 1608SOL     OW 5722   6.589   3.423   3.149
 1608SOL    HW1 5723   6.599   3.486   3.226
 1608SOL    HW2 5724   6.533   3.345   3.178
 1609SOL     OW 5725   1.498   0.238   0.739
 1609SOL    HW1 5726   1.453   0.238   0.828
 1609SOL    HW2 5727   1.595   0.214   0.750
 1610SOL     OW 5728   5.809   5.840   1.127
 1610SOL    HW1 5729   5.715   5.809   1.140
 1610SOL    HW2 5730   5.869   5.760   1.121
 1611SOL     OW 5731   6.855   4.406   6.745
 1611SOL    HW1 5732   6.840   4.328   6.806
 1611SOL    HW2 5733   6.944   4.395   6.699
 1612SOL     OW 5734   5.318   1.074   2.016
 1612SOL    HW1 5735   5.353   1.155   1.971
 1612SOL    HW2 5736   5.263   1.101   2.095
 1613SOL     OW 5737   0.452   5.949   2.739
 1613SOL    HW1 5738   0.548   5.923   2.736
 1613SOL    HW2 5739   0.402   5.886   2.798
 1614SOL     OW 5740   5.219   1.214   5.842
 1614SOL    HW1 5741   5.195   1.231   5.746
 1614SOL    HW2 5742   5.136   1.188   5.892
 1615SOL     OW 5743   6.411   3.206   5.961
 1615SOL    HW1 5744   6.340   3.258   5.913
 1615SOL    HW2 5745   6.485   3.268   5.986
 1616SOL     OW 5746   1.191   1.280   3.641
 1616SOL    HW1 5747   1.154   1.292   3.549
 1616SOL    HW2 5748   1.282   1.320   3.646
 1617SOL     OW 5749   0.291   5.908   4.458
 1617SOL    HW1 5750   0.322   6.001   4.476
 1617SOL    HW2 5751   0.215   5.886   4.519
 1618SOL     OW 5752   2.689   5.720   3.088
 1618SOL    HW1 5753   2.746   5.662   3.029
 1618SOL    HW2 5754   2.742   5.801   3.115
 1619SOL     OW 5755   1.126   3.965   6.198
 1619SOL    HW1 5756   1.199   3.910   6.159
 1619SOL    HW2 5757   1.113   3.940   6.294
 1620SOL     OW 5758   2.679   0.044   4.675
 1620SOL    HW1 5759   2.602   0.004   4.626
 1620SOL    HW2 5760   2.662   0.142   4.690
 1621SOL     OW 5761   5.808   4.632   1.034
 1621SOL    HW1 5762   5.711   4.635   1.059
 1621SOL    HW2 5763   5.821   4.681   0.948
 1622SOL     OW 5764   6.568   3.143   2.938
 1622SOL    HW1 5765   6.537   3.228   2.895
 1622SOL    HW2 5766   6.663   3.153   2.967
 1623SOL     OW 5767   0.392   2.277   4.173
 1623SOL    HW1 5768   0.476   2.284   4.119
 1623SOL    HW2 5769   0.415   2.258   4.269
 1624SOL     OW 5770   4.443   2.939   0.742
 1624SOL    HW1 5771   4.362   2.983   0.702
 1624SOL    HW2 5772   4.423   2.843   0.761
 1625SOL     OW 5773   1.033   6.161   0.310
 1625SOL    HW1 5774   0.993   6.251   0.288
 1625SOL    HW2 5775   0.969   6.109   0.367
 1626SOL     OW 5776   2.442   1.906   2.127
 1626SOL    HW1 5777   2.368   1.854   2.084
 1626SOL    HW2 5778   2.495   1.846   2.186
 1627SOL     OW 5779   4.576   1.510   6.329
 1627SOL    HW1 5780   4.651   1.524   6.265
 1627SOL    HW2 5781   4.581   1.418   6.368
 1628SOL     OW 5782   5.368   5.910   1.337
 1628SOL    HW1 5783   5.333   5.897   1.430
 1628SOL    HW2 5784   5.339   5.999   1.302
 1629SOL     OW 5785   1.495   6.486   3.136
 1629SOL    HW1 5786   1.453   6.442   3.215
 1629SOL    HW2 5787   1.437   6.472   3.056
 1630SOL     OW 5788   0.183   4.957   6.274
 1630SOL    HW1 5789   0.234   5.022   6.217
 1630SOL    HW2 5790   0.243   4.882   6.301
 1631SOL     OW 5791   5.158   4.286   0.249
 1631SOL    HW1 5792   5.092   4.360   0.243
 1631SOL    HW2 5793   5.199   4.271   0.159
 1632SOL     OW 5794   6.296   6.326   2.694
 1632SOL    HW1 5795   6.264   6.420   2.684
 1632SOL    HW2 5796   6.266   6.272   2.615
 1633SOL     OW 5797   6.707   3.997   4.592
 1633SOL    HW1 5798   6.759   4.078   4.618
 1633SOL    HW2 5799   6.739   3.964   4.503
 1634SOL     OW 5800   1.453   3.941   6.321
 1634SOL    HW1 5801   1.377   3.905   6.375
 1634SOL    HW2 5802   1.539   3.900   6.352
 1635SOL     OW 5803   2.789   1.016   4.476
 1635SOL    HW1 5804   2.749   0.938   4.525
 1635SOL    HW2 5805   2.737   1.098   4.499
 1636SOL     OW 5806   0.177   6.348   1.629
 1636SOL    HW1 5807   0.103   6.339   1.696
 1636SOL    HW2 5808   0.163   6.282   1.555
 1637SOL     OW 5809   1.117   1.228   1.913
 1637SOL    HW1 5810   1.022   1.240   1.886
 1637SOL    HW2 5811   1.133   1.277   1.999
 1638SOL     OW 5812   5.440   2.173   3.674
 1638SOL    HW1 5813   5.398   2.261   3.655
 1638SOL    HW2 5814   5.397   2.132   3.755
 1639SOL     OW 5815   5.061   2.369   1.200
 1639SOL    HW1 5816   5.077   2.362   1.299
 1639SOL    HW2 5817   4.968   2.404   1.185
 1640SOL     OW 5818   6.348   1.030   6.682
 1640SOL    HW1 5819   6.331   1.129   6.677
 1640SOL    HW2 5820   6.363   0.994   6.590
 1641SOL     OW 5821   5.494   1.606   2.856
 1641SOL    HW1 5822   5.524   1.514   2.829
 1641SOL    HW2 5823   5.545   1.635   2.937
 1642SOL     OW 5824   0.031   3.309   6.060
 1642SOL    HW1 5825   6.967   3.316   6.012
 1642SOL    HW2 5826   0.088   3.239   6.017
 1643SOL     OW 5827   2.204   5.403   4.417
 1643SOL    HW1 5828   2.168   5.445   4.333
 1643SOL    HW2 5829   2.301   5.426   4.427
 1644SOL     OW 5830   5.883   1.448   1.162
 1644SOL    HW1 5831   5.838   1.507   1.228
 1644SOL    HW2 5832   5.982   1.450   1.177
 1645SOL     OW 5833   2.332   0.984   4.310
 1645SOL    HW1 5834   2.338   0.958   4.406
 1645SOL    HW2 5835   2.237   0.980   4.279
 1646SOL     OW 5836   0.261   5.666   2.117
 1646SOL    HW1 5837   0.250   5.758   2.155
 1646SOL    HW2 5838   0.188   5.649   2.051
 1647SOL     OW 5839   6.643   3.446   5.378
 1647SOL    HW1 5840   6.562   3.413   5.428
 1647SOL    HW2 5841   6.644   3.405   5.287
 1648SOL     OW 5842   5.521   5.841   2.472
 1648SOL    HW1 5843   5.505   5.781   2.395
 1648SOL    HW2 5844   5.439   5.895   2.491
 1649SOL     OW 5845   3.987   0.925   3.117
 1649SOL    HW1 5846   4.043   1.006   3.136
 1649SOL    HW2 5847   3.976   0.915   3.018
 1650SOL     OW 5848   2.640   2.507   5.156
 1650SOL    HW1 5849   2.712   2.460   5.206
 1650SOL    HW2 5850   2.604   2.582   5.211
 1651SOL     OW 5851   1.527   2.066   4.242
 1651SOL    HW1 5852   1.582   2.122   4.179
 1651SOL    HW2 5853   1.432   2.068   4.213
 1652SOL     OW 5854   0.019   4.289   1.729
 1652SOL    HW1 5855   6.992   4.288   1.816
 1652SOL    HW2 5856   0.028   4.383   1.697
 1653SOL     OW 5857   6.317   4.177   1.918
 1653SOL    HW1 5858   6.403   4.144   1.881
 1653SOL    HW2 5859   6.304   4.140   2.010
 1654SOL     OW 5860   6.646   3.763   1.678
 1654SOL    HW1 5861   6.739   3.736   1.653
 1654SOL    HW2 5862   6.644   3.785   1.776
 1655SOL     OW 5863   6.897   0.519   6.003
 1655SOL    HW1 5864   6.889   0.521   6.102
 1655SOL    HW2 5865   6.992   0.537   5.976
 1656SOL     OW 5866   2.213   4.055   2.876
 1656SOL    HW1 5867   2.176   4.012   2.793
 1656SOL    HW2 5868   2.312   4.058   2.870
 1657SOL     OW 5869   0.224   1.343   5.895
 1657SOL    HW1 5870   0.180   1.254   5.886
 1657SOL    HW2 5871   0.156   1.415   5.885
 1658SOL     OW 5872   5.206   0.259   5.690
 1658SOL    HW1 5873   5.173   0.354   5.691
 1658SOL    HW2 5874   5.234   0.233   5.782
 1659SOL     OW 5875   3.046   0.834   6.421
 1659SOL    HW1 5876   3.099   0.772   6.362
 1659SOL    HW2 5877   2.989   0.893   6.364
 1660SOL     OW 5878   2.822   0.997   1.978
 1660SOL    HW1 5879   2.801   0.925   1.912
 1660SOL    HW2 5880   2.742   1.055   1.990
 1661SOL     OW 5881   4.573   4.917   3.370
 1661SOL    HW1 5882   4.673   4.920   3.379
 1661SOL    HW2 5883   4.534   4.995   3.420
 1662SOL     OW 5884   0.506   1.672   3.738
 1662SOL    HW1 5885   0.487   1.577   3.762
 1662SOL    HW2 5886   0.422   1.725   3.746
 1663SOL     OW 5887   6.163   4.006   1.218
 1663SOL    HW1 5888   6.153   4.104   1.205
 1663SOL    HW2 5889   6.192   3.963   1.133
 1664SOL     OW 5890   1.459   1.659   6.206
 1664SOL    HW1 5891   1.366   1.655   6.170
 1664SOL    HW2 5892   1.488   1.754   6.215
 1665SOL     OW 5893   1.588   4.159   0.113
 1665SOL    HW1 5894   1.594   4.176   0.211
 1665SOL    HW2 5895   1.647   4.224   0.064
 1666SOL     OW 5896   5.490   6.254   5.322
 1666SOL    HW1 5897   5.517   6.345   5.354
 1666SOL    HW2 5898   5.572   6.200   5.304
 1667SOL     OW 5899   6.705   4.859   1.313
 1667SOL    HW1 5900   6.774   4.853   1.385
 1667SOL    HW2 5901   6.682   4.955   1.296
 1668SOL     OW 5902   6.768   3.352   1.692
 1668SOL    HW1 5903   6.682   3.395   1.717
 1668SOL    HW2 5904   6.751   3.276   1.629
 1669SOL     OW 5905   6.195   2.570   5.146
 1669SOL    HW1 5906   6.154   2.644   5.199
 1669SOL    HW2 5907   6.125   2.504   5.121
 1670SOL     OW 5908   2.953   4.321   5.310
 1670SOL    HW1 5909   2.946   4.398   5.248
 1670SOL    HW2 5910   3.034   4.332   5.368
 1671SOL     OW 5911   6.189   2.292   0.685
 1671SOL    HW1 5912   6.274   2.330   0.722
 1671SOL    HW2 5913   6.113   2.317   0.744
 1672SOL     OW 5914   0.672   2.146   1.434
 1672SOL    HW1 5915   0.576   2.127   1.456
 1672SOL    HW2 5916   0.727   2.144   1.518
 1673SOL     OW 5917   1.040   0.719   6.131
 1673SOL    HW1 5918   1.028   0.679   6.040
 1673SOL    HW2 5919   1.010   0.814   6.130
 1674SOL     OW 5920   4.849   2.745   3.418
 1674SOL    HW1 5921   4.807   2.755   3.508
 1674SOL    HW2 5922   4.948   2.762   3.425
 1675SOL     OW 5923   5.434   0.830   1.930
 1675SOL    HW1 5924   5.382   0.804   1.848
 1675SOL    HW2 5925   5.391   0.910   1.972
 1676SOL     OW 5926   1.200   2.369   3.805
 1676SOL    HW1 5927   1.191   2.416   3.718
 1676SOL    HW2 5928   1.232   2.433   3.875
 1677SOL     OW 5929   3.255   3.968   2.035
 1677SOL    HW1 5930   3.318   4.014   2.098
 1677SOL    HW2 5931   3.307   3.906   1.976
 1678SOL     OW 5932   0.032   6.833   0.399
 1678SOL    HW1 5933   6.992   6.850   0.323
 1678SOL    HW2 5934   0.039   6.915   0.455
 1679SOL     OW 5935   5.921   1.987   0.412
 1679SOL    HW1 5936   5.962   1.904   0.373
 1679SOL    HW2 5937   5.973   2.067   0.383
 1680SOL     OW 5938   5.738   2.419   3.426
 1680SOL    HW1 5939   5.754   2.403   3.328
 1680SOL    HW2 5940   5.640   2.430   3.442
 1681SOL     OW 5941   3.994   6.032   4.017
 1681SOL    HW1 5942   4.058   6.033   4.094
 1681SOL    HW2 5943   3.904   6.064   4.048
 1682SOL     OW 5944   4.018   1.384   5.247
 1682SOL    HW1 5945   3.937   1.385   5.306
 1682SOL    HW2 5946   4.086   1.447   5.284
 1683SOL     OW 5947   1.020   3.423   2.820
 1683SOL    HW1 5948   1.082   3.482   2.768
 1683SOL    HW2 5949   0.980   3.475   2.896
 1684SOL     OW 5950   3.312   5.489   1.009
 1684SOL    HW1 5951   3.347   5.480   1.102
 1684SOL    HW2 5952   3.265   5.576   0.999
 1685SOL     OW 5953   0.250   2.079   5.790
 1685SOL    HW1 5954   0.247   1.980   5.778
 1685SOL    HW2 5955   0.345   2.109   5.794
 1686SOL     OW 5956   3.479   5.263   1.458
 1686SOL    HW1 5957   3.540   5.343   1.456
 1686SOL    HW2 5958   3.462   5.233   1.364
 1687SOL     OW 5959   4.625   4.074   0.177
 1687SOL    HW1 5960   4.607   4.026   0.263
 1687SOL    HW2 5961   4.690   4.149   0.193
 1688SOL     OW 5962   3.074   0.420   2.974
 1688SOL    HW1 5963   3.140   0.359   2.931
 1688SOL    HW2 5964   3.091   0.425   3.072
 1689SOL     OW 5965   4.232   0.628   1.686
 1689SOL    HW1 5966   4.155   0.663   1.632
 1689SOL    HW2 5967   4.318   0.648   1.639
 1690SOL     OW 5968   0.052   4.496   4.483
 1690SOL    HW1 5969   0.096   4.579   4.517
 1690SOL    HW2 5970   0.072   4.420   4.544
 1691SOL     OW 5971   4.045   2.720   5.361
 1691SOL    HW1 5972   4.113   2.762   5.421
 1691SOL    HW2 5973   4.090   2.653   5.302
 1692SOL     OW 5974   6.390   5.389   2.276
 1692SOL    HW1 5975   6.481   5.358   2.302
 1692SOL    HW2 5976   6.397   5.457   2.204
 1693SOL     OW 5977   5.919   6.929   5.324
 1693SOL    HW1 5978   5.883   6.842   5.290
 1693SOL    HW2 5979   5.901   7.001   5.257
 1694SOL     OW 5980   4.872   1.184   6.619
 1694SOL    HW1 5981   4.855   1.141   6.708
 1694SOL    HW2 5982   4.933   1.262   6.631
 1695SOL     OW 5983   4.785   6.968   4.916
 1695SOL    HW1 5984   4.859   6.901   4.925
 1695SOL    HW2 5985   4.737   6.976   5.004
 1696SOL     OW 5986   5.161   6.798   1.173
 1696SOL    HW1 5987   5.190   6.741   1.251
 1696SOL    HW2 5988   5.112   6.742   1.107
 1697SOL     OW 5989   4.181   3.402   1.763
 1697SOL    HW1 5990   4.106   3.452   1.806
 1697SOL    HW2 5991   4.156   3.305   1.755
 1698SOL     OW 5992   4.613   1.267   1.473
 1698SOL    HW1 5993   4.596   1.168   1.477
 1698SOL    HW2 5994   4.559   1.313   1.543
 1699SOL     OW 5995   1.791   0.884   0.956
 1699SOL    HW1 5996   1.798   0.948   1.033
 1699SOL    HW2 5997   1.831   0.796   0.983
 1700SOL     OW 5998   6.025   3.098   2.858
 1700SOL    HW1 5999   5.938   3.052   2.878
 1700SOL    HW2 6000   6.035   3.110   2.760
 1701SOL     OW 6001   1.205   5.423   5.308
 1701SOL    HW1 6002   1.162   5.464   5.389
 1701SOL    HW2 6003   1.233   5.496   5.246
 1702SOL     OW 6004   2.215   2.246   6.945
 1702SOL    HW1 6005   2.302   2.198   6.928
 1702SOL    HW2 6006   2.229   2.318   7.013
 1703SOL     OW 6007   1.364   2.349   1.810
 1703SOL    HW1 6008   1.343   2.255   1.837
 1703SOL    HW2 6009   1.347   2.410   1.887
 1704SOL     OW 6010   3.084   2.979   6.659
 1704SOL    HW1 6011   3.143   2.920   6.713
 1704SOL    HW2 6012   2.995   2.988   6.705
 1705SOL     OW 6013   5.565   2.902   1.011
 1705SOL    HW1 6014   5.472   2.902   1.048
 1705SOL    HW2 6015   5.597   2.996   1.000
 1706SOL     OW 6016   5.539   0.681   5.650
 1706SOL    HW1 6017   5.581   0.756   5.701
 1706SOL    HW2 6018   5.439   0.693   5.649
 1707SOL     OW 6019   3.575   1.394   2.231
 1707SOL    HW1 6020   3.657   1.394   2.174
 1707SOL    HW2 6021   3.498   1.429   2.178
 1708SOL     OW 6022   2.536   4.623   1.973
 1708SOL    HW1 6023   2.632   4.602   1.988
 1708SOL    HW2 6024   2.520   4.638   1.875
 1709SOL     OW 6025   5.488   5.075   1.590
 1709SOL    HW1 6026   5.391   5.088   1.568
 1709SOL    HW2 6027   5.505   4.979   1.611
 1710SOL     OW 6028   4.817   2.752   2.015
 1710SOL    HW1 6029   4.885   2.762   2.089
 1710SOL    HW2 6030   4.784   2.842   1.988
 1711SOL     OW 6031   4.490   5.270   0.003
 1711SOL    HW1 6032   4.468   5.208   0.078
 1711SOL    HW2 6033   4.555   5.226   6.964
 1712SOL     OW 6034   0.330   2.247   1.939
 1712SOL    HW1 6035   0.366   2.326   1.988
 1712SOL    HW2 6036   0.376   2.238   1.851
 1713SOL     OW 6037   3.030   1.378   2.494
 1713SOL    HW1 6038   3.052   1.447   2.425
 1713SOL    HW2 6039   2.940   1.397   2.532
 1714SOL     OW 6040   3.052   4.750   1.287
 1714SOL    HW1 6041   3.009   4.749   1.196
 1714SOL    HW2 6042   3.092   4.840   1.304
 1715SOL     OW 6043   1.670   6.090   0.814
 1715SOL    HW1 6044   1.694   6.045   0.728
 1715SOL    HW2 6045   1.693   6.030   0.891
 1716SOL     OW 6046   5.084   1.547   2.957
 1716SOL    HW1 6047   5.165   1.503   2.918
 1716SOL    HW2 6048   5.065   1.632   2.908
 1717SOL     OW 6049   3.438   6.533   3.954
 1717SOL    HW1 6050   3.352   6.504   3.910
 1717SOL    HW2 6051   3.469   6.462   4.016
 1718SOL     OW 6052   1.673   3.812   1.954
 1718SOL    HW1 6053   1.731   3.732   1.934
 1718SOL    HW2 6054   1.684   3.880   1.881
 1719SOL     OW 6055   1.592   4.700   3.608
 1719SOL    HW1 6056   1.570   4.713   3.705
 1719SOL    HW2 6057   1.649   4.618   3.599
 1720SOL     OW 6058   1.313   3.050   5.419
 1720SOL    HW1 6059   1.374   3.009   5.351
 1720SOL    HW2 6060   1.307   2.990   5.499
 1721SOL     OW 6061   2.407   2.620   0.229
 1721SOL    HW1 6062   2.485   2.681   0.219
 1721SOL    HW2 6063   2.378   2.619   0.325
 1722SOL     OW 6064   3.388   2.099   2.927
 1722SOL    HW1 6065   3.433   2.055   3.005
 1722SOL    HW2 6066   3.457   2.145   2.871
 1723SOL     OW 6067   6.397   4.929   1.654
 1723SOL    HW1 6068   6.389   4.980   1.568
 1723SOL    HW2 6069   6.346   4.843   1.646
 1724SOL     OW 6070   6.090   3.660   1.088
 1724SOL    HW1 6071   6.148   3.580   1.082
 1724SOL    HW2 6072   6.024   3.648   1.162
 1725SOL     OW 6073   1.161   6.520   5.025
 1725SOL    HW1 6074   1.201   6.498   4.937
 1725SOL    HW2 6075   1.071   6.477   5.033
 1726SOL     OW 6076   5.150   4.636   3.352
 1726SOL    HW1 6077   5.168   4.734   3.347
 1726SOL    HW2 6078   5.204   4.588   3.283
 1727SOL     OW 6079   2.894   3.674   4.229
 1727SOL    HW1 6080   2.904   3.756   4.286
 1727SOL    HW2 6081   2.880   3.594   4.287
 1728SOL     OW 6082   5.567   2.094   4.838
 1728SOL    HW1 6083   5.480   2.144   4.841
 1728SOL    HW2 6084   5.622   2.118   4.918
 1729SOL     OW 6085   1.688   3.560   3.019
 1729SOL    HW1 6086   1.736   3.554   3.106
 1729SOL    HW2 6087   1.712   3.482   2.961
 1730SOL     OW 6088   2.557   0.808   4.817
 1730SOL    HW1 6089   2.649   0.797   4.854
 1730SOL    HW2 6090   2.491   0.819   4.892
 1731SOL     OW 6091   6.057   4.572   3.633
 1731SOL    HW1 6092   5.983   4.512   3.603
 1731SOL    HW2 6093   6.138   4.557   3.577
 1732SOL     OW 6094   4.170   3.313   5.266
 1732SOL    HW1 6095   4.246   3.298   5.329
 1732SOL    HW2 6096   4.107   3.235   5.270
 1733SOL     OW 6097   1.259   1.795   0.124
 1733SOL    HW1 6098   1.171   1.840   0.104
 1733SOL    HW2 6099   1.255   1.700   0.094
 1734SOL     OW 6100   0.876   4.254   1.945
 1734SOL    HW1 6101   0.843   4.257   1.850
 1734SOL    HW2 6102   0.879   4.159   1.976
 1735SOL     OW 6103   3.393   5.453   5.647
 1735SOL    HW1 6104   3.349   5.396   5.578
 1735SOL    HW2 6105   3.464   5.401   5.694
 1736SOL     OW 6106   4.495   1.924   5.729
 1736SOL    HW1 6107   4.489   1.984   5.809
 1736SOL    HW2 6108   4.579   1.945   5.679
 1737SOL     OW 6109   2.470   0.789   6.804
 1737SOL    HW1 6110   2.494   0.879   6.840
 1737SOL    HW2 6111   2.544   0.725   6.824
 1738SOL     OW 6112   1.150   4.085   2.010
 1738SOL    HW1 6113   1.247   4.063   2.020
 1738SOL    HW2 6114   1.127   4.161   2.071
 1739SOL     OW 6115   4.615   5.545   2.372
 1739SOL    HW1 6116   4.626   5.446   2.365
 1739SOL    HW2 6117   4.637   5.587   2.284
 1740SOL     OW 6118   6.306   2.447   4.588
 1740SOL    HW1 6119   6.397   2.457   4.548
 1740SOL    HW2 6120   6.312   2.457   4.688
 1741SOL     OW 6121   1.250   2.928   4.419
 1741SOL    HW1 6122   1.275   2.903   4.513
 1741SOL    HW2 6123   1.332   2.944   4.365
 1742SOL     OW 6124   5.917   7.010   6.999
 1742SOL    HW1 6125   5.933   0.084   7.017
 1742SOL    HW2 6126   5.827   6.998   6.957
 1743SOL     OW 6127   1.061   2.163   1.581
 1743SOL    HW1 6128   1.057   2.111   1.495
 1743SOL    HW2 6129   1.043   2.101   1.658
 1744SOL     OW 6130   3.429   1.963   5.570
 1744SOL    HW1 6131   3.461   2.047   5.614
 1744SOL    HW2 6132   3.476   1.884   5.611
 1745SOL     OW 6133   6.219   6.561   0.835
 1745SOL    HW1 6134   6.163   6.509   0.900
 1745SOL    HW2 6135   6.281   6.622   0.885
 1746SOL     OW 6136   2.127   5.178   2.733
 1746SOL    HW1 6137   2.068   5.114   2.683
 1746SOL    HW2 6138   2.135   5.150   2.828
 1747SOL     OW 6139   2.809   6.981   1.985
 1747SOL    HW1 6140   2.833   0.003   1.900
 1747SOL    HW2 6141   2.787   0.027   2.055
 1748SOL     OW 6142   7.007   1.317   3.449
 1748SOL    HW1 6143   6.913   1.315   3.416
 1748SOL    HW2 6144   7.009   1.347   3.544
 1749SOL     OW 6145   6.630   5.432   2.475
 1749SOL    HW1 6146   6.675   5.480   2.551
 1749SOL    HW2 6147   6.693   5.428   2.397
 1750SOL     OW 6148   2.419   1.403   1.262
 1750SOL    HW1 6149   2.445   1.459   1.183
 1750SOL    HW2 6150   2.383   1.315   1.229
 1751SOL     OW 6151   6.194   4.393   4.672
 1751SOL    HW1 6152   6.124   4.329   4.642
 1751SOL    HW2 6153   6.162   4.442   4.753
 1752SOL     OW 6154   6.121   0.707   2.721
 1752SOL    HW1 6155   6.037   0.654   2.712
 1752SOL    HW2 6156   6.190   0.652   2.767
 1753SOL     OW 6157   6.657   1.537   0.953
 1753SOL    HW1 6158   6.622   1.460   1.006
 1753SOL    HW2 6159   6.588   1.609   0.950
 1754SOL     OW 6160   2.070   5.021   3.671
 1754SOL    HW1 6161   2.160   5.033   3.628
 1754SOL    HW2 6162   2.009   5.094   3.642
 1755SOL     OW 6163   5.973   6.402   5.294
 1755SOL    HW1 6164   5.956   6.493   5.331
 1755SOL    HW2 6165   5.897   6.375   5.235
 1756SOL     OW 6166   4.608   5.754   1.363
 1756SOL    HW1 6167   4.666   5.701   1.425
 1756SOL    HW2 6168   4.571   5.833   1.412
 1757SOL     OW 6169   2.840   5.074   4.878
 1757SOL    HW1 6170   2.855   4.980   4.845
 1757SOL    HW2 6171   2.864   5.138   4.805
 1758SOL     OW 6172   0.417   6.317   3.916
 1758SOL    HW1 6173   0.351   6.246   3.891
 1758SOL    HW2 6174   0.395   6.352   4.007
 1759SOL     OW 6175   1.432   5.342   6.306
 1759SOL    HW1 6176   1.342   5.346   6.350
 1759SOL    HW2 6177   1.485   5.423   6.331
 1760SOL     OW 6178   5.792   1.339   4.113
 1760SOL    HW1 6179   5.738   1.258   4.089
 1760SOL    HW2 6180   5.798   1.345   4.213
 1761SOL     OW 6181   5.328   2.495   4.079
 1761SOL    HW1 6182   5.297   2.400   4.081
 1761SOL    HW2 6183   5.249   2.556   4.084
 1762SOL     OW 6184   0.812   1.721   5.836
 1762SOL    HW1 6185   0.818   1.703   5.737
 1762SOL    HW2 6186   0.749   1.797   5.852
 1763SOL     OW 6187   1.709   5.154   4.065
 1763SOL    HW1 6188   1.687   5.177   4.160
 1763SOL    HW2 6189   1.680   5.060   4.047
 1764SOL     OW 6190   0.621   5.386   3.416
 1764SOL    HW1 6191   0.643   5.334   3.499
 1764SOL    HW2 6192   0.558   5.460   3.439
 1765SOL     OW 6193   5.453   3.991   2.050
 1765SOL    HW1 6194   5.372   3.962   2.000
 1765SOL    HW2 6195   5.488   3.915   2.105
 1766SOL     OW 6196   4.212   4.966   3.795
 1766SOL    HW1 6197   4.224   4.914   3.879
 1766SOL    HW2 6198   4.130   5.024   3.803
 1767SOL     OW 6199   1.822   4.287   1.632
 1767SOL    HW1 6200   1.849   4.367   1.686
 1767SOL    HW2 6201   1.858   4.296   1.539
 1768SOL     OW 6202   3.389   5.016   2.940
 1768SOL    HW1 6203   3.312   5.044   2.882
 1768SOL    HW2 6204   3.425   5.096   2.988
 1769SOL     OW 6205   5.351   0.194   0.779
 1769SOL    HW1 6206   5.331   0.161   0.871
 1769SOL    HW2 6207   5.427   0.142   0.740
 1770SOL     OW 6208   2.704   4.611   0.444
 1770SOL    HW1 6209   2.758   4.681   0.492
 1770SOL    HW2 6210   2.654   4.654   0.369
 1771SOL     OW 6211   1.469   3.133   5.896
 1771SOL    HW1 6212   1.443   3.053   5.950
 1771SOL    HW2 6213   1.521   3.196   5.953
 1772SOL     OW 6214   3.033   5.289   2.093
 1772SOL    HW1 6215   3.018   5.259   2.187
 1772SOL    HW2 6216   3.126   5.325   2.085
 1773SOL     OW 6217   2.318   6.372   4.551
 1773SOL    HW1 6218   2.229   6.365   4.596
 1773SOL    HW2 6219   2.318   6.316   4.468
 1774SOL     OW 6220   5.497   5.624   1.438
 1774SOL    HW1 6221   5.552   5.707   1.428
 1774SOL    HW2 6222   5.555   5.544   1.421
 1775SOL     OW 6223   1.886   6.829   0.946
 1775SOL    HW1 6224   1.920   6.762   1.012
 1775SOL    HW2 6225   1.952   6.841   0.873
 1776SOL     OW 6226   4.913   3.451   6.172
 1776SOL    HW1 6227   4.887   3.426   6.078
 1776SOL    HW2 6228   4.874   3.539   6.195
 1777SOL     OW 6229   4.849   4.882   6.840
 1777SOL    HW1 6230   4.812   4.910   6.751
 1777SOL    HW2 6231   4.890   4.961   6.885
 1778SOL     OW 6232   0.050   0.616   3.347
 1778SOL    HW1 6233   0.036   0.704   3.392
 1778SOL    HW2 6234   0.142   0.613   3.307
 1779SOL     OW 6235   6.675   7.022   4.479
 1779SOL    HW1 6236   6.727   0.017   4.563
 1779SOL    HW2 6237   6.614   0.076   4.461
 1780SOL     OW 6238   2.747   6.814   4.419
 1780SOL    HW1 6239   2.815   6.794   4.490
 1780SOL    HW2 6240   2.779   6.889   4.362
 1781SOL     OW 6241   5.013   1.379   6.145
 1781SOL    HW1 6242   5.109   1.351   6.138
 1781SOL    HW2 6243   5.002   1.469   6.103
 1782SOL     OW 6244   5.270   0.625   2.524
 1782SOL    HW1 6245   5.177   0.640   2.490
 1782SOL    HW2 6246   5.307   0.712   2.558
 1783SOL     OW 6247   1.812   3.167   0.139
 1783SOL    HW1 6248   1.807   3.253   0.088
 1783SOL    HW2 6249   1.790   3.091   0.078
 1784SOL     OW 6250   2.443   5.612   1.500
 1784SOL    HW1 6251   2.477   5.691   1.550
 1784SOL    HW2 6252   2.346   5.599   1.520
 1785SOL     OW 6253   1.953   5.299   4.427
 1785SOL    HW1 6254   1.888   5.342   4.363
 1785SOL    HW2 6255   2.045   5.333   4.408
 1786SOL     OW 6256   0.536   5.545   2.269
 1786SOL    HW1 6257   0.472   5.488   2.218
 1786SOL    HW2 6258   0.621   5.495   2.284
 1787SOL     OW 6259   2.745   2.723   6.301
 1787SOL    HW1 6260   2.765   2.646   6.239
 1787SOL    HW2 6261   2.786   2.807   6.264
 1788SOL     OW 6262   3.752   4.209   0.520
 1788SOL    HW1 6263   3.811   4.151   0.463
 1788SOL    HW2 6264   3.672   4.237   0.466
 1789SOL     OW 6265   5.663   2.804   2.712
 1789SOL    HW1 6266   5.658   2.705   2.723
 1789SOL    HW2 6267   5.720   2.826   2.633
 1790SOL     OW 6268   2.479   1.900   4.949
 1790SOL    HW1 6269   2.454   1.874   5.042
 1790SOL    HW2 6270   2.396   1.920   4.897
 1791SOL     OW 6271   6.222   0.415   3.280
 1791SOL    HW1 6272   6.260   0.374   3.197
 1791SOL    HW2 6273   6.287   0.405   3.355
 1792SOL     OW 6274   0.022   3.133   5.773
 1792SOL    HW1 6275   0.031   3.053   5.715
 1792SOL    HW2 6276   6.972   3.117   5.840
 1793SOL     OW 6277   0.715   1.541   4.995
 1793SOL    HW1 6278   0.644   1.585   5.050
 1793SOL    HW2 6279   0.673   1.487   4.923
 1794SOL     OW 6280   6.481   1.630   6.364
 1794SOL    HW1 6281   6.544   1.556   6.384
 1794SOL    HW2 6282   6.433   1.610   6.278
 1795SOL     OW 6283   5.812   4.257   0.961
 1795SOL    HW1 6284   5.833   4.283   0.867
 1795SOL    HW2 6285   5.799   4.339   1.016
 1796SOL     OW 6286   6.221   0.251   6.869
 1796SOL    HW1 6287   6.250   0.170   6.920
 1796SOL    HW2 6288   6.150   0.299   6.919
 1797SOL     OW 6289   3.216   6.110   5.774
 1797SOL    HW1 6290   3.254   6.170   5.844
 1797SOL    HW2 6291   3.116   6.118   5.773
 1798SOL     OW 6292   2.512   3.881   6.764
 1798SOL    HW1 6293   2.468   3.944   6.700
 1798SOL    HW2 6294   2.557   3.808   6.713
 1799SOL     OW 6295   3.372   1.404   2.034
 1799SOL    HW1 6296   3.280   1.427   2.066
 1799SOL    HW2 6297   3.367   1.359   1.945
 1800SOL     OW 6298   5.948   2.147   5.755
 1800SOL    HW1 6299   5.991   2.101   5.678
 1800SOL    HW2 6300   5.988   2.238   5.767
 1801SOL     OW 6301   0.942   1.927   2.043
 1801SOL    HW1 6302   0.992   1.842   2.026
 1801SOL    HW2 6303   0.867   1.908   2.108
 1802SOL     OW 6304   6.300   4.688   4.819
 1802SOL    HW1 6305   6.348   4.752   4.879
 1802SOL    HW2 6306   6.327   4.704   4.724
 1803SOL     OW 6307   6.782   6.709   3.658
 1803SOL    HW1 6308   6.820   6.685   3.568
 1803SOL    HW2 6309   6.702   6.767   3.647
 1804SOL     OW 6310   0.900   3.208   6.162
 1804SOL    HW1 6311   0.905   3.213   6.261
 1804SOL    HW2 6312   0.992   3.213   6.124
 1805SOL     OW 6313   6.536   4.903   6.043
 1805SOL    HW1 6314   6.540   4.958   5.959
 1805SOL    HW2 6315   6.480   4.822   6.027
 1806SOL     OW 6316   0.327   1.168   1.228
 1806SOL    HW1 6317   0.378   1.182   1.313
 1806SOL    HW2 6318   0.285   1.077   1.229
 1807SOL     OW 6319   6.319   2.348   2.323
 1807SOL    HW1 6320   6.308   2.444   2.346
 1807SOL    HW2 6321   6.244   2.295   2.362
 1808SOL     OW 6322   6.651   0.456   0.046
 1808SOL    HW1 6323   6.562   0.435   0.006
 1808SOL    HW2 6324   6.694   0.372   0.079
 1809SOL     OW 6325   4.330   0.579   4.755
 1809SOL    HW1 6326   4.365   0.509   4.693
 1809SOL    HW2 6327   4.404   0.640   4.783
 1810SOL     OW 6328   1.232   1.481   5.193
 1810SOL    HW1 6329   1.248   1.445   5.101
 1810SOL    HW2 6330   1.176   1.415   5.245
 1811SOL     OW 6331   3.574   5.134   1.857
 1811SOL    HW1 6332   3.510   5.177   1.792
 1811SOL    HW2 6333   3.633   5.071   1.808
 1812SOL     OW 6334   4.151   1.060   6.714
 1812SOL    HW1 6335   4.212   1.126   6.758
 1812SOL    HW2 6336   4.080   1.032   6.779
 1813SOL     OW 6337   5.792   3.618   1.715
 1813SOL    HW1 6338   5.709   3.598   1.663
 1813SOL    HW2 6339   5.847   3.685   1.666
 1814SOL     OW 6340   6.527   5.578   1.056
 1814SOL    HW1 6341   6.557   5.653   0.997
 1814SOL    HW2 6342   6.472   5.614   1.131
 1815SOL     OW 6343   6.064   5.210   1.386
 1815SOL    HW1 6344   6.034   5.297   1.425
 1815SOL    HW2 6345   5.986   5.166   1.341
 1816SOL     OW 6346   3.511   4.928   4.459
 1816SOL    HW1 6347   3.551   4.960   4.545
 1816SOL    HW2 6348   3.522   4.999   4.388
 1817SOL     OW 6349   6.526   2.858   3.822
 1817SOL    HW1 6350   6.602   2.841   3.759
 1817SOL    HW2 6351   6.531   2.952   3.856
 1818SOL     OW 6352   2.485   1.837   0.427
 1818SOL    HW1 6353   2.512   1.823   0.522
 1818SOL    HW2 6354   2.560   1.809   0.367
 1819SOL     OW 6355   1.038   3.535   1.331
 1819SOL    HW1 6356   1.076   3.460   1.277
 1819SOL    HW2 6357   0.989   3.597   1.271
 1820SOL     OW 6358   4.050   6.713   5.069
 1820SOL    HW1 6359   4.001   6.732   4.985
 1820SOL    HW2 6360   4.099   6.796   5.099
 1821SOL     OW 6361   3.858   1.233   2.440
 1821SOL    HW1 6362   3.832   1.299   2.511
 1821SOL    HW2 6363   3.916   1.163   2.480
 1822SOL     OW 6364   2.219   3.960   4.697
 1822SOL    HW1 6365   2.274   3.989   4.776
 1822SOL    HW2 6366   2.196   3.863   4.706
 1823SOL     OW 6367   4.385   6.747   4.100
 1823SOL    HW1 6368   4.395   6.661   4.150
 1823SOL    HW2 6369   4.389   6.823   4.164
 1824SOL     OW 6370   4.554   2.593   1.870
 1824SOL    HW1 6371   4.501   2.620   1.950
 1824SOL    HW2 6372   4.592   2.675   1.826
 1825SOL     OW 6373   1.333   4.060   0.093
 1825SOL    HW1 6374   1.301   4.106   0.176
 1825SOL    HW2 6375   1.425   4.091   0.071
 1826SOL     OW 6376   3.804   3.087   0.070
 1826SOL    HW1 6377   3.791   3.143   0.152
 1826SOL    HW2 6378   3.784   2.991   0.092
 1827SOL     OW 6379   5.311   4.583   0.713
 1827SOL    HW1 6380   5.316   4.671   0.761
 1827SOL    HW2 6381   5.265   4.516   0.771
 1828SOL     OW 6382   2.625   5.676   5.316
 1828SOL    HW1 6383   2.603   5.649   5.222
 1828SOL    HW2 6384   2.616   5.596   5.376
 1829SOL     OW 6385   1.630   6.318   2.582
 1829SOL    HW1 6386   1.548   6.371   2.601
 1829SOL    HW2 6387   1.662   6.275   2.666
 1830SOL     OW 6388   4.407   1.215   6.531
 1830SOL    HW1 6389   4.500   1.189   6.503
 1830SOL    HW2 6390   4.410   1.250   6.625
 1831SOL     OW 6391   3.570   4.471   6.999
 1831SOL    HW1 6392   3.589   4.387   6.949
 1831SOL    HW2 6393   3.655   4.520   7.015
 1832SOL     OW 6394   2.122   2.516   5.801
 1832SOL    HW1 6395   2.172   2.571   5.734
 1832SOL    HW2 6396   2.067   2.447   5.753
 1833SOL     OW 6397   5.741   1.708   0.281
 1833SOL    HW1 6398   5.719   1.663   0.195
 1833SOL    HW2 6399   5.702   1.800   0.281
 1834SOL     OW 6400   2.015   4.062   6.528
 1834SOL    HW1 6401   1.926   4.066   6.482
 1834SOL    HW2 6402   2.032   4.148   6.576
 1835SOL     OW 6403   5.836   6.953   6.679
 1835SOL    HW1 6404   5.932   6.970   6.698
 1835SOL    HW2 6405   5.781   0.005   6.717
 1836SOL     OW 6406   5.632   0.910   4.698
 1836SOL    HW1 6407   5.566   0.865   4.638
 1836SOL    HW2 6408   5.683   0.978   4.645
 1837SOL     OW 6409   1.226   1.993   1.153
 1837SOL    HW1 6410   1.289   2.066   1.177
 1837SOL    HW2 6411   1.278   1.912   1.125
 1838SOL     OW 6412   5.011   0.415   0.462
 1838SOL    HW1 6413   5.042   0.396   0.555
 1838SOL    HW2 6414   5.025   0.334   0.405
 1839SOL     OW 6415   6.676   1.571   6.097
 1839SOL    HW1 6416   6.718   1.566   6.187
 1839SOL    HW2 6417   6.576   1.571   6.106
 1840SOL     OW 6418   2.496   6.765   5.575
 1840SOL    HW1 6419   2.509   6.708   5.656
 1840SOL    HW2 6420   2.427   6.835   5.594
 1841SOL     OW 6421   2.346   6.963   1.913
 1841SOL    HW1 6422   2.327   6.946   1.816
 1841SOL    HW2 6423   2.389   6.882   1.953
 1842SOL     OW 6424   6.827   4.498   1.911
 1842SOL    HW1 6425   6.794   4.499   1.817
 1842SOL    HW2 6426   6.839   4.403   1.941
 1843SOL     OW 6427   2.774   0.981   6.819
 1843SOL    HW1 6428   2.831   1.043   6.765
 1843SOL    HW2 6429   2.832   0.917   6.869
 1844SOL     OW 6430   5.050   3.501   0.958
 1844SOL    HW1 6431   4.973   3.508   0.895
 1844SOL    HW2 6432   5.080   3.405   0.964
 1845SOL     OW 6433   0.611   2.705   4.510
 1845SOL    HW1 6434   0.637   2.618   4.551
 1845SOL    HW2 6435   0.694   2.759   4.492
 1846SOL     OW 6436   3.887   1.653   2.449
 1846SOL    HW1 6437   3.821   1.601   2.503
 1846SOL    HW2 6438   3.845   1.679   2.362
 1847SOL     OW 6439   3.285   5.987   6.529
 1847SOL    HW1 6440   3.333   6.072   6.505
 1847SOL    HW2 6441   3.295   5.969   6.627
 1848SOL     OW 6442   3.392   5.719   4.587
 1848SOL    HW1 6443   3.323   5.767   4.642
 1848SOL    HW2 6444   3.424   5.638   4.637
 1849SOL     OW 6445   4.675   2.686   2.487
 1849SOL    HW1 6446   4.724   2.763   2.447
 1849SOL    HW2 6447   4.625   2.637   2.416
 1850SOL     OW 6448   5.075   1.622   1.114
 1850SOL    HW1 6449   5.105   1.528   1.096
 1850SOL    HW2 6450   4.982   1.621   1.149
 1851SOL     OW 6451   1.370   5.037   3.806
 1851SOL    HW1 6452   1.377   5.137   3.811
 1851SOL    HW2 6453   1.388   5.006   3.713
 1852SOL     OW 6454   0.459   0.113   3.467
 1852SOL    HW1 6455   0.431   0.209   3.459
 1852SOL    HW2 6456   0.422   0.074   3.551
 1853SOL     OW 6457   0.965   1.775   5.349
 1853SOL    HW1 6458   0.937   1.833   5.426
 1853SOL    HW2 6459   0.993   1.832   5.272
 1854SOL     OW 6460   0.655   6.693   4.099
 1854SOL    HW1 6461   0.718   6.624   4.064
 1854SOL    HW2 6462   0.577   6.702   4.036
 1855SOL     OW 6463   6.598   1.520   4.912
 1855SOL    HW1 6464   6.559   1.611   4.926
 1855SOL    HW2 6465   6.698   1.526   4.912
 1856SOL     OW 6466   5.312   3.777   6.704
 1856SOL    HW1 6467   5.347   3.793   6.612
 1856SOL    HW2 6468   5.351   3.846   6.766
 1857SOL     OW 6469   4.686   0.912   6.660
 1857SOL    HW1 6470   4.738   0.891   6.743
 1857SOL    HW2 6471   4.617   0.982   6.680
 1858SOL     OW 6472   5.272   2.120   4.377
 1858SOL    HW1 6473   5.234   2.029   4.396
 1858SOL    HW2 6474   5.363   2.127   4.417
 1859SOL     OW 6475   5.960   6.099   2.848
 1859SOL    HW1 6476   5.957   6.181   2.791
 1859SOL    HW2 6477   5.964   6.125   2.945
 1860SOL     OW 6478   2.159   1.060   0.448
 1860SOL    HW1 6479   2.241   1.029   0.399
 1860SOL    HW2 6480   2.164   1.028   0.543
 1861SOL     OW 6481   6.506   0.067   5.445
 1861SOL    HW1 6482   6.531   0.131   5.517
 1861SOL    HW2 6483   6.541   6.999   5.467
 1862SOL     OW 6484   3.791   5.102   5.257
 1862SOL    HW1 6485   3.794   5.185   5.314
 1862SOL    HW2 6486   3.740   5.121   5.173
 1863SOL     OW 6487   0.195   0.973   1.534
 1863SOL    HW1 6488   0.117   1.011   1.583
 1863SOL    HW2 6489   0.211   0.879   1.565
 1864SOL     OW 6490   2.283   6.156   2.360
 1864SOL    HW1 6491   2.288   6.094   2.439
 1864SOL    HW2 6492   2.200   6.211   2.366
 1865SOL     OW 6493   6.097   2.648   5.609
 1865SOL    HW1 6494   6.101   2.572   5.544
 1865SOL    HW2 6495   6.190   2.674   5.634
 1866SOL     OW 6496   0.444   4.068   5.412
 1866SOL    HW1 6497   0.413   4.163   5.420
 1866SOL    HW2 6498   0.520   4.064   5.347
 1867SOL     OW 6499   1.289   0.955   1.000
 1867SOL    HW1 6500   1.364   0.923   0.943
 1867SOL    HW2 6501   1.217   0.886   1.002
 1868SOL     OW 6502   5.562   3.527   5.791
 1868SOL    HW1 6503   5.607   3.580   5.719
 1868SOL    HW2 6504   5.577   3.571   5.879
 1869SOL     OW 6505   5.334   0.313   4.930
 1869SOL    HW1 6506   5.288   0.399   4.951
 1869SOL    HW2 6507   5.342   0.258   5.013
 1870SOL     OW 6508   5.402   1.031   5.623
 1870SOL    HW1 6509   5.306   1.022   5.598
 1870SOL    HW2 6510   5.458   0.974   5.563
 1871SOL     OW 6511   2.624   4.598   6.676
 1871SOL    HW1 6512   2.576   4.626   6.759
 1871SOL    HW2 6513   2.717   4.634   6.677
 1872SOL     OW 6514   2.747   3.208   0.323
 1872SOL    HW1 6515   2.748   3.299   0.281
 1872SOL    HW2 6516   2.652   3.176   0.330
 1873SOL     OW 6517   6.312   1.520   2.141
 1873SOL    HW1 6518   6.231   1.464   2.159
 1873SOL    HW2 6519   6.293   1.585   2.068
 1874SOL     OW 6520   2.001   5.316   6.229
 1874SOL    HW1 6521   1.981   5.243   6.295
 1874SOL    HW2 6522   1.950   5.299   6.145
 1875SOL     OW 6523   1.110   6.101   2.417
 1875SOL    HW1 6524   1.054   6.098   2.333
 1875SOL    HW2 6525   1.163   6.185   2.419
 1876SOL     OW 6526   0.645   5.196   5.924
 1876SOL    HW1 6527   0.699   5.184   5.841
 1876SOL    HW2 6528   0.548   5.189   5.902
 1877SOL     OW 6529   0.202   1.121   3.485
 1877SOL    HW1 6530   0.116   1.170   3.481
 1877SOL    HW2 6531   0.278   1.184   3.467
 1878SOL     OW 6532   6.059   3.855   4.493
 1878SOL    HW1 6533   6.074   3.948   4.460
 1878SOL    HW2 6534   5.986   3.855   4.562
 1879SOL     OW 6535   4.184   6.123   5.311
 1879SOL    HW1 6536   4.138   6.152   5.395
 1879SOL    HW2 6537   4.136   6.160   5.231
 1880SOL     OW 6538   1.687   3.661   4.779
 1880SOL    HW1 6539   1.661   3.578   4.730
 1880SOL    HW2 6540   1.729   3.637   4.867
 1881SOL     OW 6541   2.318   2.246   3.309
 1881SOL    HW1 6542   2.365   2.174   3.257
 1881SOL    HW2 6543   2.316   2.330   3.256
 1882SOL     OW 6544   4.127   6.923   0.093
 1882SOL    HW1 6545   4.161   6.907   0.186
 1882SOL    HW2 6546   4.200   6.905   0.027
 1883SOL     OW 6547   2.131   3.706   2.829
 1883SOL    HW1 6548   2.152   3.657   2.745
 1883SOL    HW2 6549   2.116   3.803   2.807
 1884SOL     OW 6550   4.677   1.141   0.017
 1884SOL    HW1 6551   4.606   1.090   6.992
 1884SOL    HW2 6552   4.654   1.146   0.115
 1885SOL     OW 6553   0.157   1.707   0.944
 1885SOL    HW1 6554   0.063   1.699   0.979
 1885SOL    HW2 6555   0.202   1.784   0.989
 1886SOL     OW 6556   3.644   3.189   4.641
 1886SOL    HW1 6557   3.576   3.129   4.599
 1886SOL    HW2 6558   3.713   3.134   4.688
 1887SOL     OW 6559   0.917   5.865   5.256
 1887SOL    HW1 6560   1.014   5.875   5.277
 1887SOL    HW2 6561   0.863   5.879   5.338
 1888SOL     OW 6562   2.019   1.988   6.072
 1888SOL    HW1 6563   2.115   1.961   6.086
 1888SOL    HW2 6564   1.996   2.062   6.135
 1889SOL     OW 6565   3.458   3.612   0.211
 1889SOL    HW1 6566   3.382   3.623   0.275
 1889SOL    HW2 6567   3.491   3.702   0.182
 1890SOL     OW 6568   6.066   6.428   6.484
 1890SOL    HW1 6569   6.148   6.459   6.530
 1890SOL    HW2 6570   6.011   6.372   6.546
 1891SOL     OW 6571   5.526   3.263   6.867
 1891SOL    HW1 6572   5.450   3.327   6.859
 1891SOL    HW2 6573   5.564   3.245   6.777
 1892SOL     OW 6574   4.315   0.781   3.358
 1892SOL    HW1 6575   4.301   0.719   3.281
 1892SOL    HW2 6576   4.228   0.796   3.405
 1893SOL     OW 6577   3.042   2.132   6.960
 1893SOL    HW1 6578   3.050   2.186   6.877
 1893SOL    HW2 6579   3.007   2.041   6.937
 1894SOL     OW 6580   5.052   3.219   0.827
 1894SOL    HW1 6581   5.150   3.198   0.823
 1894SOL    HW2 6582   5.014   3.220   0.735
 1895SOL     OW 6583   4.492   5.635   2.782
 1895SOL    HW1 6584   4.426   5.621   2.708
 1895SOL    HW2 6585   4.541   5.721   2.767
 1896SOL     OW 6586   6.898   1.573   4.567
 1896SOL    HW1 6587   6.938   1.646   4.623
 1896SOL    HW2 6588   6.859   1.613   4.484
 1897SOL     OW 6589   5.245   5.330   3.319
 1897SOL    HW1 6590   5.200   5.401   3.374
 1897SOL    HW2 6591   5.329   5.367   3.279
 1898SOL     OW 6592   5.057   6.667   0.190
 1898SOL    HW1 6593   5.149   6.690   0.158
 1898SOL    HW2 6594   4.990   6.700   0.124
 1899SOL     OW 6595   2.025   3.074   3.396
 1899SOL    HW1 6596   2.045   3.119   3.309
 1899SOL    HW2 6597   2.108   3.031   3.431
 1900SOL     OW 6598   2.744   5.440   1.218
 1900SOL    HW1 6599   2.834   5.417   1.179
 1900SOL    HW2 6600   2.733   5.394   1.306
 1901SOL     OW 6601   0.492   1.701   5.980
 1901SOL    HW1 6602   0.463   1.650   5.899
 1901SOL    HW2 6603   0.443   1.668   6.061
 1902SOL     OW 6604   1.649   2.702   4.977
 1902SOL    HW1 6605   1.577   2.666   5.036
 1902SOL    HW2 6606   1.732   2.717   5.030
 1903SOL     OW 6607   6.894   5.638   3.884
 1903SOL    HW1 6608   6.824   5.662   3.816
 1903SOL    HW2 6609   6.984   5.662   3.849
 1904SOL     OW 6610   0.364   6.911   4.300
 1904SOL    HW1 6611   0.285   6.954   4.255
 1904SOL    HW2 6612   0.394   6.968   4.377
 1905SOL     OW 6613   5.865   3.261   5.197
 1905SOL    HW1 6614   5.921   3.178   5.204
 1905SOL    HW2 6615   5.896   3.327   5.265
 1906SOL     OW 6616   2.065   6.227   6.059
 1906SOL    HW1 6617   2.083   6.222   5.961
 1906SOL    HW2 6618   2.125   6.295   6.100
 1907SOL     OW 6619   4.156   6.739   3.279
 1907SOL    HW1 6620   4.205   6.684   3.211
 1907SOL    HW2 6621   4.176   6.836   3.263
 1908SOL     OW 6622   5.038   4.703   1.021
 1908SOL    HW1 6623   4.969   4.767   0.988
 1908SOL    HW2 6624   5.024   4.613   0.979
 1909SOL     OW 6625   5.091   5.518   3.697
 1909SOL    HW1 6626   5.025   5.448   3.724
 1909SOL    HW2 6627   5.050   5.609   3.711
 1910SOL     OW 6628   5.033   3.703   4.145
 1910SOL    HW1 6629   5.001   3.704   4.239
 1910SOL    HW2 6630   5.010   3.615   4.103
 1911SOL     OW 6631   0.987   2.492   5.679
 1911SOL    HW1 6632   0.892   2.472   5.706
 1911SOL    HW2 6633   1.012   2.432   5.603
 1912SOL     OW 6634   3.276   6.965   2.419
 1912SOL    HW1 6635   3.263   6.932   2.326
 1912SOL    HW2 6636   3.193   6.950   2.473
 1913SOL     OW 6637   2.906   3.802   6.872
 1913SOL    HW1 6638   2.881   3.888   6.828
 1913SOL    HW2 6639   2.823   3.752   6.898
 1914SOL     OW 6640   4.505   1.282   5.097
 1914SOL    HW1 6641   4.454   1.365   5.118
 1914SOL    HW2 6642   4.445   1.216   5.052
 1915SOL     OW 6643   2.702   6.670   5.346
 1915SOL    HW1 6644   2.719   6.704   5.253
 1915SOL    HW2 6645   2.629   6.603   5.344
 1916SOL     OW 6646   3.546   6.876   2.387
 1916SOL    HW1 6647   3.457   6.921   2.393
 1916SOL    HW2 6648   3.565   6.828   2.473
 1917SOL     OW 6649   3.909   3.979   3.714
 1917SOL    HW1 6650   3.909   4.068   3.668
 1917SOL    HW2 6651   3.918   3.993   3.813
 1918SOL     OW 6652   0.646   6.444   5.672
 1918SOL    HW1 6653   0.720   6.468   5.735
 1918SOL    HW2 6654   0.581   6.520   5.668
 1919SOL     OW 6655   5.602   0.383   2.268
 1919SOL    HW1 6656   5.672   0.318   2.238
 1919SOL    HW2 6657   5.524   0.379   2.206
 1920SOL     OW 6658   6.166   6.237   4.481
 1920SOL    HW1 6659   6.214   6.315   4.521
 1920SOL    HW2 6660   6.233   6.174   4.441
 1921SOL     OW 6661   2.563   6.707   6.576
 1921SOL    HW1 6662   2.496   6.704   6.502
 1921SOL    HW2 6663   2.532   6.769   6.648
 1922SOL     OW 6664   3.862   4.492   0.041
 1922SOL    HW1 6665   3.923   4.419   0.073
 1922SOL    HW2 6666   3.894   4.580   0.077
 1923SOL     OW 6667   1.589   2.904   0.987
 1923SOL    HW1 6668   1.555   2.900   0.893
 1923SOL    HW2 6669   1.634   2.818   1.010
 1924SOL     OW 6670   0.361   3.717   1.509
 1924SOL    HW1 6671   0.344   3.810   1.478
 1924SOL    HW2 6672   0.459   3.697   1.500
 1925SOL     OW 6673   3.194   4.746   0.242
 1925SOL    HW1 6674   3.265   4.676   0.241
 1925SOL    HW2 6675   3.231   4.831   0.205
 1926SOL     OW 6676   0.372   0.455   3.702
 1926SOL    HW1 6677   0.399   0.431   3.609
 1926SOL    HW2 6678   0.327   0.544   3.702
 1927SOL     OW 6679   5.141   3.378   1.345
 1927SOL    HW1 6680   5.114   3.320   1.268
 1927SOL    HW2 6681   5.061   3.394   1.403
 1928SOL     OW 6682   0.342   5.621   4.490
 1928SOL    HW1 6683   0.339   5.703   4.433
 1928SOL    HW2 6684   0.317   5.541   4.436
 1929SOL     OW 6685   0.999   4.745   2.750
 1929SOL    HW1 6686   1.039   4.776   2.837
 1929SOL    HW2 6687   0.905   4.715   2.766
 1930SOL     OW 6688   6.664   5.673   5.801
 1930SOL    HW1 6689   6.587   5.731   5.826
 1930SOL    HW2 6690   6.643   5.578   5.825
 1931SOL     OW 6691   2.008   2.568   3.668
 1931SOL    HW1 6692   2.042   2.625   3.743
 1931SOL    HW2 6693   2.069   2.489   3.656
 1932SOL     OW 6694   5.979   3.372   2.388
 1932SOL    HW1 6695   6.074   3.385   2.360
 1932SOL    HW2 6696   5.969   3.398   2.484
 1933SOL     OW 6697   2.638   5.312   0.184
 1933SOL    HW1 6698   2.736   5.316   0.205
 1933SOL    HW2 6699   2.602   5.404   0.175
 1934SOL     OW 6700   0.021   6.271   2.939
 1934SOL    HW1 6701   6.988   6.341   2.985
 1934SOL    HW2 6702   0.053   6.205   3.007
 1935SOL     OW 6703   1.165   1.417   2.994
 1935SOL    HW1 6704   1.107   1.337   2.984
 1935SOL    HW2 6705   1.173   1.441   3.091
 1936SOL     OW 6706   0.454   5.656   4.871
 1936SOL    HW1 6707   0.542   5.689   4.837
 1936SOL    HW2 6708   0.415   5.591   4.806
 1937SOL     OW 6709   4.599   1.792   2.949
 1937SOL    HW1 6710   4.537   1.714   2.954
 1937SOL    HW2 6711   4.547   1.876   2.962
 1938SOL     OW 6712   4.955   6.581   4.066
 1938SOL    HW1 6713   5.047   6.602   4.100
 1938SOL    HW2 6714   4.946   6.613   3.971
 1939SOL     OW 6715   2.691   0.779   4.569
 1939SOL    HW1 6716   2.659   0.696   4.524
 1939SOL    HW2 6717   2.647   0.787   4.659
 1940SOL     OW 6718   6.144   6.784   6.617
 1940SOL    HW1 6719   6.072   6.756   6.554
 1940SOL    HW2 6720   6.176   6.875   6.594
 1941SOL     OW 6721   4.177   5.086   2.976
 1941SOL    HW1 6722   4.177   5.167   3.034
 1941SOL    HW2 6723   4.122   5.015   3.018
 1942SOL     OW 6724   0.132   3.178   2.856
 1942SOL    HW1 6725   0.089   3.256   2.900
 1942SOL    HW2 6726   0.200   3.137   2.917
 1943SOL     OW 6727   3.257   5.424   3.403
 1943SOL    HW1 6728   3.216   5.465   3.485
 1943SOL    HW2 6729   3.296   5.335   3.427
 1944SOL     OW 6730   6.762   6.251   1.932
 1944SOL    HW1 6731   6.754   6.169   1.876
 1944SOL    HW2 6732   6.753   6.227   2.029
 1945SOL     OW 6733   2.795   5.051   2.881
 1945SOL    HW1 6734   2.744   5.116   2.937
 1945SOL    HW2 6735   2.846   4.988   2.940
 1946SOL     OW 6736   1.393   6.572   7.001
 1946SOL    HW1 6737   1.413   6.649   0.039
 1946SOL    HW2 6738   1.429   6.591   6.910
 1947SOL     OW 6739   4.420   0.767   3.864
 1947SOL    HW1 6740   4.518   0.747   3.858
 1947SOL    HW2 6741   4.400   0.814   3.950
 1948SOL     OW 6742   6.435   2.989   5.130
 1948SOL    HW1 6743   6.518   3.040   5.111
 1948SOL    HW2 6744   6.455   2.891   5.133
 1949SOL     OW 6745   4.840   3.603   0.021
 1949SOL    HW1 6746   4.933   3.638   0.028
 1949SOL    HW2 6747   4.843   3.507   7.016
 1950SOL     OW 6748   2.913   5.146   0.791
 1950SOL    HW1 6749   2.934   5.130   0.888
 1950SOL    HW2 6750   2.997   5.141   0.738
 1951SOL     OW 6751   6.043   2.797   6.684
 1951SOL    HW1 6752   6.002   2.885   6.663
 1951SOL    HW2 6753   6.141   2.809   6.702
 1952SOL     OW 6754   2.936   3.545   3.929
 1952SOL    HW1 6755   2.951   3.454   3.967
 1952SOL    HW2 6756   2.951   3.613   4.000
 1953SOL     OW 6757   0.593   2.435   4.367
 1953SOL    HW1 6758   0.625   2.343   4.345
 1953SOL    HW2 6759   0.602   2.450   4.465
 1954SOL     OW 6760   2.451   2.187   4.186
 1954SOL    HW1 6761   2.476   2.284   4.183
 1954SOL    HW2 6762   2.364   2.174   4.140
 1955SOL     OW 6763   6.478   5.843   3.036
 1955SOL    HW1 6764   6.554   5.835   3.100
 1955SOL    HW2 6765   6.431   5.930   3.050
 1956SOL     OW 6766   3.985   5.810   3.028
 1956SOL    HW1 6767   3.954   5.715   3.037
 1956SOL    HW2 6768   3.964   5.859   3.113
 1957SOL     OW 6769   2.382   6.479   5.172
 1957SOL    HW1 6770   2.439   6.408   5.214
 1957SOL    HW2 6771   2.382   6.560   5.229
 1958SOL     OW 6772   3.974   3.851   6.574
 1958SOL    HW1 6773   3.945   3.808   6.489
 1958SOL    HW2 6774   3.905   3.917   6.604
 1959SOL     OW 6775   2.555   0.290   0.769
 1959SOL    HW1 6776   2.525   0.238   0.848
 1959SOL    HW2 6777   2.479   0.344   0.734
 1960SOL     OW 6778   5.217   5.342   2.987
 1960SOL    HW1 6779   5.136   5.286   2.969
 1960SOL    HW2 6780   5.288   5.285   3.030
 1961SOL     OW 6781   5.531   4.425   5.535
 1961SOL    HW1 6782   5.548   4.370   5.453
 1961SOL    HW2 6783   5.517   4.520   5.509
 1962SOL     OW 6784   0.261   6.653   3.880
 1962SOL    HW1 6785   0.289   6.665   3.975
 1962SOL    HW2 6786   0.319   6.708   3.821
 1963SOL     OW 6787   2.626   1.481   4.030
 1963SOL    HW1 6788   2.714   1.435   4.015
 1963SOL    HW2 6789   2.555   1.412   4.044
 1964SOL     OW 6790   6.789   3.134   2.006
 1964SOL    HW1 6791   6.880   3.133   2.047
 1964SOL    HW2 6792   6.728   3.192   2.060
 1965SOL     OW 6793   2.490   0.362   2.991
 1965SOL    HW1 6794   2.480   0.365   2.891
 1965SOL    HW2 6795   2.405   0.393   3.033
 1966SOL     OW 6796   6.871   6.336   6.944
 1966SOL    HW1 6797   6.963   6.369   6.923
 1966SOL    HW2 6798   6.805   6.407   6.924
 1967SOL     OW 6799   6.029   2.612   4.812
 1967SOL    HW1 6800   6.126   2.624   4.833
 1967SOL    HW2 6801   5.974   2.645   4.888
 1968SOL     OW 6802   4.275   5.502   4.721
 1968SOL    HW1 6803   4.253   5.406   4.701
 1968SOL    HW2 6804   4.190   5.552   4.738
 1969SOL     OW 6805   6.504   0.658   1.476
 1969SOL    HW1 6806   6.457   0.735   1.520
 1969SOL    HW2 6807   6.589   0.690   1.435
 1970SOL     OW 6808   2.069   1.106   4.448
 1970SOL    HW1 6809   1.993   1.056   4.407
 1970SOL    HW2 6810   2.063   1.099   4.548
 1971SOL     OW 6811   6.994   1.555   5.858
 1971SOL    HW1 6812   6.904   1.512   5.853
 1971SOL    HW2 6813   6.997   1.617   5.936
 1972SOL     OW 6814   1.108   6.843   3.526
 1972SOL    HW1 6815   1.017   6.810   3.550
 1972SOL    HW2 6816   1.101   6.912   3.454
 1973SOL     OW 6817   3.198   3.029   0.184
 1973SOL    HW1 6818   3.124   3.070   0.237
 1973SOL    HW2 6819   3.161   2.962   0.120
 1974SOL     OW 6820   6.135   6.429   3.985
 1974SOL    HW1 6821   6.210   6.492   4.008
 1974SOL    HW2 6822   6.168   6.335   3.991
 1975SOL     OW 6823   2.790   0.067   3.640
 1975SOL    HW1 6824   2.782   0.164   3.618
 1975SOL    HW2 6825   2.885   0.037   3.624
 1976SOL     OW 6826   6.358   4.662   6.018
 1976SOL    HW1 6827   6.298   4.720   5.963
 1976SOL    HW2 6828   6.327   4.664   6.113
 1977SOL     OW 6829   3.153   2.152   5.319
 1977SOL    HW1 6830   3.149   2.236   5.264
 1977SOL    HW2 6831   3.179   2.075   5.260
 1978SOL     OW 6832   6.438   2.408   4.831
 1978SOL    HW1 6833   6.376   2.354   4.888
 1978SOL    HW2 6834   6.519   2.355   4.809
 1979SOL     OW 6835   6.613   3.872   2.535
 1979SOL    HW1 6836   6.697   3.821   2.518
 1979SOL    HW2 6837   6.614   3.957   2.481
 1980SOL     OW 6838   2.488   0.650   2.637
 1980SOL    HW1 6839   2.543   0.708   2.698
 1980SOL    HW2 6840   2.504   0.677   2.542
 1981SOL     OW 6841   5.646   3.388   2.030
 1981SOL    HW1 6842   5.662   3.291   2.011
 1981SOL    HW2 6843   5.722   3.425   2.083
 1982SOL     OW 6844   0.188   0.219   5.606
 1982SOL    HW1 6845   0.190   0.256   5.513
 1982SOL    HW2 6846   0.227   0.126   5.605
 1983SOL     OW 6847   0.756   4.824   1.692
 1983SOL    HW1 6848   0.840   4.770   1.700
 1983SOL    HW2 6849   0.678   4.766   1.715
 1984SOL     OW 6850   4.063   0.793   5.541
 1984SOL    HW1 6851   4.063   0.842   5.454
 1984SOL    HW2 6852   4.076   0.858   5.616
 1985SOL     OW 6853   1.225   5.437   1.784
 1985SOL    HW1 6854   1.180   5.358   1.826
 1985SOL    HW2 6855   1.316   5.448   1.823
 1986SOL     OW 6856   6.926   2.111   0.724
 1986SOL    HW1 6857   6.953   2.024   0.766
 1986SOL    HW2 6858   6.849   2.096   0.662
 1987SOL     OW 6859   2.772   3.495   0.336
 1987SOL    HW1 6860   2.802   3.531   0.248
 1987SOL    HW2 6861   2.851   3.483   0.397
 1988SOL     OW 6862   4.924   2.872   1.085
 1988SOL    HW1 6863   4.989   2.845   1.014
 1988SOL    HW2 6864   4.885   2.961   1.062
 1989SOL     OW 6865   2.550   2.463   3.712
 1989SOL    HW1 6866   2.633   2.459   3.657
 1989SOL    HW2 6867   2.473   2.492   3.654
 1990SOL     OW 6868   1.093   0.809   2.944
 1990SOL    HW1 6869   1.191   0.820   2.930
 1990SOL    HW2 6870   1.048   0.898   2.931
 1991SOL     OW 6871   4.640   6.201   2.807
 1991SOL    HW1 6872   4.569   6.208   2.877
 1991SOL    HW2 6873   4.652   6.105   2.781
 1992SOL     OW 6874   2.524   5.023   5.576
 1992SOL    HW1 6875   2.470   4.980   5.648
 1992SOL    HW2 6876   2.607   4.971   5.561
 1993SOL     OW 6877   3.071   3.062   4.259
 1993SOL    HW1 6878   3.131   3.033   4.334
 1993SOL    HW2 6879   3.111   3.034   4.172
 1994SOL     OW 6880   6.853   2.061   1.772
 1994SOL    HW1 6881   6.838   1.965   1.794
 1994SOL    HW2 6882   6.905   2.105   1.845
 1995SOL     OW 6883   3.530   2.189   1.575
 1995SOL    HW1 6884   3.624   2.165   1.600
 1995SOL    HW2 6885   3.502   2.272   1.623
 1996SOL     OW 6886   2.315   4.670   5.218
 1996SOL    HW1 6887   2.363   4.720   5.290
 1996SOL    HW2 6888   2.377   4.605   5.175
 1997SOL     OW 6889   5.760   5.956   4.135
 1997SOL    HW1 6890   5.705   6.011   4.197
 1997SOL    HW2 6891   5.855   5.985   4.141
 1998SOL     OW 6892   3.119   4.928   4.747
 1998SOL    HW1 6893   3.056   4.864   4.789
 1998SOL    HW2 6894   3.186   4.959   4.815
 1999SOL     OW 6895   2.682   1.641   2.096
 1999SOL    HW1 6896   2.698   1.694   2.179
 1999SOL    HW2 6897   2.750   1.667   2.027
 2000SOL     OW 6898   2.997   1.375   4.938
 2000SOL    HW1 6899   2.949   1.461   4.918
 2000SOL    HW2 6900   3.019   1.372   5.035
 2001SOL     OW 6901   2.467   2.263   6.669
 2001SOL    HW1 6902   2.385   2.316   6.695
 2001SOL    HW2 6903   2.499   2.294   6.580
 2002SOL     OW 6904   1.571   4.889   4.630
 2002SOL    HW1 6905   1.634   4.931   4.695
 2002SOL    HW2 6906   1.599   4.913   4.537
 2003SOL     OW 6907   6.083   4.004   3.371
 2003SOL    HW1 6908   6.136   3.931   3.327
 2003SOL    HW2 6909   6.046   3.971   3.458
 2004SOL     OW 6910   3.452   6.890   6.775
 2004SOL    HW1 6911   3.549   6.913   6.787
 2004SOL    HW2 6912   3.397   6.956   6.827
 2005SOL     OW 6913   2.992   6.652   5.075
 2005SOL    HW1 6914   3.046   6.711   5.135
 2005SOL    HW2 6915   2.902   6.693   5.061
 2006SOL     OW 6916   4.600   6.769   3.598
 2006SOL    HW1 6917   4.538   6.818   3.659
 2006SOL    HW2 6918   4.555   6.749   3.512
 2007SOL     OW 6919   6.641   5.819   6.886
 2007SOL    HW1 6920   6.696   5.841   6.805
 2007SOL    HW2 6921   6.683   5.742   6.934
 2008SOL     OW 6922   0.290   5.872   5.221
 2008SOL    HW1 6923   0.380   5.830   5.218
 2008SOL    HW2 6924   0.238   5.834   5.297
 2009SOL     OW 6925   1.213   0.642   0.066
 2009SOL    HW1 6926   1.163   0.583   0.129
 2009SOL    HW2 6927   1.296   0.675   0.111
 2010SOL     OW 6928   2.051   1.189   0.810
 2010SOL    HW1 6929   2.108   1.111   0.785
 2010SOL    HW2 6930   2.105   1.273   0.804
 2011SOL     OW 6931   6.290   1.809   4.560
 2011SOL    HW1 6932   6.213   1.843   4.505
 2011SOL    HW2 6933   6.302   1.866   4.641
 2012SOL     OW 6934   6.743   3.150   1.230
 2012SOL    HW1 6935   6.799   3.125   1.151
 2012SOL    HW2 6936   6.793   3.130   1.314
 2013SOL     OW 6937   3.901   2.607   1.494
 2013SOL    HW1 6938   3.873   2.574   1.584
 2013SOL    HW2 6939   3.929   2.702   1.500
 2014SOL     OW 6940   3.218   5.562   3.164
 2014SOL    HW1 6941   3.223   5.508   3.249
 2014SOL    HW2 6942   3.310   5.591   3.137
 2015SOL     OW 6943   3.125   5.397   0.352
 2015SOL    HW1 6944   3.183   5.356   0.282
 2015SOL    HW2 6945   3.057   5.329   0.382
 2016SOL     OW 6946   5.607   5.490   4.412
 2016SOL    HW1 6947   5.626   5.566   4.350
 2016SOL    HW2 6948   5.511   5.464   4.405
 2017SOL     OW 6949   2.036   5.059   1.929
 2017SOL    HW1 6950   2.037   4.960   1.942
 2017SOL    HW2 6951   2.004   5.080   1.836
 2018SOL     OW 6952   0.553   4.265   5.699
 2018SOL    HW1 6953   0.464   4.255   5.742
 2018SOL    HW2 6954   0.613   4.190   5.728
 2019SOL     OW 6955   5.343   0.919   2.611
 2019SOL    HW1 6956   5.425   0.972   2.590
 2019SOL    HW2 6957   5.263   0.962   2.570
 2020SOL     OW 6958   2.278   5.287   3.390
 2020SOL    HW1 6959   2.348   5.268   3.459
 2020SOL    HW2 6960   2.194   5.318   3.435
 2021SOL     OW 6961   1.750   5.773   1.872
 2021SOL    HW1 6962   1.798   5.708   1.814
 2021SOL    HW2 6963   1.814   5.844   1.902
 2022SOL     OW 6964   3.306   5.835   1.606
 2022SOL    HW1 6965   3.392   5.785   1.607
 2022SOL    HW2 6966   3.230   5.770   1.600
 2023SOL     OW 6967   6.581   2.143   5.648
 2023SOL    HW1 6968   6.625   2.209   5.587
 2023SOL    HW2 6969   6.483   2.160   5.650
 2024SOL     OW 6970   6.044   0.479   3.595
 2024SOL    HW1 6971   6.021   0.514   3.504
 2024SOL    HW2 6972   6.144   0.482   3.606
 2025SOL     OW 6973   6.211   1.050   1.344
 2025SOL    HW1 6974   6.300   1.089   1.368
 2025SOL    HW2 6975   6.192   1.066   1.248
 2026SOL     OW 6976   1.876   1.681   5.038
 2026SOL    HW1 6977   1.880   1.730   5.125
 2026SOL    HW2 6978   1.954   1.708   4.982
 2027SOL     OW 6979   6.823   0.216   2.116
 2027SOL    HW1 6980   6.785   0.130   2.151
 2027SOL    HW2 6981   6.793   0.230   2.022
 2028SOL     OW 6982   4.046   3.890   5.569
 2028SOL    HW1 6983   3.989   3.955   5.619
 2028SOL    HW2 6984   4.003   3.869   5.481
 2029SOL     OW 6985   1.709   0.609   0.475
 2029SOL    HW1 6986   1.803   0.605   0.441
 2029SOL    HW2 6987   1.671   0.517   0.479
 2030SOL     OW 6988   2.289   2.905   2.478
 2030SOL    HW1 6989   2.234   2.911   2.395
 2030SOL    HW2 6990   2.354   2.830   2.470
 2031SOL     OW 6991   6.295   6.818   2.433
 2031SOL    HW1 6992   6.338   6.871   2.506
 2031SOL    HW2 6993   6.365   6.768   2.382
 2032SOL     OW 6994   4.393   6.120   2.000
 2032SOL    HW1 6995   4.373   6.182   2.077
 2032SOL    HW2 6996   4.465   6.159   1.943
 2033SOL     OW 6997   0.283   5.085   6.777
 2033SOL    HW1 6998   0.238   5.061   6.691
 2033SOL    HW2 6999   0.310   5.181   6.775
 2034SOL     OW 7000   2.199   5.693   4.124
 2034SOL    HW1 7001   2.232   5.600   4.112
 2034SOL    HW2 7002   2.163   5.727   4.037
 2035SOL     OW 7003   0.590   1.721   3.423
 2035SOL    HW1 7004   0.635   1.658   3.486
 2035SOL    HW2 7005   0.638   1.809   3.422
 2036SOL     OW 7006   0.507   4.852   0.870
 2036SOL    HW1 7007   0.548   4.771   0.911
 2036SOL    HW2 7008   0.567   4.931   0.883
 2037SOL     OW 7009   0.446   2.608   6.546
 2037SOL    HW1 7010   0.421   2.705   6.536
 2037SOL    HW2 7011   0.425   2.578   6.639
 2038SOL     OW 7012   1.448   7.019   4.591
 2038SOL    HW1 7013   1.417   6.957   4.519
 2038SOL    HW2 7014   1.370   0.042   4.633
 2039SOL     OW 7015   1.171   5.239   1.969
 2039SOL    HW1 7016   1.260   5.237   2.014
 2039SOL    HW2 7017   1.107   5.293   2.023
 2040SOL     OW 7018   3.770   3.447   4.548
 2040SOL    HW1 7019   3.746   3.373   4.611
 2040SOL    HW2 7020   3.755   3.416   4.454
 2041SOL     OW 7021   5.142   2.831   0.090
 2041SOL    HW1 7022   5.140   2.872   0.181
 2041SOL    HW2 7023   5.080   2.753   0.086
 2042SOL     OW 7024   3.298   5.811   0.809
 2042SOL    HW1 7025   3.283   5.760   0.724
 2042SOL    HW2 7026   3.286   5.909   0.791
 2043SOL     OW 7027   4.299   5.951   2.388
 2043SOL    HW1 7028   4.269   5.903   2.305
 2043SOL    HW2 7029   4.397   5.938   2.400
 2044SOL     OW 7030   6.514   0.739   2.255
 2044SOL    HW1 7031   6.498   0.836   2.272
 2044SOL    HW2 7032   6.563   0.699   2.332
 2045SOL     OW 7033   3.110   6.680   6.378
 2045SOL    HW1 7034   3.107   6.780   6.376
 2045SOL    HW2 7035   3.184   6.647   6.320
 2046SOL     OW 7036   5.786   6.795   5.834
 2046SOL    HW1 7037   5.777   6.823   5.738
 2046SOL    HW2 7038   5.813   6.875   5.888
 2047SOL     OW 7039   5.154   3.420   0.429
 2047SOL    HW1 7040   5.219   3.496   0.442
 2047SOL    HW2 7041   5.162   3.385   0.336
 2048SOL     OW 7042   4.639   6.482   5.583
 2048SOL    HW1 7043   4.715   6.455   5.524
 2048SOL    HW2 7044   4.629   6.581   5.580
 2049SOL     OW 7045   5.148   5.428   6.651
 2049SOL    HW1 7046   5.239   5.387   6.647
 2049SOL    HW2 7047   5.148   5.514   6.598
 2050SOL     OW 7048   5.636   1.183   3.360
 2050SOL    HW1 7049   5.547   1.139   3.345
 2050SOL    HW2 7050   5.701   1.117   3.397
 2051SOL     OW 7051   3.065   5.647   1.004
 2051SOL    HW1 7052   3.106   5.735   0.982
 2051SOL    HW2 7053   3.017   5.611   0.924
 2052SOL     OW 7054   2.082   2.658   1.310
 2052SOL    HW1 7055   2.153   2.666   1.380
 2052SOL    HW2 7056   2.091   2.733   1.244
 2053SOL     OW 7057   4.860   0.969   0.832
 2053SOL    HW1 7058   4.809   0.894   0.790
 2053SOL    HW2 7059   4.796   1.043   0.855
 2054SOL     OW 7060   0.670   3.327   1.155
 2054SOL    HW1 7061   0.592   3.264   1.165
 2054SOL    HW2 7062   0.755   3.274   1.155
 2055SOL     OW 7063   6.464   1.184   3.879
 2055SOL    HW1 7064   6.459   1.223   3.971
 2055SOL    HW2 7065   6.513   1.097   3.882
 2056SOL     OW 7066   0.659   6.693   2.708
 2056SOL    HW1 7067   0.643   6.785   2.744
 2056SOL    HW2 7068   0.573   6.642   2.707
 2057SOL     OW 7069   4.882   3.229   4.077
 2057SOL    HW1 7070   4.829   3.151   4.110
 2057SOL    HW2 7071   4.888   3.225   3.977
 2058SOL     OW 7072   0.609   0.868   1.588
 2058SOL    HW1 7073   0.637   0.818   1.670
 2058SOL    HW2 7074   0.639   0.963   1.594
 2059SOL     OW 7075   1.641   0.995   6.634
 2059SOL    HW1 7076   1.676   0.944   6.713
 2059SOL    HW2 7077   1.553   0.955   6.606
 2060SOL     OW 7078   0.288   4.615   2.954
 2060SOL    HW1 7079   0.342   4.568   2.884
 2060SOL    HW2 7080   0.195   4.580   2.954
 2061SOL     OW 7081   1.433   0.617   0.575
 2061SOL    HW1 7082   1.520   0.579   0.542
 2061SOL    HW2 7083   1.451   0.701   0.626
 2062SOL     OW 7084   3.857   0.480   3.885
 2062SOL    HW1 7085   3.910   0.549   3.934
 2062SOL    HW2 7086   3.846   0.399   3.943
 2063SOL     OW 7087   2.426   2.615   0.871
 2063SOL    HW1 7088   2.340   2.588   0.915
 2063SOL    HW2 7089   2.503   2.590   0.930
 2064SOL     OW 7090   1.029   2.051   0.954
 2064SOL    HW1 7091   1.055   2.078   0.861
 2064SOL    HW2 7092   1.106   2.067   1.016
 2065SOL     OW 7093   7.010   2.927   2.824
 2065SOL    HW1 7094   6.924   2.946   2.777
 2065SOL    HW2 7095   0.054   2.999   2.804
 2066SOL     OW 7096   1.410   6.130   3.110
 2066SOL    HW1 7097   1.483   6.157   3.047
 2066SOL    HW2 7098   1.375   6.040   3.084
 2067SOL     OW 7099   0.044   0.631   0.641
 2067SOL    HW1 7100   6.999   0.572   0.598
 2067SOL    HW2 7101   0.045   0.614   0.740
 2068SOL     OW 7102   2.216   2.166   5.309
 2068SOL    HW1 7103   2.118   2.181   5.319
 2068SOL    HW2 7104   2.245   2.091   5.369
 2069SOL     OW 7105   1.269   2.189   2.253
 2069SOL    HW1 7106   1.206   2.182   2.176
 2069SOL    HW2 7107   1.217   2.204   2.337
 2070SOL     OW 7108   0.175   1.464   2.592
 2070SOL    HW1 7109   0.120   1.514   2.658
 2070SOL    HW2 7110   0.249   1.416   2.639
 2071SOL     OW 7111   2.853   6.240   5.357
 2071SOL    HW1 7112   2.896   6.166   5.408
 2071SOL    HW2 7113   2.779   6.279   5.411
 2072SOL     OW 7114   5.044   5.066   2.523
 2072SOL    HW1 7115   5.021   4.993   2.587
 2072SOL    HW2 7116   5.012   5.153   2.560
 2073SOL     OW 7117   3.188   6.838   5.265
 2073SOL    HW1 7118   3.215   6.814   5.358
 2073SOL    HW2 7119   3.239   6.920   5.236
 2074SOL     OW 7120   5.675   2.231   3.156
 2074SOL    HW1 7121   5.609   2.161   3.182
 2074SOL    HW2 7122   5.636   2.287   3.083
 2075SOL     OW 7123   4.063   3.060   5.977
 2075SOL    HW1 7124   3.995   3.128   5.949
 2075SOL    HW2 7125   4.097   3.082   6.068
 2076SOL     OW 7126   5.021   0.163   0.310
 2076SOL    HW1 7127   5.092   0.093   0.303
 2076SOL    HW2 7128   4.934   0.127   0.277
 2077SOL     OW 7129   4.416   0.895   4.112
 2077SOL    HW1 7130   4.332   0.918   4.160
 2077SOL    HW2 7131   4.488   0.960   4.137
 2078SOL     OW 7132   4.196   6.138   3.828
 2078SOL    HW1 7133   4.107   6.114   3.867
 2078SOL    HW2 7134   4.269   6.101   3.886
 2079SOL     OW 7135   6.219   6.780   3.715
 2079SOL    HW1 7136   6.197   6.837   3.794
 2079SOL    HW2 7137   6.164   6.697   3.717
 2080SOL     OW 7138   2.600   1.887   3.510
 2080SOL    HW1 7139   2.604   1.983   3.485
 2080SOL    HW2 7140   2.647   1.873   3.597
 2081SOL     OW 7141   1.083   6.439   3.950
 2081SOL    HW1 7142   1.115   6.347   3.975
 2081SOL    HW2 7143   1.086   6.448   3.850
 2082SOL     OW 7144   5.136   1.029   2.457
 2082SOL    HW1 7145   5.055   0.974   2.477
 2082SOL    HW2 7146   5.130   1.064   2.363
 2083SOL     OW 7147   3.765   4.349   6.317
 2083SOL    HW1 7148   3.725   4.436   6.348
 2083SOL    HW2 7149   3.712   4.273   6.353
 2084SOL     OW 7150   6.978   2.679   3.162
 2084SOL    HW1 7151   7.014   2.758   3.112
 2084SOL    HW2 7152   7.019   2.676   3.253
 2085SOL     OW 7153   6.105   6.918   0.120
 2085SOL    HW1 7154   6.086   6.825   0.150
 2085SOL    HW2 7155   6.033   6.950   0.059
 2086SOL     OW 7156   3.406   4.988   6.925
 2086SOL    HW1 7157   3.342   4.922   6.887
 2086SOL    HW2 7158   3.485   4.995   6.864
 2087SOL     OW 7159   5.476   5.789   3.438
 2087SOL    HW1 7160   5.554   5.737   3.472
 2087SOL    HW2 7161   5.447   5.753   3.349
 2088SOL     OW 7162   2.423   6.586   1.623
 2088SOL    HW1 7163   2.512   6.594   1.668
 2088SOL    HW2 7164   2.358   6.542   1.685
 2089SOL     OW 7165   2.536   1.131   6.658
 2089SOL    HW1 7166   2.541   1.095   6.751
 2089SOL    HW2 7167   2.594   1.212   6.650
 2090SOL     OW 7168   3.385   3.850   4.100
 2090SOL    HW1 7169   3.335   3.787   4.160
 2090SOL    HW2 7170   3.338   3.939   4.100
 2091SOL     OW 7171   2.872   4.118   0.811
 2091SOL    HW1 7172   2.841   4.163   0.894
 2091SOL    HW2 7173   2.835   4.165   0.731
 2092SOL     OW 7174   6.771   6.682   1.304
 2092SOL    HW1 7175   6.845   6.748   1.317
 2092SOL    HW2 7176   6.702   6.721   1.243
 2093SOL     OW 7177   1.446   1.816   1.668
 2093SOL    HW1 7178   1.507   1.829   1.746
 2093SOL    HW2 7179   1.498   1.777   1.592
 2094SOL     OW 7180   6.509   0.379   1.847
 2094SOL    HW1 7181   6.483   0.360   1.942
 2094SOL    HW2 7182   6.426   0.389   1.792
 2095SOL     OW 7183   6.233   4.606   5.326
 2095SOL    HW1 7184   6.306   4.631   5.263
 2095SOL    HW2 7185   6.269   4.601   5.419
 2096SOL     OW 7186   4.835   4.413   3.591
 2096SOL    HW1 7187   4.856   4.467   3.509
 2096SOL    HW2 7188   4.830   4.474   3.671
 2097SOL     OW 7189   6.434   3.625   5.747
 2097SOL    HW1 7190   6.522   3.622   5.795
 2097SOL    HW2 7191   6.396   3.533   5.740
 2098SOL     OW 7192   4.106   0.355   4.074
 2098SOL    HW1 7193   4.043   0.278   4.067
 2098SOL    HW2 7194   4.057   0.435   4.109
 2099SOL     OW 7195   2.820   2.043   3.703
 2099SOL    HW1 7196   2.818   2.015   3.799
 2099SOL    HW2 7197   2.914   2.056   3.673
 2100SOL     OW 7198   4.411   4.781   6.313
 2100SOL    HW1 7199   4.349   4.720   6.361
 2100SOL    HW2 7200   4.505   4.747   6.321
 2101SOL     OW 7201   6.167   6.833   1.967
 2101SOL    HW1 7202   6.247   6.832   1.907
 2101SOL    HW2 7203   6.087   6.797   1.918
 2102SOL     OW 7204   0.339   5.330   1.133
 2102SOL    HW1 7205   0.392   5.345   1.051
 2102SOL    HW2 7206   0.400   5.304   1.208
 2103SOL     OW 7207   3.499   3.623   6.449
 2103SOL    HW1 7208   3.565   3.590   6.382
 2103SOL    HW2 7209   3.445   3.697   6.408
 2104SOL     OW 7210   1.248   4.556   5.737
 2104SOL    HW1 7211   1.310   4.478   5.750
 2104SOL    HW2 7212   1.192   4.568   5.820
 2105SOL     OW 7213   5.764   5.924   2.385
 2105SOL    HW1 7214   5.682   5.893   2.433
 2105SOL    HW2 7215   5.845   5.902   2.441
 2106SOL     OW 7216   5.856   6.278   6.214
 2106SOL    HW1 7217   5.821   6.359   6.262
 2106SOL    HW2 7218   5.956   6.276   6.218
 2107SOL     OW 7219   2.505   5.092   0.348
 2107SOL    HW1 7220   2.567   5.151   0.297
 2107SOL    HW2 7221   2.539   5.081   0.442
 2108SOL     OW 7222   5.900   4.633   6.411
 2108SOL    HW1 7223   5.955   4.556   6.380
 2108SOL    HW2 7224   5.902   4.705   6.341
 2109SOL     OW 7225   5.161   5.148   2.791
 2109SOL    HW1 7226   5.076   5.190   2.760
 2109SOL    HW2 7227   5.235   5.169   2.726
 2110SOL     OW 7228   1.046   4.842   5.572
 2110SOL    HW1 7229   1.015   4.852   5.477
 2110SOL    HW2 7230   1.146   4.845   5.575
 2111SOL     OW 7231   1.995   1.876   6.779
 2111SOL    HW1 7232   2.042   1.805   6.726
 2111SOL    HW2 7233   1.903   1.891   6.741
 2112SOL     OW 7234   5.153   4.166   1.002
 2112SOL    HW1 7235   5.092   4.243   1.021
 2112SOL    HW2 7236   5.202   4.183   0.916
 2113SOL     OW 7237   6.665   1.454   3.181
 2113SOL    HW1 7238   6.633   1.411   3.097
 2113SOL    HW2 7239   6.713   1.539   3.159
 2114SOL     OW 7240   1.750   3.424   0.077
 2114SOL    HW1 7241   1.676   3.475   0.122
 2114SOL    HW2 7242   1.748   3.442   7.001
 2115SOL     OW 7243   4.165   5.431   1.965
 2115SOL    HW1 7244   4.169   5.372   2.045
 2115SOL    HW2 7245   4.258   5.461   1.942
 2116SOL     OW 7246   0.657   3.735   4.079
 2116SOL    HW1 7247   0.716   3.669   4.032
 2116SOL    HW2 7248   0.621   3.693   4.163
 2117SOL     OW 7249   0.080   6.177   5.679
 2117SOL    HW1 7250   0.002   6.156   5.619
 2117SOL    HW2 7251   0.099   6.275   5.675
 2118SOL     OW 7252   0.039   3.097   2.135
 2118SOL    HW1 7253   0.102   3.131   2.065
 2118SOL    HW2 7254   0.090   3.079   2.219
 2119SOL     OW 7255   4.179   6.302   0.413
 2119SOL    HW1 7256   4.242   6.293   0.336
 2119SOL    HW2 7257   4.231   6.319   0.497
 2120SOL     OW 7258   6.926   3.921   2.030
 2120SOL    HW1 7259   7.007   3.946   1.977
 2120SOL    HW2 7260   6.939   3.947   2.126
 2121SOL     OW 7261   0.615   4.058   5.207
 2121SOL    HW1 7262   0.689   4.112   5.169
 2121SOL    HW2 7263   0.632   3.961   5.191
 2122SOL     OW 7264   3.877   4.953   5.497
 2122SOL    HW1 7265   3.856   4.992   5.407
 2122SOL    HW2 7266   3.915   4.862   5.485
 2123SOL     OW 7267   4.617   5.546   3.494
 2123SOL    HW1 7268   4.614   5.473   3.426
 2123SOL    HW2 7269   4.633   5.633   3.448
 2124SOL     OW 7270   2.472   2.350   1.893
 2124SOL    HW1 7271   2.505   2.258   1.869
 2124SOL    HW2 7272   2.377   2.344   1.924
 2125SOL     OW 7273   5.171   6.307   0.583
 2125SOL    HW1 7274   5.150   6.211   0.564
 2125SOL    HW2 7275   5.087   6.357   0.601
 2126SOL     OW 7276   3.035   1.512   1.578
 2126SOL    HW1 7277   3.064   1.602   1.545
 2126SOL    HW2 7278   2.941   1.518   1.612
 2127SOL     OW 7279   5.454   3.126   4.368
 2127SOL    HW1 7280   5.412   3.103   4.280
 2127SOL    HW2 7281   5.383   3.133   4.438
 2128SOL     OW 7282   0.696   3.984   4.574
 2128SOL    HW1 7283   0.742   4.058   4.524
 2128SOL    HW2 7284   0.700   3.900   4.521
 2129SOL     OW 7285   4.495   2.386   5.223
 2129SOL    HW1 7286   4.527   2.471   5.182
 2129SOL    HW2 7287   4.562   2.313   5.205
 2130SOL     OW 7288   4.888   6.835   3.553
 2130SOL    HW1 7289   4.811   6.776   3.579
 2130SOL    HW2 7290   4.854   6.927   3.534
 2131SOL     OW 7291   4.977   1.894   6.541
 2131SOL    HW1 7292   5.047   1.845   6.592
 2131SOL    HW2 7293   4.998   1.992   6.543
 2132SOL     OW 7294   1.561   3.551   0.973
 2132SOL    HW1 7295   1.583   3.641   0.934
 2132SOL    HW2 7296   1.554   3.484   0.900
 2133SOL     OW 7297   2.312   4.332   6.348
 2133SOL    HW1 7298   2.279   4.370   6.434
 2133SOL    HW2 7299   2.368   4.401   6.301
 2134SOL     OW 7300   6.734   6.527   0.332
 2134SOL    HW1 7301   6.716   6.439   0.288
 2134SOL    HW2 7302   6.831   6.549   0.324
 2135SOL     OW 7303   6.543   5.371   5.593
 2135SOL    HW1 7304   6.517   5.277   5.616
 2135SOL    HW2 7305   6.622   5.398   5.648
 2136SOL     OW 7306   1.218   5.586   6.589
 2136SOL    HW1 7307   1.279   5.660   6.619
 2136SOL    HW2 7308   1.135   5.587   6.644
 2137SOL     OW 7309   1.463   6.898   3.783
 2137SOL    HW1 7310   1.436   6.962   3.711
 2137SOL    HW2 7311   1.391   6.829   3.794
 2138SOL     OW 7312   5.194   1.986   1.507
 2138SOL    HW1 7313   5.165   1.955   1.417
 2138SOL    HW2 7314   5.284   2.030   1.499
 2139SOL     OW 7315   3.008   6.054   5.479
 2139SOL    HW1 7316   3.049   6.009   5.399
 2139SOL    HW2 7317   2.991   5.986   5.550
 2140SOL     OW 7318   2.028   2.199   3.354
 2140SOL    HW1 7319   2.125   2.214   3.336
 2140SOL    HW2 7320   2.017   2.120   3.415
 2141SOL     OW 7321   6.613   2.915   3.198
 2141SOL    HW1 7322   6.627   2.929   3.296
 2141SOL    HW2 7323   6.662   2.986   3.147
 2142SOL     OW 7324   1.764   2.289   2.209
 2142SOL    HW1 7325   1.758   2.387   2.223
 2142SOL    HW2 7326   1.673   2.250   2.199
 2143SOL     OW 7327   6.517   5.784   5.390
 2143SOL    HW1 7328   6.594   5.767   5.450
 2143SOL    HW2 7329   6.432   5.787   5.443
 2144SOL     OW 7330   6.272   4.397   2.929
 2144SOL    HW1 7331   6.284   4.456   2.849
 2144SOL    HW2 7332   6.179   4.359   2.928
 2145SOL     OW 7333   4.264   1.414   3.243
 2145SOL    HW1 7334   4.359   1.437   3.219
 2145SOL    HW2 7335   4.215   1.498   3.267
 2146SOL     OW 7336   1.738   1.520   6.883
 2146SOL    HW1 7337   1.831   1.488   6.864
 2146SOL    HW2 7338   1.675   1.442   6.881
 2147SOL     OW 7339   6.239   6.849   5.217
 2147SOL    HW1 7340   6.173   6.908   5.265
 2147SOL    HW2 7341   6.225   6.856   5.118
 2148SOL     OW 7342   1.249   2.383   5.085
 2148SOL    HW1 7343   1.331   2.438   5.075
 2148SOL    HW2 7344   1.262   2.294   5.041
 2149SOL     OW 7345   6.990   6.565   0.354
 2149SOL    HW1 7346   0.046   6.517   0.314
 2149SOL    HW2 7347   7.014   6.660   0.371
 2150SOL     OW 7348   1.882   2.535   0.628
 2150SOL    HW1 7349   1.892   2.582   0.540
 2150SOL    HW2 7350   1.972   2.521   0.668
 2151SOL     OW 7351   1.172   4.772   6.638
 2151SOL    HW1 7352   1.191   4.815   6.550
 2151SOL    HW2 7353   1.229   4.691   6.649
 2152SOL     OW 7354   5.361   6.084   4.176
 2152SOL    HW1 7355   5.400   6.137   4.251
 2152SOL    HW2 7356   5.377   6.131   4.089
 2153SOL     OW 7357   4.839   6.686   4.351
 2153SOL    HW1 7358   4.870   6.762   4.295
 2153SOL    HW2 7359   4.819   6.607   4.293
 2154SOL     OW 7360   2.728   6.775   2.590
 2154SOL    HW1 7361   2.771   6.865   2.597
 2154SOL    HW2 7362   2.696   6.746   2.680
 2155SOL     OW 7363   5.058   0.530   1.209
 2155SOL    HW1 7364   5.008   0.585   1.142
 2155SOL    HW2 7365   5.048   0.433   1.187
 2156SOL     OW 7366   6.078   2.018   5.217
 2156SOL    HW1 7367   6.057   1.920   5.220
 2156SOL    HW2 7368   6.064   2.052   5.124
 2157SOL     OW 7369   4.193   6.426   3.827
 2157SOL    HW1 7370   4.218   6.441   3.731
 2157SOL    HW2 7371   4.207   6.329   3.850
 2158SOL     OW 7372   2.837   6.952   0.626
 2158SOL    HW1 7373   2.900   6.898   0.682
 2158SOL    HW2 7374   2.807   6.898   0.548
 2159SOL     OW 7375   0.102   1.534   5.625
 2159SOL    HW1 7376   0.055   1.563   5.709
 2159SOL    HW2 7377   0.034   1.515   5.554
 2160SOL     OW 7378   5.396   6.926   6.923
 2160SOL    HW1 7379   5.442   6.881   6.999
 2160SOL    HW2 7380   5.392   6.864   6.845
 2161SOL     OW 7381   1.573   3.838   0.395
 2161SOL    HW1 7382   1.596   3.866   0.302
 2161SOL    HW2 7383   1.643   3.870   0.458
 2162SOL     OW 7384   1.756   0.159   0.311
 2162SOL    HW1 7385   1.688   0.094   0.346
 2162SOL    HW2 7386   1.766   0.147   0.213
 2163SOL     OW 7387   0.667   2.675   3.956
 2163SOL    HW1 7388   0.688   2.619   4.037
 2163SOL    HW2 7389   0.744   2.671   3.892
 2164SOL     OW 7390   2.218   4.179   1.871
 2164SOL    HW1 7391   2.162   4.200   1.951
 2164SOL    HW2 7392   2.305   4.228   1.878
 2165SOL     OW 7393   5.779   1.391   5.283
 2165SOL    HW1 7394   5.851   1.322   5.272
 2165SOL    HW2 7395   5.730   1.400   5.196
 2166SOL     OW 7396   0.602   2.641   1.438
 2166SOL    HW1 7397   0.567   2.580   1.367
 2166SOL    HW2 7398   0.700   2.658   1.422
 2167SOL     OW 7399   1.611   2.331   3.071
 2167SOL    HW1 7400   1.511   2.335   3.068
 2167SOL    HW2 7401   1.640   2.235   3.068
 2168SOL     OW 7402   1.758   2.555   3.144
 2168SOL    HW1 7403   1.842   2.560   3.090
 2168SOL    HW2 7404   1.696   2.488   3.102
 2169SOL     OW 7405   6.853   0.096   1.222
 2169SOL    HW1 7406   6.846   0.135   1.314
 2169SOL    HW2 7407   6.792   0.147   1.160
 2170SOL     OW 7408   1.537   2.805   6.581
 2170SOL    HW1 7409   1.596   2.728   6.600
 2170SOL    HW2 7410   1.541   2.827   6.483
 2171SOL     OW 7411   0.051   6.090   1.429
 2171SOL    HW1 7412   6.988   6.122   1.469
 2171SOL    HW2 7413   0.109   6.169   1.407
 2172SOL     OW 7414   2.533   2.526   4.878
 2172SOL    HW1 7415   2.586   2.456   4.829
 2172SOL    HW2 7416   2.578   2.546   4.965
 2173SOL     OW 7417   4.948   0.432   4.703
 2173SOL    HW1 7418   5.034   0.380   4.713
 2173SOL    HW2 7419   4.899   0.400   4.622
 2174SOL     OW 7420   5.253   0.332   6.021
 2174SOL    HW1 7421   5.283   0.269   6.093
 2174SOL    HW2 7422   5.156   0.316   6.002
 2175SOL     OW 7423   3.748   2.929   5.556
 2175SOL    HW1 7424   3.715   2.865   5.487
 2175SOL    HW2 7425   3.749   3.022   5.518
 2176SOL     OW 7426   6.705   2.023   2.867
 2176SOL    HW1 7427   6.709   2.086   2.789
 2176SOL    HW2 7428   6.797   1.991   2.888
 2177SOL     OW 7429   0.272   0.864   5.701
 2177SOL    HW1 7430   0.296   0.814   5.785
 2177SOL    HW2 7431   0.292   0.807   5.622
 2178SOL     OW 7432   1.742   2.579   2.277
 2178SOL    HW1 7433   1.828   2.630   2.285
 2178SOL    HW2 7434   1.689   2.590   2.361
 2179SOL     OW 7435   1.232   4.329   6.997
 2179SOL    HW1 7436   1.263   4.423   7.003
 2179SOL    HW2 7437   1.215   4.293   0.066
 2180SOL     OW 7438   0.475   5.287   2.716
 2180SOL    HW1 7439   0.468   5.295   2.617
 2180SOL    HW2 7440   0.447   5.372   2.759
 2181SOL     OW 7441   4.270   4.842   4.473
 2181SOL    HW1 7442   4.334   4.765   4.469
 2181SOL    HW2 7443   4.269   4.889   4.384
 2182SOL     OW 7444   0.277   6.625   1.336
 2182SOL    HW1 7445   0.345   6.689   1.370
 2182SOL    HW2 7446   0.189   6.642   1.381
 2183SOL     OW 7447   3.576   3.194   6.725
 2183SOL    HW1 7448   3.498   3.206   6.786
 2183SOL    HW2 7449   3.546   3.149   6.641
 2184SOL     OW 7450   6.195   1.658   0.014
 2184SOL    HW1 7451   6.162   1.695   0.101
 2184SOL    HW2 7452   6.275   1.601   0.030
 2185SOL     OW 7453   0.757   1.670   6.145
 2185SOL    HW1 7454   0.771   1.576   6.175
 2185SOL    HW2 7455   0.709   1.670   6.057
 2186SOL     OW 7456   6.994   6.393   5.351
 2186SOL    HW1 7457   6.982   6.490   5.330
 2186SOL    HW2 7458   0.069   6.371   5.349
 2187SOL     OW 7459   6.094   4.299   1.764
 2187SOL    HW1 7460   6.186   4.308   1.801
 2187SOL    HW2 7461   6.044   4.228   1.814
 2188SOL     OW 7462   3.080   0.998   1.024
 2188SOL    HW1 7463   3.041   1.001   1.116
 2188SOL    HW2 7464   3.011   0.964   0.959
 2189SOL     OW 7465   2.092   0.768   2.352
 2189SOL    HW1 7466   2.068   0.853   2.307
 2189SOL    HW2 7467   2.152   0.787   2.430
 2190SOL     OW 7468   6.442   4.587   2.304
 2190SOL    HW1 7469   6.374   4.642   2.351
 2190SOL    HW2 7470   6.477   4.638   2.225
 2191SOL     OW 7471   3.805   6.677   6.825
 2191SOL    HW1 7472   3.881   6.627   6.865
 2191SOL    HW2 7473   3.723   6.663   6.881
 2192SOL     OW 7474   4.473   2.223   1.701
 2192SOL    HW1 7475   4.541   2.297   1.699
 2192SOL    HW2 7476   4.433   2.212   1.610
 2193SOL     OW 7477   1.490   0.714   4.892
 2193SOL    HW1 7478   1.549   0.794   4.882
 2193SOL    HW2 7479   1.543   0.637   4.928
 2194SOL     OW 7480   0.996   4.544   5.225
 2194SOL    HW1 7481   0.908   4.502   5.208
 2194SOL    HW2 7482   1.054   4.534   5.144
 2195SOL     OW 7483   0.249   3.688   5.557
 2195SOL    HW1 7484   0.306   3.770   5.561
 2195SOL    HW2 7485   0.183   3.698   5.482
 2196SOL     OW 7486   3.964   1.261   6.907
 2196SOL    HW1 7487   3.917   1.316   6.976
 2196SOL    HW2 7488   3.897   1.210   6.853
 2197SOL     OW 7489   4.141   5.084   6.678
 2197SOL    HW1 7490   4.077   5.011   6.702
 2197SOL    HW2 7491   4.190   5.114   6.759
 2198SOL     OW 7492   1.855   1.409   6.327
 2198SOL    HW1 7493   1.846   1.327   6.271
 2198SOL    HW2 7494   1.770   1.427   6.376
 2199SOL     OW 7495   4.213   6.727   3.886
 2199SOL    HW1 7496   4.249   6.717   3.979
 2199SOL    HW2 7497   4.234   6.644   3.834
 2200SOL     OW 7498   2.765   2.405   4.737
 2200SOL    HW1 7499   2.783   2.309   4.715
 2200SOL    HW2 7500   2.795   2.424   4.830
 2201SOL     OW 7501   5.916   3.444   4.994
 2201SOL    HW1 7502   5.902   3.359   5.044
 2201SOL    HW2 7503   5.840   3.507   5.014
 2202SOL     OW 7504   4.063   6.946   4.058
 2202SOL    HW1 7505   4.103   6.860   4.089
 2202SOL    HW2 7506   4.133   7.002   4.015
 2203SOL     OW 7507   2.249   5.451   1.136
 2203SOL    HW1 7508   2.250   5.426   1.040
 2203SOL    HW2 7509   2.341   5.476   1.166
 2204SOL     OW 7510   5.092   2.898   0.859
 2204SOL    HW1 7511   5.060   2.938   0.773
 2204SOL    HW2 7512   5.118   2.803   0.844
 2205SOL     OW 7513   5.742   5.364   1.110
 2205SOL    HW1 7514   5.668   5.404   1.056
 2205SOL    HW2 7515   5.830   5.392   1.071
 2206SOL     OW 7516   3.588   2.814   5.274
 2206SOL    HW1 7517   3.547   2.726   5.301
 2206SOL    HW2 7518   3.520   2.886   5.284
 2207SOL     OW 7519   4.441   5.511   1.948
 2207SOL    HW1 7520   4.533   5.510   1.987
 2207SOL    HW2 7521   4.448   5.528   1.849
 2208SOL     OW 7522   6.520   6.383   3.390
 2208SOL    HW1 7523   6.547   6.369   3.295
 2208SOL    HW2 7524   6.472   6.470   3.399
 2209SOL     OW 7525   2.343   5.557   3.697
 2209SOL    HW1 7526   2.246   5.560   3.723
 2209SOL    HW2 7527   2.358   5.481   3.634
 2210SOL     OW 7528   5.318   6.488   2.333
 2210SOL    HW1 7529   5.392   6.539   2.289
 2210SOL    HW2 7530   5.278   6.543   2.405
 2211SOL     OW 7531   1.346   1.078   1.658
 2211SOL    HW1 7532   1.250   1.051   1.647
 2211SOL    HW2 7533   1.403   0.996   1.666
 2212SOL     OW 7534   2.923   5.985   5.823
 2212SOL    HW1 7535   2.842   6.009   5.769
 2212SOL    HW2 7536   2.979   5.920   5.772
 2213SOL     OW 7537   3.540   1.189   4.597
 2213SOL    HW1 7538   3.504   1.201   4.689
 2213SOL    HW2 7539   3.593   1.271   4.571
 2214SOL     OW 7540   4.375   4.509   6.532
 2214SOL    HW1 7541   4.275   4.519   6.533
 2214SOL    HW2 7542   4.416   4.585   6.583
 2215SOL     OW 7543   5.475   5.477   6.618
 2215SOL    HW1 7544   5.566   5.440   6.636
 2215SOL    HW2 7545   5.484   5.564   6.568
 2216SOL     OW 7546   0.299   6.026   0.286
 2216SOL    HW1 7547   0.236   5.974   0.344
 2216SOL    HW2 7548   0.275   6.123   0.289
 2217SOL     OW 7549   4.319   1.561   3.647
 2217SOL    HW1 7550   4.388   1.492   3.669
 2217SOL    HW2 7551   4.235   1.516   3.616
 2218SOL     OW 7552   6.153   5.686   5.359
 2218SOL    HW1 7553   6.207   5.622   5.414
 2218SOL    HW2 7554   6.127   5.643   5.273
 2219SOL     OW 7555   5.649   1.971   0.357
 2219SOL    HW1 7556   5.746   1.968   0.380
 2219SOL    HW2 7557   5.634   2.035   0.281
 2220SOL     OW 7558   6.860   6.553   4.342
 2220SOL    HW1 7559   6.808   6.471   4.320
 2220SOL    HW2 7560   6.800   6.633   4.339
 2221SOL     OW 7561   5.470   0.349   3.963
 2221SOL    HW1 7562   5.466   0.329   3.865
 2221SOL    HW2 7563   5.469   0.263   4.015
 2222SOL     OW 7564   3.607   1.043   3.547
 2222SOL    HW1 7565   3.608   1.022   3.449
 2222SOL    HW2 7566   3.670   1.119   3.566
 2223SOL     OW 7567   0.744   0.255   5.541
 2223SOL    HW1 7568   0.694   0.169   5.529
 2223SOL    HW2 7569   0.719   0.317   5.467
 2224SOL     OW 7570   5.317   4.348   6.739
 2224SOL    HW1 7571   5.394   4.332   6.800
 2224SOL    HW2 7572   5.318   4.280   6.665
 2225SOL     OW 7573   6.592   6.800   1.134
 2225SOL    HW1 7574   6.646   6.846   1.064
 2225SOL    HW2 7575   6.507   6.850   1.149
 2226SOL     OW 7576   2.608   3.363   0.095
 2226SOL    HW1 7577   2.687   3.381   0.037
 2226SOL    HW2 7578   2.565   3.449   0.121
 2227SOL     OW 7579   4.184   1.655   1.883
 2227SOL    HW1 7580   4.244   1.612   1.950
 2227SOL    HW2 7581   4.226   1.739   1.849
 2228SOL     OW 7582   5.172   6.836   6.489
 2228SOL    HW1 7583   5.233   6.814   6.566
 2228SOL    HW2 7584   5.104   6.764   6.479
 2229SOL     OW 7585   2.986   3.211   4.496
 2229SOL    HW1 7586   2.981   3.306   4.465
 2229SOL    HW2 7587   2.962   3.150   4.420
 2230SOL     OW 7588   6.873   0.997   6.377
 2230SOL    HW1 7589   6.856   1.062   6.452
 2230SOL    HW2 7590   6.955   1.025   6.327
 2231SOL     OW 7591   1.074   6.927   6.528
 2231SOL    HW1 7592   1.125   6.875   6.595
 2231SOL    HW2 7593   1.136   6.986   6.476
 2232SOL     OW 7594   1.560   0.733   6.466
 2232SOL    HW1 7595   1.621   0.789   6.410
 2232SOL    HW2 7596   1.465   0.746   6.436
 2233SOL     OW 7597   2.921   5.062   1.069
 2233SOL    HW1 7598   2.880   5.045   1.159
 2233SOL    HW2 7599   2.952   4.975   1.030
 2234SOL     OW 7600   4.848   2.234   1.500
 2234SOL    HW1 7601   4.791   2.304   1.457
 2234SOL    HW2 7602   4.818   2.144   1.470
 2235SOL     OW 7603   1.059   2.160   3.187
 2235SOL    HW1 7604   1.053   2.066   3.154
 2235SOL    HW2 7605   0.976   2.210   3.162
 2236SOL     OW 7606   2.611   4.747   5.052
 2236SOL    HW1 7607   2.607   4.677   5.123
 2236SOL    HW2 7608   2.695   4.737   5.000
 2237SOL     OW 7609   5.693   6.654   6.140
 2237SOL    HW1 7610   5.636   6.612   6.069
 2237SOL    HW2 7611   5.677   6.752   6.142
 2238SOL     OW 7612   5.552   3.950   2.463
 2238SOL    HW1 7613   5.565   3.908   2.373
 2238SOL    HW2 7614   5.623   4.019   2.478
 2239SOL     OW 7615   3.924   0.050   2.977
 2239SOL    HW1 7616   4.016   0.059   2.941
 2239SOL    HW2 7617   3.928   0.044   3.077
 2240SOL     OW 7618   4.677   5.425   2.092
 2240SOL    HW1 7619   4.646   5.353   2.155
 2240SOL    HW2 7620   4.776   5.437   2.102
 2241SOL     OW 7621   0.972   1.869   3.091
 2241SOL    HW1 7622   0.883   1.832   3.119
 2241SOL    HW2 7623   0.981   1.862   2.991
 2242SOL     OW 7624   5.687   2.252   4.145
 2242SOL    HW1 7625   5.737   2.291   4.222
 2242SOL    HW2 7626   5.745   2.256   4.063
 2243SOL     OW 7627   2.427   0.526   0.058
 2243SOL    HW1 7628   2.392   0.465   7.010
 2243SOL    HW2 7629   2.351   0.561   0.112
 2244SOL     OW 7630   2.804   1.971   1.186
 2244SOL    HW1 7631   2.882   2.001   1.130
 2244SOL    HW2 7632   2.835   1.947   1.277
 2245SOL     OW 7633   0.052   0.769   0.413
 2245SOL    HW1 7634   0.052   0.738   0.508
 2245SOL    HW2 7635   6.999   0.727   0.364
 2246SOL     OW 7636   5.270   0.716   5.634
 2246SOL    HW1 7637   5.208   0.637   5.632
 2246SOL    HW2 7638   5.218   0.797   5.661
 2247SOL     OW 7639   3.078   3.340   1.787
 2247SOL    HW1 7640   2.989   3.294   1.785
 2247SOL    HW2 7641   3.065   3.437   1.808
 2248SOL     OW 7642   4.912   3.207   4.854
 2248SOL    HW1 7643   4.903   3.291   4.800
 2248SOL    HW2 7644   4.886   3.225   4.949
 2249SOL     OW 7645   2.000   6.377   3.671
 2249SOL    HW1 7646   2.086   6.340   3.636
 2249SOL    HW2 7647   2.005   6.477   3.670
 2250SOL     OW 7648   4.648   5.746   6.357
 2250SOL    HW1 7649   4.697   5.820   6.403
 2250SOL    HW2 7650   4.551   5.768   6.351
 2251SOL     OW 7651   3.759   6.784   4.623
 2251SOL    HW1 7652   3.807   6.793   4.710
 2251SOL    HW2 7653   3.668   6.747   4.638
 2252SOL     OW 7654   3.981   1.242   2.873
 2252SOL    HW1 7655   4.017   1.149   2.860
 2252SOL    HW2 7656   3.901   1.255   2.815
 2253SOL     OW 7657   1.092   2.884   1.804
 2253SOL    HW1 7658   1.116   2.889   1.901
 2253SOL    HW2 7659   1.172   2.860   1.751
 2254SOL     OW 7660   3.159   3.072   3.123
 2254SOL    HW1 7661   3.155   3.099   3.027
 2254SOL    HW2 7662   3.075   3.101   3.169
 2255SOL     OW 7663   1.650   2.503   6.280
 2255SOL    HW1 7664   1.608   2.459   6.360
 2255SOL    HW2 7665   1.582   2.562   6.236
 2256SOL     OW 7666   4.791   0.509   1.623
 2256SOL    HW1 7667   4.874   0.564   1.631
 2256SOL    HW2 7668   4.765   0.473   1.712
 2257SOL     OW 7669   0.110   0.397   6.297
 2257SOL    HW1 7670   0.034   0.414   6.235
 2257SOL    HW2 7671   0.083   0.418   6.391
 2258SOL     OW 7672   2.431   0.366   3.458
 2258SOL    HW1 7673   2.479   0.306   3.522
 2258SOL    HW2 7674   2.333   0.348   3.462
 2259SOL     OW 7675   5.877   0.160   5.171
 2259SOL    HW1 7676   5.933   0.243   5.170
 2259SOL    HW2 7677   5.818   0.159   5.090
 2260SOL     OW 7678   1.688   3.732   1.154
 2260SOL    HW1 7679   1.669   3.743   1.056
 2260SOL    HW2 7680   1.617   3.674   1.195
 2261SOL     OW 7681   4.949   4.298   6.207
 2261SOL    HW1 7682   4.975   4.393   6.191
 2261SOL    HW2 7683   4.950   4.248   6.120
 2262SOL     OW 7684   6.913   0.041   4.055
 2262SOL    HW1 7685   6.876   0.126   4.093
 2262SOL    HW2 7686   6.909   0.044   3.955
 2263SOL     OW 7687   2.606   4.420   6.484
 2263SOL    HW1 7688   2.572   4.478   6.411
 2263SOL    HW2 7689   2.624   4.476   6.565
 2264SOL     OW 7690   1.866   0.057   6.745
 2264SOL    HW1 7691   1.813   0.141   6.746
 2264SOL    HW2 7692   1.822   7.012   6.804
 2265SOL     OW 7693   0.197   6.460   3.690
 2265SOL    HW1 7694   0.171   6.526   3.619
 2265SOL    HW2 7695   0.256   6.505   3.756
 2266SOL     OW 7696   5.034   3.851   6.410
 2266SOL    HW1 7697   5.088   3.932   6.388
 2266SOL    HW2 7698   4.972   3.872   6.486
 2267SOL     OW 7699   5.541   3.416   4.342
 2267SOL    HW1 7700   5.540   3.318   4.365
 2267SOL    HW2 7701   5.541   3.426   4.242
 2268SOL     OW 7702   0.940   6.011   4.841
 2268SOL    HW1 7703   1.030   6.045   4.869
 2268SOL    HW2 7704   0.920   5.925   4.887
 2269SOL     OW 7705   1.981   2.344   5.600
 2269SOL    HW1 7706   1.972   2.315   5.505
 2269SOL    HW2 7707   1.953   2.269   5.660
 2270SOL     OW 7708   5.209   2.321   6.262
 2270SOL    HW1 7709   5.277   2.361   6.324
 2270SOL    HW2 7710   5.255   2.291   6.178
 2271SOL     OW 7711   4.020   5.543   5.239
 2271SOL    HW1 7712   4.091   5.473   5.250
 2271SOL    HW2 7713   4.021   5.605   5.317
 2272SOL     OW 7714   5.798   0.934   6.105
 2272SOL    HW1 7715   5.756   0.877   6.034
 2272SOL    HW2 7716   5.882   0.975   6.070
 2273SOL     OW 7717   0.921   2.215   4.200
 2273SOL    HW1 7718   1.018   2.204   4.224
 2273SOL    HW2 7719   0.915   2.253   4.107
 2274SOL     OW 7720   1.266   1.524   0.023
 2274SOL    HW1 7721   1.187   1.510   6.985
 2274SOL    HW2 7722   1.247   1.481   0.112
 2275SOL     OW 7723   5.639   3.664   3.685
 2275SOL    HW1 7724   5.543   3.643   3.698
 2275SOL    HW2 7725   5.667   3.735   3.750
 2276SOL     OW 7726   1.798   1.790   1.208
 2276SOL    HW1 7727   1.722   1.727   1.221
 2276SOL    HW2 7728   1.765   1.874   1.165
 2277SOL     OW 7729   3.459   2.865   3.331
 2277SOL    HW1 7730   3.538   2.918   3.362
 2277SOL    HW2 7731   3.447   2.786   3.391
 2278SOL     OW 7732   6.648   3.378   3.863
 2278SOL    HW1 7733   6.729   3.357   3.809
 2278SOL    HW2 7734   6.617   3.297   3.912
 2279SOL     OW 7735   0.856   5.148   5.737
 2279SOL    HW1 7736   0.892   5.144   5.644
 2279SOL    HW2 7737   0.914   5.094   5.798
 2280SOL     OW 7738   4.716   2.064   5.571
 2280SOL    HW1 7739   4.715   1.991   5.502
 2280SOL    HW2 7740   4.631   2.116   5.565
 2281SOL     OW 7741   4.726   0.063   2.562
 2281SOL    HW1 7742   4.718   0.056   2.661
 2281SOL    HW2 7743   4.659   0.002   2.519
 2282SOL     OW 7744   3.500   5.262   5.347
 2282SOL    HW1 7745   3.567   5.269   5.421
 2282SOL    HW2 7746   3.430   5.194   5.372
 2283SOL     OW 7747   6.972   0.971   5.028
 2283SOL    HW1 7748   6.902   0.911   5.067
 2283SOL    HW2 7749   0.001   0.922   4.958
 2284SOL     OW 7750   1.565   3.734   6.586
 2284SOL    HW1 7751   1.495   3.727   6.657
 2284SOL    HW2 7752   1.556   3.657   6.523
 2285SOL     OW 7753   1.277   5.079   6.603
 2285SOL    HW1 7754   1.279   5.176   6.624
 2285SOL    HW2 7755   1.213   5.033   6.664
 2286SOL     OW 7756   4.618   4.491   2.681
 2286SOL    HW1 7757   4.535   4.524   2.726
 2286SOL    HW2 7758   4.697   4.541   2.717
 2287SOL     OW 7759   1.382   1.436   4.350
 2287SOL    HW1 7760   1.347   1.383   4.428
 2287SOL    HW2 7761   1.315   1.435   4.276
 2288SOL     OW 7762   6.369   5.345   2.889
 2288SOL    HW1 7763   6.342   5.283   2.964
 2288SOL    HW2 7764   6.293   5.406   2.868
 2289SOL     OW 7765   0.237   5.147   0.150
 2289SOL    HW1 7766   0.141   5.162   0.169
 2289SOL    HW2 7767   0.255   5.048   0.145
 2290SOL     OW 7768   0.697   5.421   6.473
 2290SOL    HW1 7769   0.684   5.495   6.408
 2290SOL    HW2 7770   0.635   5.432   6.551
 2291SOL     OW 7771   2.007   1.566   6.891
 2291SOL    HW1 7772   2.080   1.596   6.830
 2291SOL    HW2 7773   1.996   1.632   6.965
 2292SOL     OW 7774   1.837   0.945   4.426
 2292SOL    HW1 7775   1.799   0.992   4.505
 2292SOL    HW2 7776   1.766   0.931   4.358
 2293SOL     OW 7777   5.556   4.453   2.806
 2293SOL    HW1 7778   5.561   4.425   2.711
 2293SOL    HW2 7779   5.518   4.378   2.861
 2294SOL     OW 7780   3.962   6.677   0.089
 2294SOL    HW1 7781   3.991   6.605   0.027
 2294SOL    HW2 7782   4.028   6.752   0.087
 2295SOL     OW 7783   0.832   0.886   2.218
 2295SOL    HW1 7784   0.783   0.801   2.238
 2295SOL    HW2 7785   0.826   0.906   2.120
 2296SOL     OW 7786   3.236   6.002   0.151
 2296SOL    HW1 7787   3.267   5.972   0.241
 2296SOL    HW2 7788   3.247   6.101   0.143
 2297SOL     OW 7789   4.291   6.567   6.974
 2297SOL    HW1 7790   4.362   6.616   0.001
 2297SOL    HW2 7791   4.317   6.471   6.965
 2298SOL     OW 7792   4.174   3.094   6.724
 2298SOL    HW1 7793   4.199   3.157   6.797
 2298SOL    HW2 7794   4.176   3.001   6.759
 2299SOL     OW 7795   4.330   6.730   0.704
 2299SOL    HW1 7796   4.303   6.687   0.618
 2299SOL    HW2 7797   4.366   6.822   0.685
 2300SOL     OW 7798   1.351   5.161   0.904
 2300SOL    HW1 7799   1.335   5.122   0.995
 2300SOL    HW2 7800   1.264   5.194   0.867
 2301SOL     OW 7801   3.616   3.586   1.875
 2301SOL    HW1 7802   3.582   3.520   1.808
 2301SOL    HW2 7803   3.655   3.537   1.953
 2302SOL     OW 7804   2.514   5.155   2.950
 2302SOL    HW1 7805   2.433   5.175   3.005
 2302SOL    HW2 7806   2.500   5.069   2.900
 2303SOL     OW 7807   0.052   3.317   6.347
 2303SOL    HW1 7808   0.031   3.326   6.249
 2303SOL    HW2 7809   0.094   3.228   6.363
 2304SOL     OW 7810   1.743   1.370   4.758
 2304SOL    HW1 7811   1.840   1.363   4.781
 2304SOL    HW2 7812   1.688   1.359   4.841
 2305SOL     OW 7813   4.090   4.915   2.014
 2305SOL    HW1 7814   3.994   4.909   2.044
 2305SOL    HW2 7815   4.127   4.823   2.003
 2306SOL     OW 7816   0.512   4.591   0.461
 2306SOL    HW1 7817   0.533   4.497   0.489
 2306SOL    HW2 7818   0.494   4.646   0.542
 2307SOL     OW 7819   0.763   0.880   3.281
 2307SOL    HW1 7820   0.700   0.819   3.233
 2307SOL    HW2 7821   0.797   0.950   3.218
 2308SOL     OW 7822   0.923   0.097   0.427
 2308SOL    HW1 7823   0.953   0.176   0.479
 2308SOL    HW2 7824   0.966   0.014   0.463
 2309SOL     OW 7825   2.037   4.906   6.166
 2309SOL    HW1 7826   2.017   4.921   6.069
 2309SOL    HW2 7827   2.136   4.903   6.179
 2310SOL     OW 7828   5.611   1.448   3.284
 2310SOL    HW1 7829   5.517   1.481   3.274
 2310SOL    HW2 7830   5.610   1.350   3.305
 2311SOL     OW 7831   2.717   0.437   2.427
 2311SOL    HW1 7832   2.800   0.383   2.415
 2311SOL    HW2 7833   2.711   0.468   2.522
 2312SOL     OW 7834   2.465   1.057   2.584
 2312SOL    HW1 7835   2.436   1.008   2.666
 2312SOL    HW2 7836   2.560   1.087   2.595
 2313SOL     OW 7837   4.996   4.354   2.048
 2313SOL    HW1 7838   5.008   4.408   2.131
 2313SOL    HW2 7839   4.922   4.288   2.061
 2314SOL     OW 7840   6.205   5.991   2.932
 2314SOL    HW1 7841   6.123   6.031   2.891
 2314SOL    HW2 7842   6.281   5.999   2.867
 2315SOL     OW 7843   4.661   6.238   4.873
 2315SOL    HW1 7844   4.577   6.269   4.918
 2315SOL    HW2 7845   4.716   6.185   4.938
 2316SOL     OW 7846   3.254   1.508   5.986
 2316SOL    HW1 7847   3.255   1.482   6.083
 2316SOL    HW2 7848   3.234   1.427   5.931
 2317SOL     OW 7849   6.831   5.297   2.730
 2317SOL    HW1 7850   6.754   5.269   2.788
 2317SOL    HW2 7851   6.828   5.396   2.717
 2318SOL     OW 7852   0.900   4.377   4.140
 2318SOL    HW1 7853   0.819   4.318   4.147
 2318SOL    HW2 7854   0.960   4.342   4.069
 2319SOL     OW 7855   1.987   5.644   3.219
 2319SOL    HW1 7856   1.900   5.680   3.187
 2319SOL    HW2 7857   2.056   5.654   3.146
 2320SOL     OW 7858   1.140   1.638   5.545
 2320SOL    HW1 7859   1.077   1.686   5.484
 2320SOL    HW2 7860   1.209   1.702   5.580
 2321SOL     OW 7861   1.908   4.920   5.301
 2321SOL    HW1 7862   1.938   4.865   5.379
 2321SOL    HW2 7863   1.819   4.888   5.270
 2322SOL     OW 7864   2.141   4.303   1.626
 2322SOL    HW1 7865   2.208   4.355   1.572
 2322SOL    HW2 7866   2.149   4.329   1.723
 2323SOL     OW 7867   2.519   5.349   0.657
 2323SOL    HW1 7868   2.451   5.285   0.621
 2323SOL    HW2 7869   2.508   5.438   0.612
 2324SOL     OW 7870   6.788   5.106   2.527
 2324SOL    HW1 7871   6.688   5.105   2.513
 2324SOL    HW2 7872   6.809   5.158   2.609
 2325SOL     OW 7873   6.497   5.082   2.433
 2325SOL    HW1 7874   6.458   4.996   2.465
 2325SOL    HW2 7875   6.483   5.153   2.502
 2326SOL     OW 7876   1.826   0.427   0.290
 2326SOL    HW1 7877   1.861   0.423   0.196
 2326SOL    HW2 7878   1.789   0.338   0.315
 2327SOL     OW 7879   6.795   6.615   2.097
 2327SOL    HW1 7880   6.709   6.575   2.067
 2327SOL    HW2 7881   6.781   6.712   2.119
 2328SOL     OW 7882   2.224   3.963   2.164
 2328SOL    HW1 7883   2.182   4.054   2.171
 2328SOL    HW2 7884   2.323   3.973   2.161
 2329SOL     OW 7885   0.694   4.680   2.791
 2329SOL    HW1 7886   0.689   4.769   2.747
 2329SOL    HW2 7887   0.656   4.610   2.730
 2330SOL     OW 7888   6.007   3.261   1.358
 2330SOL    HW1 7889   5.995   3.233   1.453
 2330SOL    HW2 7890   5.936   3.326   1.333
 2331SOL     OW 7891   4.923   5.897   1.403
 2331SOL    HW1 7892   4.876   5.808   1.405
 2331SOL    HW2 7893   4.883   5.953   1.331
 2332SOL     OW 7894   5.840   0.019   5.943
 2332SOL    HW1 7895   5.751   7.016   5.982
 2332SOL    HW2 7896   5.865   0.110   5.973
 2333SOL     OW 7897   0.968   4.683   2.343
 2333SOL    HW1 7898   0.985   4.766   2.289
 2333SOL    HW2 7899   0.957   4.605   2.281
 2334SOL     OW 7900   3.226   1.467   6.353
 2334SOL    HW1 7901   3.168   1.532   6.402
 2334SOL    HW2 7902   3.172   1.421   6.282
 2335SOL     OW 7903   6.590   1.545   3.470
 2335SOL    HW1 7904   6.590   1.515   3.374
 2335SOL    HW2 7905   6.518   1.613   3.483
 2336SOL     OW 7906   1.565   1.942   3.674
 2336SOL    HW1 7907   1.493   1.916   3.737
 2336SOL    HW2 7908   1.524   1.971   3.587
 2337SOL     OW 7909   3.833   0.856   1.573
 2337SOL    HW1 7910   3.767   0.882   1.503
 2337SOL    HW2 7911   3.799   0.884   1.663
 2338SOL     OW 7912   0.159   3.801   4.012
 2338SOL    HW1 7913   0.128   3.742   3.936
 2338SOL    HW2 7914   0.199   3.745   4.084
 2339SOL     OW 7915   3.220   2.989   3.394
 2339SOL    HW1 7916   3.313   2.970   3.362
 2339SOL    HW2 7917   3.157   2.922   3.355
 2340SOL     OW 7918   2.399   4.233   6.627
 2340SOL    HW1 7919   2.400   4.161   6.558
 2340SOL    HW2 7920   2.394   4.322   6.582
 2341SOL     OW 7921   2.564   4.562   4.001
 2341SOL    HW1 7922   2.596   4.644   3.954
 2341SOL    HW2 7923   2.480   4.582   4.051
 2342SOL     OW 7924   3.580   1.097   4.182
 2342SOL    HW1 7925   3.565   1.175   4.243
 2342SOL    HW2 7926   3.493   1.053   4.163
 2343SOL     OW 7927   0.850   0.036   1.447
 2343SOL    HW1 7928   0.892   7.011   1.523
 2343SOL    HW2 7929   0.751   0.017   1.446
 2344SOL     OW 7930   5.711   4.576   0.221
 2344SOL    HW1 7931   5.776   4.519   0.169
 2344SOL    HW2 7932   5.683   4.653   0.164
 2345SOL     OW 7933   3.736   6.135   4.779
 2345SOL    HW1 7934   3.711   6.222   4.820
 2345SOL    HW2 7935   3.653   6.087   4.749
 2346SOL     OW 7936   4.724   3.639   0.358
 2346SOL    HW1 7937   4.754   3.718   0.306
 2346SOL    HW2 7938   4.798   3.610   0.420
 2347SOL     OW 7939   1.681   2.020   1.096
 2347SOL    HW1 7940   1.601   1.962   1.078
 2347SOL    HW2 7941   1.654   2.116   1.088
 2348SOL     OW 7942   0.497   5.278   2.452
 2348SOL    HW1 7943   0.512   5.214   2.376
 2348SOL    HW2 7944   0.564   5.352   2.446
 2349SOL     OW 7945   1.096   4.292   5.342
 2349SOL    HW1 7946   1.118   4.251   5.253
 2349SOL    HW2 7947   1.179   4.300   5.397
 2350SOL     OW 7948   5.268   3.727   0.109
 2350SOL    HW1 7949   5.345   3.687   0.060
 2350SOL    HW2 7950   5.263   3.825   0.089
 2351SOL     OW 7951   2.634   5.980   1.431
 2351SOL    HW1 7952   2.611   5.974   1.529
 2351SOL    HW2 7953   2.556   5.951   1.377
 2352SOL     OW 7954   6.826   2.447   3.506
 2352SOL    HW1 7955   6.752   2.494   3.457
 2352SOL    HW2 7956   6.844   2.494   3.592
 2353SOL     OW 7957   2.994   5.155   4.274
 2353SOL    HW1 7958   2.946   5.131   4.358
 2353SOL    HW2 7959   2.957   5.241   4.238
 2354SOL     OW 7960   2.472   2.716   4.023
 2354SOL    HW1 7961   2.526   2.672   4.095
 2354SOL    HW2 7962   2.513   2.697   3.934
 2355SOL     OW 7963   2.589   5.709   4.719
 2355SOL    HW1 7964   2.545   5.684   4.633
 2355SOL    HW2 7965   2.638   5.795   4.708
 2356SOL     OW 7966   6.854   2.569   6.793
 2356SOL    HW1 7967   6.809   2.503   6.852
 2356SOL    HW2 7968   6.943   2.593   6.831
 2357SOL     OW 7969   2.119   6.618   2.805
 2357SOL    HW1 7970   2.020   6.631   2.799
 2357SOL    HW2 7971   2.145   6.607   2.901
 2358SOL     OW 7972   3.310   4.818   5.829
 2358SOL    HW1 7973   3.380   4.773   5.885
 2358SOL    HW2 7974   3.349   4.841   5.740
 2359SOL     OW 7975   1.728   0.463   4.684
 2359SOL    HW1 7976   1.684   0.387   4.636
 2359SOL    HW2 7977   1.672   0.491   4.762
 2360SOL     OW 7978   6.836   4.284   6.987
 2360SOL    HW1 7979   6.741   4.300   7.015
 2360SOL    HW2 7980   6.894   4.279   0.045
 2361SOL     OW 7981   3.417   1.300   0.432
 2361SOL    HW1 7982   3.321   1.300   0.460
 2361SOL    HW2 7983   3.438   1.214   0.385
 2362SOL     OW 7984   2.714   6.064   3.370
 2362SOL    HW1 7985   2.784   6.069   3.441
 2362SOL    HW2 7986   2.667   6.152   3.363
 2363SOL     OW 7987   3.963   0.641   4.058
 2363SOL    HW1 7988   4.018   0.624   4.139
 2363SOL    HW2 7989   3.928   0.735   4.061
 2364SOL     OW 7990   1.401   2.869   1.478
 2364SOL    HW1 7991   1.433   2.801   1.412
 2364SOL    HW2 7992   1.324   2.919   1.438
 2365SOL     OW 7993   5.076   2.223   6.986
 2365SOL    HW1 7994   5.043   2.184   0.049
 2365SOL    HW2 7995   5.157   2.173   6.956
 2366SOL     OW 7996   4.762   5.542   0.688
 2366SOL    HW1 7997   4.792   5.603   0.762
 2366SOL    HW2 7998   4.753   5.449   0.724
 2367SOL     OW 7999   2.248   3.406   6.066
 2367SOL    HW1 8000   2.342   3.397   6.031
 2367SOL    HW2 8001   2.184   3.367   6.000
 2368SOL     OW 8002   6.333   6.202   2.013
 2368SOL    HW1 8003   6.266   6.146   2.061
 2368SOL    HW2 8004   6.394   6.245   2.080
 2369SOL     OW 8005   2.659   1.305   3.313
 2369SOL    HW1 8006   2.671   1.404   3.313
 2369SOL    HW2 8007   2.724   1.264   3.377
 2370SOL     OW 8008   5.983   2.708   6.091
 2370SOL    HW1 8009   6.015   2.615   6.107
 2370SOL    HW2 8010   5.983   2.727   5.993
 2371SOL     OW 8011   2.219   6.513   1.777
 2371SOL    HW1 8012   2.216   6.578   1.853
 2371SOL    HW2 8013   2.126   6.486   1.753
 2372SOL     OW 8014   6.465   3.325   2.775
 2372SOL    HW1 8015   6.398   3.390   2.811
 2372SOL    HW2 8016   6.419   3.262   2.713
 2373SOL     OW 8017   2.252   3.663   6.476
 2373SOL    HW1 8018   2.254   3.658   6.377
 2373SOL    HW2 8019   2.322   3.604   6.515
 2374SOL     OW 8020   5.334   2.748   4.672
 2374SOL    HW1 8021   5.409   2.765   4.736
 2374SOL    HW2 8022   5.367   2.763   4.579
 2375SOL     OW 8023   1.761   6.930   5.928
 2375SOL    HW1 8024   1.759   6.963   5.834
 2375SOL    HW2 8025   1.736   7.005   5.990
 2376SOL     OW 8026   6.548   2.591   4.398
 2376SOL    HW1 8027   6.535   2.553   4.307
 2376SOL    HW2 8028   6.497   2.677   4.405
 2377SOL     OW 8029   3.486   2.981   3.928
 2377SOL    HW1 8030   3.545   3.051   3.889
 2377SOL    HW2 8031   3.469   2.910   3.860
 2378SOL     OW 8032   5.533   2.724   0.776
 2378SOL    HW1 8033   5.528   2.786   0.855
 2378SOL    HW2 8034   5.452   2.665   0.776
 2379SOL     OW 8035   6.679   0.007   6.569
 2379SOL    HW1 8036   6.594   0.008   6.516
 2379SOL    HW2 8037   6.738   0.081   6.537
 2380SOL     OW 8038   6.392   2.126   2.714
 2380SOL    HW1 8039   6.488   2.142   2.737
 2380SOL    HW2 8040   6.340   2.210   2.727
 2381SOL     OW 8041   1.681   6.191   2.815
 2381SOL    HW1 8042   1.689   6.236   2.904
 2381SOL    HW2 8043   1.745   6.114   2.811
 2382SOL     OW 8044   1.281   3.287   5.756
 2382SOL    HW1 8045   1.295   3.381   5.787
 2382SOL    HW2 8046   1.352   3.228   5.793
 2383SOL     OW 8047   5.918   5.887   2.158
 2383SOL    HW1 8048   5.881   5.819   2.095
 2383SOL    HW2 8049   5.855   5.897   2.236
 2384SOL     OW 8050   4.093   1.138   1.829
 2384SOL    HW1 8051   4.147   1.211   1.786
 2384SOL    HW2 8052   3.998   1.167   1.838
 2385SOL     OW 8053   1.043   2.686   0.032
 2385SOL    HW1 8054   1.129   2.714   7.011
 2385SOL    HW2 8055   1.061   2.613   0.098
 2386SOL     OW 8056   4.481   4.908   4.142
 2386SOL    HW1 8057   4.504   4.966   4.064
 2386SOL    HW2 8058   4.390   4.932   4.176
 2387SOL     OW 8059   1.643   1.483   2.729
 2387SOL    HW1 8060   1.719   1.509   2.789
 2387SOL    HW2 8061   1.568   1.448   2.784
 2388SOL     OW 8062   0.002   1.907   3.997
 2388SOL    HW1 8063   7.008   1.997   4.038
 2388SOL    HW2 8064   0.062   1.854   4.057
 2389SOL     OW 8065   3.324   6.587   2.494
 2389SOL    HW1 8066   3.400   6.640   2.533
 2389SOL    HW2 8067   3.271   6.646   2.433
 2390SOL     OW 8068   3.097   4.432   1.042
 2390SOL    HW1 8069   3.021   4.448   0.979
 2390SOL    HW2 8070   3.063   4.425   1.135
 2391SOL     OW 8071   4.279   5.315   5.068
 2391SOL    HW1 8072   4.253   5.335   5.162
 2391SOL    HW2 8073   4.342   5.236   5.067
 2392SOL     OW 8074   3.899   1.219   6.634
 2392SOL    HW1 8075   3.974   1.192   6.573
 2392SOL    HW2 8076   3.918   1.309   6.673
 2393SOL     OW 8077   3.529   4.960   4.994
 2393SOL    HW1 8078   3.623   4.961   4.962
 2393SOL    HW2 8079   3.517   4.889   5.063
 2394SOL     OW 8080   6.993   4.585   5.877
 2394SOL    HW1 8081   7.006   4.489   5.901
 2394SOL    HW2 8082   7.002   4.597   5.779
 2395SOL     OW 8083   4.723   6.715   6.643
 2395SOL    HW1 8084   4.703   6.676   6.733
 2395SOL    HW2 8085   4.642   6.706   6.584
 2396SOL     OW 8086   3.474   5.509   0.593
 2396SOL    HW1 8087   3.389   5.550   0.624
 2396SOL    HW2 8088   3.487   5.421   0.637
 2397SOL     OW 8089   0.513   3.683   4.327
 2397SOL    HW1 8090   0.424   3.727   4.334
 2397SOL    HW2 8091   0.501   3.585   4.308
 2398SOL     OW 8092   4.851   3.598   5.337
 2398SOL    HW1 8093   4.797   3.672   5.377
 2398SOL    HW2 8094   4.797   3.553   5.265
 2399SOL     OW 8095   4.252   2.481   1.420
 2399SOL    HW1 8096   4.263   2.524   1.510
 2399SOL    HW2 8097   4.157   2.453   1.408
 2400SOL     OW 8098   1.796   5.027   0.260
 2400SOL    HW1 8099   1.721   5.089   0.236
 2400SOL    HW2 8100   1.875   5.081   0.289
 2401SOL     OW 8101   6.836   5.990   6.198
 2401SOL    HW1 8102   6.746   5.999   6.155
 2401SOL    HW2 8103   6.876   6.081   6.210
 2402SOL     OW 8104   6.638   6.288   4.102
 2402SOL    HW1 8105   6.643   6.210   4.038
 2402SOL    HW2 8106   6.719   6.346   4.091
 2403SOL     OW 8107   0.683   1.353   4.818
 2403SOL    HW1 8108   0.636   1.265   4.823
 2403SOL    HW2 8109   0.711   1.370   4.724
 2404SOL     OW 8110   1.143   0.461   0.270
 2404SOL    HW1 8111   1.231   0.444   0.314
 2404SOL    HW2 8112   1.124   0.389   0.203
 2405SOL     OW 8113   2.592   4.289   1.272
 2405SOL    HW1 8114   2.678   4.282   1.322
 2405SOL    HW2 8115   2.555   4.197   1.257
 2406SOL     OW 8116   4.897   1.024   1.300
 2406SOL    HW1 8117   4.879   1.119   1.275
 2406SOL    HW2 8118   4.831   0.965   1.255
 2407SOL     OW 8119   5.195   0.012   3.353
 2407SOL    HW1 8120   5.122   0.076   3.375
 2407SOL    HW2 8121   5.277   0.063   3.325
 2408SOL     OW 8122   4.279   4.988   2.293
 2408SOL    HW1 8123   4.243   4.896   2.305
 2408SOL    HW2 8124   4.329   5.015   2.375
 2409SOL     OW 8125   1.457   4.505   0.598
 2409SOL    HW1 8126   1.502   4.456   0.523
 2409SOL    HW2 8127   1.448   4.602   0.574
 2410SOL     OW 8128   3.743   2.934   3.021
 2410SOL    HW1 8129   3.675   2.869   3.056
 2410SOL    HW2 8130   3.786   2.981   3.098
 2411SOL     OW 8131   4.162   0.629   4.259
 2411SOL    HW1 8132   4.097   0.575   4.314
 2411SOL    HW2 8133   4.251   0.628   4.304
 2412SOL     OW 8134   4.140   3.627   1.092
 2412SOL    HW1 8135   4.148   3.650   0.995
 2412SOL    HW2 8136   4.211   3.561   1.116
 2413SOL     OW 8137   4.208   7.004   3.190
 2413SOL    HW1 8138   4.210   7.020   3.091
 2413SOL    HW2 8139   4.265   0.050   3.236
 2414SOL     OW 8140   5.255   3.384   4.242
 2414SOL    HW1 8141   5.170   3.352   4.284
 2414SOL    HW2 8142   5.315   3.306   4.225
 2415SOL     OW 8143   4.296   0.603   3.701
 2415SOL    HW1 8144   4.230   0.669   3.665
 2415SOL    HW2 8145   4.347   0.645   3.777
 2416SOL     OW 8146   5.464   1.946   6.648
 2416SOL    HW1 8147   5.435   2.030   6.694
 2416SOL    HW2 8148   5.553   1.961   6.606
 2417SOL     OW 8149   3.278   4.092   5.486
 2417SOL    HW1 8150   3.300   4.028   5.413
 2417SOL    HW2 8151   3.331   4.069   5.568
 2418SOL     OW 8152   3.185   3.204   2.829
 2418SOL    HW1 8153   3.243   3.141   2.777
 2418SOL    HW2 8154   3.110   3.235   2.771
 2419SOL     OW 8155   6.788   0.698   3.720
 2419SOL    HW1 8156   6.853   0.682   3.794
 2419SOL    HW2 8157   6.793   0.624   3.653
 2420SOL     OW 8158   2.100   0.108   1.586
 2420SOL    HW1 8159   2.103   0.197   1.540
 2420SOL    HW2 8160   2.193   0.071   1.593
 2421SOL     OW 8161   3.588   1.774   3.273
 2421SOL    HW1 8162   3.561   1.787   3.369
 2421SOL    HW2 8163   3.665   1.710   3.269
 2422SOL     OW 8164   5.383   1.737   0.922
 2422SOL    HW1 8165   5.407   1.759   0.827
 2422SOL    HW2 8166   5.306   1.793   0.951
 2423SOL     OW 8167   1.728   4.744   2.659
 2423SOL    HW1 8168   1.797   4.707   2.596
 2423SOL    HW2 8169   1.676   4.815   2.613
 2424SOL     OW 8170   6.527   0.291   0.317
 2424SOL    HW1 8171   6.532   0.197   0.351
 2424SOL    HW2 8172   6.610   0.312   0.264
 2425SOL     OW 8173   6.714   6.792   4.316
 2425SOL    HW1 8174   6.695   6.879   4.363
 2425SOL    HW2 8175   6.753   6.811   4.226
 2426SOL     OW 8176   2.325   5.038   4.268
 2426SOL    HW1 8177   2.276   4.954   4.293
 2426SOL    HW2 8178   2.412   5.040   4.316
 2427SOL     OW 8179   6.273   0.184   5.821
 2427SOL    HW1 8180   6.278   0.254   5.893
 2427SOL    HW2 8181   6.317   0.100   5.853
 2428SOL     OW 8182   5.406   1.324   0.500
 2428SOL    HW1 8183   5.472   1.360   0.566
 2428SOL    HW2 8184   5.389   1.392   0.429
 2429SOL     OW 8185   4.657   5.244   2.596
 2429SOL    HW1 8186   4.650   5.243   2.496
 2429SOL    HW2 8187   4.579   5.292   2.635
 2430SOL     OW 8188   4.595   6.844   2.814
 2430SOL    HW1 8189   4.692   6.863   2.826
 2430SOL    HW2 8190   4.556   6.808   2.899
 2431SOL     OW 8191   4.430   0.032   2.473
 2431SOL    HW1 8192   4.380   6.969   2.482
 2431SOL    HW2 8193   4.448   0.071   2.564
 2432SOL     OW 8194   2.525   6.268   2.243
 2432SOL    HW1 8195   2.456   6.219   2.296
 2432SOL    HW2 8196   2.523   6.235   2.148
 2433SOL     OW 8197   4.712   0.396   0.657
 2433SOL    HW1 8198   4.755   0.312   0.624
 2433SOL    HW2 8199   4.733   0.471   0.594
 2434SOL     OW 8200   3.285   2.927   4.397
 2434SOL    HW1 8201   3.332   2.980   4.327
 2434SOL    HW2 8202   3.351   2.870   4.446
 2435SOL     OW 8203   6.109   6.077   6.367
 2435SOL    HW1 8204   6.136   6.050   6.275
 2435SOL    HW2 8205   6.098   6.176   6.372
 2436SOL     OW 8206   3.050   4.501   0.577
 2436SOL    HW1 8207   3.002   4.471   0.494
 2436SOL    HW2 8208   3.077   4.421   0.631
 2437SOL     OW 8209   0.114   0.614   5.706
 2437SOL    HW1 8210   0.037   0.670   5.737
 2437SOL    HW2 8211   0.087   0.562   5.625
 2438SOL     OW 8212   3.562   3.301   0.849
 2438SOL    HW1 8213   3.491   3.259   0.905
 2438SOL    HW2 8214   3.539   3.398   0.834
 2439SOL     OW 8215   6.003   4.520   6.005
 2439SOL    HW1 8216   6.051   4.494   6.089
 2439SOL    HW2 8217   6.017   4.449   5.936
 2440SOL     OW 8218   6.181   5.130   5.652
 2440SOL    HW1 8219   6.119   5.174   5.587
 2440SOL    HW2 8220   6.129   5.097   5.731
 2441SOL     OW 8221   6.500   2.298   0.521
 2441SOL    HW1 8222   6.449   2.212   0.516
 2441SOL    HW2 8223   6.458   2.365   0.460
 2442SOL     OW 8224   6.258   2.166   4.702
 2442SOL    HW1 8225   6.162   2.180   4.725
 2442SOL    HW2 8226   6.308   2.139   4.785
 2443SOL     OW 8227   2.862   4.503   5.576
 2443SOL    HW1 8228   2.892   4.429   5.637
 2443SOL    HW2 8229   2.880   4.477   5.481
 2444SOL     OW 8230   3.829   2.430   5.803
 2444SOL    HW1 8231   3.801   2.444   5.708
 2444SOL    HW2 8232   3.763   2.474   5.863
 2445SOL     OW 8233   1.135   0.240   1.079
 2445SOL    HW1 8234   1.053   0.183   1.068
 2445SOL    HW2 8235   1.122   0.326   1.031
 2446SOL     OW 8236   4.576   2.777   6.299
 2446SOL    HW1 8237   4.620   2.866   6.313
 2446SOL    HW2 8238   4.568   2.760   6.200
 2447SOL     OW 8239   1.238   3.547   6.430
 2447SOL    HW1 8240   1.202   3.490   6.356
 2447SOL    HW2 8241   1.338   3.535   6.435
 2448SOL     OW 8242   6.600   0.542   4.878
 2448SOL    HW1 8243   6.517   0.557   4.932
 2448SOL    HW2 8244   6.638   0.452   4.899
 2449SOL     OW 8245   0.033   2.948   5.577
 2449SOL    HW1 8246   7.004   3.025   5.540
 2449SOL    HW2 8247   0.099   2.916   5.509
 2450SOL     OW 8248   2.287   3.395   1.361
 2450SOL    HW1 8249   2.356   3.442   1.306
 2450SOL    HW2 8250   2.267   3.449   1.443
 2451SOL     OW 8251   1.774   5.770   3.934
 2451SOL    HW1 8252   1.754   5.862   3.899
 2451SOL    HW2 8253   1.695   5.735   3.984
 2452SOL     OW 8254   2.609   2.240   5.065
 2452SOL    HW1 8255   2.608   2.333   5.101
 2452SOL    HW2 8256   2.703   2.214   5.042
 2453SOL     OW 8257   0.273   4.281   1.143
 2453SOL    HW1 8258   0.315   4.372   1.137
 2453SOL    HW2 8259   0.226   4.260   1.057
 2454SOL     OW 8260   0.864   0.027   2.316
 2454SOL    HW1 8261   0.862   6.962   2.364
 2454SOL    HW2 8262   0.775   0.045   2.276
 2455SOL     OW 8263   5.449   3.520   1.309
 2455SOL    HW1 8264   5.382   3.538   1.382
 2455SOL    HW2 8265   5.455   3.421   1.294
 2456SOL     OW 8266   2.769   6.826   1.573
 2456SOL    HW1 8267   2.743   6.922   1.567
 2456SOL    HW2 8268   2.718   6.782   1.647
 2457SOL     OW 8269   5.510   5.749   1.154
 2457SOL    HW1 8270   5.467   5.660   1.171
 2457SOL    HW2 8271   5.453   5.821   1.195
 2458SOL     OW 8272   0.672   6.476   1.578
 2458SOL    HW1 8273   0.576   6.448   1.581
 2458SOL    HW2 8274   0.715   6.456   1.666
 2459SOL     OW 8275   1.027   1.726   0.394
 2459SOL    HW1 8276   0.994   1.817   0.421
 2459SOL    HW2 8277   1.073   1.733   0.305
 2460SOL     OW 8278   2.576   4.554   0.946
 2460SOL    HW1 8279   2.517   4.478   0.973
 2460SOL    HW2 8280   2.545   4.590   0.858
 2461SOL     OW 8281   4.528   1.491   3.168
 2461SOL    HW1 8282   4.588   1.563   3.202
 2461SOL    HW2 8283   4.522   1.498   3.068
 2462SOL     OW 8284   3.183   4.314   6.209
 2462SOL    HW1 8285   3.129   4.378   6.154
 2462SOL    HW2 8286   3.201   4.354   6.299
 2463SOL     OW 8287   0.836   2.960   5.368
 2463SOL    HW1 8288   0.849   2.881   5.428
 2463SOL    HW2 8289   0.925   2.993   5.336
 2464SOL     OW 8290   0.997   3.379   0.472
 2464SOL    HW1 8291   1.065   3.337   0.532
 2464SOL    HW2 8292   1.042   3.445   0.412
 2465SOL     OW 8293   6.036   4.268   2.830
 2465SOL    HW1 8294   6.080   4.186   2.867
 2465SOL    HW2 8295   5.946   4.278   2.871
 2466SOL     OW 8296   3.613   1.831   1.559
 2466SOL    HW1 8297   3.605   1.737   1.526
 2466SOL    HW2 8298   3.669   1.884   1.495
 2467SOL     OW 8299   0.529   1.091   4.822
 2467SOL    HW1 8300   0.521   1.070   4.725
 2467SOL    HW2 8301   0.565   1.012   4.871
 2468SOL     OW 8302   5.961   4.974   6.618
 2468SOL    HW1 8303   5.976   5.047   6.550
 2468SOL    HW2 8304   5.966   5.014   6.710
 2469SOL     OW 8305   2.855   2.602   5.866
 2469SOL    HW1 8306   2.886   2.511   5.837
 2469SOL    HW2 8307   2.757   2.598   5.887
 2470SOL     OW 8308   5.283   2.541   1.484
 2470SOL    HW1 8309   5.302   2.567   1.578
 2470SOL    HW2 8310   5.317   2.611   1.422
 2471SOL     OW 8311   0.021   1.042   3.227
 2471SOL    HW1 8312   0.067   1.107   3.167
 2471SOL    HW2 8313   6.971   1.088   3.277
 2472SOL     OW 8314   6.166   0.717   3.916
 2472SOL    HW1 8315   6.197   0.625   3.940
 2472SOL    HW2 8316   6.236   0.784   3.938
 2473SOL     OW 8317   0.728   6.156   4.924
 2473SOL    HW1 8318   0.818   6.137   4.883
 2473SOL    HW2 8319   0.708   6.086   4.993
 2474SOL     OW 8320   6.275   6.463   4.596
 2474SOL    HW1 8321   6.191   6.495   4.640
 2474SOL    HW2 8322   6.332   6.542   4.572
 2475SOL     OW 8323   3.516   2.284   6.323
 2475SOL    HW1 8324   3.541   2.323   6.411
 2475SOL    HW2 8325   3.473   2.354   6.266
 2476SOL     OW 8326   0.872   1.138   3.416
 2476SOL    HW1 8327   0.954   1.196   3.423
 2476SOL    HW2 8328   0.897   1.052   3.372
 2477SOL     OW 8329   4.617   4.460   2.197
 2477SOL    HW1 8330   4.570   4.414   2.122
 2477SOL    HW2 8331   4.706   4.495   2.164
 2478SOL     OW 8332   6.697   0.685   2.467
 2478SOL    HW1 8333   6.776   0.747   2.460
 2478SOL    HW2 8334   6.717   0.601   2.417
 2479SOL     OW 8335   1.214   3.362   0.095
 2479SOL    HW1 8336   1.130   3.373   0.043
 2479SOL    HW2 8337   1.290   3.341   0.032
 2480SOL     OW 8338   6.773   5.188   1.536
 2480SOL    HW1 8339   6.730   5.127   1.602
 2480SOL    HW2 8340   6.774   5.282   1.571
 2481SOL     OW 8341   4.320   4.681   2.440
 2481SOL    HW1 8342   4.380   4.600   2.435
 2481SOL    HW2 8343   4.376   4.762   2.456
 2482SOL     OW 8344   4.236   2.301   4.410
 2482SOL    HW1 8345   4.138   2.316   4.396
 2482SOL    HW2 8346   4.250   2.259   4.500
 2483SOL     OW 8347   1.297   3.798   0.241
 2483SOL    HW1 8348   1.329   3.802   0.336
 2483SOL    HW2 8349   1.296   3.891   0.203
 2484SOL     OW 8350   3.464   4.749   6.052
 2484SOL    HW1 8351   3.400   4.766   6.127
 2484SOL    HW2 8352   3.507   4.660   6.065
 2485SOL     OW 8353   0.695   5.261   6.917
 2485SOL    HW1 8354   0.786   5.301   6.928
 2485SOL    HW2 8355   0.645   5.267   7.004
 2486SOL     OW 8356   0.871   5.119   3.444
 2486SOL    HW1 8357   0.872   5.140   3.346
 2486SOL    HW2 8358   0.865   5.204   3.496
 2487SOL     OW 8359   2.785   1.378   1.206
 2487SOL    HW1 8360   2.734   1.337   1.130
 2487SOL    HW2 8361   2.737   1.460   1.238
 2488SOL     OW 8362   2.896   5.737   6.505
 2488SOL    HW1 8363   2.992   5.725   6.480
 2488SOL    HW2 8364   2.873   5.672   6.578
 2489SOL     OW 8365   6.980   5.552   4.568
 2489SOL    HW1 8366   6.998   5.460   4.604
 2489SOL    HW2 8367   0.019   5.617   4.612
 2490SOL     OW 8368   5.833   3.117   1.181
 2490SOL    HW1 8369   5.878   3.160   1.259
 2490SOL    HW2 8370   5.781   3.037   1.211
 2491SOL     OW 8371   6.466   3.770   2.753
 2491SOL    HW1 8372   6.534   3.814   2.694
 2491SOL    HW2 8373   6.505   3.688   2.794
 2492SOL     OW 8374   3.780   1.908   6.922
 2492SOL    HW1 8375   3.789   1.865   7.012
 2492SOL    HW2 8376   3.785   1.838   6.851
 2493SOL     OW 8377   6.847   0.497   5.639
 2493SOL    HW1 8378   6.879   0.411   5.677
 2493SOL    HW2 8379   6.826   0.561   5.714
 2494SOL     OW 8380   5.520   5.250   0.835
 2494SOL    HW1 8381   5.429   5.292   0.829
 2494SOL    HW2 8382   5.510   5.155   0.864
 2495SOL     OW 8383   0.085   1.068   2.321
 2495SOL    HW1 8384   0.181   1.094   2.319
 2495SOL    HW2 8385   0.043   1.099   2.406
 2496SOL     OW 8386   1.980   4.678   0.503
 2496SOL    HW1 8387   1.987   4.592   0.554
 2496SOL    HW2 8388   2.025   4.668   0.415
 2497SOL     OW 8389   6.023   1.350   6.816
 2497SOL    HW1 8390   6.004   1.365   6.719
 2497SOL    HW2 8391   5.956   1.285   6.853
 2498SOL     OW 8392   1.015   3.050   4.500
 2498SOL    HW1 8393   1.086   3.041   4.430
 2498SOL    HW2 8394   1.058   3.057   4.590
 2499SOL     OW 8395   5.218   0.978   6.965
 2499SOL    HW1 8396   5.210   1.024   0.030
 2499SOL    HW2 8397   5.129   0.940   6.938
 2500SOL     OW 8398   5.181   3.158   5.689
 2500SOL    HW1 8399   5.107   3.184   5.750
 2500SOL    HW2 8400   5.166   3.065   5.655
 2501SOL     OW 8401   6.919   4.964   1.056
 2501SOL    HW1 8402   6.896   5.040   0.995
 2501SOL    HW2 8403   6.835   4.931   1.101
 2502SOL     OW 8404   1.080   6.439   3.411
 2502SOL    HW1 8405   1.176   6.467   3.408
 2502SOL    HW2 8406   1.029   6.487   3.340
 2503SOL     OW 8407   5.442   6.224   3.952
 2503SOL    HW1 8408   5.381   6.289   3.906
 2503SOL    HW2 8409   5.537   6.249   3.934
 2504SOL     OW 8410   2.322   4.915   3.032
 2504SOL    HW1 8411   2.261   4.992   3.050
 2504SOL    HW2 8412   2.359   4.922   2.940
 2505SOL     OW 8413   5.153   3.763   4.703
 2505SOL    HW1 8414   5.066   3.722   4.733
 2505SOL    HW2 8415   5.153   3.861   4.725
 2506SOL     OW 8416   0.999   1.300   0.350
 2506SOL    HW1 8417   0.980   1.369   0.420
 2506SOL    HW2 8418   0.919   1.290   0.291
 2507SOL     OW 8419   6.757   6.329   0.552
 2507SOL    HW1 8420   6.686   6.395   0.578
 2507SOL    HW2 8421   6.742   6.243   0.601
 2508SOL     OW 8422   1.834   2.083   1.388
 2508SOL    HW1 8423   1.777   2.056   1.310
 2508SOL    HW2 8424   1.801   2.170   1.425
 2509SOL     OW 8425   5.810   6.497   3.836
 2509SOL    HW1 8426   5.806   6.397   3.846
 2509SOL    HW2 8427   5.901   6.524   3.807
 2510SOL     OW 8428   3.730   5.896   2.620
 2510SOL    HW1 8429   3.796   5.970   2.637
 2510SOL    HW2 8430   3.777   5.820   2.575
 2511SOL     OW 8431   0.707   5.839   3.734
 2511SOL    HW1 8432   0.642   5.818   3.807
 2511SOL    HW2 8433   0.797   5.858   3.774
 2512SOL     OW 8434   6.177   3.459   4.576
 2512SOL    HW1 8435   6.192   3.438   4.479
 2512SOL    HW2 8436   6.129   3.383   4.619
 2513SOL     OW 8437   0.150   5.490   1.240
 2513SOL    HW1 8438   0.223   5.454   1.182
 2513SOL    HW2 8439   0.066   5.440   1.223
 2514SOL     OW 8440   0.010   1.899   4.384
 2514SOL    HW1 8441   0.001   1.960   4.463
 2514SOL    HW2 8442   7.020   1.951   4.300
 2515SOL     OW 8443   0.907   4.460   6.278
 2515SOL    HW1 8444   0.901   4.427   6.184
 2515SOL    HW2 8445   0.940   4.554   6.278
 2516SOL     OW 8446   4.431   6.597   4.636
 2516SOL    HW1 8447   4.482   6.628   4.716
 2516SOL    HW2 8448   4.477   6.517   4.596
 2517SOL     OW 8449   2.477   5.587   0.557
 2517SOL    HW1 8450   2.452   5.648   0.482
 2517SOL    HW2 8451   2.530   5.637   0.625
 2518SOL     OW 8452   1.991   1.798   0.058
 2518SOL    HW1 8453   1.951   1.827   6.993
 2518SOL    HW2 8454   1.985   1.873   0.124
 2519SOL     OW 8455   6.215   4.100   4.933
 2519SOL    HW1 8456   6.253   4.066   5.019
 2519SOL    HW2 8457   6.247   4.194   4.917
 2520SOL     OW 8458   4.000   5.740   0.744
 2520SOL    HW1 8459   4.009   5.832   0.783
 2520SOL    HW2 8460   3.928   5.740   0.674
 2521SOL     OW 8461   5.767   6.513   5.794
 2521SOL    HW1 8462   5.690   6.489   5.854
 2521SOL    HW2 8463   5.799   6.605   5.816
 2522SOL     OW 8464   2.522   4.992   5.137
 2522SOL    HW1 8465   2.538   4.895   5.121
 2522SOL    HW2 8466   2.430   5.017   5.107
 2523SOL     OW 8467   0.822   2.061   6.581
 2523SOL    HW1 8468   0.789   2.098   6.667
 2523SOL    HW2 8469   0.891   1.990   6.599
 2524SOL     OW 8470   1.681   0.299   4.390
 2524SOL    HW1 8471   1.655   0.257   4.303
 2524SOL    HW2 8472   1.696   0.228   4.459
 2525SOL     OW 8473   2.774   4.719   2.259
 2525SOL    HW1 8474   2.796   4.674   2.173
 2525SOL    HW2 8475   2.680   4.752   2.256
 2526SOL     OW 8476   1.524   2.903   4.327
 2526SOL    HW1 8477   1.547   2.838   4.400
 2526SOL    HW2 8478   1.603   2.960   4.308
 2527SOL     OW 8479   0.033   6.640   4.016
 2527SOL    HW1 8480   0.008   6.547   4.043
 2527SOL    HW2 8481   0.117   6.637   3.962
 2528SOL     OW 8482   5.503   4.981   0.952
 2528SOL    HW1 8483   5.572   4.931   0.899
 2528SOL    HW2 8484   5.548   5.025   1.030
 2529SOL     OW 8485   5.087   4.429   4.979
 2529SOL    HW1 8486   5.085   4.397   5.074
 2529SOL    HW2 8487   5.181   4.457   4.956
 2530SOL     OW 8488   1.093   6.182   3.382
 2530SOL    HW1 8489   1.046   6.264   3.413
 2530SOL    HW2 8490   1.189   6.204   3.362
 2531SOL     OW 8491   5.730   2.229   6.253
 2531SOL    HW1 8492   5.761   2.271   6.168
 2531SOL    HW2 8493   5.658   2.163   6.234
 2532SOL     OW 8494   0.572   5.784   6.366
 2532SOL    HW1 8495   0.544   5.817   6.275
 2532SOL    HW2 8496   0.632   5.704   6.355
 2533SOL     OW 8497   5.455   0.789   4.532
 2533SOL    HW1 8498   5.486   0.703   4.493
 2533SOL    HW2 8499   5.378   0.824   4.479
 2534SOL     OW 8500   6.520   1.602   2.669
 2534SOL    HW1 8501   6.457   1.680   2.677
 2534SOL    HW2 8502   6.515   1.547   2.752
 2535SOL     OW 8503   2.792   0.770   1.807
 2535SOL    HW1 8504   2.773   0.673   1.793
 2535SOL    HW2 8505   2.857   0.802   1.739
 2536SOL     OW 8506   1.044   0.369   3.279
 2536SOL    HW1 8507   1.118   0.306   3.301
 2536SOL    HW2 8508   0.973   0.363   3.348
 2537SOL     OW 8509   2.193   6.430   2.122
 2537SOL    HW1 8510   2.245   6.361   2.072
 2537SOL    HW2 8511   2.175   6.397   2.215
 2538SOL     OW 8512   6.997   5.382   5.141
 2538SOL    HW1 8513   0.022   5.461   5.103
 2538SOL    HW2 8514   6.934   5.413   5.213
 2539SOL     OW 8515   1.143   0.104   5.446
 2539SOL    HW1 8516   1.241   0.089   5.453
 2539SOL    HW2 8517   1.097   0.017   5.428
 2540SOL     OW 8518   5.392   2.583   2.213
 2540SOL    HW1 8519   5.349   2.495   2.233
 2540SOL    HW2 8520   5.330   2.639   2.158
 2541SOL     OW 8521   1.544   1.047   0.370
 2541SOL    HW1 8522   1.589   1.002   0.293
 2541SOL    HW2 8523   1.525   1.142   0.347
 2542SOL     OW 8524   4.098   1.805   2.596
 2542SOL    HW1 8525   4.039   1.724   2.588
 2542SOL    HW2 8526   4.067   1.875   2.532
 2543SOL     OW 8527   6.238   6.319   5.159
 2543SOL    HW1 8528   6.325   6.307   5.206
 2543SOL    HW2 8529   6.165   6.335   5.226
 2544SOL     OW 8530   0.096   0.197   0.257
 2544SOL    HW1 8531   0.112   0.283   0.209
 2544SOL    HW2 8532   0.033   0.213   0.333
 2545SOL     OW 8533   6.740   1.773   0.383
 2545SOL    HW1 8534   6.763   1.828   0.464
 2545SOL    HW2 8535   6.732   1.677   0.410
 2546SOL     OW 8536   5.960   3.422   2.656
 2546SOL    HW1 8537   5.870   3.378   2.665
 2546SOL    HW2 8538   5.948   3.522   2.658
 2547SOL     OW 8539   5.848   3.870   1.025
 2547SOL    HW1 8540   5.946   3.889   1.027
 2547SOL    HW2 8541   5.801   3.930   1.090
 2548SOL     OW 8542   6.322   0.376   5.439
 2548SOL    HW1 8543   6.361   0.309   5.502
 2548SOL    HW2 8544   6.228   0.397   5.467
 2549SOL     OW 8545   2.835   4.970   6.635
 2549SOL    HW1 8546   2.828   4.879   6.677
 2549SOL    HW2 8547   2.789   4.970   6.546
 2550SOL     OW 8548   3.632   0.578   0.768
 2550SOL    HW1 8549   3.699   0.570   0.695
 2550SOL    HW2 8550   3.672   0.627   0.845
 2551SOL     OW 8551   3.302   4.265   1.208
 2551SOL    HW1 8552   3.270   4.315   1.127
 2551SOL    HW2 8553   3.296   4.167   1.190
 2552SOL     OW 8554   2.967   5.377   1.082
 2552SOL    HW1 8555   3.018   5.462   1.071
 2552SOL    HW2 8556   3.011   5.305   1.028
 2553SOL     OW 8557   4.349   1.791   0.900
 2553SOL    HW1 8558   4.306   1.857   0.961
 2553SOL    HW2 8559   4.294   1.707   0.899
 2554SOL     OW 8560   1.154   6.132   1.107
 2554SOL    HW1 8561   1.085   6.063   1.130
 2554SOL    HW2 8562   1.192   6.112   1.017
 2555SOL     OW 8563   0.585   6.592   5.007
 2555SOL    HW1 8564   0.604   6.677   4.956
 2555SOL    HW2 8565   0.487   6.574   5.005
 2556SOL     OW 8566   5.732   0.522   1.339
 2556SOL    HW1 8567   5.749   0.425   1.322
 2556SOL    HW2 8568   5.671   0.558   1.269
 2557SOL     OW 8569   2.709   1.486   6.935
 2557SOL    HW1 8570   2.620   1.531   6.936
 2557SOL    HW2 8571   2.719   1.431   7.018
 2558SOL     OW 8572   6.082   2.818   0.924
 2558SOL    HW1 8573   6.085   2.895   0.988
 2558SOL    HW2 8574   5.988   2.795   0.904
 2559SOL     OW 8575   6.464   5.069   3.323
 2559SOL    HW1 8576   6.482   5.117   3.408
 2559SOL    HW2 8577   6.540   5.008   3.302
 2560SOL     OW 8578   4.341   2.610   1.634
 2560SOL    HW1 8579   4.292   2.691   1.668
 2560SOL    HW2 8580   4.439   2.627   1.639
 2561SOL     OW 8581   3.688   0.352   4.625
 2561SOL    HW1 8582   3.742   0.433   4.603
 2561SOL    HW2 8583   3.596   0.380   4.652
 2562SOL     OW 8584   1.703   6.590   4.882
 2562SOL    HW1 8585   1.687   6.531   4.803
 2562SOL    HW2 8586   1.780   6.553   4.936
 2563SOL     OW 8587   4.490   2.639   6.552
 2563SOL    HW1 8588   4.519   2.710   6.488
 2563SOL    HW2 8589   4.407   2.669   6.600
 2564SOL     OW 8590   1.522   1.202   1.481
 2564SOL    HW1 8591   1.519   1.294   1.521
 2564SOL    HW2 8592   1.437   1.155   1.503
 2565SOL     OW 8593   0.161   0.159   0.996
 2565SOL    HW1 8594   0.102   0.134   0.919
 2565SOL    HW2 8595   0.225   0.084   1.015
 2566SOL     OW 8596   2.245   1.154   0.134
 2566SOL    HW1 8597   2.210   1.212   0.208
 2566SOL    HW2 8598   2.345   1.147   0.142
 2567SOL     OW 8599   1.932   0.633   5.966
 2567SOL    HW1 8600   1.870   0.677   5.901
 2567SOL    HW2 8601   1.899   0.649   6.059
 2568SOL     OW 8602   2.995   6.205   0.708
 2568SOL    HW1 8603   3.045   6.289   0.684
 2568SOL    HW2 8604   3.060   6.132   0.728
 2569SOL     OW 8605   2.754   6.305   6.794
 2569SOL    HW1 8606   2.783   6.384   6.849
 2569SOL    HW2 8607   2.674   6.263   6.836
 2570SOL     OW 8608   0.102   0.132   3.419
 2570SOL    HW1 8609   0.074   0.226   3.437
 2570SOL    HW2 8610   0.155   0.097   3.496
 2571SOL     OW 8611   3.519   3.589   2.495
 2571SOL    HW1 8612   3.618   3.582   2.486
 2571SOL    HW2 8613   3.477   3.502   2.471
 2572SOL     OW 8614   3.070   6.126   1.935
 2572SOL    HW1 8615   2.985   6.103   1.887
 2572SOL    HW2 8616   3.107   6.211   1.897
 2573SOL     OW 8617   6.293   0.541   2.849
 2573SOL    HW1 8618   6.338   0.575   2.931
 2573SOL    HW2 8619   6.353   0.556   2.770
 2574SOL     OW 8620   0.243   4.490   2.141
 2574SOL    HW1 8621   0.234   4.485   2.042
 2574SOL    HW2 8622   0.273   4.582   2.167
 2575SOL     OW 8623   4.596   3.429   5.355
 2575SOL    HW1 8624   4.619   3.453   5.261
 2575SOL    HW2 8625   4.672   3.376   5.395
 2576SOL     OW 8626   0.033   0.375   2.902
 2576SOL    HW1 8627   0.040   0.374   3.002
 2576SOL    HW2 8628   7.013   0.461   2.873
 2577SOL     OW 8629   1.852   4.432   0.783
 2577SOL    HW1 8630   1.857   4.402   0.878
 2577SOL    HW2 8631   1.808   4.522   0.779
 2578SOL     OW 8632   4.562   2.008   5.146
 2578SOL    HW1 8633   4.617   2.091   5.149
 2578SOL    HW2 8634   4.494   2.016   5.073
 2579SOL     OW 8635   6.791   1.585   6.337
 2579SOL    HW1 8636   6.772   1.606   6.432
 2579SOL    HW2 8637   6.886   1.557   6.327
 2580SOL     OW 8638   1.663   1.982   5.682
 2580SOL    HW1 8639   1.655   1.899   5.738
 2580SOL    HW2 8640   1.701   2.056   5.738
 2581SOL     OW 8641   5.038   6.325   4.405
 2581SOL    HW1 8642   5.074   6.253   4.346
 2581SOL    HW2 8643   4.943   6.305   4.428
 2582SOL     OW 8644   6.456   4.029   3.050
 2582SOL    HW1 8645   6.474   4.032   3.148
 2582SOL    HW2 8646   6.476   4.118   3.009
 2583SOL     OW 8647   2.521   1.161   0.166
 2583SOL    HW1 8648   2.559   1.253   0.168
 2583SOL    HW2 8649   2.563   1.106   0.238
 2584SOL     OW 8650   3.893   6.945   3.233
 2584SOL    HW1 8651   3.980   6.912   3.268
 2584SOL    HW2 8652   3.869   0.008   3.279
 2585SOL     OW 8653   3.978   0.962   2.820
 2585SOL    HW1 8654   3.943   1.021   2.747
 2585SOL    HW2 8655   4.026   0.884   2.780
 2586SOL     OW 8656   1.087   1.773   4.477
 2586SOL    HW1 8657   1.186   1.770   4.463
 2586SOL    HW2 8658   1.058   1.869   4.485
 2587SOL     OW 8659   6.374   4.364   3.182
 2587SOL    HW1 8660   6.303   4.298   3.208
 2587SOL    HW2 8661   6.366   4.385   3.085
 2588SOL     OW 8662   3.467   6.985   2.866
 2588SOL    HW1 8663   3.411   0.036   2.827
 2588SOL    HW2 8664   3.409   6.925   2.921
 2589SOL     OW 8665   4.431   6.513   2.120
 2589SOL    HW1 8666   4.338   6.477   2.111
 2589SOL    HW2 8667   4.485   6.487   2.041
 2590SOL     OW 8668   4.402   6.041   3.971
 2590SOL    HW1 8669   4.420   6.000   4.060
 2590SOL    HW2 8670   4.444   6.132   3.967
 2591SOL     OW 8671   5.929   0.296   1.342
 2591SOL    HW1 8672   5.992   0.298   1.420
 2591SOL    HW2 8673   5.972   0.342   1.264
 2592SOL     OW 8674   2.828   4.712   1.701
 2592SOL    HW1 8675   2.835   4.649   1.778
 2592SOL    HW2 8676   2.840   4.661   1.615
 2593SOL     OW 8677   2.859   0.504   3.757
 2593SOL    HW1 8678   2.909   0.583   3.793
 2593SOL    HW2 8679   2.925   0.433   3.732
 2594SOL     OW 8680   2.312   5.929   6.293
 2594SOL    HW1 8681   2.375   5.976   6.356
 2594SOL    HW2 8682   2.275   5.848   6.338
 2595SOL     OW 8683   6.652   2.790   4.772
 2595SOL    HW1 8684   6.708   2.844   4.834
 2595SOL    HW2 8685   6.682   2.804   4.678
 2596SOL     OW 8686   4.878   1.503   0.593
 2596SOL    HW1 8687   4.929   1.472   0.673
 2596SOL    HW2 8688   4.867   1.426   0.529
 2597SOL     OW 8689   2.432   2.330   6.080
 2597SOL    HW1 8690   2.368   2.387   6.133
 2597SOL    HW2 8691   2.411   2.338   5.983
 2598SOL     OW 8692   6.458   0.932   2.808
 2598SOL    HW1 8693   6.546   0.886   2.823
 2598SOL    HW2 8694   6.415   0.895   2.726
 2599SOL     OW 8695   5.064   5.986   6.138
 2599SOL    HW1 8696   4.987   6.023   6.085
 2599SOL    HW2 8697   5.084   5.893   6.107
 2600SOL     OW 8698   0.479   2.841   4.752
 2600SOL    HW1 8699   0.414   2.851   4.677
 2600SOL    HW2 8700   0.562   2.797   4.719
 2601SOL     OW 8701   4.130   4.494   5.388
 2601SOL    HW1 8702   4.164   4.431   5.318
 2601SOL    HW2 8703   4.087   4.442   5.462
 2602SOL     OW 8704   5.739   6.742   6.863
 2602SOL    HW1 8705   5.787   6.805   6.802
 2602SOL    HW2 8706   5.801   6.669   6.891
 2603SOL     OW 8707   1.619   1.871   6.824
 2603SOL    HW1 8708   1.653   1.891   6.915
 2603SOL    HW2 8709   1.573   1.782   6.824
 2604SOL     OW 8710   5.697   1.397   0.965
 2604SOL    HW1 8711   5.732   1.324   0.906
 2604SOL    HW2 8712   5.757   1.407   1.045
 2605SOL     OW 8713   5.143   2.604   5.426
 2605SOL    HW1 8714   5.232   2.615   5.383
 2605SOL    HW2 8715   5.098   2.693   5.431
 2606SOL     OW 8716   6.347   4.609   1.428
 2606SOL    HW1 8717   6.312   4.645   1.515
 2606SOL    HW2 8718   6.444   4.589   1.437
 2607SOL     OW 8719   0.840   0.785   3.533
 2607SOL    HW1 8720   0.787   0.836   3.602
 2607SOL    HW2 8721   0.819   0.821   3.442
 2608SOL     OW 8722   4.320   0.769   0.215
 2608SOL    HW1 8723   4.274   0.829   0.280
 2608SOL    HW2 8724   4.385   0.710   0.263
 2609SOL     OW 8725   0.869   3.763   3.396
 2609SOL    HW1 8726   0.882   3.690   3.330
 2609SOL    HW2 8727   0.937   3.756   3.468
 2610SOL     OW 8728   5.325   5.489   4.916
 2610SOL    HW1 8729   5.340   5.443   4.828
 2610SOL    HW2 8730   5.257   5.561   4.904
 2611SOL     OW 8731   2.608   6.198   1.978
 2611SOL    HW1 8732   2.614   6.254   1.896
 2611SOL    HW2 8733   2.592   6.103   1.953
 2612SOL     OW 8734   0.909   6.759   5.009
 2612SOL    HW1 8735   0.960   6.730   4.928
 2612SOL    HW2 8736   0.960   6.734   5.091
 2613SOL     OW 8737   3.726   1.409   0.011
 2613SOL    HW1 8738   3.660   1.482   0.030
 2613SOL    HW2 8739   3.682   1.320   0.025
 2614SOL     OW 8740   6.423   6.523   6.355
 2614SOL    HW1 8741   6.387   6.507   6.447
 2614SOL    HW2 8742   6.363   6.585   6.306
 2615SOL     OW 8743   6.915   4.221   1.253
 2615SOL    HW1 8744   6.874   4.194   1.341
 2615SOL    HW2 8745   6.878   4.309   1.224
 2616SOL     OW 8746   3.803   4.090   1.832
 2616SOL    HW1 8747   3.797   4.143   1.747
 2616SOL    HW2 8748   3.889   4.040   1.834
 2617SOL     OW 8749   2.509   6.566   1.224
 2617SOL    HW1 8750   2.492   6.513   1.141
 2617SOL    HW2 8751   2.606   6.566   1.245
 2618SOL     OW 8752   0.736   5.991   0.195
 2618SOL    HW1 8753   0.756   5.946   0.108
 2618SOL    HW2 8754   0.703   6.084   0.178
 2619SOL     OW 8755   6.465   1.169   1.957
 2619SOL    HW1 8756   6.371   1.138   1.945
 2619SOL    HW2 8757   6.469   1.268   1.945
 2620SOL     OW 8758   1.291   5.565   4.168
 2620SOL    HW1 8759   1.345   5.482   4.160
 2620SOL    HW2 8760   1.223   5.555   4.241
 2621SOL     OW 8761   0.991   6.310   4.300
 2621SOL    HW1 8762   0.980   6.255   4.383
 2621SOL    HW2 8763   0.903   6.316   4.252
 2622SOL     OW 8764   2.308   2.664   4.246
 2622SOL    HW1 8765   2.379   2.594   4.258
 2622SOL    HW2 8766   2.334   2.723   4.169
 2623SOL     OW 8767   3.078   6.807   5.899
 2623SOL    HW1 8768   3.000   6.824   5.958
 2623SOL    HW2 8769   3.052   6.820   5.803
 2624SOL     OW 8770   5.193   1.693   4.586
 2624SOL    HW1 8771   5.194   1.758   4.510
 2624SOL    HW2 8772   5.170   1.742   4.670
 2625SOL     OW 8773   2.596   6.827   6.262
 2625SOL    HW1 8774   2.588   6.890   6.340
 2625SOL    HW2 8775   2.682   6.778   6.269
 2626SOL     OW 8776   2.172   6.643   3.086
 2626SOL    HW1 8777   2.241   6.714   3.071
 2626SOL    HW2 8778   2.159   6.630   3.184
 2627SOL     OW 8779   0.717   0.103   4.703
 2627SOL    HW1 8780   0.638   0.066   4.752
 2627SOL    HW2 8781   0.762   0.030   4.652
 2628SOL     OW 8782   5.051   5.445   0.219
 2628SOL    HW1 8783   4.973   5.399   0.178
 2628SOL    HW2 8784   5.120   5.378   0.245
 2629SOL     OW 8785   2.648   3.736   1.634
 2629SOL    HW1 8786   2.679   3.647   1.667
 2629SOL    HW2 8787   2.704   3.808   1.675
 2630SOL     OW 8788   3.452   2.082   2.268
 2630SOL    HW1 8789   3.419   2.049   2.180
 2630SOL    HW2 8790   3.483   2.177   2.259
 2631SOL     OW 8791   3.033   6.769   4.508
 2631SOL    HW1 8792   3.123   6.725   4.509
 2631SOL    HW2 8793   3.030   6.840   4.578
 2632SOL     OW 8794   4.790   1.623   1.178
 2632SOL    HW1 8795   4.727   1.678   1.123
 2632SOL    HW2 8796   4.765   1.628   1.275
 2633SOL     OW 8797   0.076   2.762   0.081
 2633SOL    HW1 8798   7.011   2.715   0.071
 2633SOL    HW2 8799   0.128   2.754   7.018
 2634SOL     OW 8800   2.839   4.911   0.168
 2634SOL    HW1 8801   2.865   4.910   0.265
 2634SOL    HW2 8802   2.919   4.896   0.111
 2635SOL     OW 8803   6.460   4.249   3.608
 2635SOL    HW1 8804   6.386   4.291   3.661
 2635SOL    HW2 8805   6.495   4.316   3.542
 2636SOL     OW 8806   5.383   5.395   5.257
 2636SOL    HW1 8807   5.443   5.428   5.330
 2636SOL    HW2 8808   5.434   5.392   5.171
 2637SOL     OW 8809   5.204   5.517   2.351
 2637SOL    HW1 8810   5.287   5.564   2.321
 2637SOL    HW2 8811   5.194   5.524   2.450
 2638SOL     OW 8812   5.308   5.569   0.327
 2638SOL    HW1 8813   5.220   5.615   0.318
 2638SOL    HW2 8814   5.361   5.580   0.242
 2639SOL     OW 8815   6.799   0.259   0.192
 2639SOL    HW1 8816   6.834   0.201   0.118
 2639SOL    HW2 8817   6.851   0.240   0.276
 2640SOL     OW 8818   6.803   6.088   6.833
 2640SOL    HW1 8819   6.704   6.075   6.844
 2640SOL    HW2 8820   6.830   6.174   6.876
 2641SOL     OW 8821   0.186   5.750   1.043
 2641SOL    HW1 8822   0.184   5.650   1.036
 2641SOL    HW2 8823   0.141   5.778   1.128
 2642SOL     OW 8824   6.514   0.198   4.346
 2642SOL    HW1 8825   6.510   0.179   4.248
 2642SOL    HW2 8826   6.496   0.295   4.362
 2643SOL     OW 8827   1.982   0.540   2.229
 2643SOL    HW1 8828   1.909   0.492   2.278
 2643SOL    HW2 8829   2.012   0.619   2.282
 2644SOL     OW 8830   5.877   6.193   4.487
 2644SOL    HW1 8831   5.969   6.199   4.449
 2644SOL    HW2 8832   5.868   6.258   4.563
 2645SOL     OW 8833   5.056   5.866   6.815
 2645SOL    HW1 8834   5.057   5.948   6.873
 2645SOL    HW2 8835   5.099   5.790   6.863
 2646SOL     OW 8836   5.536   5.894   5.684
 2646SOL    HW1 8837   5.487   5.809   5.704
 2646SOL    HW2 8838   5.510   5.964   5.751
 2647SOL     OW 8839   3.349   4.048   0.495
 2647SOL    HW1 8840   3.378   4.102   0.574
 2647SOL    HW2 8841   3.291   4.104   0.436
 2648SOL     OW 8842   4.175   1.226   3.903
 2648SOL    HW1 8843   4.223   1.141   3.880
 2648SOL    HW2 8844   4.098   1.206   3.963
 2649SOL     OW 8845   3.091   4.097   5.211
 2649SOL    HW1 8846   3.030   4.170   5.242
 2649SOL    HW2 8847   3.074   4.015   5.266
 2650SOL     OW 8848   0.560   6.895   2.929
 2650SOL    HW1 8849   0.465   6.925   2.913
 2650SOL    HW2 8850   0.612   6.970   2.970
 2651SOL     OW 8851   1.103   0.060   3.053
 2651SOL    HW1 8852   1.192   0.099   3.031
 2651SOL    HW2 8853   1.031   0.125   3.028
 2652SOL     OW 8854   3.154   2.890   2.223
 2652SOL    HW1 8855   3.249   2.921   2.229
 2652SOL    HW2 8856   3.150   2.790   2.225
 2653SOL     OW 8857   6.243   6.504   1.269
 2653SOL    HW1 8858   6.282   6.588   1.229
 2653SOL    HW2 8859   6.190   6.456   1.199
 2654SOL     OW 8860   6.856   3.098   5.968
 2654SOL    HW1 8861   6.768   3.131   5.933
 2654SOL    HW2 8862   6.848   3.079   6.066
 2655SOL     OW 8863   5.739   4.970   4.188
 2655SOL    HW1 8864   5.747   5.011   4.097
 2655SOL    HW2 8865   5.823   4.988   4.240
 2656SOL     OW 8866   6.391   3.347   5.475
 2656SOL    HW1 8867   6.390   3.252   5.442
 2656SOL    HW2 8868   6.353   3.407   5.404
 2657SOL     OW 8869   4.037   2.393   5.595
 2657SOL    HW1 8870   4.017   2.385   5.498
 2657SOL    HW2 8871   4.053   2.303   5.634
 2658SOL     OW 8872   6.812   4.121   5.348
 2658SOL    HW1 8873   6.730   4.107   5.404
 2658SOL    HW2 8874   6.789   4.114   5.252
 2659SOL     OW 8875   6.789   1.129   3.971
 2659SOL    HW1 8876   6.779   1.223   3.938
 2659SOL    HW2 8877   6.721   1.111   4.042
 2660SOL     OW 8878   0.988   2.036   3.769
 2660SOL    HW1 8879   0.954   1.996   3.854
 2660SOL    HW2 8880   0.997   1.964   3.700
 2661SOL     OW 8881   3.501   0.021   3.365
 2661SOL    HW1 8882   3.511   6.965   3.427
 2661SOL    HW2 8883   3.443   7.017   3.288
 2662SOL     OW 8884   3.637   0.794   4.182
 2662SOL    HW1 8885   3.666   0.789   4.087
 2662SOL    HW2 8886   3.623   0.890   4.208
 2663SOL     OW 8887   1.043   3.885   2.919
 2663SOL    HW1 8888   0.955   3.862   2.959
 2663SOL    HW2 8889   1.056   3.832   2.835
 2664SOL     OW 8890   4.629   4.348   1.712
 2664SOL    HW1 8891   4.590   4.306   1.794
 2664SOL    HW2 8892   4.568   4.420   1.679
 2665SOL     OW 8893   4.857   0.940   4.919
 2665SOL    HW1 8894   4.931   0.955   4.853
 2665SOL    HW2 8895   4.769   0.946   4.873
 2666SOL     OW 8896   5.038   6.015   1.907
 2666SOL    HW1 8897   5.015   6.023   1.810
 2666SOL    HW2 8898   4.993   5.935   1.946
 2667SOL     OW 8899   2.103   4.718   2.424
 2667SOL    HW1 8900   2.055   4.648   2.477
 2667SOL    HW2 8901   2.035   4.776   2.378
 2668SOL     OW 8902   6.716   2.637   5.470
 2668SOL    HW1 8903   6.700   2.727   5.509
 2668SOL    HW2 8904   6.747   2.647   5.375
 2669SOL     OW 8905   4.207   5.947   4.528
 2669SOL    HW1 8906   4.137   5.990   4.585
 2669SOL    HW2 8907   4.228   5.856   4.564
 2670SOL     OW 8908   2.277   6.601   4.345
 2670SOL    HW1 8909   2.319   6.513   4.326
 2670SOL    HW2 8910   2.190   6.608   4.295
 2671SOL     OW 8911   3.143   3.713   6.939
 2671SOL    HW1 8912   3.156   3.707   0.016
 2671SOL    HW2 8913   3.052   3.749   6.920
 2672SOL     OW 8914   0.803   4.660   0.660
 2672SOL    HW1 8915   0.841   4.705   0.578
 2672SOL    HW2 8916   0.705   4.647   0.647
 2673SOL     OW 8917   3.716   2.107   2.930
 2673SOL    HW1 8918   3.653   2.036   2.959
 2673SOL    HW2 8919   3.783   2.125   3.003
 2674SOL     OW 8920   5.206   5.972   5.062
 2674SOL    HW1 8921   5.107   5.962   5.056
 2674SOL    HW2 8922   5.230   6.017   5.149
 2675SOL     OW 8923   0.083   5.197   5.560
 2675SOL    HW1 8924   0.121   5.282   5.598
 2675SOL    HW2 8925   0.142   5.120   5.583
 2676SOL     OW 8926   4.563   0.338   1.540
 2676SOL    HW1 8927   4.663   0.341   1.542
 2676SOL    HW2 8928   4.533   0.286   1.460
 2677SOL     OW 8929   2.458   4.979   2.001
 2677SOL    HW1 8930   2.507   4.904   2.046
 2677SOL    HW2 8931   2.478   4.977   1.903
 2678SOL     OW 8932   0.512   6.708   6.801
 2678SOL    HW1 8933   0.461   6.733   6.718
 2678SOL    HW2 8934   0.522   6.789   6.859
 2679SOL     OW 8935   2.236   4.878   1.715
 2679SOL    HW1 8936   2.190   4.906   1.799
 2679SOL    HW2 8937   2.280   4.957   1.672
 2680SOL     OW 8938   0.017   2.100   1.249
 2680SOL    HW1 8939   6.984   2.125   1.169
 2680SOL    HW2 8940   0.108   2.072   1.219
 2681SOL     OW 8941   1.968   2.381   1.408
 2681SOL    HW1 8942   2.036   2.410   1.340
 2681SOL    HW2 8943   1.999   2.405   1.499
 2682SOL     OW 8944   0.326   2.801   3.898
 2682SOL    HW1 8945   0.361   2.715   3.862
 2682SOL    HW2 8946   0.349   2.875   3.835
 2683SOL     OW 8947   1.532   0.009   0.428
 2683SOL    HW1 8948   1.619   7.002   0.469
 2683SOL    HW2 8949   1.457   7.006   0.488
 2684SOL     OW 8950   2.129   5.115   3.004
 2684SOL    HW1 8951   2.183   5.159   3.076
 2684SOL    HW2 8952   2.035   5.101   3.036
 2685SOL     OW 8953   5.136   5.222   5.707
 2685SOL    HW1 8954   5.072   5.147   5.690
 2685SOL    HW2 8955   5.106   5.304   5.658
 2686SOL     OW 8956   1.065   3.481   4.726
 2686SOL    HW1 8957   1.159   3.500   4.756
 2686SOL    HW2 8958   1.029   3.562   4.679
 2687SOL     OW 8959   4.768   5.111   3.109
 2687SOL    HW1 8960   4.680   5.082   3.072
 2687SOL    HW2 8961   4.805   5.040   3.168
 2688SOL     OW 8962   3.447   4.541   5.323
 2688SOL    HW1 8963   3.492   4.454   5.343
 2688SOL    HW2 8964   3.348   4.528   5.322
 2689SOL     OW 8965   6.132   1.997   4.045
 2689SOL    HW1 8966   6.220   1.949   4.047
 2689SOL    HW2 8967   6.142   2.087   4.086
 2690SOL     OW 8968   3.148   4.092   3.652
 2690SOL    HW1 8969   3.234   4.070   3.698
 2690SOL    HW2 8970   3.092   4.148   3.712
 2691SOL     OW 8971   1.411   5.821   1.367
 2691SOL    HW1 8972   1.449   5.902   1.323
 2691SOL    HW2 8973   1.395   5.840   1.464
 2692SOL     OW 8974   6.778   4.154   3.934
 2692SOL    HW1 8975   6.780   4.136   4.033
 2692SOL    HW2 8976   6.685   4.142   3.901
 2693SOL     OW 8977   2.100   3.795   2.396
 2693SOL    HW1 8978   2.164   3.837   2.332
 2693SOL    HW2 8979   2.007   3.825   2.374
 2694SOL     OW 8980   2.148   1.493   2.957
 2694SOL    HW1 8981   2.176   1.502   2.861
 2694SOL    HW2 8982   2.166   1.579   3.005
 2695SOL     OW 8983   4.219   2.148   1.950
 2695SOL    HW1 8984   4.234   2.240   1.915
 2695SOL    HW2 8985   4.124   2.140   1.981
 2696SOL     OW 8986   3.718   3.532   6.303
 2696SOL    HW1 8987   3.776   3.481   6.366
 2696SOL    HW2 8988   3.743   3.509   6.209
 2697SOL     OW 8989   2.666   1.048   5.177
 2697SOL    HW1 8990   2.626   1.002   5.257
 2697SOL    HW2 8991   2.604   1.120   5.146
 2698SOL     OW 8992   1.462   1.617   6.906
 2698SOL    HW1 8993   1.550   1.589   6.946
 2698SOL    HW2 8994   1.388   1.589   6.967
 2699SOL     OW 8995   1.554   4.927   4.019
 2699SOL    HW1 8996   1.503   4.957   3.937
 2699SOL    HW2 8997   1.490   4.890   4.086
 2700SOL     OW 8998   2.379   4.539   2.722
 2700SOL    HW1 8999   2.382   4.480   2.802
 2700SOL    HW2 9000   2.418   4.491   2.643
 2701SOL     OW 9001   2.325   0.573   5.359
 2701SOL    HW1 9002   2.237   0.543   5.395
 2701SOL    HW2 9003   2.317   0.589   5.260
 2702SOL     OW 9004   5.773   6.533   2.957
 2702SOL    HW1 9005   5.768   6.583   3.043
 2702SOL    HW2 9006   5.854   6.474   2.958
 2703SOL     OW 9007   1.870   2.470   2.592
 2703SOL    HW1 9008   1.965   2.487   2.566
 2703SOL    HW2 9009   1.858   2.493   2.689
 2704SOL     OW 9010   0.999   6.551   0.608
 2704SOL    HW1 9011   1.014   6.474   0.670
 2704SOL    HW2 9012   1.084   6.571   0.559
 2705SOL     OW 9013   0.235   3.046   2.608
 2705SOL    HW1 9014   0.198   3.104   2.680
 2705SOL    HW2 9015   0.264   3.102   2.531
 2706SOL     OW 9016   6.629   2.548   3.767
 2706SOL    HW1 9017   6.603   2.493   3.687
 2706SOL    HW2 9018   6.547   2.574   3.817
 2707SOL     OW 9019   3.344   1.017   6.921
 2707SOL    HW1 9020   3.438   0.998   6.950
 2707SOL    HW2 9021   3.332   0.989   6.826
 2708SOL     OW 9022   1.549   4.744   6.741
 2708SOL    HW1 9023   1.577   4.741   6.645
 2708SOL    HW2 9024   1.472   4.683   6.755
 2709SOL     OW 9025   4.049   0.221   1.916
 2709SOL    HW1 9026   4.137   0.254   1.951
 2709SOL    HW2 9027   4.001   0.171   1.988
 2710SOL     OW 9028   6.053   4.505   3.239
 2710SOL    HW1 9029   6.034   4.515   3.336
 2710SOL    HW2 9030   6.132   4.445   3.227
 2711SOL     OW 9031   1.037   6.584   2.005
 2711SOL    HW1 9032   1.043   6.520   1.928
 2711SOL    HW2 9033   0.941   6.595   2.031
 2712SOL     OW 9034   2.699   5.499   2.621
 2712SOL    HW1 9035   2.735   5.480   2.713
 2712SOL    HW2 9036   2.642   5.581   2.624
 2713SOL     OW 9037   2.222   3.002   5.660
 2713SOL    HW1 9038   2.263   3.047   5.740
 2713SOL    HW2 9039   2.200   3.070   5.591
 2714SOL     OW 9040   5.881   0.544   0.457
 2714SOL    HW1 9041   5.945   0.544   0.380
 2714SOL    HW2 9042   5.794   0.584   0.429
 2715SOL     OW 9043   6.016   0.597   0.700
 2715SOL    HW1 9044   5.958   0.617   0.779
 2715SOL    HW2 9045   5.959   0.590   0.618
 2716SOL     OW 9046   6.133   6.296   2.272
 2716SOL    HW1 9047   6.204   6.349   2.319
 2716SOL    HW2 9048   6.061   6.358   2.241
 2717SOL     OW 9049   0.520   0.016   3.229
 2717SOL    HW1 9050   0.600   0.057   3.186
 2717SOL    HW2 9051   0.505   0.058   3.318
 2718SOL     OW 9052   6.632   3.810   3.070
 2718SOL    HW1 9053   6.677   3.883   3.121
 2718SOL    HW2 9054   6.541   3.841   3.041
 2719SOL     OW 9055   4.085   4.700   2.967
 2719SOL    HW1 9056   4.120   4.721   2.875
 2719SOL    HW2 9057   3.991   4.733   2.974
 2720SOL     OW 9058   0.732   6.511   4.439
 2720SOL    HW1 9059   0.711   6.456   4.520
 2720SOL    HW2 9060   0.746   6.450   4.360
 2721SOL     OW 9061   4.918   6.176   3.289
 2721SOL    HW1 9062   4.877   6.259   3.327
 2721SOL    HW2 9063   5.001   6.153   3.340
 2722SOL     OW 9064   0.591   5.793   2.141
 2722SOL    HW1 9065   0.524   5.729   2.181
 2722SOL    HW2 9066   0.665   5.740   2.099
 2723SOL     OW 9067   1.647   2.248   4.045
 2723SOL    HW1 9068   1.720   2.181   4.029
 2723SOL    HW2 9069   1.686   2.340   4.045
 2724SOL     OW 9070   4.468   5.964   5.907
 2724SOL    HW1 9071   4.446   6.045   5.853
 2724SOL    HW2 9072   4.515   5.990   5.991
 2725SOL     OW 9073   2.214   4.751   2.770
 2725SOL    HW1 9074   2.256   4.807   2.841
 2725SOL    HW2 9075   2.269   4.669   2.755
 2726SOL     OW 9076   3.896   6.107   2.653
 2726SOL    HW1 9077   3.938   6.191   2.619
 2726SOL    HW2 9078   3.965   6.034   2.658
 2727SOL     OW 9079   2.285   5.894   4.266
 2727SOL    HW1 9080   2.235   5.820   4.222
 2727SOL    HW2 9081   2.347   5.936   4.200
 2728SOL     OW 9082   2.544   6.536   5.753
 2728SOL    HW1 9083   2.545   6.472   5.831
 2728SOL    HW2 9084   2.637   6.567   5.735
 2729SOL     OW 9085   0.190   4.624   2.445
 2729SOL    HW1 9086   0.225   4.669   2.527
 2729SOL    HW2 9087   0.092   4.605   2.457
 2730SOL     OW 9088   1.936   3.709   1.238
 2730SOL    HW1 9089   1.839   3.725   1.220
 2730SOL    HW2 9090   1.953   3.611   1.250
 2731SOL     OW 9091   2.357   3.124   0.124
 2731SOL    HW1 9092   2.414   3.082   0.195
 2731SOL    HW2 9093   2.268   3.147   0.162
 2732SOL     OW 9094   5.911   3.290   4.509
 2732SOL    HW1 9095   5.926   3.351   4.432
 2732SOL    HW2 9096   5.893   3.345   4.591
 2733SOL     OW 9097   2.005   0.599   0.416
 2733SOL    HW1 9098   1.979   0.517   0.366
 2733SOL    HW2 9099   2.073   0.575   0.486
 2734SOL     OW 9100   2.195   0.230   4.272
 2734SOL    HW1 9101   2.105   0.268   4.249
 2734SOL    HW2 9102   2.186   0.132   4.289
 2735SOL     OW 9103   1.715   5.299   1.452
 2735SOL    HW1 9104   1.650   5.256   1.515
 2735SOL    HW2 9105   1.760   5.375   1.498
 2736SOL     OW 9106   4.226   0.350   6.561
 2736SOL    HW1 9107   4.178   0.275   6.606
 2736SOL    HW2 9108   4.191   0.362   6.468
 2737SOL     OW 9109   4.288   4.048   5.461
 2737SOL    HW1 9110   4.227   3.987   5.511
 2737SOL    HW2 9111   4.239   4.090   5.384
 2738SOL     OW 9112   6.751   4.236   4.391
 2738SOL    HW1 9113   6.834   4.187   4.367
 2738SOL    HW2 9114   6.751   4.258   4.488
 2739SOL     OW 9115   4.637   3.630   6.708
 2739SOL    HW1 9116   4.632   3.639   6.807
 2739SOL    HW2 9117   4.666   3.537   6.685
 2740SOL     OW 9118   5.954   2.633   4.559
 2740SOL    HW1 9119   5.957   2.603   4.655
 2740SOL    HW2 9120   6.016   2.711   4.547
 2741SOL     OW 9121   2.167   3.447   5.566
 2741SOL    HW1 9122   2.169   3.458   5.467
 2741SOL    HW2 9123   2.260   3.458   5.602
 2742SOL     OW 9124   3.017   6.312   5.622
 2742SOL    HW1 9125   3.035   6.229   5.570
 2742SOL    HW2 9126   3.080   6.384   5.592
 2743SOL     OW 9127   6.064   4.114   6.312
 2743SOL    HW1 9128   6.119   4.185   6.269
 2743SOL    HW2 9129   6.061   4.033   6.252
 2744SOL     OW 9130   4.816   6.872   1.282
 2744SOL    HW1 9131   4.880   6.924   1.224
 2744SOL    HW2 9132   4.780   6.794   1.231
 2745SOL     OW 9133   3.238   5.922   1.967
 2745SOL    HW1 9134   3.175   5.845   1.973
 2745SOL    HW2 9135   3.188   6.003   1.936
 2746SOL     OW 9136   1.071   2.250   0.035
 2746SOL    HW1 9137   1.167   2.275   0.036
 2746SOL    HW2 9138   1.020   2.308   0.098
 2747SOL     OW 9139   5.017   5.880   4.030
 2747SOL    HW1 9140   4.950   5.927   3.974
 2747SOL    HW2 9141   5.109   5.893   3.991
 2748SOL     OW 9142   5.381   1.317   4.895
 2748SOL    HW1 9143   5.449   1.244   4.900
 2748SOL    HW2 9144   5.290   1.277   4.896
 2749SOL     OW 9145   5.596   4.793   3.133
 2749SOL    HW1 9146   5.613   4.694   3.135
 2749SOL    HW2 9147   5.681   4.841   3.110
 2750SOL     OW 9148   0.642   0.089   0.368
 2750SOL    HW1 9149   0.640   7.011   0.373
 2750SOL    HW2 9150   0.716   0.124   0.426
 2751SOL     OW 9151   1.201   0.255   6.573
 2751SOL    HW1 9152   1.115   0.221   6.612
 2751SOL    HW2 9153   1.243   0.184   6.516
 2752SOL     OW 9154   0.487   6.596   6.325
 2752SOL    HW1 9155   0.474   6.497   6.331
 2752SOL    HW2 9156   0.578   6.615   6.289
 2753SOL     OW 9157   3.175   5.476   4.385
 2753SOL    HW1 9158   3.155   5.379   4.398
 2753SOL    HW2 9159   3.177   5.521   4.474
 2754SOL     OW 9160   1.198   5.374   3.904
 2754SOL    HW1 9161   1.148   5.336   3.826
 2754SOL    HW2 9162   1.236   5.462   3.878
 2755SOL     OW 9163   4.567   6.551   2.715
 2755SOL    HW1 9164   4.494   6.489   2.743
 2755SOL    HW2 9165   4.549   6.643   2.749
 2756SOL     OW 9166   0.059   2.729   5.239
 2756SOL    HW1 9167   0.081   2.800   5.306
 2756SOL    HW2 9168   0.127   2.730   5.166
 2757SOL     OW 9169   5.021   4.061   5.761
 2757SOL    HW1 9170   5.099   4.007   5.792
 2757SOL    HW2 9171   4.997   4.035   5.668
 2758SOL     OW 9172   0.389   6.699   1.660
 2758SOL    HW1 9173   0.391   6.599   1.657
 2758SOL    HW2 9174   0.415   6.730   1.751
 2759SOL     OW 9175   3.922   3.891   4.919
 2759SOL    HW1 9176   3.957   3.807   4.961
 2759SOL    HW2 9177   3.926   3.965   4.985
 2760SOL     OW 9178   5.091   5.504   2.805
 2760SOL    HW1 9179   5.127   5.427   2.859
 2760SOL    HW2 9180   5.045   5.568   2.866
 2761SOL     OW 9181   2.044   3.388   3.774
 2761SOL    HW1 9182   2.105   3.316   3.808
 2761SOL    HW2 9183   2.050   3.468   3.834
 2762SOL     OW 9184   4.617   1.425   2.384
 2762SOL    HW1 9185   4.620   1.444   2.286
 2762SOL    HW2 9186   4.592   1.509   2.433
 2763SOL     OW 9187   5.273   1.077   3.922
 2763SOL    HW1 9188   5.191   1.125   3.893
 2763SOL    HW2 9189   5.284   1.087   4.021
 2764SOL     OW 9190   0.147   2.155   2.899
 2764SOL    HW1 9191   0.113   2.213   2.974
 2764SOL    HW2 9192   0.201   2.210   2.836
 2765SOL     OW 9193   0.205   6.707   0.105
 2765SOL    HW1 9194   0.147   6.788   0.110
 2765SOL    HW2 9195   0.186   6.659   0.019
 2766SOL     OW 9196   4.787   0.578   0.426
 2766SOL    HW1 9197   4.761   0.582   0.329
 2766SOL    HW2 9198   4.865   0.518   0.437
 2767SOL     OW 9199   0.544   6.030   5.887
 2767SOL    HW1 9200   0.528   6.120   5.927
 2767SOL    HW2 9201   0.469   6.008   5.825
 2768SOL     OW 9202   3.855   0.197   1.738
 2768SOL    HW1 9203   3.857   0.294   1.714
 2768SOL    HW2 9204   3.933   0.175   1.796
 2769SOL     OW 9205   0.533   4.886   5.717
 2769SOL    HW1 9206   0.546   4.985   5.726
 2769SOL    HW2 9207   0.592   4.839   5.782
 2770SOL     OW 9208   2.493   6.430   0.660
 2770SOL    HW1 9209   2.407   6.384   0.683
 2770SOL    HW2 9210   2.570   6.368   0.677
 2771SOL     OW 9211   4.165   6.352   5.724
 2771SOL    HW1 9212   4.066   6.347   5.721
 2771SOL    HW2 9213   4.203   6.260   5.711
 2772SOL     OW 9214   6.147   1.588   3.041
 2772SOL    HW1 9215   6.240   1.552   3.046
 2772SOL    HW2 9216   6.146   1.672   2.987
 2773SOL     OW 9217   5.505   1.802   5.930
 2773SOL    HW1 9218   5.518   1.723   5.990
 2773SOL    HW2 9219   5.480   1.881   5.985
 2774SOL     OW 9220   6.597   0.332   3.490
 2774SOL    HW1 9221   6.547   0.418   3.499
 2774SOL    HW2 9222   6.575   0.272   3.567
 2775SOL     OW 9223   6.735   2.013   4.544
 2775SOL    HW1 9224   6.684   2.092   4.510
 2775SOL    HW2 9225   6.831   2.038   4.557
 2776SOL     OW 9226   4.968   3.819   6.012
 2776SOL    HW1 9227   5.033   3.813   5.937
 2776SOL    HW2 9228   4.889   3.873   5.983
 2777SOL     OW 9229   1.440   1.692   0.416
 2777SOL    HW1 9230   1.375   1.732   0.352
 2777SOL    HW2 9231   1.533   1.708   0.383
 2778SOL     OW 9232   2.528   6.279   5.854
 2778SOL    HW1 9233   2.627   6.273   5.864
 2778SOL    HW2 9234   2.483   6.235   5.931
 2779SOL     OW 9235   5.267   0.975   3.566
 2779SOL    HW1 9236   5.232   1.051   3.511
 2779SOL    HW2 9237   5.353   0.943   3.527
 2780SOL     OW 9238   0.701   0.437   5.351
 2780SOL    HW1 9239   0.759   0.408   5.275
 2780SOL    HW2 9240   0.608   0.453   5.319
 2781SOL     OW 9241   6.986   0.381   3.178
 2781SOL    HW1 9242   6.896   0.366   3.137
 2781SOL    HW2 9243   6.975   0.410   3.273
 2782SOL     OW 9244   5.838   6.605   4.956
 2782SOL    HW1 9245   5.934   6.624   4.932
 2782SOL    HW2 9246   5.807   6.671   5.024
 2783SOL     OW 9247   6.369   2.598   1.848
 2783SOL    HW1 9248   6.397   2.678   1.902
 2783SOL    HW2 9249   6.448   2.564   1.796
 2784SOL     OW 9250   0.915   2.331   1.911
 2784SOL    HW1 9251   0.940   2.285   1.826
 2784SOL    HW2 9252   0.929   2.429   1.902
 2785SOL     OW 9253   5.239   3.806   3.705
 2785SOL    HW1 9254   5.144   3.782   3.690
 2785SOL    HW2 9255   5.263   3.886   3.650
 2786SOL     OW 9256   6.884   5.625   0.739
 2786SOL    HW1 9257   6.941   5.562   0.687
 2786SOL    HW2 9258   6.941   5.686   0.793
 2787SOL     OW 9259   0.436   6.945   6.128
 2787SOL    HW1 9260   0.461   0.017   6.107
 2787SOL    HW2 9261   0.519   6.892   6.146
 2788SOL     OW 9262   2.935   6.516   0.207
 2788SOL    HW1 9263   2.911   6.504   0.111
 2788SOL    HW2 9264   2.878   6.457   0.263
 2789SOL     OW 9265   2.007   1.974   3.517
 2789SOL    HW1 9266   1.932   1.922   3.558
 2789SOL    HW2 9267   2.094   1.936   3.546
 2790SOL     OW 9268   0.671   4.840   1.387
 2790SOL    HW1 9269   0.672   4.851   1.486
 2790SOL    HW2 9270   0.763   4.817   1.355
 2791SOL     OW 9271   0.350   3.278   5.276
 2791SOL    HW1 9272   0.258   3.273   5.315
 2791SOL    HW2 9273   0.401   3.353   5.318
 2792SOL     OW 9274   2.904   2.722   6.760
 2792SOL    HW1 9275   2.845   2.701   6.682
 2792SOL    HW2 9276   2.894   2.650   6.829
 2793SOL     OW 9277   4.272   3.635   6.223
 2793SOL    HW1 9278   4.261   3.544   6.263
 2793SOL    HW2 9279   4.241   3.704   6.289
 2794SOL     OW 9280   1.344   2.023   6.810
 2794SOL    HW1 9281   1.344   1.955   6.883
 2794SOL    HW2 9282   1.413   1.998   6.742
 2795SOL     OW 9283   1.293   0.057   0.619
 2795SOL    HW1 9284   1.236   0.028   0.696
 2795SOL    HW2 9285   1.360   0.124   0.651
 2796SOL     OW 9286   3.092   5.778   0.136
 2796SOL    HW1 9287   3.146   5.862   0.143
 2796SOL    HW2 9288   3.036   5.781   0.053
 2797SOL     OW 9289   5.008   4.124   4.547
 2797SOL    HW1 9290   5.037   4.204   4.598
 2797SOL    HW2 9291   4.946   4.069   4.603
 2798SOL     OW 9292   5.408   2.842   1.621
 2798SOL    HW1 9293   5.402   2.787   1.704
 2798SOL    HW2 9294   5.489   2.816   1.569
 2799SOL     OW 9295   3.309   0.093   4.655
 2799SOL    HW1 9296   3.272   0.018   4.710
 2799SOL    HW2 9297   3.369   0.056   4.585
 2800SOL     OW 9298   5.043   1.455   6.626
 2800SOL    HW1 9299   5.032   1.555   6.624
 2800SOL    HW2 9300   5.035   1.423   6.720
 2801SOL     OW 9301   0.057   4.143   3.553
 2801SOL    HW1 9302   0.059   4.230   3.503
 2801SOL    HW2 9303   0.084   4.158   3.648
 2802SOL     OW 9304   1.751   4.324   4.284
 2802SOL    HW1 9305   1.696   4.374   4.217
 2802SOL    HW2 9306   1.801   4.389   4.341
 2803SOL     OW 9307   3.458   2.828   6.682
 2803SOL    HW1 9308   3.501   2.791   6.599
 2803SOL    HW2 9309   3.385   2.767   6.712
 2804SOL     OW 9310   5.736   2.176   3.596
 2804SOL    HW1 9311   5.647   2.192   3.637
 2804SOL    HW2 9312   5.742   2.225   3.509
 2805SOL     OW 9313   4.221   5.540   0.284
 2805SOL    HW1 9314   4.279   5.601   0.339
 2805SOL    HW2 9315   4.162   5.486   0.344
 2806SOL     OW 9316   0.867   3.124   4.915
 2806SOL    HW1 9317   0.841   3.165   4.828
 2806SOL    HW2 9318   0.817   3.169   4.989
 2807SOL     OW 9319   4.394   1.381   3.953
 2807SOL    HW1 9320   4.310   1.330   3.938
 2807SOL    HW2 9321   4.473   1.321   3.943
 2808SOL     OW 9322   0.880   6.079   6.653
 2808SOL    HW1 9323   0.884   6.022   6.735
 2808SOL    HW2 9324   0.946   6.154   6.660
 2809SOL     OW 9325   1.571   6.336   0.744
 2809SOL    HW1 9326   1.620   6.252   0.767
 2809SOL    HW2 9327   1.592   6.407   0.812
 2810SOL     OW 9328   0.416   6.296   2.566
 2810SOL    HW1 9329   0.436   6.358   2.642
 2810SOL    HW2 9330   0.371   6.214   2.602
 2811SOL     OW 9331   0.553   0.119   0.818
 2811SOL    HW1 9332   0.564   0.216   0.797
 2811SOL    HW2 9333   0.642   0.073   0.812
 2812SOL     OW 9334   1.620   1.254   0.989
 2812SOL    HW1 9335   1.544   1.259   1.054
 2812SOL    HW2 9336   1.690   1.191   1.025
 2813SOL     OW 9337   6.011   2.167   1.275
 2813SOL    HW1 9338   6.049   2.190   1.186
 2813SOL    HW2 9339   6.058   2.087   1.312
 2814SOL     OW 9340   2.001   4.304   6.660
 2814SOL    HW1 9341   1.950   4.377   6.614
 2814SOL    HW2 9342   2.071   4.344   6.718
 2815SOL     OW 9343   6.520   6.231   4.640
 2815SOL    HW1 9344   6.607   6.211   4.683
 2815SOL    HW2 9345   6.472   6.302   4.692
 2816SOL     OW 9346   1.091   5.293   4.917
 2816SOL    HW1 9347   1.122   5.248   5.001
 2816SOL    HW2 9348   1.079   5.225   4.845
 2817SOL     OW 9349   2.537   0.795   1.724
 2817SOL    HW1 9350   2.624   0.783   1.772
 2817SOL    HW2 9351   2.520   0.715   1.666
 2818SOL     OW 9352   1.768   1.209   0.202
 2818SOL    HW1 9353   1.793   1.190   0.107
 2818SOL    HW2 9354   1.690   1.272   0.204
 2819SOL     OW 9355   6.219   0.365   6.564
 2819SOL    HW1 9356   6.239   0.365   6.661
 2819SOL    HW2 9357   6.124   0.393   6.549
 2820SOL     OW 9358   1.867   1.591   0.458
 2820SOL    HW1 9359   1.867   1.573   0.360
 2820SOL    HW2 9360   1.929   1.528   0.504
 2821SOL     OW 9361   3.593   2.153   6.053
 2821SOL    HW1 9362   3.553   2.183   6.140
 2821SOL    HW2 9363   3.547   2.070   6.022
 2822SOL     OW 9364   4.414   2.878   1.462
 2822SOL    HW1 9365   4.348   2.844   1.395
 2822SOL    HW2 9366   4.476   2.805   1.489
 2823SOL     OW 9367   5.425   4.258   3.032
 2823SOL    HW1 9368   5.455   4.216   3.117
 2823SOL    HW2 9369   5.405   4.187   2.965
 2824SOL     OW 9370   0.654   4.405   5.301
 2824SOL    HW1 9371   0.583   4.335   5.293
 2824SOL    HW2 9372   0.734   4.367   5.347
 2825SOL     OW 9373   4.825   2.256   5.409
 2825SOL    HW1 9374   4.919   2.290   5.419
 2825SOL    HW2 9375   4.807   2.187   5.479
 2826SOL     OW 9376   3.030   3.480   6.854
 2826SOL    HW1 9377   3.080   3.403   6.815
 2826SOL    HW2 9378   3.090   3.561   6.856
 2827SOL     OW 9379   6.385   1.897   0.305
 2827SOL    HW1 9380   6.392   1.800   0.330
 2827SOL    HW2 9381   6.372   1.952   0.387
 2828SOL     OW 9382   1.823   4.499   0.251
 2828SOL    HW1 9383   1.859   4.480   0.343
 2828SOL    HW2 9384   1.873   4.576   0.211
 2829SOL     OW 9385   3.590   4.266   1.248
 2829SOL    HW1 9386   3.494   4.240   1.256
 2829SOL    HW2 9387   3.629   4.224   1.166
 2830SOL     OW 9388   2.799   5.481   4.450
 2830SOL    HW1 9389   2.810   5.566   4.399
 2830SOL    HW2 9390   2.844   5.406   4.401
 2831SOL     OW 9391   6.129   1.692   1.960
 2831SOL    HW1 9392   6.055   1.633   1.927
 2831SOL    HW2 9393   6.106   1.787   1.942
 2832SOL     OW 9394   1.931   4.029   1.695
 2832SOL    HW1 9395   2.015   3.975   1.692
 2832SOL    HW2 9396   1.947   4.119   1.654
 2833SOL     OW 9397   6.352   2.593   3.443
 2833SOL    HW1 9398   6.342   2.643   3.528
 2833SOL    HW2 9399   6.315   2.647   3.367
 2834SOL     OW 9400   2.876   0.825   4.306
 2834SOL    HW1 9401   2.818   0.878   4.366
 2834SOL    HW2 9402   2.847   0.729   4.307
 2835SOL     OW 9403   6.542   1.403   0.692
 2835SOL    HW1 9404   6.478   1.395   0.768
 2835SOL    HW2 9405   6.492   1.398   0.605
 2836SOL     OW 9406   3.283   6.079   1.489
 2836SOL    HW1 9407   3.306   6.042   1.399
 2836SOL    HW2 9408   3.303   6.010   1.559
 2837SOL     OW 9409   5.073   3.802   2.961
 2837SOL    HW1 9410   5.113   3.820   2.871
 2837SOL    HW2 9411   4.991   3.857   2.973
 2838SOL     OW 9412   0.089   4.021   6.058
 2838SOL    HW1 9413   0.038   4.107   6.047
 2838SOL    HW2 9414   0.096   3.975   5.970
 2839SOL     OW 9415   5.501   2.759   6.286
 2839SOL    HW1 9416   5.457   2.833   6.234
 2839SOL    HW2 9417   5.579   2.724   6.233
 2840SOL     OW 9418   6.535   5.911   4.798
 2840SOL    HW1 9419   6.490   5.967   4.867
 2840SOL    HW2 9420   6.489   5.822   4.792
 2841SOL     OW 9421   5.524   3.503   3.372
 2841SOL    HW1 9422   5.462   3.499   3.295
 2841SOL    HW2 9423   5.502   3.431   3.437
 2842SOL     OW 9424   0.824   6.363   3.525
 2842SOL    HW1 9425   0.832   6.284   3.587
 2842SOL    HW2 9426   0.790   6.442   3.575
 2843SOL     OW 9427   0.984   2.636   4.248
 2843SOL    HW1 9428   1.072   2.592   4.231
 2843SOL    HW2 9429   0.958   2.622   4.344
 2844SOL     OW 9430   5.658   3.988   0.139
 2844SOL    HW1 9431   5.649   4.087   0.126
 2844SOL    HW2 9432   5.676   3.944   0.051
 2845SOL     OW 9433   3.803   1.750   1.252
 2845SOL    HW1 9434   3.785   1.734   1.154
 2845SOL    HW2 9435   3.772   1.842   1.276
 2846SOL     OW 9436   4.978   0.449   6.348
 2846SOL    HW1 9437   5.028   0.491   6.272
 2846SOL    HW2 9438   4.880   0.467   6.339
 2847SOL     OW 9439   5.925   4.667   2.369
 2847SOL    HW1 9440   5.999   4.625   2.422
 2847SOL    HW2 9441   5.931   4.766   2.375
 2848SOL     OW 9442   0.490   3.535   0.345
 2848SOL    HW1 9443   0.589   3.545   0.337
 2848SOL    HW2 9444   0.469   3.472   0.420
 2849SOL     OW 9445   5.271   0.623   1.066
 2849SOL    HW1 9446   5.273   0.697   0.999
 2849SOL    HW2 9447   5.185   0.626   1.116
 2850SOL     OW 9448   6.995   1.082   0.818
 2850SOL    HW1 9449   0.045   1.064   0.751
 2850SOL    HW2 9450   6.958   1.174   0.804
 2851SOL     OW 9451   3.364   3.378   2.433
 2851SOL    HW1 9452   3.310   3.358   2.352
 2851SOL    HW2 9453   3.417   3.297   2.459
 2852SOL     OW 9454   0.732   5.125   4.956
 2852SOL    HW1 9455   0.794   5.133   4.878
 2852SOL    HW2 9456   0.772   5.062   5.023
 2853SOL     OW 9457   0.287   4.658   5.723
 2853SOL    HW1 9458   0.346   4.599   5.779
 2853SOL    HW2 9459   0.288   4.751   5.760
 2854SOL     OW 9460   3.049   0.397   6.541
 2854SOL    HW1 9461   3.005   0.349   6.465
 2854SOL    HW2 9462   2.980   0.426   6.607
 2855SOL     OW 9463   2.673   2.456   4.411
 2855SOL    HW1 9464   2.755   2.489   4.457
 2855SOL    HW2 9465   2.606   2.425   4.479
 2856SOL     OW 9466   1.689   5.516   4.840
 2856SOL    HW1 9467   1.772   5.562   4.871
 2856SOL    HW2 9468   1.712   5.445   4.774
 2857SOL     OW 9469   0.929   4.694   0.402
 2857SOL    HW1 9470   0.921   4.755   0.323
 2857SOL    HW2 9471   1.007   4.721   0.458
 2858SOL     OW 9472   5.666   4.698   4.349
 2858SOL    HW1 9473   5.667   4.795   4.321
 2858SOL    HW2 9474   5.739   4.650   4.301
 2859SOL     OW 9475   0.328   4.922   1.831
 2859SOL    HW1 9476   0.329   4.886   1.737
 2859SOL    HW2 9477   0.255   4.878   1.883
 2860SOL     OW 9478   1.208   6.647   3.088
 2860SOL    HW1 9479   1.242   6.607   3.003
 2860SOL    HW2 9480   1.114   6.616   3.105
 2861SOL     OW 9481   5.635   3.196   5.088
 2861SOL    HW1 9482   5.554   3.244   5.122
 2861SOL    HW2 9483   5.717   3.238   5.126
 2862SOL     OW 9484   4.640   1.267   0.548
 2862SOL    HW1 9485   4.583   1.226   0.619
 2862SOL    HW2 9486   4.736   1.265   0.577
 2863SOL     OW 9487   5.562   1.565   6.042
 2863SOL    HW1 9488   5.548   1.466   6.044
 2863SOL    HW2 9489   5.594   1.596   6.132
 2864SOL     OW 9490   4.539   4.643   1.013
 2864SOL    HW1 9491   4.449   4.655   1.054
 2864SOL    HW2 9492   4.555   4.545   0.997
 2865SOL     OW 9493   5.575   4.665   6.029
 2865SOL    HW1 9494   5.598   4.734   6.098
 2865SOL    HW2 9495   5.623   4.580   6.048
 2866SOL     OW 9496   4.512   5.791   1.097
 2866SOL    HW1 9497   4.450   5.731   1.047
 2866SOL    HW2 9498   4.533   5.752   1.186
 2867SOL     OW 9499   0.404   5.793   3.399
 2867SOL    HW1 9500   0.320   5.830   3.360
 2867SOL    HW2 9501   0.382   5.717   3.460
 2868SOL     OW 9502   6.730   0.159   5.838
 2868SOL    HW1 9503   6.826   0.142   5.820
 2868SOL    HW2 9504   6.679   0.160   5.752
 2869SOL     OW 9505   5.538   4.232   5.316
 2869SOL    HW1 9506   5.589   4.281   5.246
 2869SOL    HW2 9507   5.574   4.139   5.325
 2870SOL     OW 9508   0.160   0.952   1.244
 2870SOL    HW1 9509   0.148   0.935   1.342
 2870SOL    HW2 9510   0.070   0.965   1.202
 2871SOL     OW 9511   4.411   1.242   3.435
 2871SOL    HW1 9512   4.387   1.317   3.373
 2871SOL    HW2 9513   4.423   1.278   3.527
 2872SOL     OW 9514   3.651   1.541   2.476
 2872SOL    HW1 9515   3.582   1.585   2.533
 2872SOL    HW2 9516   3.606   1.486   2.405
 2873SOL     OW 9517   6.900   0.126   2.635
 2873SOL    HW1 9518   6.838   0.164   2.704
 2873SOL    HW2 9519   6.993   0.120   2.673
 2874SOL     OW 9520   1.775   1.226   2.366
 2874SOL    HW1 9521   1.698   1.201   2.425
 2874SOL    HW2 9522   1.743   1.230   2.271
 2875SOL     OW 9523   2.919   0.240   2.369
 2875SOL    HW1 9524   2.973   0.219   2.287
 2875SOL    HW2 9525   2.971   0.216   2.451
 2876SOL     OW 9526   1.458   0.003   1.041
 2876SOL    HW1 9527   1.433   0.098   1.024
 2876SOL    HW2 9528   1.423   6.998   1.131
 2877SOL     OW 9529   1.104   3.601   6.792
 2877SOL    HW1 9530   1.041   3.663   6.746
 2877SOL    HW2 9531   1.056   3.516   6.814
 2878SOL     OW 9532   3.968   3.649   4.992
 2878SOL    HW1 9533   3.959   3.613   4.899
 2878SOL    HW2 9534   4.059   3.629   5.027
 2879SOL     OW 9535   6.140   6.131   0.345
 2879SOL    HW1 9536   6.176   6.040   0.326
 2879SOL    HW2 9537   6.186   6.168   0.426
 2880SOL     OW 9538   1.647   1.861   2.712
 2880SOL    HW1 9539   1.610   1.953   2.727
 2880SOL    HW2 9540   1.578   1.793   2.738
 2881SOL     OW 9541   5.362   4.987   0.007
 2881SOL    HW1 9542   5.275   4.939   0.017
 2881SOL    HW2 9543   5.436   4.932   0.046
 2882SOL     OW 9544   5.051   6.354   0.156
 2882SOL    HW1 9545   4.985   6.322   0.224
 2882SOL    HW2 9546   5.085   6.444   0.183
 2883SOL     OW 9547   5.295   6.417   3.124
 2883SOL    HW1 9548   5.342   6.435   3.211
 2883SOL    HW2 9549   5.197   6.427   3.137
 2884SOL     OW 9550   6.470   5.412   3.513
 2884SOL    HW1 9551   6.477   5.474   3.591
 2884SOL    HW2 9552   6.399   5.343   3.532
 2885SOL     OW 9553   0.607   3.737   3.517
 2885SOL    HW1 9554   0.607   3.817   3.577
 2885SOL    HW2 9555   0.689   3.738   3.460
 2886SOL     OW 9556   2.269   4.331   4.989
 2886SOL    HW1 9557   2.278   4.232   4.984
 2886SOL    HW2 9558   2.360   4.373   4.993
 2887SOL     OW 9559   6.877   4.499   3.132
 2887SOL    HW1 9560   6.951   4.503   3.066
 2887SOL    HW2 9561   6.790   4.519   3.086
 2888SOL     OW 9562   4.394   5.829   6.911
 2888SOL    HW1 9563   4.419   5.739   6.947
 2888SOL    HW2 9564   4.468   5.863   6.853
 2889SOL     OW 9565   3.891   5.258   3.978
 2889SOL    HW1 9566   3.913   5.178   3.923
 2889SOL    HW2 9567   3.795   5.281   3.967
 2890SOL     OW 9568   1.219   1.822   0.692
 2890SOL    HW1 9569   1.214   1.921   0.706
 2890SOL    HW2 9570   1.128   1.782   0.703
 2891SOL     OW 9571   1.505   1.777   5.518
 2891SOL    HW1 9572   1.509   1.678   5.504
 2891SOL    HW2 9573   1.598   1.812   5.534
 2892SOL     OW 9574   5.961   3.879   2.153
 2892SOL    HW1 9575   5.910   3.964   2.137
 2892SOL    HW2 9576   6.043   3.879   2.096
 2893SOL     OW 9577   6.728   5.984   5.011
 2893SOL    HW1 9578   6.822   6.016   5.003
 2893SOL    HW2 9579   6.691   5.967   4.919
 2894SOL     OW 9580   2.021   5.501   1.364
 2894SOL    HW1 9581   2.090   5.477   1.296
 2894SOL    HW2 9582   1.962   5.573   1.327
 2895SOL     OW 9583   4.595   6.335   6.525
 2895SOL    HW1 9584   4.572   6.344   6.622
 2895SOL    HW2 9585   4.679   6.386   6.506
 2896SOL     OW 9586   6.752   6.959   6.234
 2896SOL    HW1 9587   6.666   6.970   6.285
 2896SOL    HW2 9588   6.815   0.010   6.260
 2897SOL     OW 9589   2.868   6.067   3.582
 2897SOL    HW1 9590   2.964   6.040   3.581
 2897SOL    HW2 9591   2.838   6.081   3.676
 2898SOL     OW 9592   5.468   2.370   2.479
 2898SOL    HW1 9593   5.382   2.399   2.521
 2898SOL    HW2 9594   5.448   2.323   2.393
 2899SOL     OW 9595   6.587   2.714   1.304
 2899SOL    HW1 9596   6.671   2.681   1.260
 2899SOL    HW2 9597   6.563   2.653   1.379
 2900SOL     OW 9598   3.168   3.012   5.144
 2900SOL    HW1 9599   3.095   3.016   5.212
 2900SOL    HW2 9600   3.128   3.021   5.052
 2901SOL     OW 9601   1.407   3.542   1.215
 2901SOL    HW1 9602   1.438   3.532   1.120
 2901SOL    HW2 9603   1.341   3.617   1.220
 2902SOL     OW 9604   5.252   6.048   3.403
 2902SOL    HW1 9605   5.238   6.133   3.454
 2902SOL    HW2 9606   5.232   5.970   3.462
 2903SOL     OW 9607   0.839   5.342   1.427
 2903SOL    HW1 9608   0.740   5.346   1.425
 2903SOL    HW2 9609   0.869   5.252   1.457
 2904SOL     OW 9610   2.869   4.815   4.388
 2904SOL    HW1 9611   2.950   4.796   4.333
 2904SOL    HW2 9612   2.884   4.898   4.441
 2905SOL     OW 9613   1.186   4.546   1.610
 2905SOL    HW1 9614   1.278   4.509   1.594
 2905SOL    HW2 9615   1.133   4.480   1.664
 2906SOL     OW 9616   6.528   6.109   5.841
 2906SOL    HW1 9617   6.619   6.130   5.805
 2906SOL    HW2 9618   6.512   6.011   5.835
 2907SOL     OW 9619   6.814   0.891   6.120
 2907SOL    HW1 9620   6.845   0.924   6.209
 2907SOL    HW2 9621   6.743   0.822   6.132
 2908SOL     OW 9622   3.751   5.704   3.477
 2908SOL    HW1 9623   3.834   5.660   3.444
 2908SOL    HW2 9624   3.775   5.770   3.548
 2909SOL     OW 9625   0.350   6.446   0.822
 2909SOL    HW1 9626   0.397   6.505   0.756
 2909SOL    HW2 9627   0.398   6.449   0.909
 2910SOL     OW 9628   1.050   0.224   4.423
 2910SOL    HW1 9629   1.143   0.191   4.409
 2910SOL    HW2 9630   1.038   0.250   4.519
 2911SOL     OW 9631   6.716   3.660   3.745
 2911SOL    HW1 9632   6.774   3.666   3.664
 2911SOL    HW2 9633   6.762   3.705   3.822
 2912SOL     OW 9634   0.176   1.221   3.047
 2912SOL    HW1 9635   0.129   1.306   3.072
 2912SOL    HW2 9636   0.269   1.221   3.085
 2913SOL     OW 9637   1.171   6.540   4.235
 2913SOL    HW1 9638   1.083   6.492   4.237
 2913SOL    HW2 9639   1.163   6.620   4.175
 2914SOL     OW 9640   3.929   4.319   0.706
 2914SOL    HW1 9641   3.920   4.346   0.802
 2914SOL    HW2 9642   3.858   4.253   0.683
 2915SOL     OW 9643   2.555   0.601   3.856
 2915SOL    HW1 9644   2.613   0.639   3.784
 2915SOL    HW2 9645   2.579   0.506   3.872
 2916SOL     OW 9646   0.538   5.951   6.156
 2916SOL    HW1 9647   0.446   5.976   6.187
 2916SOL    HW2 9648   0.541   5.956   6.056
 2917SOL     OW 9649   2.092   1.229   3.600
 2917SOL    HW1 9650   2.023   1.288   3.558
 2917SOL    HW2 9651   2.121   1.160   3.534
 2918SOL     OW 9652   5.154   1.367   1.076
 2918SOL    HW1 9653   5.159   1.301   1.151
 2918SOL    HW2 9654   5.243   1.410   1.063
 2919SOL     OW 9655   0.646   5.944   5.115
 2919SOL    HW1 9656   0.579   5.871   5.130
 2919SOL    HW2 9657   0.736   5.913   5.144
 2920SOL     OW 9658   2.776   2.139   1.931
 2920SOL    HW1 9659   2.795   2.214   1.995
 2920SOL    HW2 9660   2.830   2.151   1.848
 2921SOL     OW 9661   0.019   5.185   3.471
 2921SOL    HW1 9662   6.967   5.183   3.404
 2921SOL    HW2 9663   7.010   5.231   3.554
 2922SOL     OW 9664   3.985   5.193   3.485
 2922SOL    HW1 9665   3.892   5.161   3.464
 2922SOL    HW2 9666   3.985   5.241   3.572
 2923SOL     OW 9667   1.091   4.627   3.573
 2923SOL    HW1 9668   1.047   4.542   3.602
 2923SOL    HW2 9669   1.125   4.617   3.480
 2924SOL     OW 9670   4.886   1.324   0.041
 2924SOL    HW1 9671   4.812   1.263   0.013
 2924SOL    HW2 9672   4.963   1.314   7.000
 2925SOL     OW 9673   5.464   6.807   4.817
 2925SOL    HW1 9674   5.543   6.789   4.759
 2925SOL    HW2 9675   5.382   6.770   4.773
 2926SOL     OW 9676   6.979   2.660   4.648
 2926SOL    HW1 9677   6.968   2.619   4.558
 2926SOL    HW2 9678   6.921   2.613   4.714
 2927SOL     OW 9679   0.805   2.461   2.479
 2927SOL    HW1 9680   0.822   2.426   2.387
 2927SOL    HW2 9681   0.850   2.402   2.546
 2928SOL     OW 9682   5.107   4.946   0.380
 2928SOL    HW1 9683   5.153   4.867   0.420
 2928SOL    HW2 9684   5.044   4.917   0.308
 2929SOL     OW 9685   1.906   1.839   2.846
 2929SOL    HW1 9686   1.811   1.862   2.823
 2929SOL    HW2 9687   1.953   1.808   2.763
 2930SOL     OW 9688   0.458   3.191   4.477
 2930SOL    HW1 9689   0.435   3.094   4.483
 2930SOL    HW2 9690   0.470   3.228   4.569
 2931SOL     OW 9691   5.975   3.778   5.861
 2931SOL    HW1 9692   5.939   3.868   5.837
 2931SOL    HW2 9693   5.929   3.744   5.943
 2932SOL     OW 9694   6.830   6.727   0.704
 2932SOL    HW1 9695   6.903   6.670   0.667
 2932SOL    HW2 9696   6.857   6.762   0.794
 2933SOL     OW 9697   0.814   0.572   6.852
 2933SOL    HW1 9698   0.771   0.576   6.942
 2933SOL    HW2 9699   0.750   0.603   6.782
 2934SOL     OW 9700   5.665   5.033   2.514
 2934SOL    HW1 9701   5.733   5.050   2.442
 2934SOL    HW2 9702   5.600   4.963   2.483
 2935SOL     OW 9703   0.901   4.440   6.000
 2935SOL    HW1 9704   0.969   4.366   6.002
 2935SOL    HW2 9705   0.813   4.403   5.970
 2936SOL     OW 9706   4.139   6.343   2.579
 2936SOL    HW1 9707   4.208   6.312   2.645
 2936SOL    HW2 9708   4.183   6.360   2.491
 2937SOL     OW 9709   6.199   3.433   3.523
 2937SOL    HW1 9710   6.142   3.494   3.469
 2937SOL    HW2 9711   6.155   3.344   3.530
 2938SOL     OW 9712   0.566   5.334   1.444
 2938SOL    HW1 9713   0.537   5.430   1.438
 2938SOL    HW2 9714   0.487   5.274   1.429
 2939SOL     OW 9715   5.655   6.164   2.304
 2939SOL    HW1 9716   5.673   6.066   2.316
 2939SOL    HW2 9717   5.597   6.196   2.378
 2940SOL     OW 9718   4.779   5.887   3.600
 2940SOL    HW1 9719   4.686   5.853   3.612
 2940SOL    HW2 9720   4.794   5.908   3.503
 2941SOL     OW 9721   2.806   5.103   2.617
 2941SOL    HW1 9722   2.779   5.014   2.580
 2941SOL    HW2 9723   2.804   5.099   2.717
 2942SOL     OW 9724   3.185   1.765   1.521
 2942SOL    HW1 9725   3.241   1.808   1.591
 2942SOL    HW2 9726   3.238   1.754   1.437
 2943SOL     OW 9727   0.541   3.869   3.852
 2943SOL    HW1 9728   0.475   3.931   3.894
 2943SOL    HW2 9729   0.580   3.809   3.922
 2944SOL     OW 9730   0.919   5.263   3.199
 2944SOL    HW1 9731   0.914   5.359   3.226
 2944SOL    HW2 9732   0.847   5.243   3.133
 2945SOL     OW 9733   5.662   3.708   0.478
 2945SOL    HW1 9734   5.634   3.643   0.407
 2945SOL    HW2 9735   5.724   3.776   0.439
 2946SOL     OW 9736   3.156   4.049   4.681
 2946SOL    HW1 9737   3.162   3.952   4.704
 2946SOL    HW2 9738   3.217   4.102   4.740
 2947SOL     OW 9739   6.480   6.287   0.157
 2947SOL    HW1 9740   6.476   6.192   0.189
 2947SOL    HW2 9741   6.576   6.313   0.143
 2948SOL     OW 9742   6.052   4.437   0.524
 2948SOL    HW1 9743   5.992   4.359   0.509
 2948SOL    HW2 9744   6.107   4.422   0.607
 2949SOL     OW 9745   1.975   5.785   1.063
 2949SOL    HW1 9746   1.972   5.877   1.104
 2949SOL    HW2 9747   1.948   5.718   1.132
 2950SOL     OW 9748   5.549   5.348   1.956
 2950SOL    HW1 9749   5.455   5.313   1.960
 2950SOL    HW2 9750   5.600   5.301   1.884
 2951SOL     OW 9751   0.612   2.108   0.882
 2951SOL    HW1 9752   0.661   2.063   0.957
 2951SOL    HW2 9753   0.646   2.201   0.870
 2952SOL     OW 9754   0.794   2.083   4.574
 2952SOL    HW1 9755   0.730   2.119   4.506
 2952SOL    HW2 9756   0.743   2.038   4.647
 2953SOL     OW 9757   1.360   5.658   2.826
 2953SOL    HW1 9758   1.423   5.613   2.890
 2953SOL    HW2 9759   1.304   5.589   2.781
 2954SOL     OW 9760   0.649   4.396   6.267
 2954SOL    HW1 9761   0.603   4.481   6.240
 2954SOL    HW2 9762   0.747   4.411   6.271
 2955SOL     OW 9763   1.575   4.800   6.107
 2955SOL    HW1 9764   1.641   4.798   6.182
 2955SOL    HW2 9765   1.568   4.893   6.071
 2956SOL     OW 9766   5.957   3.749   4.961
 2956SOL    HW1 9767   6.015   3.672   4.936
 2956SOL    HW2 9768   5.982   3.782   5.052
 2957SOL     OW 9769   1.637   5.064   2.186
 2957SOL    HW1 9770   1.736   5.065   2.202
 2957SOL    HW2 9771   1.600   4.975   2.212
 2958SOL     OW 9772   1.772   4.016   0.869
 2958SOL    HW1 9773   1.706   4.090   0.866
 2958SOL    HW2 9774   1.827   4.023   0.952
 2959SOL     OW 9775   0.464   4.335   4.340
 2959SOL    HW1 9776   0.443   4.367   4.433
 2959SOL    HW2 9777   0.411   4.389   4.274
 2960SOL     OW 9778   5.058   6.557   1.059
 2960SOL    HW1 9779   5.099   6.490   1.121
 2960SOL    HW2 9780   5.073   6.527   0.964
 2961SOL     OW 9781   5.968   2.052   0.853
 2961SOL    HW1 9782   6.053   2.103   0.867
 2961SOL    HW2 9783   5.891   2.116   0.847
 2962SOL     OW 9784   0.032   0.490   3.756
 2962SOL    HW1 9785   0.117   0.507   3.805
 2962SOL    HW2 9786   6.979   0.484   3.821
 2963SOL     OW 9787   1.996   1.900   5.580
 2963SOL    HW1 9788   1.946   1.916   5.666
 2963SOL    HW2 9789   1.963   1.964   5.511
 2964SOL     OW 9790   1.075   1.018   5.802
 2964SOL    HW1 9791   0.976   1.010   5.811
 2964SOL    HW2 9792   1.107   0.964   5.724
 2965SOL     OW 9793   5.942   0.199   6.361
 2965SOL    HW1 9794   5.923   0.212   6.264
 2965SOL    HW2 9795   5.858   0.168   6.407
 2966SOL     OW 9796   3.152   6.646   3.206
 2966SOL    HW1 9797   3.065   6.624   3.162
 2966SOL    HW2 9798   3.137   6.715   3.277
 2967SOL     OW 9799   6.176   6.786   4.951
 2967SOL    HW1 9800   6.201   6.691   4.972
 2967SOL    HW2 9801   6.231   6.818   4.874
 2968SOL     OW 9802   1.514   3.665   1.681
 2968SOL    HW1 9803   1.499   3.753   1.637
 2968SOL    HW2 9804   1.534   3.678   1.778
 2969SOL     OW 9805   4.521   2.205   4.928
 2969SOL    HW1 9806   4.469   2.273   4.876
 2969SOL    HW2 9807   4.609   2.245   4.956
 2970SOL     OW 9808   3.170   2.301   5.880
 2970SOL    HW1 9809   3.110   2.222   5.865
 2970SOL    HW2 9810   3.237   2.307   5.806
 2971SOL     OW 9811   4.138   3.283   5.658
 2971SOL    HW1 9812   4.150   3.370   5.610
 2971SOL    HW2 9813   4.041   3.272   5.682
 2972SOL     OW 9814   0.706   6.250   6.498
 2972SOL    HW1 9815   0.774   6.208   6.559
 2972SOL    HW2 9816   0.678   6.338   6.536
 2973SOL     OW 9817   5.861   0.067   4.103
 2973SOL    HW1 9818   5.897   7.010   4.152
 2973SOL    HW2 9819   5.899   0.068   4.010
 2974SOL     OW 9820   4.991   5.672   2.272
 2974SOL    HW1 9821   4.985   5.748   2.337
 2974SOL    HW2 9822   5.060   5.606   2.302
 2975SOL     OW 9823   0.028   3.616   4.770
 2975SOL    HW1 9824   0.127   3.607   4.755
 2975SOL    HW2 9825   0.005   3.581   4.861
 2976SOL     OW 9826   4.017   0.540   0.977
 2976SOL    HW1 9827   4.082   0.565   0.906
 2976SOL    HW2 9828   4.056   0.466   1.033
 2977SOL     OW 9829   1.613   1.551   2.477
 2977SOL    HW1 9830   1.699   1.522   2.437
 2977SOL    HW2 9831   1.610   1.524   2.574
 2978SOL     OW 9832   3.577   5.929   0.122
 2978SOL    HW1 9833   3.659   5.980   0.148
 2978SOL    HW2 9834   3.554   5.864   0.194
 2979SOL     OW 9835   2.273   1.601   5.824
 2979SOL    HW1 9836   2.222   1.515   5.832
 2979SOL    HW2 9837   2.324   1.602   5.738
 2980SOL     OW 9838   2.955   3.261   3.540
 2980SOL    HW1 9839   2.998   3.241   3.452
 2980SOL    HW2 9840   2.902   3.346   3.533
 2981SOL     OW 9841   3.142   2.019   1.834
 2981SOL    HW1 9842   3.100   1.949   1.777
 2981SOL    HW2 9843   3.166   2.098   1.778
 2982SOL     OW 9844   1.133   0.402   2.209
 2982SOL    HW1 9845   1.212   0.447   2.251
 2982SOL    HW2 9846   1.050   0.425   2.260
 2983SOL     OW 9847   6.265   2.555   6.339
 2983SOL    HW1 9848   6.359   2.541   6.372
 2983SOL    HW2 9849   6.232   2.644   6.370
 2984SOL     OW 9850   0.885   6.479   1.182
 2984SOL    HW1 9851   0.902   6.567   1.137
 2984SOL    HW2 9852   0.888   6.406   1.114
 2985SOL     OW 9853   6.990   6.926   5.730
 2985SOL    HW1 9854   0.021   6.874   5.797
 2985SOL    HW2 9855   6.974   7.018   5.765
 2986SOL     OW 9856   4.045   3.748   2.927
 2986SOL    HW1 9857   4.069   3.747   3.024
 2986SOL    HW2 9858   3.977   3.678   2.909
 2987SOL     OW 9859   3.001   6.463   5.279
 2987SOL    HW1 9860   2.967   6.518   5.202
 2987SOL    HW2 9861   2.953   6.376   5.282
 2988SOL     OW 9862   0.631   2.049   6.385
 2988SOL    HW1 9863   0.642   1.953   6.357
 2988SOL    HW2 9864   0.687   2.066   6.467
 2989SOL     OW 9865   5.684   3.627   6.046
 2989SOL    HW1 9866   5.603   3.576   6.078
 2989SOL    HW2 9867   5.694   3.711   6.100
 2990SOL     OW 9868   4.928   1.292   4.893
 2990SOL    HW1 9869   4.984   1.214   4.867
 2990SOL    HW2 9870   4.983   1.357   4.946
 2991SOL     OW 9871   6.729   3.035   0.364
 2991SOL    HW1 9872   6.736   3.134   0.355
 2991SOL    HW2 9873   6.771   3.007   0.450
 2992SOL     OW 9874   1.696   3.992   4.880
 2992SOL    HW1 9875   1.780   4.044   4.897
 2992SOL    HW2 9876   1.676   3.935   4.960
 2993SOL     OW 9877   3.588   4.700   6.697
 2993SOL    HW1 9878   3.609   4.699   6.599
 2993SOL    HW2 9879   3.666   4.663   6.747
 2994SOL     OW 9880   2.921   5.052   4.543
 2994SOL    HW1 9881   2.933   5.137   4.593
 2994SOL    HW2 9882   2.910   4.976   4.607
 2995SOL     OW 9883   4.828   0.385   2.537
 2995SOL    HW1 9884   4.897   0.376   2.465
 2995SOL    HW2 9885   4.737   0.380   2.495
 2996SOL     OW 9886   0.407   0.635   3.984
 2996SOL    HW1 9887   0.319   0.588   3.980
 2996SOL    HW2 9888   0.402   0.720   3.932
 2997SOL     OW 9889   4.854   5.618   3.960
 2997SOL    HW1 9890   4.823   5.684   4.028
 2997SOL    HW2 9891   4.780   5.597   3.897
 2998SOL     OW 9892   2.478   0.200   2.024
 2998SOL    HW1 9893   2.428   0.114   2.032
 2998SOL    HW2 9894   2.498   0.235   2.116
 2999SOL     OW 9895   2.147   4.950   0.366
 2999SOL    HW1 9896   2.106   4.921   0.453
 2999SOL    HW2 9897   2.095   5.026   0.328
 3000SOL     OW 9898   1.779   4.105   6.326
 3000SOL    HW1 9899   1.749   4.011   6.338
 3000SOL    HW2 9900   1.822   4.115   6.236
 3001SOL     OW 9901   3.624   0.069   6.450
 3001SOL    HW1 9902   3.591   0.135   6.518
 3001SOL    HW2 9903   3.549   0.007   6.425
 3002SOL     OW 9904   1.087   2.149   2.058
 3002SOL    HW1 9905   1.045   2.061   2.037
 3002SOL    HW2 9906   1.025   2.223   2.032
 3003SOL     OW 9907   1.752   6.212   0.235
 3003SOL    HW1 9908   1.720   6.150   0.164
 3003SOL    HW2 9909   1.680   6.278   0.257
 3004SOL     OW 9910   3.014   0.693   4.637
 3004SOL    HW1 9911   3.035   0.714   4.541
 3004SOL    HW2 9912   3.031   0.775   4.693
 3005SOL     OW 9913   2.972   1.891   0.125
 3005SOL    HW1 9914   2.904   1.919   0.192
 3005SOL    HW2 9915   3.054   1.948   0.134
 3006SOL     OW 9916   5.652   0.749   5.939
 3006SOL    HW1 9917   5.696   0.690   6.007
 3006SOL    HW2 9918   5.694   0.733   5.849
 3007SOL     OW 9919   6.314   5.733   5.626
 3007SOL    HW1 9920   6.216   5.754   5.619
 3007SOL    HW2 9921   6.333   5.645   5.584
 3008SOL     OW 9922   5.790   3.844   5.514
 3008SOL    HW1 9923   5.767   3.889   5.428
 3008SOL    HW2 9924   5.747   3.754   5.518
 3009SOL     OW 9925   5.231   3.532   1.530
 3009SOL    HW1 9926   5.212   3.527   1.628
 3009SOL    HW2 9927   5.214   3.443   1.487
 3010SOL     OW 9928   4.309   4.572   1.456
 3010SOL    HW1 9929   4.389   4.555   1.514
 3010SOL    HW2 9930   4.252   4.642   1.497
 3011SOL     OW 9931   6.061   0.032   0.667
 3011SOL    HW1 9932   6.015   0.090   0.734
 3011SOL    HW2 9933   6.074   6.963   0.706
 3012SOL     OW 9934   2.508   1.407   4.640
 3012SOL    HW1 9935   2.537   1.471   4.711
 3012SOL    HW2 9936   2.580   1.340   4.624
 3013SOL     OW 9937   0.428   5.128   5.026
 3013SOL    HW1 9938   0.507   5.101   4.971
 3013SOL    HW2 9939   0.391   5.215   4.993
 3014SOL     OW 9940   3.971   0.365   0.491
 3014SOL    HW1 9941   3.971   0.357   0.391
 3014SOL    HW2 9942   3.961   0.274   0.532
 3015SOL     OW 9943   2.236   6.804   6.545
 3015SOL    HW1 9944   2.279   6.894   6.547
 3015SOL    HW2 9945   2.281   6.747   6.476
 3016SOL     OW 9946   3.307   0.892   4.568
 3016SOL    HW1 9947   3.254   0.824   4.518
 3016SOL    HW2 9948   3.388   0.848   4.608
 3017SOL     OW 9949   1.329   6.213   0.390
 3017SOL    HW1 9950   1.382   6.128   0.377
 3017SOL    HW2 9951   1.232   6.192   0.384
 3018SOL     OW 9952   2.209   2.975   2.030
 3018SOL    HW1 9953   2.128   2.917   2.023
 3018SOL    HW2 9954   2.187   3.067   1.999
 3019SOL     OW 9955   0.634   1.191   5.802
 3019SOL    HW1 9956   0.676   1.264   5.747
 3019SOL    HW2 9957   0.695   1.112   5.805
 3020SOL     OW 9958   5.172   4.312   5.927
 3020SOL    HW1 9959   5.223   4.397   5.936
 3020SOL    HW2 9960   5.078   4.326   5.959
 3021SOL     OW 9961   4.473   6.327   4.377
 3021SOL    HW1 9962   4.552   6.373   4.418
 3021SOL    HW2 9963   4.427   6.272   4.446
 3022SOL     OW 9964   3.794   6.774   2.815
 3022SOL    HW1 9965   3.872   6.738   2.867
 3022SOL    HW2 9966   3.715   6.784   2.876
 3023SOL     OW 9967   5.233   4.124   4.826
 3023SOL    HW1 9968   5.328   4.155   4.828
 3023SOL    HW2 9969   5.172   4.203   4.828
 3024SOL     OW 9970   6.273   1.436   6.419
 3024SOL    HW1 9971   6.268   1.526   6.462
 3024SOL    HW2 9972   6.265   1.447   6.320
 3025SOL     OW 9973   4.077   5.359   0.435
 3025SOL    HW1 9974   3.981   5.385   0.426
 3025SOL    HW2 9975   4.096   5.332   0.530
 3026SOL     OW 9976   0.266   6.875   2.682
 3026SOL    HW1 9977   0.257   6.783   2.645
 3026SOL    HW2 9978   0.247   6.874   2.781
 3027SOL     OW 9979   4.291   0.205   0.779
 3027SOL    HW1 9980   4.338   0.239   0.861
 3027SOL    HW2 9981   4.325   0.114   0.757
 3028SOL     OW 9982   4.115   3.384   4.092
 3028SOL    HW1 9983   4.139   3.479   4.074
 3028SOL    HW2 9984   4.146   3.359   4.184
 3029SOL     OW 9985   6.638   2.278   4.418
 3029SOL    HW1 9986   6.627   2.305   4.322
 3029SOL    HW2 9987   6.701   2.340   4.464
 3030SOL     OW 9988   0.303   4.151   6.636
 3030SOL    HW1 9989   0.271   4.056   6.643
 3030SOL    HW2 9990   0.336   4.168   6.543
 3031SOL     OW 9991   0.442   4.876   6.876
 3031SOL    HW1 9992   0.435   4.817   6.795
 3031SOL    HW2 9993   0.402   4.965   6.857
 3032SOL     OW 9994   3.781   6.881   3.966
 3032SOL    HW1 9995   3.865   6.919   4.005
 3032SOL    HW2 9996   3.793   6.870   3.867
 3033SOL     OW 9997   2.033   0.845   6.701
 3033SOL    HW1 9998   2.069   0.768   6.753
 3033SOL    HW2 9999   2.029   0.926   6.759
 3034SOL     OW10000   4.890   3.416   3.209
 3034SOL    HW110001   4.808   3.361   3.224
 3034SOL    HW210002   4.875   3.479   3.133
 3035SOL     OW10003   6.596   4.222   6.688
 3035SOL    HW110004   6.540   4.202   6.768
 3035SOL    HW210005   6.687   4.180   6.699
 3036SOL     OW10006   3.145   2.418   6.451
 3036SOL    HW110007   3.075   2.358   6.489
 3036SOL    HW210008   3.125   2.437   6.355
 3037SOL     OW10009   0.533   5.686   5.854
 3037SOL    HW110010   0.498   5.592   5.857
 3037SOL    HW210011   0.482   5.743   5.918
 3038SOL     OW10012   5.753   4.725   5.404
 3038SOL    HW110013   5.810   4.651   5.438
 3038SOL    HW210014   5.807   4.783   5.343
 3039SOL     OW10015   6.120   3.259   6.605
 3039SOL    HW110016   6.053   3.333   6.607
 3039SOL    HW210017   6.208   3.293   6.638
 3040SOL     OW10018   4.008   6.292   6.719
 3040SOL    HW110019   4.067   6.247   6.652
 3040SOL    HW210020   3.917   6.304   6.682
 3041SOL     OW10021   2.434   6.133   6.453
 3041SOL    HW110022   2.368   6.165   6.521
 3041SOL    HW210023   2.526   6.136   6.493
 3042SOL     OW10024   0.481   5.217   3.912
 3042SOL    HW110025   0.398   5.216   3.967
 3042SOL    HW210026   0.545   5.284   3.949
 3043SOL     OW10027   2.446   3.496   1.136
 3043SOL    HW110028   2.469   3.568   1.201
 3043SOL    HW210029   2.360   3.518   1.091
 3044SOL     OW10030   4.115   3.661   4.135
 3044SOL    HW110031   4.062   3.630   4.213
 3044SOL    HW210032   4.148   3.754   4.151
 3045SOL     OW10033   6.032   0.207   3.325
 3045SOL    HW110034   6.103   0.264   3.283
 3045SOL    HW210035   5.943   0.232   3.286
 3046SOL     OW10036   6.402   5.695   1.259
 3046SOL    HW110037   6.336   5.759   1.299
 3046SOL    HW210038   6.406   5.612   1.315
 3047SOL     OW10039   4.392   1.888   3.742
 3047SOL    HW110040   4.404   1.984   3.767
 3047SOL    HW210041   4.312   1.878   3.684
 3048SOL     OW10042   4.548   4.935   1.071
 3048SOL    HW110043   4.548   4.943   0.971
 3048SOL    HW210044   4.546   4.838   1.096
 3049SOL     OW10045   0.393   0.653   1.201
 3049SOL    HW110046   0.353   0.681   1.114
 3049SOL    HW210047   0.462   0.720   1.230
 3050SOL     OW10048   3.576   2.737   5.710
 3050SOL    HW110049   3.500   2.786   5.667
 3050SOL    HW210050   3.652   2.801   5.724
 3051SOL     OW10051   1.923   4.078   6.109
 3051SOL    HW110052   1.891   4.067   6.014
 3051SOL    HW210053   1.977   4.162   6.116
 3052SOL     OW10054   6.141   6.065   4.178
 3052SOL    HW110055   6.184   6.023   4.098
 3052SOL    HW210056   6.171   6.018   4.261
 3053SOL     OW10057   0.330   5.798   5.982
 3053SOL    HW110058   0.261   5.839   6.041
 3053SOL    HW210059   0.341   5.854   5.899
 3054SOL     OW10060   5.993   6.284   3.346
 3054SOL    HW110061   6.070   6.336   3.311
 3054SOL    HW210062   5.932   6.346   3.397
 3055SOL     OW10063   5.467   6.683   0.708
 3055SOL    HW110064   5.522   6.614   0.755
 3055SOL    HW210065   5.427   6.643   0.625
 3056SOL     OW10066   4.618   1.760   1.005
 3056SOL    HW110067   4.519   1.772   0.997
 3056SOL    HW210068   4.655   1.728   0.918
 3057SOL     OW10069   6.715   2.679   3.108
 3057SOL    HW110070   6.813   2.673   3.090
 3057SOL    HW210071   6.689   2.774   3.126
 3058SOL     OW10072   5.633   3.617   6.635
 3058SOL    HW110073   5.560   3.584   6.575
 3058SOL    HW210074   5.679   3.694   6.591
 3059SOL     OW10075   1.904   2.638   3.436
 3059SOL    HW110076   1.951   2.610   3.520
 3059SOL    HW210077   1.805   2.642   3.453
 3060SOL     OW10078   6.035   3.266   3.846
 3060SOL    HW110079   5.975   3.209   3.903
 3060SOL    HW210080   5.999   3.270   3.753
 3061SOL     OW10081   5.423   5.940   2.777
 3061SOL    HW110082   5.410   5.845   2.749
 3061SOL    HW210083   5.518   5.967   2.763
 3062SOL     OW10084   3.785   4.922   0.200
 3062SOL    HW110085   3.750   4.981   0.128
 3062SOL    HW210086   3.756   4.957   0.289
 3063SOL     OW10087   6.284   5.492   0.941
 3063SOL    HW110088   6.372   5.534   0.961
 3063SOL    HW210089   6.248   5.447   1.024
 3064SOL     OW10090   5.027   1.114   6.005
 3064SOL    HW110091   5.057   1.061   6.084
 3064SOL    HW210092   4.996   1.204   6.034
 3065SOL     OW10093   5.107   0.848   6.634
 3065SOL    HW110094   5.123   0.754   6.606
 3065SOL    HW210095   5.039   0.890   6.573
 3066SOL     OW10096   5.041   6.781   5.776
 3066SOL    HW110097   5.001   6.812   5.690
 3066SOL    HW210098   5.106   6.850   5.809
 3067SOL     OW10099   1.609   2.462   4.639
 3067SOL    HW110100   1.692   2.435   4.687
 3067SOL    HW210101   1.560   2.381   4.606
 3068SOL     OW10102   6.128   6.965   0.976
 3068SOL    HW110103   6.031   6.965   1.000
 3068SOL    HW210104   6.157   0.035   0.953
 3069SOL     OW10105   5.506   5.508   3.756
 3069SOL    HW110106   5.451   5.571   3.812
 3069SOL    HW210107   5.445   5.452   3.700
 3070SOL     OW10108   2.703   1.740   0.772
 3070SOL    HW110109   2.690   1.735   0.871
 3070SOL    HW210110   2.795   1.707   0.750
 3071SOL     OW10111   5.888   4.504   4.538
 3071SOL    HW110112   5.930   4.531   4.452
 3071SOL    HW210113   5.912   4.409   4.558
 3072SOL     OW10114   1.942   6.474   4.513
 3072SOL    HW110115   2.025   6.434   4.551
 3072SOL    HW210116   1.965   6.534   4.436
 3073SOL     OW10117   0.397   4.720   3.177
 3073SOL    HW110118   0.315   4.722   3.234
 3073SOL    HW210119   0.374   4.747   3.084
 3074SOL     OW10120   3.212   3.304   2.238
 3074SOL    HW110121   3.141   3.263   2.296
 3074SOL    HW210122   3.211   3.260   2.148
 3075SOL     OW10123   3.809   4.543   0.560
 3075SOL    HW110124   3.865   4.564   0.480
 3075SOL    HW210125   3.866   4.500   0.630
 3076SOL     OW10126   1.977   1.306   4.109
 3076SOL    HW110127   1.991   1.399   4.075
 3076SOL    HW210128   2.017   1.240   4.045
 3077SOL     OW10129   6.599   3.527   2.488
 3077SOL    HW110130   6.549   3.607   2.521
 3077SOL    HW210131   6.600   3.456   2.558
 3078SOL     OW10132   6.659   4.433   1.190
 3078SOL    HW110133   6.612   4.480   1.116
 3078SOL    HW210134   6.612   4.347   1.210
 3079SOL     OW10135   0.138   4.158   2.417
 3079SOL    HW110136   0.202   4.229   2.444
 3079SOL    HW210137   0.055   4.165   2.472
 3080SOL     OW10138   3.784   4.788   1.414
 3080SOL    HW110139   3.759   4.729   1.490
 3080SOL    HW210140   3.853   4.743   1.358
 3081SOL     OW10141   1.796   2.999   6.124
 3081SOL    HW110142   1.806   2.927   6.055
 3081SOL    HW210143   1.786   3.088   6.078
 3082SOL     OW10144   6.007   3.804   5.218
 3082SOL    HW110145   5.997   3.903   5.208
 3082SOL    HW210146   6.058   3.784   5.302
 3083SOL     OW10147   4.006   5.999   1.319
 3083SOL    HW110148   3.928   6.059   1.304
 3083SOL    HW210149   4.089   6.053   1.330
 3084SOL     OW10150   0.238   5.252   4.025
 3084SOL    HW110151   0.196   5.171   4.066
 3084SOL    HW210152   0.176   5.290   3.955
 3085SOL     OW10153   6.833   5.557   6.023
 3085SOL    HW110154   6.791   5.469   6.046
 3085SOL    HW210155   6.799   5.588   5.934
 3086SOL     OW10156   6.123   5.991   6.095
 3086SOL    HW110157   6.199   6.051   6.068
 3086SOL    HW210158   6.071   5.965   6.013
 3087SOL     OW10159   3.145   0.085   1.451
 3087SOL    HW110160   3.195   0.019   1.508
 3087SOL    HW210161   3.210   0.141   1.400
 3088SOL     OW10162   2.438   3.252   5.344
 3088SOL    HW110163   2.487   3.248   5.431
 3088SOL    HW210164   2.459   3.170   5.290
 3089SOL     OW10165   3.684   6.590   0.429
 3089SOL    HW110166   3.746   6.538   0.488
 3089SOL    HW210167   3.603   6.618   0.481
 3090SOL     OW10168   1.629   2.378   2.573
 3090SOL    HW110169   1.565   2.438   2.621
 3090SOL    HW210170   1.719   2.421   2.570
 3091SOL     OW10171   1.305   2.376   6.303
 3091SOL    HW110172   1.345   2.355   6.393
 3091SOL    HW210173   1.301   2.292   6.248
 3092SOL     OW10174   5.043   1.951   3.156
 3092SOL    HW110175   5.018   2.047   3.172
 3092SOL    HW210176   5.132   1.947   3.111
 3093SOL     OW10177   6.293   5.471   6.612
 3093SOL    HW110178   6.289   5.466   6.712
 3093SOL    HW210179   6.211   5.517   6.577
 3094SOL     OW10180   2.434   0.820   6.042
 3094SOL    HW110181   2.344   0.864   6.047
 3094SOL    HW210182   2.453   0.774   6.129
 3095SOL     OW10183   1.855   3.391   6.232
 3095SOL    HW110184   1.779   3.344   6.278
 3095SOL    HW210185   1.912   3.436   6.301
 3096SOL     OW10186   1.818   3.272   3.688
 3096SOL    HW110187   1.818   3.179   3.726
 3096SOL    HW210188   1.897   3.323   3.723
 3097SOL     OW10189   5.444   2.480   6.352
 3097SOL    HW110190   5.474   2.576   6.359
 3097SOL    HW210191   5.497   2.425   6.416
 3098SOL     OW10192   1.838   3.847   2.334
 3098SOL    HW110193   1.822   3.751   2.314
 3098SOL    HW210194   1.757   3.900   2.308
 3099SOL     OW10195   0.164   0.519   5.946
 3099SOL    HW110196   0.241   0.456   5.951
 3099SOL    HW210197   0.148   0.547   5.852
 3100SOL     OW10198   6.195   3.841   2.748
 3100SOL    HW110199   6.121   3.775   2.736
 3100SOL    HW210200   6.283   3.796   2.734
 3101SOL     OW10201   5.254   0.526   3.923
 3101SOL    HW110202   5.287   0.589   3.852
 3101SOL    HW210203   5.332   0.475   3.960
 3102SOL     OW10204   5.815   3.865   3.307
 3102SOL    HW110205   5.829   3.768   3.325
 3102SOL    HW210206   5.855   3.889   3.218
 3103SOL     OW10207   1.573   1.094   2.562
 3103SOL    HW110208   1.541   1.001   2.582
 3103SOL    HW210209   1.501   1.145   2.514
 3104SOL     OW10210   5.805   1.394   6.311
 3104SOL    HW110211   5.896   1.435   6.311
 3104SOL    HW210212   5.736   1.466   6.320
 3105SOL     OW10213   5.630   4.226   0.513
 3105SOL    HW110214   5.711   4.281   0.494
 3105SOL    HW210215   5.548   4.283   0.510
 3106SOL     OW10216   5.441   2.097   5.845
 3106SOL    HW110217   5.404   2.038   5.773
 3106SOL    HW210218   5.541   2.095   5.841
 3107SOL     OW10219   4.292   2.136   4.643
 3107SOL    HW110220   4.391   2.127   4.630
 3107SOL    HW210221   4.274   2.204   4.714
 3108SOL     OW10222   2.110   4.502   4.001
 3108SOL    HW110223   2.051   4.519   3.923
 3108SOL    HW210224   2.205   4.498   3.971
 3109SOL     OW10225   0.223   5.256   3.693
 3109SOL    HW110226   0.125   5.248   3.711
 3109SOL    HW210227   0.238   5.264   3.594
 3110SOL     OW10228   1.414   6.119   3.947
 3110SOL    HW110229   1.410   6.020   3.935
 3110SOL    HW210230   1.350   6.146   4.018
 3111SOL     OW10231   6.804   3.760   4.079
 3111SOL    HW110232   6.809   3.817   4.161
 3111SOL    HW210233   6.801   3.664   4.106
 3112SOL     OW10234   4.314   0.538   0.989
 3112SOL    HW110235   4.349   0.449   1.018
 3112SOL    HW210236   4.317   0.602   1.066
 3113SOL     OW10237   1.224   6.978   4.177
 3113SOL    HW110238   1.164   6.901   4.155
 3113SOL    HW210239   1.223   0.021   4.101
 3114SOL     OW10240   4.757   5.511   5.469
 3114SOL    HW110241   4.787   5.594   5.517
 3114SOL    HW210242   4.824   5.438   5.482
 3115SOL     OW10243   4.671   5.609   5.025
 3115SOL    HW110244   4.682   5.599   4.927
 3115SOL    HW210245   4.611   5.686   5.045
 3116SOL     OW10246   0.843   2.575   6.866
 3116SOL    HW110247   0.801   2.641   6.805
 3116SOL    HW210248   0.908   2.622   6.927
 3117SOL     OW10249   4.307   0.334   1.955
 3117SOL    HW110250   4.310   0.328   1.855
 3117SOL    HW210251   4.396   0.308   1.993
 3118SOL     OW10252   0.709   2.413   3.451
 3118SOL    HW110253   0.784   2.371   3.501
 3118SOL    HW210254   0.658   2.343   3.401
 3119SOL     OW10255   4.506   6.293   3.931
 3119SOL    HW110256   4.463   6.382   3.916
 3119SOL    HW210257   4.594   6.289   3.884
 3120SOL     OW10258   3.550   6.236   6.320
 3120SOL    HW110259   3.513   6.317   6.275
 3120SOL    HW210260   3.642   6.218   6.286
 3121SOL     OW10261   3.868   1.857   3.240
 3121SOL    HW110262   3.819   1.897   3.318
 3121SOL    HW210263   3.923   1.780   3.272
 3122SOL     OW10264   5.569   3.387   6.209
 3122SOL    HW110265   5.621   3.302   6.217
 3122SOL    HW210266   5.474   3.371   6.234
 3123SOL     OW10267   1.849   3.004   2.357
 3123SOL    HW110268   1.931   3.034   2.405
 3123SOL    HW210269   1.819   3.075   2.294
 3124SOL     OW10270   4.807   6.750   5.873
 3124SOL    HW110271   4.904   6.749   5.852
 3124SOL    HW210272   4.785   6.676   5.937
 3125SOL     OW10273   1.636   1.678   4.903
 3125SOL    HW110274   1.710   1.705   4.965
 3125SOL    HW210275   1.610   1.583   4.922
 3126SOL     OW10276   4.985   4.344   5.488
 3126SOL    HW110277   4.901   4.338   5.542
 3126SOL    HW210278   5.063   4.317   5.544
 3127SOL     OW10279   6.141   1.988   5.906
 3127SOL    HW110280   6.113   2.064   5.965
 3127SOL    HW210281   6.087   1.907   5.928
 3128SOL     OW10282   4.389   1.406   1.172
 3128SOL    HW110283   4.312   1.459   1.137
 3128SOL    HW210284   4.358   1.347   1.247
 3129SOL     OW10285   4.535   4.528   0.513
 3129SOL    HW110286   4.495   4.571   0.594
 3129SOL    HW210287   4.463   4.511   0.446
 3130SOL     OW10288   6.569   5.667   2.323
 3130SOL    HW110289   6.549   5.572   2.347
 3130SOL    HW210290   6.668   5.681   2.323
 3131SOL     OW10291   0.254   2.540   3.429
 3131SOL    HW110292   0.199   2.462   3.401
 3131SOL    HW210293   0.227   2.569   3.521
 3132SOL     OW10294   4.475   3.811   6.180
 3132SOL    HW110295   4.407   3.745   6.213
 3132SOL    HW210296   4.524   3.849   6.259
 3133SOL     OW10297   5.933   6.318   4.133
 3133SOL    HW110298   5.999   6.374   4.083
 3133SOL    HW210299   5.977   6.234   4.163
 3134SOL     OW10300   4.265   5.310   3.098
 3134SOL    HW110301   4.277   5.409   3.087
 3134SOL    HW210302   4.240   5.290   3.193
 3135SOL     OW10303   3.980   0.768   6.215
 3135SOL    HW110304   4.040   0.833   6.167
 3135SOL    HW210305   4.026   0.735   6.297
 3136SOL     OW10306   6.288   6.510   2.401
 3136SOL    HW110307   6.257   6.553   2.316
 3136SOL    HW210308   6.215   6.514   2.469
 3137SOL     OW10309   5.196   4.264   6.971
 3137SOL    HW110310   5.247   4.291   6.890
 3137SOL    HW210311   5.108   4.224   6.944
 3138SOL     OW10312   6.895   6.482   4.650
 3138SOL    HW110313   6.988   6.491   4.614
 3138SOL    HW210314   6.839   6.430   4.586
 3139SOL     OW10315   1.283   4.838   2.233
 3139SOL    HW110316   1.313   4.803   2.322
 3139SOL    HW210317   1.201   4.894   2.245
 3140SOL     OW10318   5.091   5.587   6.920
 3140SOL    HW110319   5.183   5.558   6.895
 3140SOL    HW210320   5.076   5.569   7.018
 3141SOL     OW10321   5.933   2.238   0.206
 3141SOL    HW110322   5.980   2.260   0.291
 3141SOL    HW210323   5.895   2.321   0.166
 3142SOL     OW10324   4.503   0.441   4.044
 3142SOL    HW110325   4.585   0.470   4.093
 3142SOL    HW210326   4.432   0.416   4.109
 3143SOL     OW10327   6.447   1.634   0.369
 3143SOL    HW110328   6.419   1.544   0.403
 3143SOL    HW210329   6.515   1.674   0.430
 3144SOL     OW10330   3.828   4.957   6.341
 3144SOL    HW110331   3.860   5.002   6.257
 3144SOL    HW210332   3.798   5.027   6.406
 3145SOL     OW10333   0.732   6.176   5.634
 3145SOL    HW110334   0.708   6.268   5.664
 3145SOL    HW210335   0.762   6.122   5.713
 3146SOL     OW10336   6.692   1.630   4.100
 3146SOL    HW110337   6.625   1.628   4.174
 3146SOL    HW210338   6.656   1.685   4.024
 3147SOL     OW10339   4.669   6.825   0.760
 3147SOL    HW110340   4.616   6.867   0.687
 3147SOL    HW210341   4.609   6.808   0.839
 3148SOL     OW10342   5.965   5.028   0.284
 3148SOL    HW110343   5.875   5.059   0.252
 3148SOL    HW210344   6.036   5.085   0.243
 3149SOL     OW10345   4.069   3.140   0.164
 3149SOL    HW110346   3.984   3.138   0.111
 3149SOL    HW210347   4.115   3.227   0.151
 3150SOL     OW10348   0.223   0.316   5.309
 3150SOL    HW110349   0.294   0.386   5.309
 3150SOL    HW210350   0.152   0.340   5.242
 3151SOL     OW10351   0.039   1.500   6.291
 3151SOL    HW110352   0.049   1.401   6.299
 3151SOL    HW210353   0.094   1.546   6.361
 3152SOL     OW10354   2.792   1.867   6.146
 3152SOL    HW110355   2.866   1.934   6.149
 3152SOL    HW210356   2.726   1.893   6.075
 3153SOL     OW10357   6.012   5.874   1.727
 3153SOL    HW110358   6.004   5.956   1.783
 3153SOL    HW210359   6.072   5.808   1.774
 3154SOL     OW10360   3.534   2.053   1.177
 3154SOL    HW110361   3.469   2.055   1.253
 3154SOL    HW210362   3.522   2.135   1.121
 3155SOL     OW10363   0.364   6.073   6.841
 3155SOL    HW110364   0.410   6.090   6.754
 3155SOL    HW210365   0.271   6.039   6.824
 3156SOL     OW10366   3.230   3.983   0.830
 3156SOL    HW110367   3.209   3.889   0.801
 3156SOL    HW210368   3.327   4.002   0.813
 3157SOL     OW10369   1.419   1.427   3.669
 3157SOL    HW110370   1.474   1.349   3.639
 3157SOL    HW210371   1.472   1.483   3.732
 3158SOL     OW10372   2.608   0.281   6.069
 3158SOL    HW110373   2.519   0.254   6.032
 3158SOL    HW210374   2.598   0.366   6.121
 3159SOL     OW10375   4.499   6.052   1.442
 3159SOL    HW110376   4.537   6.100   1.363
 3159SOL    HW210377   4.399   6.044   1.432
 3160SOL     OW10378   2.194   0.934   5.421
 3160SOL    HW110379   2.284   0.924   5.464
 3160SOL    HW210380   2.198   1.009   5.355
 3161SOL     OW10381   1.587   2.557   1.483
 3161SOL    HW110382   1.554   2.598   1.568
 3161SOL    HW210383   1.681   2.587   1.467
 3162SOL     OW10384   1.300   5.780   1.934
 3162SOL    HW110385   1.388   5.734   1.948
 3162SOL    HW210386   1.255   5.742   1.853
 3163SOL     OW10387   5.376   4.441   1.644
 3163SOL    HW110388   5.299   4.378   1.631
 3163SOL    HW210389   5.442   4.401   1.708
 3164SOL     OW10390   2.289   0.359   3.750
 3164SOL    HW110391   2.379   0.383   3.715
 3164SOL    HW210392   2.298   0.312   3.838
 3165SOL     OW10393   0.390   5.676   6.959
 3165SOL    HW110394   0.328   5.604   6.987
 3165SOL    HW210395   0.357   5.764   6.992
 3166SOL     OW10396   3.723   2.002   4.876
 3166SOL    HW110397   3.765   2.065   4.811
 3166SOL    HW210398   3.630   1.979   4.845
 3167SOL     OW10399   6.585   3.354   2.196
 3167SOL    HW110400   6.644   3.432   2.217
 3167SOL    HW210401   6.526   3.378   2.118
 3168SOL     OW10402   5.433   1.732   0.460
 3168SOL    HW110403   5.403   1.712   0.553
 3168SOL    HW210404   5.486   1.817   0.459
 3169SOL     OW10405   0.933   2.975   1.581
 3169SOL    HW110406   0.973   2.931   1.662
 3169SOL    HW210407   0.906   2.905   1.515
 3170SOL     OW10408   2.362   4.347   3.845
 3170SOL    HW110409   2.441   4.349   3.906
 3170SOL    HW210410   2.353   4.434   3.797
 3171SOL     OW10411   5.285   1.649   4.858
 3171SOL    HW110412   5.369   1.690   4.894
 3171SOL    HW210413   5.295   1.631   4.760
 3172SOL     OW10414   5.984   4.043   1.413
 3172SOL    HW110415   6.062   4.021   1.354
 3172SOL    HW210416   5.952   4.135   1.394
 3173SOL     OW10417   4.552   3.628   6.995
 3173SOL    HW110418   4.648   3.625   7.021
 3173SOL    HW210419   4.512   3.716   7.021
 3174SOL     OW10420   2.854   3.138   0.052
 3174SOL    HW110421   2.822   3.149   0.146
 3174SOL    HW210422   2.840   3.223   0.002
 3175SOL     OW10423   6.162   5.959   5.318
 3175SOL    HW110424   6.139   5.975   5.222
 3175SOL    HW210425   6.172   5.861   5.333
 3176SOL     OW10426   0.189   4.836   3.998
 3176SOL    HW110427   0.243   4.876   3.924
 3176SOL    HW210428   0.250   4.794   4.065
 3177SOL     OW10429   5.362   2.532   1.806
 3177SOL    HW110430   5.266   2.531   1.832
 3177SOL    HW210431   5.392   2.440   1.781
 3178SOL     OW10432   1.371   0.818   2.878
 3178SOL    HW110433   1.458   0.866   2.874
 3178SOL    HW210434   1.354   0.773   2.790
 3179SOL     OW10435   0.773   3.721   2.638
 3179SOL    HW110436   0.801   3.700   2.544
 3179SOL    HW210437   0.854   3.730   2.696
 3180SOL     OW10438   6.061   0.090   6.689
 3180SOL    HW110439   6.126   0.115   6.760
 3180SOL    HW210440   6.009   0.171   6.661
 3181SOL     OW10441   0.453   6.401   4.590
 3181SOL    HW110442   0.406   6.485   4.562
 3181SOL    HW210443   0.536   6.424   4.640
 3182SOL     OW10444   1.555   0.050   1.421
 3182SOL    HW110445   1.542   6.996   1.358
 3182SOL    HW210446   1.622   0.113   1.383
 3183SOL     OW10447   4.083   3.979   0.375
 3183SOL    HW110448   4.009   3.998   0.312
 3183SOL    HW210449   4.138   3.903   0.340
 3184SOL     OW10450   6.284   0.895   4.703
 3184SOL    HW110451   6.307   0.802   4.674
 3184SOL    HW210452   6.352   0.927   4.769
 3185SOL     OW10453   1.477   0.174   6.183
 3185SOL    HW110454   1.570   0.186   6.148
 3185SOL    HW210455   1.471   0.211   6.276
 3186SOL     OW10456   0.719   2.170   5.689
 3186SOL    HW110457   0.713   2.212   5.779
 3186SOL    HW210458   0.683   2.077   5.693
 3187SOL     OW10459   5.023   0.216   3.419
 3187SOL    HW110460   4.952   0.180   3.479
 3187SOL    HW210461   5.013   0.316   3.412
 3188SOL     OW10462   1.688   6.068   1.365
 3188SOL    HW110463   1.612   6.063   1.300
 3188SOL    HW210464   1.663   6.126   1.443
 3189SOL     OW10465   2.678   1.712   5.597
 3189SOL    HW110466   2.677   1.621   5.638
 3189SOL    HW210467   2.669   1.705   5.498
 3190SOL     OW10468   6.138   6.108   4.741
 3190SOL    HW110469   6.086   6.169   4.801
 3190SOL    HW210470   6.147   6.150   4.651
 3191SOL     OW10471   3.962   5.202   0.894
 3191SOL    HW110472   3.929   5.258   0.969
 3191SOL    HW210473   4.017   5.258   0.832
 3192SOL     OW10474   5.928   0.802   3.139
 3192SOL    HW110475   6.000   0.857   3.179
 3192SOL    HW210476   5.852   0.793   3.203
 3193SOL     OW10477   3.781   5.613   4.356
 3193SOL    HW110478   3.703   5.550   4.356
 3193SOL    HW210479   3.819   5.620   4.263
 3194SOL     OW10480   2.628   6.322   5.489
 3194SOL    HW110481   2.564   6.252   5.520
 3194SOL    HW210482   2.618   6.404   5.545
 3195SOL     OW10483   0.715   5.680   1.286
 3195SOL    HW110484   0.783   5.706   1.354
 3195SOL    HW210485   0.643   5.625   1.330
 3196SOL     OW10486   6.006   0.238   2.895
 3196SOL    HW110487   5.971   0.146   2.910
 3196SOL    HW210488   5.960   0.302   2.956
 3197SOL     OW10489   2.948   1.086   0.122
 3197SOL    HW110490   3.030   1.117   0.172
 3197SOL    HW210491   2.974   1.014   0.058
 3198SOL     OW10492   5.430   4.370   4.040
 3198SOL    HW110493   5.517   4.341   4.001
 3198SOL    HW210494   5.383   4.291   4.079
 3199SOL     OW10495   5.006   3.696   3.686
 3199SOL    HW110496   4.933   3.743   3.736
 3199SOL    HW210497   4.969   3.654   3.604
 3200SOL     OW10498   6.476   3.297   4.645
 3200SOL    HW110499   6.450   3.366   4.578
 3200SOL    HW210500   6.492   3.210   4.599
 3201SOL     OW10501   6.232   3.594   2.476
 3201SOL    HW110502   6.267   3.661   2.410
 3201SOL    HW210503   6.233   3.633   2.567
 3202SOL     OW10504   2.933   2.784   6.052
 3202SOL    HW110505   3.016   2.759   6.102
 3202SOL    HW210506   2.903   2.707   5.996
 3203SOL     OW10507   3.110   6.381   1.856
 3203SOL    HW110508   3.167   6.428   1.924
 3203SOL    HW210509   3.146   6.398   1.765
 3204SOL     OW10510   5.041   0.549   3.615
 3204SOL    HW110511   5.009   0.644   3.623
 3204SOL    HW210512   5.029   0.503   3.703
 3205SOL     OW10513   5.071   3.103   0.355
 3205SOL    HW110514   5.055   3.154   0.439
 3205SOL    HW210515   5.035   3.154   0.277
 3206SOL     OW10516   3.399   4.946   0.220
 3206SOL    HW110517   3.430   4.965   0.127
 3206SOL    HW210518   3.476   4.914   0.275
 3207SOL     OW10519   1.837   6.491   3.360
 3207SOL    HW110520   1.843   6.590   3.358
 3207SOL    HW210521   1.882   6.452   3.279
 3208SOL     OW10522   0.066   3.893   6.863
 3208SOL    HW110523   0.016   3.875   6.779
 3208SOL    HW210524   0.160   3.859   6.854
 3209SOL     OW10525   5.073   0.160   5.116
 3209SOL    HW110526   5.113   0.188   5.203
 3209SOL    HW210527   4.990   0.212   5.098
 3210SOL     OW10528   5.208   4.901   2.277
 3210SOL    HW110529   5.267   4.872   2.352
 3210SOL    HW210530   5.145   4.971   2.308
 3211SOL     OW10531   2.490   6.962   0.047
 3211SOL    HW110532   2.398   6.959   0.010
 3211SOL    HW210533   2.496   0.013   0.115
 3212SOL     OW10534   3.441   6.912   4.487
 3212SOL    HW110535   3.452   6.821   4.527
 3212SOL    HW210536   3.530   6.956   4.478
 3213SOL     OW10537   1.510   0.520   5.888
 3213SOL    HW110538   1.413   0.542   5.892
 3213SOL    HW210539   1.545   0.538   5.796
 3214SOL     OW10540   2.930   0.485   2.740
 3214SOL    HW110541   2.997   0.486   2.815
 3214SOL    HW210542   2.910   0.579   2.712
 3215SOL     OW10543   2.139   3.214   1.923
 3215SOL    HW110544   2.171   3.301   1.961
 3215SOL    HW210545   2.058   3.230   1.867
 3216SOL     OW10546   6.205   4.196   0.851
 3216SOL    HW110547   6.173   4.113   0.805
 3216SOL    HW210548   6.168   4.199   0.944
 3217SOL     OW10549   6.395   5.994   3.511
 3217SOL    HW110550   6.352   5.904   3.512
 3217SOL    HW210551   6.374   6.040   3.425
 3218SOL     OW10552   5.756   1.370   3.647
 3218SOL    HW110553   5.759   1.331   3.554
 3218SOL    HW210554   5.786   1.301   3.713
 3219SOL     OW10555   5.164   1.863   4.395
 3219SOL    HW110556   5.171   1.864   4.295
 3219SOL    HW210557   5.068   1.872   4.422
 3220SOL     OW10558   0.427   3.422   5.603
 3220SOL    HW110559   0.358   3.351   5.617
 3220SOL    HW210560   0.382   3.509   5.584
 3221SOL     OW10561   4.374   1.715   2.121
 3221SOL    HW110562   4.389   1.808   2.086
 3221SOL    HW210563   4.358   1.718   2.219
 3222SOL     OW10564   3.366   1.214   3.736
 3222SOL    HW110565   3.423   1.145   3.782
 3222SOL    HW210566   3.418   1.298   3.726
 3223SOL     OW10567   1.774   5.524   0.410
 3223SOL    HW110568   1.706   5.541   0.482
 3223SOL    HW210569   1.842   5.459   0.444
 3224SOL     OW10570   4.663   2.572   3.827
 3224SOL    HW110571   4.711   2.541   3.745
 3224SOL    HW210572   4.698   2.662   3.855
 3225SOL     OW10573   4.533   1.028   4.846
 3225SOL    HW110574   4.575   1.119   4.839
 3225SOL    HW210575   4.474   1.011   4.767
 3226SOL     OW10576   5.917   1.092   0.612
 3226SOL    HW110577   5.822   1.122   0.601
 3226SOL    HW210578   5.927   1.001   0.571
 3227SOL     OW10579   6.009   4.008   5.545
 3227SOL    HW110580   6.098   3.967   5.525
 3227SOL    HW210581   5.939   3.937   5.549
 3228SOL     OW10582   1.926   4.387   0.524
 3228SOL    HW110583   1.987   4.311   0.501
 3228SOL    HW210584   1.920   4.396   0.623
 3229SOL     OW10585   0.986   0.846   0.922
 3229SOL    HW110586   0.929   0.927   0.929
 3229SOL    HW210587   1.050   0.856   0.846
 3230SOL     OW10588   3.510   6.454   5.112
 3230SOL    HW110589   3.489   6.549   5.088
 3230SOL    HW210590   3.438   6.419   5.173
 3231SOL     OW10591   2.730   2.351   2.518
 3231SOL    HW110592   2.764   2.328   2.609
 3231SOL    HW210593   2.795   2.318   2.449
 3232SOL     OW10594   2.814   4.889   3.808
 3232SOL    HW110595   2.888   4.907   3.872
 3232SOL    HW210596   2.821   4.952   3.731
 3233SOL     OW10597   2.702   0.392   5.632
 3233SOL    HW110598   2.713   0.353   5.541
 3233SOL    HW210599   2.639   0.469   5.629
 3234SOL     OW10600   3.492   3.569   0.791
 3234SOL    HW110601   3.445   3.602   0.874
 3234SOL    HW210602   3.542   3.644   0.749
 3235SOL     OW10603   0.408   1.721   2.407
 3235SOL    HW110604   0.318   1.677   2.411
 3235SOL    HW210605   0.396   1.819   2.396
 3236SOL     OW10606   5.582   6.915   0.354
 3236SOL    HW110607   5.646   6.847   0.320
 3236SOL    HW210608   5.582   6.915   0.454
 3237SOL     OW10609   6.069   1.505   5.330
 3237SOL    HW110610   5.978   1.487   5.368
 3237SOL    HW210611   6.078   1.603   5.311
 3238SOL     OW10612   6.988   5.265   1.107
 3238SOL    HW110613   0.014   5.180   1.126
 3238SOL    HW210614   6.902   5.245   1.061
 3239SOL     OW10615   5.836   0.625   4.773
 3239SOL    HW110616   5.858   0.529   4.785
 3239SOL    HW210617   5.748   0.645   4.818
 3240SOL     OW10618   0.923   1.676   1.523
 3240SOL    HW110619   0.882   1.757   1.480
 3240SOL    HW210620   1.022   1.685   1.523
 3241SOL     OW10621   0.372   2.820   5.644
 3241SOL    HW110622   0.455   2.820   5.700
 3241SOL    HW210623   0.397   2.830   5.547
 3242SOL     OW10624   0.317   4.986   5.561
 3242SOL    HW110625   0.395   4.925   5.573
 3242SOL    HW210626   0.344   5.068   5.512
 3243SOL     OW10627   5.852   5.531   4.555
 3243SOL    HW110628   5.763   5.505   4.517
 3243SOL    HW210629   5.842   5.614   4.609
 3244SOL     OW10630   4.443   0.513   6.644
 3244SOL    HW110631   4.518   0.465   6.599
 3244SOL    HW210632   4.358   0.463   6.630
 3245SOL     OW10633   2.544   6.250   4.188
 3245SOL    HW110634   2.548   6.298   4.100
 3245SOL    HW210635   2.458   6.272   4.234
 3246SOL     OW10636   6.603   5.513   3.089
 3246SOL    HW110637   6.585   5.535   2.994
 3246SOL    HW210638   6.523   5.537   3.145
 3247SOL     OW10639   2.142   4.414   4.529
 3247SOL    HW110640   2.186   4.485   4.585
 3247SOL    HW210641   2.206   4.339   4.513
 3248SOL     OW10642   6.367   2.393   3.767
 3248SOL    HW110643   6.278   2.440   3.771
 3248SOL    HW210644   6.375   2.345   3.679
 3249SOL     OW10645   3.998   3.931   4.226
 3249SOL    HW110646   4.030   4.024   4.211
 3249SOL    HW210647   3.932   3.929   4.301
 3250SOL     OW10648   4.630   5.578   3.800
 3250SOL    HW110649   4.544   5.546   3.840
 3250SOL    HW210650   4.649   5.528   3.716
 3251SOL     OW10651   2.509   2.054   2.450
 3251SOL    HW110652   2.575   2.071   2.377
 3251SOL    HW210653   2.460   2.138   2.471
 3252SOL     OW10654   1.785   1.795   2.485
 3252SOL    HW110655   1.759   1.852   2.563
 3252SOL    HW210656   1.715   1.725   2.470
 3253SOL     OW10657   6.575   3.634   0.856
 3253SOL    HW110658   6.578   3.733   0.847
 3253SOL    HW210659   6.529   3.594   0.777
 3254SOL     OW10660   6.105   6.800   0.704
 3254SOL    HW110661   6.127   6.785   0.608
 3254SOL    HW210662   6.134   6.721   0.758
 3255SOL     OW10663   3.650   4.911   2.368
 3255SOL    HW110664   3.577   4.862   2.415
 3255SOL    HW210665   3.658   5.003   2.404
 3256SOL     OW10666   5.529   2.757   1.887
 3256SOL    HW110667   5.485   2.668   1.878
 3256SOL    HW210668   5.459   2.827   1.902
 3257SOL     OW10669   2.408   0.900   2.787
 3257SOL    HW110670   2.345   0.904   2.864
 3257SOL    HW210671   2.502   0.892   2.821
 3258SOL     OW10672   0.760   5.220   3.853
 3258SOL    HW110673   0.778   5.189   3.946
 3258SOL    HW210674   0.702   5.153   3.806
 3259SOL     OW10675   6.087   5.334   3.533
 3259SOL    HW110676   6.076   5.433   3.531
 3259SOL    HW210677   6.144   5.308   3.611
 3260SOL     OW10678   2.257   4.573   3.466
 3260SOL    HW110679   2.284   4.596   3.559
 3260SOL    HW210680   2.269   4.475   3.451
 3261SOL     OW10681   6.349   6.975   3.570
 3261SOL    HW110682   6.303   6.910   3.631
 3261SOL    HW210683   6.424   6.930   3.523
 3262SOL     OW10684   3.155   1.856   3.195
 3262SOL    HW110685   3.136   1.954   3.194
 3262SOL    HW210686   3.153   1.822   3.289
 3263SOL     OW10687   5.516   6.988   1.935
 3263SOL    HW110688   5.500   0.009   1.846
 3263SOL    HW210689   5.610   6.953   1.938
 3264SOL     OW10690   0.970   4.866   5.920
 3264SOL    HW110691   0.996   4.920   6.000
 3264SOL    HW210692   1.020   4.779   5.920
 3265SOL     OW10693   6.938   6.395   5.893
 3265SOL    HW110694   6.958   6.468   5.827
 3265SOL    HW210695   6.886   6.433   5.970
 3266SOL     OW10696   3.808   4.685   6.504
 3266SOL    HW110697   3.860   4.703   6.421
 3266SOL    HW210698   3.871   4.683   6.583
 3267SOL     OW10699   3.108   0.188   0.950
 3267SOL    HW110700   3.141   0.281   0.930
 3267SOL    HW210701   3.177   0.138   1.002
 3268SOL     OW10702   5.387   4.229   2.092
 3268SOL    HW110703   5.405   4.131   2.080
 3268SOL    HW210704   5.335   4.243   2.177
 3269SOL     OW10705   2.199   5.251   0.934
 3269SOL    HW110706   2.240   5.162   0.914
 3269SOL    HW210707   2.126   5.240   1.002
 3270SOL     OW10708   1.852   2.985   6.697
 3270SOL    HW110709   1.942   2.946   6.715
 3270SOL    HW210710   1.838   2.994   6.599
 3271SOL     OW10711   0.754   3.915   1.457
 3271SOL    HW110712   0.677   3.937   1.517
 3271SOL    HW210713   0.834   3.969   1.484
 3272SOL     OW10714   3.748   0.157   0.823
 3272SOL    HW110715   3.835   0.203   0.839
 3272SOL    HW210716   3.707   0.190   0.738
 3273SOL     OW10717   4.259   3.707   6.642
 3273SOL    HW110718   4.354   3.696   6.611
 3273SOL    HW210719   4.198   3.662   6.577
 3274SOL     OW10720   4.143   0.722   2.289
 3274SOL    HW110721   4.113   0.637   2.246
 3274SOL    HW210722   4.075   0.793   2.272
 3275SOL     OW10723   5.477   0.500   1.785
 3275SOL    HW110724   5.460   0.497   1.883
 3275SOL    HW210725   5.568   0.538   1.768
 3276SOL     OW10726   5.733   5.722   6.980
 3276SOL    HW110727   5.805   5.683   0.015
 3276SOL    HW210728   5.677   5.786   0.011
 3277SOL     OW10729   3.462   1.105   2.130
 3277SOL    HW110730   3.417   1.105   2.041
 3277SOL    HW210731   3.461   1.198   2.168
 3278SOL     OW10732   5.178   1.722   6.654
 3278SOL    HW110733   5.241   1.708   6.731
 3278SOL    HW210734   5.211   1.672   6.574
 3279SOL     OW10735   4.151   0.551   2.878
 3279SOL    HW110736   4.178   0.455   2.888
 3279SOL    HW210737   4.094   0.577   2.956
 3280SOL     OW10738   6.389   2.807   4.393
 3280SOL    HW110739   6.364   2.794   4.297
 3280SOL    HW210740   6.308   2.834   4.445
 3281SOL     OW10741   5.933   2.669   2.007
 3281SOL    HW110742   5.984   2.742   1.961
 3281SOL    HW210743   5.992   2.588   2.015
 3282SOL     OW10744   6.742   4.449   5.102
 3282SOL    HW110745   6.729   4.462   5.201
 3282SOL    HW210746   6.778   4.358   5.085
 3283SOL     OW10747   3.194   1.507   0.662
 3283SOL    HW110748   3.215   1.594   0.617
 3283SOL    HW210749   3.186   1.522   0.760
 3284SOL     OW10750   2.025   0.783   5.256
 3284SOL    HW110751   1.985   0.700   5.294
 3284SOL    HW210752   2.078   0.830   5.326
 3285SOL     OW10753   3.713   2.094   3.910
 3285SOL    HW110754   3.802   2.078   3.868
 3285SOL    HW210755   3.663   2.007   3.919
 3286SOL     OW10756   1.348   3.864   3.058
 3286SOL    HW110757   1.320   3.768   3.064
 3286SOL    HW210758   1.308   3.915   3.134
 3287SOL     OW10759   2.797   1.554   0.433
 3287SOL    HW110760   2.716   1.548   0.373
 3287SOL    HW210761   2.768   1.581   0.525
 3288SOL     OW10762   3.290   4.944   1.586
 3288SOL    HW110763   3.229   4.900   1.652
 3288SOL    HW210764   3.384   4.915   1.604
 3289SOL     OW10765   4.726   0.568   0.098
 3289SOL    HW110766   4.776   0.503   0.040
 3289SOL    HW210767   4.683   0.637   0.041
 3290SOL     OW10768   0.668   5.141   0.196
 3290SOL    HW110769   0.657   5.090   0.110
 3290SOL    HW210770   0.578   5.161   0.234
 3291SOL     OW10771   5.038   6.511   5.811
 3291SOL    HW110772   5.079   6.480   5.725
 3291SOL    HW210773   5.026   6.610   5.808
 3292SOL     OW10774   0.285   3.248   1.000
 3292SOL    HW110775   0.226   3.192   1.058
 3292SOL    HW210776   0.266   3.345   1.015
 3293SOL     OW10777   6.665   4.329   2.509
 3293SOL    HW110778   6.686   4.372   2.597
 3293SOL    HW210779   6.707   4.382   2.435
 3294SOL     OW10780   3.853   2.905   5.239
 3294SOL    HW110781   3.927   2.845   5.269
 3294SOL    HW210782   3.765   2.867   5.267
 3295SOL     OW10783   1.252   3.087   3.612
 3295SOL    HW110784   1.339   3.037   3.603
 3295SOL    HW210785   1.259   3.174   3.564
 3296SOL     OW10786   2.268   0.686   0.220
 3296SOL    HW110787   2.258   0.686   0.319
 3296SOL    HW210788   2.220   0.765   0.182
 3297SOL     OW10789   3.121   0.418   5.516
 3297SOL    HW110790   3.143   0.325   5.544
 3297SOL    HW210791   3.135   0.480   5.593
 3298SOL     OW10792   3.486   4.230   6.028
 3298SOL    HW110793   3.423   4.179   6.086
 3298SOL    HW210794   3.434   4.294   5.970
 3299SOL     OW10795   2.443   6.955   4.563
 3299SOL    HW110796   2.350   6.986   4.542
 3299SOL    HW210797   2.440   6.859   4.592
 3300SOL     OW10798   1.956   0.905   3.314
 3300SOL    HW110799   1.962   1.005   3.311
 3300SOL    HW210800   1.860   0.877   3.306
 3301SOL     OW10801   1.169   1.109   2.223
 3301SOL    HW110802   1.126   1.098   2.313
 3301SOL    HW210803   1.172   1.020   2.177
 3302SOL     OW10804   1.422   4.403   4.976
 3302SOL    HW110805   1.386   4.316   4.941
 3302SOL    HW210806   1.513   4.419   4.937
 3303SOL     OW10807   4.144   3.647   0.480
 3303SOL    HW110808   4.082   3.724   0.497
 3303SOL    HW210809   4.094   3.561   0.486
 3304SOL     OW10810   2.482   3.822   0.967
 3304SOL    HW110811   2.544   3.783   1.036
 3304SOL    HW210812   2.388   3.799   0.992
 3305SOL     OW10813   2.954   2.903   0.051
 3305SOL    HW110814   2.958   2.872   6.978
 3305SOL    HW210815   2.922   2.998   0.053
 3306SOL     OW10816   2.557   0.691   0.860
 3306SOL    HW110817   2.656   0.703   0.872
 3306SOL    HW210818   2.518   0.655   0.945
 3307SOL     OW10819   2.345   5.601   4.770
 3307SOL    HW110820   2.362   5.528   4.703
 3307SOL    HW210821   2.423   5.664   4.770
 3308SOL     OW10822   5.093   5.256   1.258
 3308SOL    HW110823   5.100   5.338   1.315
 3308SOL    HW210824   5.043   5.186   1.308
 3309SOL     OW10825   6.140   3.675   4.263
 3309SOL    HW110826   6.136   3.715   4.354
 3309SOL    HW210827   6.083   3.727   4.200
 3310SOL     OW10828   6.627   4.504   6.390
 3310SOL    HW110829   6.671   4.571   6.330
 3310SOL    HW210830   6.637   4.534   6.485
 3311SOL     OW10831   2.275   2.718   0.001
 3311SOL    HW110832   2.299   2.638   6.968
 3311SOL    HW210833   2.312   2.707   0.093
 3312SOL     OW10834   4.940   3.610   0.511
 3312SOL    HW110835   4.994   3.683   0.470
 3312SOL    HW210836   4.996   3.527   0.516
 3313SOL     OW10837   0.919   6.789   3.845
 3313SOL    HW110838   0.843   6.846   3.878
 3313SOL    HW210839   0.998   6.847   3.827
 3314SOL     OW10840   3.056   6.280   3.354
 3314SOL    HW110841   3.104   6.330   3.426
 3314SOL    HW210842   3.115   6.206   3.321
 3315SOL     OW10843   0.817   6.502   4.005
 3315SOL    HW110844   0.909   6.475   4.032
 3315SOL    HW210845   0.815   6.518   3.906
 3316SOL     OW10846   3.246   1.667   0.259
 3316SOL    HW110847   3.236   1.717   0.173
 3316SOL    HW210848   3.268   1.571   0.240
 3317SOL     OW10849   5.722   2.303   0.909
 3317SOL    HW110850   5.657   2.285   0.982
 3317SOL    HW210851   5.674   2.343   0.831
 3318SOL     OW10852   3.841   2.712   0.985
 3318SOL    HW110853   3.801   2.802   1.002
 3318SOL    HW210854   3.881   2.711   0.893
 3319SOL     OW10855   6.488   6.702   3.669
 3319SOL    HW110856   6.395   6.704   3.633
 3319SOL    HW210857   6.494   6.635   3.743
 3320SOL     OW10858   6.247   0.669   2.242
 3320SOL    HW110859   6.345   0.688   2.238
 3320SOL    HW210860   6.232   0.573   2.266
 3321SOL     OW10861   4.850   1.851   0.024
 3321SOL    HW110862   4.854   1.777   6.980
 3321SOL    HW210863   4.786   1.827   0.097
 3322SOL     OW10864   6.134   3.602   1.624
 3322SOL    HW110865   6.068   3.676   1.608
 3322SOL    HW210866   6.181   3.581   1.539
 3323SOL     OW10867   1.276   0.874   2.110
 3323SOL    HW110868   1.222   0.876   2.026
 3323SOL    HW210869   1.359   0.929   2.097
 3324SOL     OW10870   6.207   5.376   5.824
 3324SOL    HW110871   6.166   5.293   5.785
 3324SOL    HW210872   6.307   5.370   5.818
 3325SOL     OW10873   2.950   5.572   6.119
 3325SOL    HW110874   2.873   5.512   6.098
 3325SOL    HW210875   2.989   5.608   6.034
 3326SOL     OW10876   3.743   1.941   2.022
 3326SOL    HW110877   3.763   1.912   1.929
 3326SOL    HW210878   3.661   1.998   2.022
 3327SOL     OW10879   1.647   6.341   6.017
 3327SOL    HW110880   1.554   6.360   6.047
 3327SOL    HW210881   1.657   6.244   5.997
 3328SOL     OW10882   4.754   3.032   5.212
 3328SOL    HW110883   4.765   3.125   5.176
 3328SOL    HW210884   4.674   3.029   5.273
 3329SOL     OW10885   6.581   6.425   5.927
 3329SOL    HW110886   6.643   6.429   6.005
 3329SOL    HW210887   6.586   6.334   5.885
 3330SOL     OW10888   6.898   2.697   2.696
 3330SOL    HW110889   6.798   2.696   2.704
 3330SOL    HW210890   6.936   2.745   2.775
 3331SOL     OW10891   1.758   3.247   0.387
 3331SOL    HW110892   1.700   3.328   0.399
 3331SOL    HW210893   1.782   3.237   0.291
 3332SOL     OW10894   0.415   3.966   1.894
 3332SOL    HW110895   0.424   4.059   1.927
 3332SOL    HW210896   0.444   3.902   1.965
 3333SOL     OW10897   3.128   5.688   5.122
 3333SOL    HW110898   3.222   5.716   5.144
 3333SOL    HW210899   3.128   5.593   5.093
 3334SOL     OW10900   1.343   3.190   1.123
 3334SOL    HW110901   1.348   3.263   1.055
 3334SOL    HW210902   1.435   3.158   1.145
 3335SOL     OW10903   5.677   4.273   4.455
 3335SOL    HW110904   5.581   4.245   4.462
 3335SOL    HW210905   5.682   4.372   4.445
 3336SOL     OW10906   3.560   6.605   5.671
 3336SOL    HW110907   3.498   6.557   5.732
 3336SOL    HW210908   3.576   6.550   5.589
 3337SOL     OW10909   3.516   1.671   0.760
 3337SOL    HW110910   3.525   1.623   0.673
 3337SOL    HW210911   3.509   1.605   0.834
 3338SOL     OW10912   6.726   5.178   0.023
 3338SOL    HW110913   6.790   5.112   7.006
 3338SOL    HW210914   6.693   5.144   0.111
 3339SOL     OW10915   0.651   4.774   6.250
 3339SOL    HW110916   0.737   4.788   6.202
 3339SOL    HW210917   0.577   4.767   6.184
 3340SOL     OW10918   4.299   0.307   1.673
 3340SOL    HW110919   4.227   0.352   1.621
 3340SOL    HW210920   4.388   0.339   1.641
 3341SOL     OW10921   0.910   0.288   6.885
 3341SOL    HW110922   0.977   0.298   6.959
 3341SOL    HW210923   0.875   0.378   6.859
 3342SOL     OW10924   1.997   6.917   5.629
 3342SOL    HW110925   1.905   6.952   5.647
 3342SOL    HW210926   1.991   6.820   5.605
 3343SOL     OW10927   0.207   2.373   1.100
 3343SOL    HW110928   0.111   2.344   1.094
 3343SOL    HW210929   0.265   2.293   1.115
 3344SOL     OW10930   1.541   2.894   6.313
 3344SOL    HW110931   1.584   2.965   6.256
 3344SOL    HW210932   1.507   2.821   6.255
 3345SOL     OW10933   2.632   3.140   5.941
 3345SOL    HW110934   2.695   3.183   5.877
 3345SOL    HW210935   2.664   3.048   5.963
 3346SOL     OW10936   2.006   5.740   2.688
 3346SOL    HW110937   2.048   5.668   2.742
 3346SOL    HW210938   1.992   5.821   2.745
 3347SOL     OW10939   6.408   3.748   4.226
 3347SOL    HW110940   6.422   3.762   4.324
 3347SOL    HW210941   6.330   3.686   4.212
 3348SOL     OW10942   3.470   3.872   3.488
 3348SOL    HW110943   3.557   3.831   3.517
 3348SOL    HW210944   3.398   3.803   3.490
 3349SOL     OW10945   4.791   2.606   0.327
 3349SOL    HW110946   4.861   2.654   0.380
 3349SOL    HW210947   4.721   2.671   0.298
 3350SOL     OW10948   2.425   2.850   1.056
 3350SOL    HW110949   2.393   2.761   1.025
 3350SOL    HW210950   2.388   2.869   1.148
 3351SOL     OW10951   6.243   2.655   0.539
 3351SOL    HW110952   6.238   2.753   0.518
 3351SOL    HW210953   6.151   2.618   0.550
 3352SOL     OW10954   0.065   3.515   0.122
 3352SOL    HW110955   0.009   3.574   0.181
 3352SOL    HW210956   0.134   3.469   0.178
 3353SOL     OW10957   1.351   6.695   6.392
 3353SOL    HW110958   1.394   6.785   6.405
 3353SOL    HW210959   1.415   6.634   6.345
 3354SOL     OW10960   1.007   0.155   2.107
 3354SOL    HW110961   0.972   0.104   2.186
 3354SOL    HW210962   1.072   0.224   2.139
 3355SOL     OW10963   6.062   0.909   2.365
 3355SOL    HW110964   6.026   0.977   2.301
 3355SOL    HW210965   6.146   0.870   2.328
 3356SOL     OW10966   1.268   3.885   6.681
 3356SOL    HW110967   1.276   3.791   6.714
 3356SOL    HW210968   1.220   3.940   6.749
 3357SOL     OW10969   2.275   5.717   2.244
 3357SOL    HW110970   2.312   5.640   2.296
 3357SOL    HW210971   2.192   5.751   2.289
 3358SOL     OW10972   6.543   3.922   3.556
 3358SOL    HW110973   6.527   4.020   3.543
 3358SOL    HW210974   6.640   3.906   3.575
 3359SOL     OW10975   1.983   1.323   1.483
 3359SOL    HW110976   1.913   1.265   1.523
 3359SOL    HW210977   2.002   1.400   1.543
 3360SOL     OW10978   2.793   0.929   5.872
 3360SOL    HW110979   2.874   0.978   5.840
 3360SOL    HW210980   2.820   0.857   5.936
 3361SOL     OW10981   2.746   1.562   2.981
 3361SOL    HW110982   2.710   1.608   3.063
 3361SOL    HW210983   2.846   1.570   2.980
 3362SOL     OW10984   3.021   1.866   4.635
 3362SOL    HW110985   3.001   1.964   4.632
 3362SOL    HW210986   2.949   1.816   4.586
 3363SOL     OW10987   6.637   0.898   0.277
 3363SOL    HW110988   6.563   0.850   0.229
 3363SOL    HW210989   6.684   0.835   0.338
 3364SOL     OW10990   2.039   5.611   5.250
 3364SOL    HW110991   2.111   5.553   5.289
 3364SOL    HW210992   1.951   5.564   5.257
 3365SOL     OW10993   6.435   2.483   5.233
 3365SOL    HW110994   6.490   2.510   5.154
 3365SOL    HW210995   6.340   2.509   5.219
 3366SOL     OW10996   5.581   0.600   0.302
 3366SOL    HW110997   5.515   0.667   0.337
 3366SOL    HW210998   5.535   0.512   0.288
 3367SOL     OW10999   2.064   0.216   2.759
 3367SOL    HW111000   2.138   0.175   2.812
 3367SOL    HW211001   2.007   0.144   2.719
 3368SOL     OW11002   6.448   1.108   4.576
 3368SOL    HW111003   6.464   1.113   4.674
 3368SOL    HW211004   6.363   1.059   4.559
 3369SOL     OW11005   4.125   5.292   6.467
 3369SOL    HW111006   4.100   5.217   6.529
 3369SOL    HW211007   4.219   5.280   6.436
 3370SOL     OW11008   6.007   0.340   5.509
 3370SOL    HW111009   5.948   0.383   5.440
 3370SOL    HW211010   6.025   0.245   5.482
 3371SOL     OW11011   6.811   4.856   1.570
 3371SOL    HW111012   6.832   4.927   1.638
 3371SOL    HW211013   6.894   4.829   1.523
 3372SOL     OW11014   1.401   2.492   2.720
 3372SOL    HW111015   1.425   2.530   2.810
 3372SOL    HW211016   1.308   2.521   2.695
 3373SOL     OW11017   0.668   2.862   6.427
 3373SOL    HW111018   0.708   2.948   6.460
 3373SOL    HW211019   0.698   2.845   6.333
 3374SOL     OW11020   3.705   6.248   5.208
 3374SOL    HW111021   3.803   6.261   5.195
 3374SOL    HW211022   3.659   6.337   5.204
 3375SOL     OW11023   3.396   3.807   4.967
 3375SOL    HW111024   3.417   3.766   4.878
 3375SOL    HW211025   3.482   3.826   5.015
 3376SOL     OW11026   3.331   3.259   1.794
 3376SOL    HW111027   3.341   3.198   1.872
 3376SOL    HW211028   3.240   3.301   1.796
 3377SOL     OW11029   3.007   5.445   5.535
 3377SOL    HW111030   2.946   5.434   5.613
 3377SOL    HW211031   2.954   5.476   5.456
 3378SOL     OW11032   6.766   1.178   1.090
 3378SOL    HW111033   6.822   1.096   1.075
 3378SOL    HW211034   6.694   1.181   1.021
 3379SOL     OW11035   5.955   5.128   5.486
 3379SOL    HW111036   5.974   5.040   5.530
 3379SOL    HW211037   5.932   5.114   5.390
 3380SOL     OW11038   0.443   3.874   5.601
 3380SOL    HW111039   0.535   3.849   5.630
 3380SOL    HW211040   0.448   3.953   5.540
 3381SOL     OW11041   3.194   2.251   1.698
 3381SOL    HW111042   3.271   2.303   1.734
 3381SOL    HW211043   3.174   2.280   1.605
 3382SOL     OW11044   0.585   6.521   0.645
 3382SOL    HW111045   0.644   6.532   0.565
 3382SOL    HW211046   0.506   6.582   0.636
 3383SOL     OW11047   0.628   4.225   1.192
 3383SOL    HW111048   0.607   4.129   1.212
 3383SOL    HW211049   0.592   4.282   1.266
 3384SOL     OW11050   3.277   3.699   3.475
 3384SOL    HW111051   3.330   3.638   3.416
 3384SOL    HW211052   3.263   3.655   3.564
 3385SOL     OW11053   0.018   4.054   4.047
 3385SOL    HW111054   0.024   4.071   3.949
 3385SOL    HW211055   0.038   3.958   4.066
 3386SOL     OW11056   5.964   4.238   4.629
 3386SOL    HW111057   5.870   4.207   4.641
 3386SOL    HW211058   6.007   4.187   4.554
 3387SOL     OW11059   3.531   1.751   2.654
 3387SOL    HW111060   3.573   1.756   2.745
 3387SOL    HW211061   3.576   1.816   2.593
 3388SOL     OW11062   5.636   2.023   1.231
 3388SOL    HW111063   5.729   2.015   1.196
 3388SOL    HW211064   5.589   1.936   1.224
 3389SOL     OW11065   3.846   5.709   2.430
 3389SOL    HW111066   3.920   5.775   2.441
 3389SOL    HW211067   3.824   5.700   2.333
 3390SOL     OW11068   4.581   1.254   5.533
 3390SOL    HW111069   4.503   1.314   5.518
 3390SOL    HW211070   4.633   1.285   5.612
 3391SOL     OW11071   3.393   1.954   4.066
 3391SOL    HW111072   3.408   2.012   4.147
 3391SOL    HW211073   3.360   2.011   3.991
 3392SOL     OW11074   5.182   6.421   3.880
 3392SOL    HW111075   5.223   6.486   3.944
 3392SOL    HW211076   5.140   6.470   3.804
 3393SOL     OW11077   0.107   6.734   6.853
 3393SOL    HW111078   0.153   6.766   6.770
 3393SOL    HW211079   0.008   6.730   6.837
 3394SOL     OW11080   5.166   1.198   2.225
 3394SOL    HW111081   5.071   1.166   2.226
 3394SOL    HW211082   5.170   1.289   2.267
 3395SOL     OW11083   1.666   3.778   5.098
 3395SOL    HW111084   1.673   3.824   5.187
 3395SOL    HW211085   1.593   3.709   5.102
 3396SOL     OW11086   6.727   3.548   4.322
 3396SOL    HW111087   6.627   3.552   4.322
 3396SOL    HW211088   6.761   3.577   4.411
 3397SOL     OW11089   3.585   5.492   6.227
 3397SOL    HW111090   3.563   5.402   6.265
 3397SOL    HW211091   3.534   5.563   6.275
 3398SOL     OW11092   0.408   1.314   3.481
 3398SOL    HW111093   0.409   1.402   3.433
 3398SOL    HW211094   0.492   1.263   3.459
 3399SOL     OW11095   4.367   5.896   4.197
 3399SOL    HW111096   4.409   5.938   4.277
 3399SOL    HW211097   4.271   5.924   4.190
 3400SOL     OW11098   5.156   2.402   0.418
 3400SOL    HW111099   5.058   2.406   0.402
 3400SOL    HW211100   5.198   2.488   0.391
 3401SOL     OW11101   6.688   4.233   6.388
 3401SOL    HW111102   6.639   4.181   6.457
 3401SOL    HW211103   6.652   4.326   6.384
 3402SOL     OW11104   4.574   4.749   2.288
 3402SOL    HW111105   4.612   4.790   2.371
 3402SOL    HW211106   4.546   4.655   2.307
 3403SOL     OW11107   3.958   1.487   5.853
 3403SOL    HW111108   4.018   1.412   5.882
 3403SOL    HW211109   3.879   1.492   5.915
 3404SOL     OW11110   4.567   6.067   1.729
 3404SOL    HW111111   4.588   6.157   1.767
 3404SOL    HW211112   4.523   6.077   1.640
 3405SOL     OW11113   6.057   4.456   6.626
 3405SOL    HW111114   6.051   4.537   6.685
 3405SOL    HW211115   6.104   4.383   6.676
 3406SOL     OW11116   1.453   3.849   1.478
 3406SOL    HW111117   1.469   3.903   1.396
 3406SOL    HW211118   1.383   3.780   1.460
 3407SOL     OW11119   1.396   5.283   2.985
 3407SOL    HW111120   1.302   5.316   2.986
 3407SOL    HW211121   1.401   5.193   3.028
 3408SOL     OW11122   5.321   3.589   3.196
 3408SOL    HW111123   5.307   3.580   3.097
 3408SOL    HW211124   5.264   3.663   3.231
 3409SOL     OW11125   2.665   1.075   6.139
 3409SOL    HW111126   2.716   1.034   6.215
 3409SOL    HW211127   2.639   1.004   6.074
 3410SOL     OW11128   0.007   2.321   0.006
 3410SOL    HW111129   6.937   2.352   7.010
 3410SOL    HW211130   0.017   2.226   7.000
 3411SOL     OW11131   4.978   2.115   2.400
 3411SOL    HW111132   4.950   2.181   2.469
 3411SOL    HW211133   4.927   2.131   2.316
 3412SOL     OW11134   4.722   5.164   6.930
 3412SOL    HW111135   4.675   5.086   6.888
 3412SOL    HW211136   4.769   5.216   6.859
 3413SOL     OW11137   5.409   1.209   2.339
 3413SOL    HW111138   5.334   1.191   2.275
 3413SOL    HW211139   5.385   1.288   2.396
 3414SOL     OW11140   3.952   0.615   5.353
 3414SOL    HW111141   3.952   0.517   5.372
 3414SOL    HW211142   3.995   0.663   5.428
 3415SOL     OW11143   1.551   5.565   5.081
 3415SOL    HW111144   1.457   5.531   5.072
 3415SOL    HW211145   1.600   5.551   4.995
 3416SOL     OW11146   1.994   4.284   5.701
 3416SOL    HW111147   2.088   4.306   5.728
 3416SOL    HW211148   1.987   4.287   5.601
 3417SOL     OW11149   5.375   0.711   1.442
 3417SOL    HW111150   5.361   0.615   1.418
 3417SOL    HW211151   5.292   0.763   1.421
 3418SOL     OW11152   3.236   2.564   5.954
 3418SOL    HW111153   3.186   2.486   5.917
 3418SOL    HW211154   3.250   2.632   5.882
 3419SOL     OW11155   4.896   3.576   6.517
 3419SOL    HW111156   4.976   3.525   6.486
 3419SOL    HW211157   4.877   3.651   6.453
 3420SOL     OW11158   3.958   1.261   4.583
 3420SOL    HW111159   3.914   1.349   4.604
 3420SOL    HW211160   3.899   1.186   4.613
 3421SOL     OW11161   0.153   6.449   2.773
 3421SOL    HW111162   0.129   6.380   2.841
 3421SOL    HW211163   0.113   6.426   2.685
 3422SOL     OW11164   3.124   2.104   2.884
 3422SOL    HW111165   3.184   2.086   2.962
 3422SOL    HW211166   3.176   2.096   2.799
 3423SOL     OW11167   3.553   0.765   1.615
 3423SOL    HW111168   3.563   0.726   1.523
 3423SOL    HW211169   3.572   0.694   1.683
 3424SOL     OW11170   4.739   1.633   1.450
 3424SOL    HW111171   4.828   1.669   1.479
 3424SOL    HW211172   4.706   1.566   1.516
 3425SOL     OW11173   4.147   4.031   1.513
 3425SOL    HW111174   4.152   3.956   1.447
 3425SOL    HW211175   4.228   4.030   1.571
 3426SOL     OW11176   4.923   3.940   0.963
 3426SOL    HW111177   4.977   4.022   0.981
 3426SOL    HW211178   4.981   3.869   0.923
 3427SOL     OW11179   0.803   1.689   0.698
 3427SOL    HW111180   0.869   1.716   0.768
 3427SOL    HW211181   0.746   1.768   0.673
 3428SOL     OW11182   4.210   5.188   3.341
 3428SOL    HW111183   4.135   5.197   3.406
 3428SOL    HW211184   4.211   5.095   3.303
 3429SOL     OW11185   0.433   2.939   0.719
 3429SOL    HW111186   0.443   2.940   0.819
 3429SOL    HW211187   0.352   2.991   0.693
 3430SOL     OW11188   0.970   5.251   6.503
 3430SOL    HW111189   0.872   5.259   6.485
 3430SOL    HW211190   0.985   5.231   6.600
 3431SOL     OW11191   1.730   6.121   6.702
 3431SOL    HW111192   1.733   6.213   6.663
 3431SOL    HW211193   1.813   6.105   6.755
 3432SOL     OW11194   3.710   1.789   6.661
 3432SOL    HW111195   3.719   1.871   6.604
 3432SOL    HW211196   3.662   1.718   6.610
 3433SOL     OW11197   4.741   0.844   4.317
 3433SOL    HW111198   4.698   0.921   4.270
 3433SOL    HW211199   4.812   0.878   4.379
 3434SOL     OW11200   4.394   1.708   3.402
 3434SOL    HW111201   4.488   1.681   3.377
 3434SOL    HW211202   4.370   1.667   3.490
 3435SOL     OW11203   0.795   1.354   0.159
 3435SOL    HW111204   0.798   1.453   0.146
 3435SOL    HW211205   0.810   1.308   0.071
 3436SOL     OW11206   4.367   6.729   2.277
 3436SOL    HW111207   4.417   6.811   2.248
 3436SOL    HW211208   4.413   6.647   2.242
 3437SOL     OW11209   4.262   0.555   0.033
 3437SOL    HW111210   4.315   0.571   6.972
 3437SOL    HW211211   4.278   0.629   0.098
 3438SOL     OW11212   0.777   5.628   6.293
 3438SOL    HW111213   0.863   5.679   6.292
 3438SOL    HW211214   0.754   5.598   6.200
 3439SOL     OW11215   2.407   0.516   4.137
 3439SOL    HW111216   2.381   0.583   4.067
 3439SOL    HW211217   2.363   0.428   4.115
 3440SOL     OW11218   3.285   1.763   0.524
 3440SOL    HW111219   3.268   1.715   0.438
 3440SOL    HW211220   3.224   1.842   0.530
 3441SOL     OW11221   4.955   0.466   4.208
 3441SOL    HW111222   4.977   0.436   4.301
 3441SOL    HW211223   4.961   0.388   4.146
 3442SOL     OW11224   1.145   4.733   2.999
 3442SOL    HW111225   1.202   4.731   3.081
 3442SOL    HW211226   1.068   4.796   3.013
 3443SOL     OW11227   5.632   6.501   4.451
 3443SOL    HW111228   5.703   6.448   4.497
 3443SOL    HW211229   5.652   6.598   4.458
 3444SOL     OW11230   3.925   5.572   0.231
 3444SOL    HW111231   3.876   5.486   0.213
 3444SOL    HW211232   4.022   5.552   0.244
 3445SOL     OW11233   5.896   5.011   4.831
 3445SOL    HW111234   5.977   4.981   4.781
 3445SOL    HW211235   5.815   4.967   4.792
 3446SOL     OW11236   2.313   6.672   2.021
 3446SOL    HW111237   2.293   6.577   2.044
 3446SOL    HW211238   2.400   6.699   2.062
 3447SOL     OW11239   6.308   4.834   5.584
 3447SOL    HW111240   6.363   4.750   5.574
 3447SOL    HW211241   6.303   4.858   5.681
 3448SOL     OW11242   4.042   3.340   0.824
 3448SOL    HW111243   3.989   3.264   0.786
 3448SOL    HW211244   4.055   3.326   0.922
 3449SOL     OW11245   6.651   6.229   2.993
 3449SOL    HW111246   6.713   6.257   2.919
 3449SOL    HW211247   6.681   6.270   3.079
 3450SOL     OW11248   0.833   1.901   1.392
 3450SOL    HW111249   0.785   1.872   1.309
 3450SOL    HW211250   0.768   1.918   1.465
 3451SOL     OW11251   1.634   4.815   4.367
 3451SOL    HW111252   1.570   4.743   4.392
 3451SOL    HW211253   1.702   4.779   4.304
 3452SOL     OW11254   6.789   1.878   0.632
 3452SOL    HW111255   6.873   1.840   0.670
 3452SOL    HW211256   6.737   1.922   0.705
 3453SOL     OW11257   5.782   5.773   5.589
 3453SOL    HW111258   5.707   5.827   5.625
 3453SOL    HW211259   5.855   5.768   5.656
 3454SOL     OW11260   0.288   1.113   0.617
 3454SOL    HW111261   0.349   1.191   0.607
 3454SOL    HW211262   0.307   1.066   0.703
 3455SOL     OW11263   1.520   3.032   3.406
 3455SOL    HW111264   1.475   2.946   3.383
 3455SOL    HW211265   1.592   3.015   3.474
 3456SOL     OW11266   6.899   0.215   0.428
 3456SOL    HW111267   6.910   0.118   0.448
 3456SOL    HW211268   6.943   0.269   0.499
 3457SOL     OW11269   2.069   6.660   3.673
 3457SOL    HW111270   2.021   6.666   3.761
 3457SOL    HW211271   2.123   6.743   3.659
 3458SOL     OW11272   5.513   5.176   0.442
 3458SOL    HW111273   5.490   5.100   0.503
 3458SOL    HW211274   5.462   5.257   0.469
 3459SOL     OW11275   6.125   6.979   3.367
 3459SOL    HW111276   6.223   6.993   3.381
 3459SOL    HW211277   6.082   0.043   3.341
 3460SOL     OW11278   4.062   2.405   0.024
 3460SOL    HW111279   4.127   2.453   0.083
 3460SOL    HW211280   4.034   2.464   6.971
 3461SOL     OW11281   2.684   6.280   3.003
 3461SOL    HW111282   2.688   6.229   2.918
 3461SOL    HW211283   2.754   6.246   3.066
 3462SOL     OW11284   5.001   2.784   2.882
 3462SOL    HW111285   4.948   2.815   2.962
 3462SOL    HW211286   4.950   2.805   2.799
 3463SOL     OW11287   1.308   3.398   0.922
 3463SOL    HW111288   1.357   3.385   0.835
 3463SOL    HW211289   1.286   3.495   0.934
 3464SOL     OW11290   5.261   1.664   5.896
 3464SOL    HW111291   5.291   1.757   5.916
 3464SOL    HW211292   5.319   1.625   5.823
 3465SOL     OW11293   1.611   4.853   1.734
 3465SOL    HW111294   1.685   4.902   1.689
 3465SOL    HW211295   1.623   4.855   1.833
 3466SOL     OW11296   6.454   3.878   4.491
 3466SOL    HW111297   6.395   3.958   4.481
 3466SOL    HW211298   6.538   3.903   4.539
 3467SOL     OW11299   3.783   3.076   0.902
 3467SOL    HW111300   3.764   3.026   0.987
 3467SOL    HW211301   3.707   3.138   0.882
 3468SOL     OW11302   3.775   1.334   1.283
 3468SOL    HW111303   3.723   1.274   1.344
 3468SOL    HW211304   3.865   1.294   1.266
 3469SOL     OW11305   3.942   5.519   4.984
 3469SOL    HW111306   3.880   5.443   4.962
 3469SOL    HW211307   3.971   5.511   5.080
 3470SOL     OW11308   1.313   2.492   2.034
 3470SOL    HW111309   1.237   2.537   2.079
 3470SOL    HW211310   1.397   2.509   2.085
 3471SOL     OW11311   4.934   2.934   5.036
 3471SOL    HW111312   4.872   2.952   5.112
 3471SOL    HW211313   4.959   3.020   4.992
 3472SOL     OW11314   4.869   1.878   2.513
 3472SOL    HW111315   4.898   1.959   2.463
 3472SOL    HW211316   4.937   1.856   2.584
 3473SOL     OW11317   6.258   4.695   1.676
 3473SOL    HW111318   6.158   4.703   1.682
 3473SOL    HW211319   6.292   4.646   1.757
 3474SOL     OW11320   4.499   4.471   3.563
 3474SOL    HW111321   4.526   4.416   3.642
 3474SOL    HW211322   4.525   4.567   3.578
 3475SOL     OW11323   0.515   4.074   4.324
 3475SOL    HW111324   0.504   4.169   4.351
 3475SOL    HW211325   0.444   4.018   4.368
 3476SOL     OW11326   1.814   1.840   3.107
 3476SOL    HW111327   1.901   1.813   3.150
 3476SOL    HW211328   1.831   1.867   3.013
 3477SOL     OW11329   0.761   4.193   1.673
 3477SOL    HW111330   0.675   4.146   1.694
 3477SOL    HW211331   0.825   4.128   1.633
 3478SOL     OW11332   2.399   0.581   1.130
 3478SOL    HW111333   2.317   0.527   1.112
 3478SOL    HW211334   2.392   0.622   1.222
 3479SOL     OW11335   0.837   4.231   5.388
 3479SOL    HW111336   0.935   4.247   5.377
 3479SOL    HW211337   0.820   4.185   5.475
 3480SOL     OW11338   1.353   4.461   6.372
 3480SOL    HW111339   1.272   4.403   6.380
 3480SOL    HW211340   1.392   4.453   6.280
 3481SOL     OW11341   6.156   0.410   4.589
 3481SOL    HW111342   6.245   0.363   4.589
 3481SOL    HW211343   6.170   0.508   4.579
 3482SOL     OW11344   6.038   3.434   6.974
 3482SOL    HW111345   6.069   3.339   6.971
 3482SOL    HW211346   5.957   3.444   6.916
 3483SOL     OW11347   5.146   2.322   5.487
 3483SOL    HW111348   5.177   2.308   5.581
 3483SOL    HW211349   5.126   2.419   5.473
 3484SOL     OW11350   1.274   2.931   4.685
 3484SOL    HW111351   1.326   2.892   4.761
 3484SOL    HW211352   1.264   3.030   4.698
 3485SOL     OW11353   0.063   3.176   6.814
 3485SOL    HW111354   0.022   3.127   6.891
 3485SOL    HW211355   0.070   3.273   6.836
 3486SOL     OW11356   1.891   6.520   5.099
 3486SOL    HW111357   1.956   6.460   5.146
 3486SOL    HW211358   1.931   6.612   5.091
 3487SOL     OW11359   4.238   1.794   0.144
 3487SOL    HW111360   4.229   1.854   0.064
 3487SOL    HW211361   4.291   1.840   0.215
 3488SOL     OW11362   5.360   6.304   5.045
 3488SOL    HW111363   5.411   6.387   5.023
 3488SOL    HW211364   5.398   6.262   5.127
 3489SOL     OW11365   3.564   6.004   0.417
 3489SOL    HW111366   3.597   5.922   0.463
 3489SOL    HW211367   3.638   6.044   0.362
 3490SOL     OW11368   3.576   6.358   0.734
 3490SOL    HW111369   3.509   6.428   0.763
 3490SOL    HW211370   3.529   6.287   0.682
 3491SOL     OW11371   4.411   4.632   6.015
 3491SOL    HW111372   4.443   4.582   6.095
 3491SOL    HW211373   4.368   4.567   5.951
 3492SOL     OW11374   6.027   4.284   3.491
 3492SOL    HW111375   6.107   4.238   3.530
 3492SOL    HW211376   5.994   4.232   3.413
 3493SOL     OW11377   6.759   3.347   5.817
 3493SOL    HW111378   6.778   3.287   5.740
 3493SOL    HW211379   6.739   3.439   5.784
 3494SOL     OW11380   3.978   1.652   2.139
 3494SOL    HW111381   3.897   1.709   2.153
 3494SOL    HW211382   4.010   1.662   2.045
 3495SOL     OW11383   1.637   3.818   3.608
 3495SOL    HW111384   1.556   3.807   3.666
 3495SOL    HW211385   1.718   3.788   3.658
 3496SOL     OW11386   6.441   5.217   1.230
 3496SOL    HW111387   6.462   5.152   1.156
 3496SOL    HW211388   6.527   5.254   1.266
 3497SOL     OW11389   3.495   0.345   1.874
 3497SOL    HW111390   3.404   0.304   1.884
 3497SOL    HW211391   3.536   0.314   1.788
 3498SOL     OW11392   2.626   2.772   1.723
 3498SOL    HW111393   2.624   2.731   1.814
 3498SOL    HW211394   2.548   2.835   1.714
 3499SOL     OW11395   5.823   6.416   4.662
 3499SOL    HW111396   5.906   6.470   4.677
 3499SOL    HW211397   5.768   6.416   4.746
 3500SOL     OW11398   2.910   2.261   3.944
 3500SOL    HW111399   2.944   2.259   3.849
 3500SOL    HW211400   2.867   2.173   3.966
 3501SOL     OW11401   1.261   6.568   5.989
 3501SOL    HW111402   1.335   6.623   5.951
 3501SOL    HW211403   1.174   6.618   5.978
 3502SOL     OW11404   4.747   2.463   2.046
 3502SOL    HW111405   4.742   2.553   2.002
 3502SOL    HW211406   4.704   2.395   1.987
 3503SOL     OW11407   0.833   5.946   6.223
 3503SOL    HW111408   0.734   5.929   6.218
 3503SOL    HW211409   0.849   6.044   6.230
 3504SOL     OW11410   1.724   0.888   6.917
 3504SOL    HW111411   1.810   0.932   6.892
 3504SOL    HW211412   1.725   0.792   6.888
 3505SOL     OW11413   4.866   3.068   5.647
 3505SOL    HW111414   4.838   2.972   5.645
 3505SOL    HW211415   4.920   3.085   5.730
 3506SOL     OW11416   4.334   4.692   5.272
 3506SOL    HW111417   4.245   4.713   5.312
 3506SOL    HW211418   4.323   4.627   5.198
 3507SOL     OW11419   3.267   0.936   0.518
 3507SOL    HW111420   3.317   0.906   0.599
 3507SOL    HW211421   3.180   0.977   0.545
 3508SOL     OW11422   3.542   1.471   5.898
 3508SOL    HW111423   3.498   1.432   5.818
 3508SOL    HW211424   3.472   1.495   5.966
 3509SOL     OW11425   4.210   5.177   6.927
 3509SOL    HW111426   4.174   5.131   7.008
 3509SOL    HW211427   4.300   5.216   6.948
 3510SOL     OW11428   2.262   1.620   1.378
 3510SOL    HW111429   2.300   1.546   1.321
 3510SOL    HW211430   2.172   1.646   1.344
 3511SOL     OW11431   2.675   4.371   1.700
 3511SOL    HW111432   2.728   4.328   1.627
 3511SOL    HW211433   2.738   4.415   1.764
 3512SOL     OW11434   0.094   5.365   6.092
 3512SOL    HW111435   0.136   5.456   6.088
 3512SOL    HW211436   0.004   5.368   6.049
 3513SOL     OW11437   5.882   1.882   0.660
 3513SOL    HW111438   5.907   1.927   0.575
 3513SOL    HW211439   5.927   1.929   0.737
 3514SOL     OW11440   2.772   1.529   1.643
 3514SOL    HW111441   2.692   1.469   1.646
 3514SOL    HW211442   2.774   1.586   1.725
 3515SOL     OW11443   0.624   4.785   4.775
 3515SOL    HW111444   0.536   4.747   4.805
 3515SOL    HW211445   0.608   4.872   4.729
 3516SOL     OW11446   5.015   0.646   1.547
 3516SOL    HW111447   4.985   0.741   1.559
 3516SOL    HW211448   5.069   0.638   1.463
 3517SOL     OW11449   4.888   0.878   1.574
 3517SOL    HW111450   4.802   0.870   1.523
 3517SOL    HW211451   4.878   0.945   1.647
 3518SOL     OW11452   5.727   0.965   4.945
 3518SOL    HW111453   5.669   0.915   5.009
 3518SOL    HW211454   5.693   0.953   4.852
 3519SOL     OW11455   3.300   1.290   1.240
 3519SOL    HW111456   3.316   1.389   1.234
 3519SOL    HW211457   3.202   1.271   1.227
 3520SOL     OW11458   2.717   6.056   4.296
 3520SOL    HW111459   2.668   6.128   4.247
 3520SOL    HW211460   2.801   6.033   4.247
 3521SOL     OW11461   2.816   2.988   6.356
 3521SOL    HW111462   2.853   2.927   6.425
 3521SOL    HW211463   2.891   3.034   6.308
 3522SOL     OW11464   1.002   6.326   6.696
 3522SOL    HW111465   1.101   6.329   6.713
 3522SOL    HW211466   0.980   6.385   6.618
 3523SOL     OW11467   3.445   5.704   6.967
 3523SOL    HW111468   3.478   5.761   0.019
 3523SOL    HW211469   3.465   5.748   6.879
 3524SOL     OW11470   4.667   0.966   3.873
 3524SOL    HW111471   4.701   0.872   3.881
 3524SOL    HW211472   4.573   0.970   3.906
 3525SOL     OW11473   6.972   3.340   3.311
 3525SOL    HW111474   6.895   3.340   3.375
 3525SOL    HW211475   0.029   3.298   3.353
 3526SOL     OW11476   0.553   6.690   2.199
 3526SOL    HW111477   0.490   6.740   2.259
 3526SOL    HW211478   0.558   6.595   2.228
 3527SOL     OW11479   6.766   2.788   6.651
 3527SOL    HW111480   6.816   2.719   6.702
 3527SOL    HW211481   6.809   2.878   6.664
 3528SOL     OW11482   2.250   5.383   4.958
 3528SOL    HW111483   2.280   5.455   4.895
 3528SOL    HW211484   2.229   5.301   4.906
 3529SOL     OW11485   4.790   4.617   0.682
 3529SOL    HW111486   4.703   4.591   0.640
 3529SOL    HW211487   4.865   4.584   0.625
 3530SOL     OW11488   6.577   6.854   0.771
 3530SOL    HW111489   6.639   6.871   0.694
 3530SOL    HW211490   6.604   6.770   0.817
 3531SOL     OW11491   4.315   2.145   0.313
 3531SOL    HW111492   4.399   2.199   0.303
 3531SOL    HW211493   4.337   2.055   0.349
 3532SOL     OW11494   2.256   0.681   1.353
 3532SOL    HW111495   2.211   0.649   1.437
 3532SOL    HW211496   2.257   0.781   1.353
 3533SOL     OW11497   1.320   2.247   3.169
 3533SOL    HW111498   1.221   2.236   3.161
 3533SOL    HW211499   1.345   2.254   3.265
 3534SOL     OW11500   0.322   1.017   0.869
 3534SOL    HW111501   0.282   1.104   0.897
 3534SOL    HW211502   0.421   1.028   0.858
 3535SOL     OW11503   3.203   6.468   3.788
 3535SOL    HW111504   3.194   6.422   3.699
 3535SOL    HW211505   3.119   6.519   3.808
 3536SOL     OW11506   3.823   1.585   3.338
 3536SOL    HW111507   3.889   1.545   3.274
 3536SOL    HW211508   3.847   1.559   3.432
 3537SOL     OW11509   1.714   0.139   3.244
 3537SOL    HW111510   1.634   0.103   3.292
 3537SOL    HW211511   1.780   0.065   3.230
 3538SOL     OW11512   3.128   5.283   1.813
 3538SOL    HW111513   3.109   5.213   1.882
 3538SOL    HW211514   3.207   5.257   1.759
 3539SOL     OW11515   3.326   3.805   4.505
 3539SOL    HW111516   3.298   3.752   4.585
 3539SOL    HW211517   3.276   3.775   4.424
 3540SOL     OW11518   1.498   2.323   3.704
 3540SOL    HW111519   1.492   2.268   3.620
 3540SOL    HW211520   1.458   2.271   3.780
 3541SOL     OW11521   3.947   3.527   4.744
 3541SOL    HW111522   3.868   3.514   4.684
 3541SOL    HW211523   3.976   3.438   4.780
 3542SOL     OW11524   6.684   5.408   1.162
 3542SOL    HW111525   6.617   5.446   1.098
 3542SOL    HW211526   6.776   5.431   1.131
 3543SOL     OW11527   5.412   2.737   4.401
 3543SOL    HW111528   5.317   2.711   4.380
 3543SOL    HW211529   5.473   2.701   4.331
 3544SOL     OW11530   2.684   6.431   0.215
 3544SOL    HW111531   2.595   6.430   0.169
 3544SOL    HW211532   2.671   6.453   0.312
 3545SOL     OW11533   3.592   5.191   0.565
 3545SOL    HW111534   3.499   5.167   0.535
 3545SOL    HW211535   3.589   5.229   0.657
 3546SOL     OW11536   0.699   4.696   2.367
 3546SOL    HW111537   0.795   4.667   2.375
 3546SOL    HW211538   0.673   4.698   2.271
 3547SOL     OW11539   5.326   4.700   4.737
 3547SOL    HW111540   5.263   4.679   4.662
 3547SOL    HW211541   5.346   4.797   4.737
 3548SOL     OW11542   4.851   3.437   5.867
 3548SOL    HW111543   4.756   3.406   5.863
 3548SOL    HW211544   4.874   3.485   5.782
 3549SOL     OW11545   4.880   3.543   2.191
 3549SOL    HW111546   4.884   3.468   2.126
 3549SOL    HW211547   4.887   3.507   2.284
 3550SOL     OW11548   4.643   1.555   3.518
 3550SOL    HW111549   4.706   1.556   3.440
 3550SOL    HW211550   4.651   1.641   3.568
 3551SOL     OW11551   1.922   6.366   2.503
 3551SOL    HW111552   1.961   6.274   2.512
 3551SOL    HW211553   1.822   6.361   2.511
 3552SOL     OW11554   6.645   4.239   2.938
 3552SOL    HW111555   6.607   4.212   2.850
 3552SOL    HW211556   6.739   4.205   2.945
 3553SOL     OW11557   6.135   1.827   3.266
 3553SOL    HW111558   6.174   1.745   3.224
 3553SOL    HW211559   6.084   1.802   3.348
 3554SOL     OW11560   4.508   5.559   0.024
 3554SOL    HW111561   4.537   5.465   0.008
 3554SOL    HW211562   4.528   5.584   0.119
 3555SOL     OW11563   0.870   2.316   3.920
 3555SOL    HW111564   0.915   2.400   3.890
 3555SOL    HW211565   0.932   2.239   3.905
 3556SOL     OW11566   4.219   1.517   6.471
 3556SOL    HW111567   4.123   1.519   6.498
 3556SOL    HW211568   4.237   1.436   6.415
 3557SOL     OW11569   0.861   0.097   4.065
 3557SOL    HW111570   0.914   0.069   3.984
 3557SOL    HW211571   0.778   0.042   4.071
 3558SOL     OW11572   0.479   6.818   1.418
 3558SOL    HW111573   0.493   6.787   1.512
 3558SOL    HW211574   0.567   6.816   1.369
 3559SOL     OW11575   1.139   0.304   5.810
 3559SOL    HW111576   1.126   0.382   5.749
 3559SOL    HW211577   1.201   0.329   5.884
 3560SOL     OW11578   6.887   6.910   1.581
 3560SOL    HW111579   6.790   6.932   1.584
 3560SOL    HW211580   6.906   6.836   1.646
 3561SOL     OW11581   5.728   4.758   3.940
 3561SOL    HW111582   5.815   4.717   3.967
 3561SOL    HW211583   5.653   4.703   3.976
 3562SOL     OW11584   3.988   2.212   2.853
 3562SOL    HW111585   3.958   2.140   2.915
 3562SOL    HW211586   3.911   2.272   2.831
 3563SOL     OW11587   4.456   6.409   1.602
 3563SOL    HW111588   4.408   6.348   1.664
 3563SOL    HW211589   4.543   6.437   1.644
 3564SOL     OW11590   6.537   4.154   2.713
 3564SOL    HW111591   6.556   4.183   2.620
 3564SOL    HW211592   6.439   4.136   2.723
 3565SOL     OW11593   1.124   0.842   5.329
 3565SOL    HW111594   1.098   0.763   5.274
 3565SOL    HW211595   1.086   0.925   5.289
 3566SOL     OW11596   0.994   4.292   5.674
 3566SOL    HW111597   1.008   4.374   5.618
 3566SOL    HW211598   0.997   4.318   5.771
 3567SOL     OW11599   0.052   2.267   1.463
 3567SOL    HW111600   0.032   2.197   1.395
 3567SOL    HW211601   0.145   2.302   1.449
 3568SOL     OW11602   4.626   4.419   3.258
 3568SOL    HW111603   4.678   4.503   3.272
 3568SOL    HW211604   4.564   4.406   3.335
 3569SOL     OW11605   4.072   3.285   3.802
 3569SOL    HW111606   4.127   3.292   3.885
 3569SOL    HW211607   3.991   3.342   3.811
 3570SOL     OW11608   0.365   2.148   5.346
 3570SOL    HW111609   0.401   2.238   5.323
 3570SOL    HW211610   0.294   2.157   5.416
 3571SOL     OW11611   2.736   0.306   4.188
 3571SOL    HW111612   2.797   0.228   4.198
 3571SOL    HW211613   2.661   0.299   4.254
 3572SOL     OW11614   4.965   4.340   2.341
 3572SOL    HW111615   4.914   4.254   2.346
 3572SOL    HW211616   4.909   4.414   2.380
 3573SOL     OW11617   0.084   4.808   4.299
 3573SOL    HW111618   0.182   4.802   4.320
 3573SOL    HW211619   0.053   4.723   4.259
 3574SOL     OW11620   1.874   1.846   5.834
 3574SOL    HW111621   1.804   1.791   5.879
 3574SOL    HW211622   1.890   1.930   5.886
 3575SOL     OW11623   4.957   0.721   5.996
 3575SOL    HW111624   5.037   0.771   5.964
 3575SOL    HW211625   4.910   0.774   6.067
 3576SOL     OW11626   1.024   2.779   0.431
 3576SOL    HW111627   1.094   2.843   0.461
 3576SOL    HW211628   0.951   2.828   0.385
 3577SOL     OW11629   1.739   3.236   4.722
 3577SOL    HW111630   1.652   3.187   4.722
 3577SOL    HW211631   1.742   3.297   4.801
 3578SOL     OW11632   4.092   2.554   0.330
 3578SOL    HW111633   4.151   2.506   0.395
 3578SOL    HW211634   4.065   2.642   0.369
 3579SOL     OW11635   1.224   3.733   1.814
 3579SOL    HW111636   1.306   3.714   1.867
 3579SOL    HW211637   1.232   3.689   1.724
 3580SOL     OW11638   0.096   4.046   1.871
 3580SOL    HW111639   0.194   4.048   1.848
 3580SOL    HW211640   0.051   4.127   1.832
 3581SOL     OW11641   1.713   0.461   2.332
 3581SOL    HW111642   1.703   0.530   2.260
 3581SOL    HW211643   1.697   0.503   2.422
 3582SOL     OW11644   4.560   5.926   0.394
 3582SOL    HW111645   4.530   5.961   0.483
 3582SOL    HW211646   4.491   5.946   0.325
 3583SOL     OW11647   1.813   5.677   1.252
 3583SOL    HW111648   1.800   5.675   1.352
 3583SOL    HW211649   1.723   5.679   1.207
 3584SOL     OW11650   5.872   4.788   5.036
 3584SOL    HW111651   5.921   4.846   4.971
 3584SOL    HW211652   5.917   4.792   5.125
 3585SOL     OW11653   4.082   2.183   3.809
 3585SOL    HW111654   4.097   2.219   3.717
 3585SOL    HW211655   4.025   2.101   3.804
 3586SOL     OW11656   6.483   2.472   5.507
 3586SOL    HW111657   6.583   2.471   5.514
 3586SOL    HW211658   6.457   2.483   5.411
 3587SOL     OW11659   2.606   0.528   6.189
 3587SOL    HW111660   2.559   0.597   6.243
 3587SOL    HW211661   2.666   0.573   6.122
 3588SOL     OW11662   5.528   4.084   3.945
 3588SOL    HW111663   5.472   4.126   3.873
 3588SOL    HW211664   5.482   4.001   3.977
 3589SOL     OW11665   0.645   0.855   6.218
 3589SOL    HW111666   0.642   0.943   6.170
 3589SOL    HW211667   0.559   0.807   6.204
 3590SOL     OW11668   6.413   5.180   5.293
 3590SOL    HW111669   6.448   5.271   5.271
 3590SOL    HW211670   6.329   5.163   5.241
 3591SOL     OW11671   4.782   1.717   0.768
 3591SOL    HW111672   4.863   1.718   0.827
 3591SOL    HW211673   4.789   1.639   0.705
 3592SOL     OW11674   1.624   6.360   1.119
 3592SOL    HW111675   1.659   6.269   1.140
 3592SOL    HW211676   1.526   6.355   1.103
 3593SOL     OW11677   4.263   3.005   5.760
 3593SOL    HW111678   4.226   3.020   5.851
 3593SOL    HW211679   4.363   2.997   5.765
 3594SOL     OW11680   4.583   4.450   5.016
 3594SOL    HW111681   4.640   4.486   5.090
 3594SOL    HW211682   4.491   4.489   5.023
 3595SOL     OW11683   4.650   6.985   5.124
 3595SOL    HW111684   4.734   6.996   5.177
 3595SOL    HW211685   4.581   0.026   5.158
 3596SOL     OW11686   3.622   1.975   2.456
 3596SOL    HW111687   3.649   1.904   2.390
 3596SOL    HW211688   3.559   2.039   2.412
 3597SOL     OW11689   3.978   4.326   5.553
 3597SOL    HW111690   4.025   4.239   5.539
 3597SOL    HW211691   3.915   4.319   5.630
 3598SOL     OW11692   6.769   5.600   4.874
 3598SOL    HW111693   6.864   5.608   4.903
 3598SOL    HW211694   6.752   5.664   4.799
 3599SOL     OW11695   2.342   1.144   5.130
 3599SOL    HW111696   2.300   1.072   5.075
 3599SOL    HW211697   2.283   1.166   5.207
 3600SOL     OW11698   2.743   4.244   0.623
 3600SOL    HW111699   2.666   4.200   0.576
 3600SOL    HW211700   2.801   4.289   0.556
 3601SOL     OW11701   3.762   0.670   5.176
 3601SOL    HW111702   3.838   0.647   5.237
 3601SOL    HW211703   3.784   0.752   5.124
 3602SOL     OW11704   1.579   2.267   1.106
 3602SOL    HW111705   1.539   2.346   1.059
 3602SOL    HW211706   1.508   2.220   1.159
 3603SOL     OW11707   1.688   6.902   6.198
 3603SOL    HW111708   1.772   6.948   6.227
 3603SOL    HW211709   1.708   6.842   6.120
 3604SOL     OW11710   6.532   0.914   3.885
 3604SOL    HW111711   6.543   0.839   3.820
 3604SOL    HW211712   6.605   0.911   3.952
 3605SOL     OW11713   1.391   0.303   4.787
 3605SOL    HW111714   1.398   0.307   4.687
 3605SOL    HW211715   1.471   0.257   4.825
 3606SOL     OW11716   2.511   6.926   2.878
 3606SOL    HW111717   2.568   6.984   2.937
 3606SOL    HW211718   2.550   6.835   2.874
 3607SOL     OW11719   6.080   1.422   3.719
 3607SOL    HW111720   6.145   1.497   3.731
 3607SOL    HW211721   6.079   1.394   3.623
 3608SOL     OW11722   3.889   2.126   5.694
 3608SOL    HW111723   3.927   2.104   5.784
 3608SOL    HW211724   3.963   2.134   5.628
 3609SOL     OW11725   2.903   0.036   5.212
 3609SOL    HW111726   2.804   0.051   5.206
 3609SOL    HW211727   2.926   0.002   5.303
 3610SOL     OW11728   1.584   0.401   5.596
 3610SOL    HW111729   1.678   0.371   5.581
 3610SOL    HW211730   1.566   0.482   5.541
 3611SOL     OW11731   5.445   3.783   3.407
 3611SOL    HW111732   5.349   3.788   3.378
 3611SOL    HW211733   5.477   3.688   3.402
 3612SOL     OW11734   4.899   1.734   0.450
 3612SOL    HW111735   4.870   1.676   0.526
 3612SOL    HW211736   4.949   1.679   0.383
 3613SOL     OW11737   3.827   0.616   2.840
 3613SOL    HW111738   3.863   0.530   2.879
 3613SOL    HW211739   3.902   0.681   2.829
 3614SOL     OW11740   3.832   5.779   0.054
 3614SOL    HW111741   3.835   5.705   0.122
 3614SOL    HW211742   3.740   5.817   0.049
 3615SOL     OW11743   5.536   2.793   4.845
 3615SOL    HW111744   5.556   2.736   4.925
 3615SOL    HW211745   5.603   2.867   4.840
 3616SOL     OW11746   1.294   1.522   0.893
 3616SOL    HW111747   1.219   1.567   0.941
 3616SOL    HW211748   1.264   1.497   0.801
 3617SOL     OW11749   4.106   5.274   4.844
 3617SOL    HW111750   4.146   5.294   4.934
 3617SOL    HW211751   4.008   5.258   4.854
 3618SOL     OW11752   0.905   5.366   4.382
 3618SOL    HW111753   0.915   5.440   4.316
 3618SOL    HW211754   0.907   5.278   4.335
 3619SOL     OW11755   6.722   2.151   2.630
 3619SOL    HW111756   6.681   2.140   2.539
 3619SOL    HW211757   6.822   2.159   2.621
 3620SOL     OW11758   4.851   6.191   5.578
 3620SOL    HW111759   4.811   6.267   5.527
 3620SOL    HW211760   4.933   6.158   5.530
 3621SOL     OW11761   3.154   3.031   3.657
 3621SOL    HW111762   3.154   3.001   3.561
 3621SOL    HW211763   3.161   3.130   3.661
 3622SOL     OW11764   2.492   5.697   6.125
 3622SOL    HW111765   2.548   5.652   6.195
 3622SOL    HW211766   2.475   5.792   6.154
 3623SOL     OW11767   1.562   6.146   5.719
 3623SOL    HW111768   1.654   6.169   5.752
 3623SOL    HW211769   1.495   6.202   5.767
 3624SOL     OW11770   2.815   1.716   2.641
 3624SOL    HW111771   2.822   1.761   2.730
 3624SOL    HW211772   2.776   1.625   2.652
 3625SOL     OW11773   5.867   2.607   1.721
 3625SOL    HW111774   5.828   2.518   1.696
 3625SOL    HW211775   5.897   2.603   1.816
 3626SOL     OW11776   0.840   3.094   5.898
 3626SOL    HW111777   0.839   3.120   5.994
 3626SOL    HW211778   0.922   3.131   5.854
 3627SOL     OW11779   3.364   1.096   2.762
 3627SOL    HW111780   3.311   1.149   2.827
 3627SOL    HW211781   3.311   1.083   2.678
 3628SOL     OW11782   6.926   1.076   1.598
 3628SOL    HW111783   6.867   1.040   1.671
 3628SOL    HW211784   6.877   1.075   1.511
 3629SOL     OW11785   1.484   0.822   4.531
 3629SOL    HW111786   1.404   0.774   4.570
 3629SOL    HW211787   1.510   0.897   4.592
 3630SOL     OW11788   6.590   2.121   2.365
 3630SOL    HW111789   6.616   2.183   2.291
 3630SOL    HW211790   6.499   2.084   2.347
 3631SOL     OW11791   1.872   5.514   2.560
 3631SOL    HW111792   1.826   5.459   2.630
 3631SOL    HW211793   1.887   5.606   2.595
 3632SOL     OW11794   5.166   3.097   2.228
 3632SOL    HW111795   5.263   3.084   2.207
 3632SOL    HW211796   5.113   3.097   2.143
 3633SOL     OW11797   4.556   5.050   6.403
 3633SOL    HW111798   4.616   5.126   6.378
 3633SOL    HW211799   4.476   5.050   6.342
 3634SOL     OW11800   3.152   5.515   6.305
 3634SOL    HW111801   3.166   5.605   6.346
 3634SOL    HW211802   3.077   5.520   6.239
 3635SOL     OW11803   1.635   0.108   2.850
 3635SOL    HW111804   1.704   0.124   2.779
 3635SOL    HW211805   1.644   0.176   2.922
 3636SOL     OW11806   6.749   5.777   4.665
 3636SOL    HW111807   6.745   5.775   4.565
 3636SOL    HW211808   6.667   5.821   4.700
 3637SOL     OW11809   5.432   2.731   6.545
 3637SOL    HW111810   5.475   2.779   6.468
 3637SOL    HW211811   5.345   2.692   6.515
 3638SOL     OW11812   0.719   2.805   3.632
 3638SOL    HW111813   0.712   2.849   3.721
 3638SOL    HW211814   0.638   2.748   3.616
 3639SOL     OW11815   3.870   3.292   4.076
 3639SOL    HW111816   3.959   3.336   4.084
 3639SOL    HW211817   3.881   3.193   4.089
 3640SOL     OW11818   4.883   1.391   2.423
 3640SOL    HW111819   4.787   1.367   2.437
 3640SOL    HW211820   4.888   1.478   2.373
 3641SOL     OW11821   0.430   3.557   1.755
 3641SOL    HW111822   0.351   3.609   1.722
 3641SOL    HW211823   0.509   3.576   1.696
 3642SOL     OW11824   4.737   4.449   6.405
 3642SOL    HW111825   4.695   4.360   6.424
 3642SOL    HW211826   4.837   4.438   6.403
 3643SOL     OW11827   4.472   5.887   4.787
 3643SOL    HW111828   4.426   5.825   4.723
 3643SOL    HW211829   4.482   5.841   4.876
 3644SOL     OW11830   3.256   1.081   1.880
 3644SOL    HW111831   3.180   1.138   1.910
 3644SOL    HW211832   3.318   1.135   1.823
 3645SOL     OW11833   2.216   4.066   3.226
 3645SOL    HW111834   2.207   3.978   3.180
 3645SOL    HW211835   2.161   4.134   3.177
 3646SOL     OW11836   2.251   5.063   5.300
 3646SOL    HW111837   2.158   5.094   5.318
 3646SOL    HW211838   2.262   4.969   5.330
 3647SOL     OW11839   3.437   0.053   0.607
 3647SOL    HW111840   3.404   0.147   0.608
 3647SOL    HW211841   3.528   0.050   0.566
 3648SOL     OW11842   5.388   4.812   3.299
 3648SOL    HW111843   5.455   4.795   3.227
 3648SOL    HW211844   5.430   4.864   3.373
 3649SOL     OW11845   5.642   2.582   0.408
 3649SOL    HW111846   5.570   2.521   0.375
 3649SOL    HW211847   5.644   2.664   0.350
 3650SOL     OW11848   5.340   6.696   0.168
 3650SOL    HW111849   5.341   6.618   0.232
 3650SOL    HW211850   5.433   6.727   0.152
 3651SOL     OW11851   1.153   1.818   6.330
 3651SOL    HW111852   1.177   1.742   6.269
 3651SOL    HW211853   1.075   1.867   6.291
 3652SOL     OW11854   5.645   2.202   2.187
 3652SOL    HW111855   5.656   2.141   2.265
 3652SOL    HW211856   5.573   2.269   2.206
 3653SOL     OW11857   2.508   1.908   0.714
 3653SOL    HW111858   2.588   1.850   0.728
 3653SOL    HW211859   2.451   1.907   0.797
 3654SOL     OW11860   3.982   6.297   1.282
 3654SOL    HW111861   3.958   6.391   1.257
 3654SOL    HW211862   3.944   6.276   1.373
 3655SOL     OW11863   1.220   0.593   4.366
 3655SOL    HW111864   1.176   0.579   4.277
 3655SOL    HW211865   1.318   0.577   4.357
 3656SOL     OW11866   0.384   0.695   0.717
 3656SOL    HW111867   0.360   0.619   0.657
 3656SOL    HW211868   0.317   0.703   0.790
 3657SOL     OW11869   6.225   4.710   6.256
 3657SOL    HW111870   6.172   4.629   6.282
 3657SOL    HW211871   6.297   4.726   6.324
 3658SOL     OW11872   1.357   4.759   5.531
 3658SOL    HW111873   1.340   4.692   5.603
 3658SOL    HW211874   1.456   4.772   5.520
 3659SOL     OW11875   0.502   1.956   0.078
 3659SOL    HW111876   0.420   1.899   0.077
 3659SOL    HW211877   0.484   2.042   0.030
 3660SOL     OW11878   4.038   4.815   4.786
 3660SOL    HW111879   4.005   4.721   4.773
 3660SOL    HW211880   4.104   4.816   4.862
 3661SOL     OW11881   1.318   1.187   5.113
 3661SOL    HW111882   1.401   1.232   5.144
 3661SOL    HW211883   1.305   1.204   5.015
 3662SOL     OW11884   3.618   2.511   5.553
 3662SOL    HW111885   3.586   2.577   5.623
 3662SOL    HW211886   3.569   2.425   5.565
 3663SOL     OW11887   1.413   2.214   5.785
 3663SOL    HW111888   1.358   2.296   5.775
 3663SOL    HW211889   1.433   2.175   5.695
 3664SOL     OW11890   2.155   1.730   0.746
 3664SOL    HW111891   2.243   1.697   0.714
 3664SOL    HW211892   2.096   1.652   0.768
 3665SOL     OW11893   0.136   6.429   4.583
 3665SOL    HW111894   0.179   6.423   4.673
 3665SOL    HW211895   0.123   6.338   4.545
 3666SOL     OW11896   2.117   3.525   4.994
 3666SOL    HW111897   2.147   3.603   4.940
 3666SOL    HW211898   2.192   3.496   5.054
 3667SOL     OW11899   2.301   6.684   1.360
 3667SOL    HW111900   2.365   6.667   1.284
 3667SOL    HW211901   2.343   6.655   1.446
 3668SOL     OW11902   4.921   1.232   0.578
 3668SOL    HW111903   4.988   1.285   0.630
 3668SOL    HW211904   4.963   1.145   0.550
 3669SOL     OW11905   6.749   0.714   2.071
 3669SOL    HW111906   6.694   0.672   2.143
 3669SOL    HW211907   6.698   0.791   2.032
 3670SOL     OW11908   2.305   6.559   2.620
 3670SOL    HW111909   2.334   6.654   2.607
 3670SOL    HW211910   2.226   6.556   2.681
 3671SOL     OW11911   0.660   0.574   5.640
 3671SOL    HW111912   0.641   0.490   5.589
 3671SOL    HW211913   0.704   0.640   5.579
 3672SOL     OW11914   3.407   0.519   3.755
 3672SOL    HW111915   3.316   0.562   3.755
 3672SOL    HW211916   3.445   0.524   3.847
 3673SOL     OW11917   3.035   1.260   1.238
 3673SOL    HW111918   2.946   1.303   1.247
 3673SOL    HW211919   3.025   1.161   1.246
 3674SOL     OW11920   6.971   4.874   5.931
 3674SOL    HW111921   6.934   4.913   6.016
 3674SOL    HW211922   6.984   4.776   5.942
 3675SOL     OW11923   6.246   0.578   4.828
 3675SOL    HW111924   6.225   0.597   4.924
 3675SOL    HW211925   6.193   0.641   4.770
 3676SOL     OW11926   2.063   0.866   5.635
 3676SOL    HW111927   2.033   0.771   5.627
 3676SOL    HW211928   2.110   0.893   5.551
 3677SOL     OW11929   0.958   0.776   4.840
 3677SOL    HW111930   0.911   0.850   4.888
 3677SOL    HW211931   1.054   0.773   4.868
 3678SOL     OW11932   2.693   0.547   3.565
 3678SOL    HW111933   2.723   0.623   3.506
 3678SOL    HW211934   2.758   0.537   3.641
 3679SOL     OW11935   3.303   0.621   1.871
 3679SOL    HW111936   3.306   0.678   1.789
 3679SOL    HW211937   3.285   0.678   1.951
 3680SOL     OW11938   4.245   1.885   4.230
 3680SOL    HW111939   4.236   1.973   4.183
 3680SOL    HW211940   4.262   1.813   4.163
 3681SOL     OW11941   1.106   5.428   3.449
 3681SOL    HW111942   1.078   5.358   3.514
 3681SOL    HW211943   1.077   5.518   3.483
 3682SOL     OW11944   5.200   1.335   1.833
 3682SOL    HW111945   5.293   1.360   1.858
 3682SOL    HW211946   5.201   1.249   1.782
 3683SOL     OW11947   6.498   2.005   1.408
 3683SOL    HW111948   6.498   2.105   1.400
 3683SOL    HW211949   6.558   1.966   1.339
 3684SOL     OW11950   3.065   5.925   5.242
 3684SOL    HW111951   2.983   5.969   5.206
 3684SOL    HW211952   3.079   5.837   5.196
 3685SOL     OW11953   1.850   6.893   3.229
 3685SOL    HW111954   1.772   6.836   3.202
 3685SOL    HW211955   1.898   6.924   3.147
 3686SOL     OW11956   1.105   5.259   0.830
 3686SOL    HW111957   1.112   5.227   0.736
 3686SOL    HW211958   1.047   5.196   0.882
 3687SOL     OW11959   0.161   4.709   4.595
 3687SOL    HW111960   0.237   4.774   4.596
 3687SOL    HW211961   0.101   4.727   4.673
 3688SOL     OW11962   6.877   3.021   1.749
 3688SOL    HW111963   6.975   3.014   1.768
 3688SOL    HW211964   6.830   3.062   1.827
 3689SOL     OW11965   2.126   2.229   5.039
 3689SOL    HW111966   2.155   2.172   5.116
 3689SOL    HW211967   2.189   2.215   4.962
 3690SOL     OW11968   0.288   5.404   2.161
 3690SOL    HW111969   0.256   5.497   2.143
 3690SOL    HW211970   0.258   5.344   2.087
 3691SOL     OW11971   1.799   2.007   0.285
 3691SOL    HW111972   1.836   2.100   0.294
 3691SOL    HW211973   1.825   1.953   0.365
 3692SOL     OW11974   0.714   3.135   5.549
 3692SOL    HW111975   0.753   3.075   5.479
 3692SOL    HW211976   0.742   3.229   5.532
 3693SOL     OW11977   0.433   1.517   2.867
 3693SOL    HW111978   0.432   1.542   2.964
 3693SOL    HW211979   0.406   1.597   2.812
 3694SOL     OW11980   0.034   6.683   2.010
 3694SOL    HW111981   0.042   6.760   2.074
 3694SOL    HW211982   6.965   6.645   2.015
 3695SOL     OW11983   5.959   3.470   4.294
 3695SOL    HW111984   6.030   3.540   4.283
 3695SOL    HW211985   5.870   3.514   4.303
 3696SOL     OW11986   4.551   0.069   4.161
 3696SOL    HW111987   4.453   0.059   4.143
 3696SOL    HW211988   4.598   0.091   4.076
 3697SOL     OW11989   6.428   4.737   3.079
 3697SOL    HW111990   6.342   4.723   3.129
 3697SOL    HW211991   6.411   4.733   2.981
 3698SOL     OW11992   1.033   0.317   4.164
 3698SOL    HW111993   0.975   0.239   4.143
 3698SOL    HW211994   1.050   0.320   4.263
 3699SOL     OW11995   2.973   2.103   3.438
 3699SOL    HW111996   2.944   2.013   3.405
 3699SOL    HW211997   3.004   2.158   3.361
 3700SOL     OW11998   0.624   5.358   4.443
 3700SOL    HW111999   0.724   5.355   4.433
 3700SOL    HW212000   0.601   5.369   4.539
 3701SOL     OW12001   6.317   0.396   2.332
 3701SOL    HW112002   6.237   0.352   2.373
 3701SOL    HW212003   6.333   0.357   2.241
 3702SOL     OW12004   6.540   4.516   3.827
 3702SOL    HW112005   6.445   4.488   3.814
 3702SOL    HW212006   6.544   4.585   3.900
 3703SOL     OW12007   0.759   1.967   3.420
 3703SOL    HW112008   0.720   2.012   3.500
 3703SOL    HW212009   0.844   2.014   3.394
 3704SOL     OW12010   6.493   6.328   1.093
 3704SOL    HW112011   6.564   6.260   1.113
 3704SOL    HW212012   6.406   6.298   1.133
 3705SOL     OW12013   6.508   4.103   3.878
 3705SOL    HW112014   6.514   4.151   3.791
 3705SOL    HW212015   6.413   4.101   3.909
 3706SOL     OW12016   0.486   6.091   6.576
 3706SOL    HW112017   0.481   5.991   6.574
 3706SOL    HW212018   0.576   6.120   6.543
 3707SOL     OW12019   0.026   4.073   3.144
 3707SOL    HW112020   0.078   3.988   3.131
 3707SOL    HW212021   0.089   4.151   3.143
 3708SOL     OW12022   1.467   5.951   0.339
 3708SOL    HW112023   1.562   5.924   0.346
 3708SOL    HW212024   1.408   5.877   0.373
 3709SOL     OW12025   0.728   1.763   1.162
 3709SOL    HW112026   0.648   1.750   1.104
 3709SOL    HW212027   0.789   1.685   1.153
 3710SOL     OW12028   1.970   3.661   5.501
 3710SOL    HW112029   1.874   3.679   5.481
 3710SOL    HW212030   1.986   3.668   5.599
 3711SOL     OW12031   1.674   4.819   5.155
 3711SOL    HW112032   1.585   4.837   5.196
 3711SOL    HW212033   1.668   4.738   5.097
 3712SOL     OW12034   2.993   5.033   3.978
 3712SOL    HW112035   3.049   4.982   4.043
 3712SOL    HW212036   2.964   5.120   4.020
 3713SOL     OW12037   6.277   0.435   5.953
 3713SOL    HW112038   6.351   0.442   6.019
 3713SOL    HW212039   6.209   0.505   5.972
 3714SOL     OW12040   0.476   5.357   0.859
 3714SOL    HW112041   0.574   5.338   0.873
 3714SOL    HW212042   0.426   5.270   0.853
 3715SOL     OW12043   6.136   4.241   2.587
 3715SOL    HW112044   6.218   4.184   2.577
 3715SOL    HW212045   6.104   4.238   2.682
 3716SOL     OW12046   5.504   5.482   5.561
 3716SOL    HW112047   5.546   5.549   5.500
 3716SOL    HW212048   5.571   5.410   5.580
 3717SOL     OW12049   4.483   0.016   1.185
 3717SOL    HW112050   4.426   6.988   1.250
 3717SOL    HW212051   4.496   0.109   1.218
 3718SOL     OW12052   5.524   6.585   6.815
 3718SOL    HW112053   5.607   6.640   6.816
 3718SOL    HW212054   5.543   6.499   6.767
 3719SOL     OW12055   2.568   4.256   0.050
 3719SOL    HW112056   2.626   4.281   6.995
 3719SOL    HW212057   2.493   4.322   0.057
 3720SOL     OW12058   0.608   2.195   0.443
 3720SOL    HW112059   0.549   2.197   0.524
 3720SOL    HW212060   0.561   2.235   0.365
 3721SOL     OW12061   6.488   0.040   5.934
 3721SOL    HW112062   6.462   0.088   6.018
 3721SOL    HW212063   6.576   0.075   5.901
 3722SOL     OW12064   5.435   6.496   1.589
 3722SOL    HW112065   5.347   6.533   1.559
 3722SOL    HW212066   5.492   6.570   1.624
 3723SOL     OW12067   4.632   4.119   5.799
 3723SOL    HW112068   4.672   4.053   5.862
 3723SOL    HW212069   4.562   4.172   5.847
 3724SOL     OW12070   6.036   4.349   5.174
 3724SOL    HW112071   6.054   4.421   5.240
 3724SOL    HW212072   6.044   4.385   5.081
 3725SOL     OW12073   0.292   6.084   0.642
 3725SOL    HW112074   0.248   5.997   0.622
 3725SOL    HW212075   0.225   6.147   0.683
 3726SOL     OW12076   6.308   3.508   5.279
 3726SOL    HW112077   6.254   3.446   5.223
 3726SOL    HW212078   6.343   3.582   5.221
 3727SOL     OW12079   6.473   1.954   4.291
 3727SOL    HW112080   6.458   1.867   4.339
 3727SOL    HW212081   6.442   2.029   4.348
 3728SOL     OW12082   1.736   4.816   0.435
 3728SOL    HW112083   1.746   4.876   0.355
 3728SOL    HW212084   1.812   4.751   0.437
 3729SOL     OW12085   6.848   0.226   6.498
 3729SOL    HW112086   6.899   0.251   6.580
 3729SOL    HW212087   6.911   0.187   6.431
 3730SOL     OW12088   5.445   4.291   4.854
 3730SOL    HW112089   5.534   4.258   4.885
 3730SOL    HW212090   5.426   4.380   4.895
 3731SOL     OW12091   6.597   1.507   1.852
 3731SOL    HW112092   6.629   1.582   1.795
 3731SOL    HW212093   6.634   1.516   1.944
 3732SOL     OW12094   3.827   2.565   0.211
 3732SOL    HW112095   3.778   2.481   0.188
 3732SOL    HW212096   3.920   2.541   0.242
 3733SOL     OW12097   1.706   1.522   3.100
 3733SOL    HW112098   1.719   1.443   3.039
 3733SOL    HW212099   1.768   1.596   3.072
 3734SOL     OW12100   4.020   0.686   1.519
 3734SOL    HW112101   3.946   0.751   1.536
 3734SOL    HW212102   4.038   0.682   1.421
 3735SOL     OW12103   4.246   1.129   2.645
 3735SOL    HW112104   4.151   1.098   2.646
 3735SOL    HW212105   4.300   1.068   2.587
 3736SOL     OW12106   0.750   1.613   0.110
 3736SOL    HW112107   0.766   1.691   0.170
 3736SOL    HW212108   0.676   1.635   0.047
 3737SOL     OW12109   5.457   1.821   4.196
 3737SOL    HW112110   5.504   1.808   4.109
 3737SOL    HW212111   5.515   1.791   4.271
 3738SOL     OW12112   0.613   1.003   0.414
 3738SOL    HW112113   0.599   0.904   0.427
 3738SOL    HW212114   0.627   1.046   0.502
 3739SOL     OW12115   3.341   4.564   6.830
 3739SOL    HW112116   3.347   4.502   6.908
 3739SOL    HW212117   3.432   4.577   6.791
 3740SOL     OW12118   6.350   6.486   6.620
 3740SOL    HW112119   6.346   6.579   6.655
 3740SOL    HW212120   6.429   6.439   6.660
 3741SOL     OW12121   6.664   4.587   6.662
 3741SOL    HW112122   6.746   4.535   6.686
 3741SOL    HW212123   6.588   4.557   6.719
 3742SOL     OW12124   5.053   5.195   2.007
 3742SOL    HW112125   5.023   5.288   2.031
 3742SOL    HW212126   4.989   5.128   2.044
 3743SOL     OW12127   2.270   4.089   1.065
 3743SOL    HW112128   2.344   4.070   1.129
 3743SOL    HW212129   2.199   4.019   1.074
 3744SOL     OW12130   6.558   6.166   2.447
 3744SOL    HW112131   6.464   6.132   2.439
 3744SOL    HW212132   6.622   6.092   2.429
 3745SOL     OW12133   5.940   1.225   2.500
 3745SOL    HW112134   5.893   1.288   2.561
 3745SOL    HW212135   5.993   1.159   2.554
 3746SOL     OW12136   4.892   6.939   5.593
 3746SOL    HW112137   4.813   6.946   5.654
 3746SOL    HW212138   4.956   7.013   5.612
 3747SOL     OW12139   2.168   5.299   5.682
 3747SOL    HW112140   2.182   5.291   5.584
 3747SOL    HW212141   2.231   5.367   5.719
 3748SOL     OW12142   5.156   2.425   3.433
 3748SOL    HW112143   5.083   2.443   3.368
 3748SOL    HW212144   5.219   2.357   3.394
 3749SOL     OW12145   5.669   5.874   1.385
 3749SOL    HW112146   5.583   5.901   1.343
 3749SOL    HW212147   5.740   5.942   1.362
 3750SOL     OW12148   6.347   4.105   1.578
 3750SOL    HW112149   6.323   4.008   1.570
 3750SOL    HW212150   6.264   4.159   1.595
 3751SOL     OW12151   1.831   4.971   0.877
 3751SOL    HW112152   1.760   5.038   0.854
 3751SOL    HW212153   1.795   4.878   0.867
 3752SOL     OW12154   1.245   0.061   6.391
 3752SOL    HW112155   1.335   0.021   6.374
 3752SOL    HW212156   1.216   0.112   6.310
 3753SOL     OW12157   0.686   1.129   6.142
 3753SOL    HW112158   0.653   1.200   6.080
 3753SOL    HW212159   0.785   1.121   6.135
 3754SOL     OW12160   6.760   6.496   1.748
 3754SOL    HW112161   6.746   6.435   1.826
 3754SOL    HW212162   6.671   6.527   1.714
 3755SOL     OW12163   4.646   2.243   3.042
 3755SOL    HW112164   4.657   2.238   3.141
 3755SOL    HW212165   4.589   2.167   3.011
 3756SOL     OW12166   3.486   0.069   0.211
 3756SOL    HW112167   3.564   0.020   0.251
 3756SOL    HW212168   3.401   0.026   0.241
 3757SOL     OW12169   3.101   4.292   5.603
 3757SOL    HW112170   3.159   4.373   5.604
 3757SOL    HW212171   3.155   4.212   5.577
 3758SOL     OW12172   6.999   0.620   1.972
 3758SOL    HW112173   0.016   0.704   1.935
 3758SOL    HW212174   6.922   0.643   2.031
 3759SOL     OW12175   5.102   4.010   0.587
 3759SOL    HW112176   5.145   3.963   0.511
 3759SOL    HW212177   5.172   4.052   0.645
 3760SOL     OW12178   1.928   1.709   6.142
 3760SOL    HW112179   1.955   1.708   6.238
 3760SOL    HW212180   1.946   1.800   6.103
 3761SOL     OW12181   6.756   6.084   4.372
 3761SOL    HW112182   6.765   6.171   4.324
 3761SOL    HW212183   6.704   6.019   4.316
 3762SOL     OW12184   0.444   3.689   0.917
 3762SOL    HW112185   0.348   3.675   0.940
 3762SOL    HW212186   0.497   3.702   1.001
 3763SOL     OW12187   0.100   2.848   4.785
 3763SOL    HW112188   0.110   2.932   4.731
 3763SOL    HW212189   0.067   2.775   4.725
 3764SOL     OW12190   2.173   0.275   3.412
 3764SOL    HW112191   2.086   0.317   3.438
 3764SOL    HW212192   2.168   0.247   3.316
 3765SOL     OW12193   6.177   1.171   3.742
 3765SOL    HW112194   6.263   1.205   3.779
 3765SOL    HW212195   6.108   1.243   3.747
 3766SOL     OW12196   2.319   1.173   4.824
 3766SOL    HW112197   2.290   1.245   4.761
 3766SOL    HW212198   2.414   1.188   4.850
 3767SOL     OW12199   6.930   4.500   1.138
 3767SOL    HW112200   6.830   4.510   1.134
 3767SOL    HW212201   6.971   4.545   1.059
 3768SOL     OW12202   4.779   6.626   1.152
 3768SOL    HW112203   4.729   6.584   1.077
 3768SOL    HW212204   4.877   6.628   1.131
 3769SOL     OW12205   4.073   6.507   4.781
 3769SOL    HW112206   4.020   6.424   4.762
 3769SOL    HW212207   4.106   6.504   4.876
 3770SOL     OW12208   1.810   2.810   0.022
 3770SOL    HW112209   1.718   2.810   7.003
 3770SOL    HW212210   1.878   2.824   6.973
 3771SOL     OW12211   4.662   1.741   6.030
 3771SOL    HW112212   4.582   1.797   6.049
 3771SOL    HW212213   4.740   1.775   6.082
 3772SOL     OW12214   5.632   0.680   2.565
 3772SOL    HW112215   5.710   0.658   2.624
 3772SOL    HW212216   5.649   0.767   2.519
 3773SOL     OW12217   6.617   2.241   0.984
 3773SOL    HW112218   6.549   2.257   1.055
 3773SOL    HW212219   6.598   2.300   0.905
 3774SOL     OW12220   1.184   1.692   1.512
 3774SOL    HW112221   1.247   1.733   1.578
 3774SOL    HW212222   1.165   1.597   1.538
 3775SOL     OW12223   5.400   2.675   3.409
 3775SOL    HW112224   5.427   2.629   3.495
 3775SOL    HW212225   5.415   2.612   3.333
 3776SOL     OW12226   2.954   2.252   6.572
 3776SOL    HW112227   2.887   2.287   6.506
 3776SOL    HW212228   2.905   2.202   6.645
 3777SOL     OW12229   1.341   4.102   3.229
 3777SOL    HW112230   1.413   4.040   3.260
 3777SOL    HW212231   1.347   4.188   3.280
 3778SOL     OW12232   2.156   0.543   1.913
 3778SOL    HW112233   2.122   0.451   1.897
 3778SOL    HW212234   2.079   0.605   1.927
 3779SOL     OW12235   1.780   5.047   6.559
 3779SOL    HW112236   1.692   5.068   6.518
 3779SOL    HW212237   1.853   5.064   6.492
 3780SOL     OW12238   1.959   0.133   4.113
 3780SOL    HW112239   1.940   0.228   4.135
 3780SOL    HW212240   1.972   0.123   4.015
 3781SOL     OW12241   2.905   5.267   4.708
 3781SOL    HW112242   2.859   5.355   4.718
 3781SOL    HW212243   3.001   5.277   4.733
 3782SOL     OW12244   2.766   1.253   2.186
 3782SOL    HW112245   2.694   1.184   2.175
 3782SOL    HW212246   2.826   1.228   2.262
 3783SOL     OW12247   5.358   4.959   4.834
 3783SOL    HW112248   5.372   5.055   4.809
 3783SOL    HW212249   5.353   4.950   4.933
 3784SOL     OW12250   4.894   2.487   4.486
 3784SOL    HW112251   4.884   2.431   4.404
 3784SOL    HW212252   4.815   2.548   4.493
 3785SOL     OW12253   0.449   0.289   2.263
 3785SOL    HW112254   0.349   0.293   2.264
 3785SOL    HW212255   0.483   0.340   2.183
 3786SOL     OW12256   2.528   6.287   1.276
 3786SOL    HW112257   2.625   6.300   1.298
 3786SOL    HW212258   2.473   6.349   1.331
 3787SOL     OW12259   4.841   1.048   3.652
 3787SOL    HW112260   4.772   1.034   3.723
 3787SOL    HW212261   4.812   1.121   3.591
 3788SOL     OW12262   6.816   3.216   2.306
 3788SOL    HW112263   6.743   3.273   2.268
 3788SOL    HW212264   6.796   3.120   2.286
 3789SOL     OW12265   2.030   5.312   2.287
 3789SOL    HW112266   2.047   5.381   2.216
 3789SOL    HW212267   2.065   5.346   2.375
 3790SOL     OW12268   1.686   3.257   2.388
 3790SOL    HW112269   1.593   3.291   2.372
 3790SOL    HW212270   1.746   3.290   2.316
 3791SOL     OW12271   6.622   0.678   2.932
 3791SOL    HW112272   6.686   0.733   2.986
 3791SOL    HW212273   6.549   0.645   2.992
 3792SOL     OW12274   1.035   5.667   6.372
 3792SOL    HW112275   1.040   5.760   6.408
 3792SOL    HW212276   0.985   5.609   6.436
 3793SOL     OW12277   6.839   5.879   2.760
 3793SOL    HW112278   6.920   5.823   2.743
 3793SOL    HW212279   6.863   5.976   2.752
 3794SOL     OW12280   4.245   0.098   3.915
 3794SOL    HW112281   4.219   0.173   3.855
 3794SOL    HW212282   4.334   0.061   3.886
 3795SOL     OW12283   5.893   0.207   0.808
 3795SOL    HW112284   5.972   0.252   0.850
 3795SOL    HW212285   5.834   0.169   0.879
 3796SOL     OW12286   0.319   2.777   1.297
 3796SOL    HW112287   0.343   2.783   1.394
 3796SOL    HW212288   0.390   2.725   1.249
 3797SOL     OW12289   0.025   5.717   2.687
 3797SOL    HW112290   0.058   5.683   2.599
 3797SOL    HW212291   0.084   5.683   2.760
 3798SOL     OW12292   1.353   4.623   6.986
 3798SOL    HW112293   1.338   4.717   6.955
 3798SOL    HW212294   1.306   4.609   0.051
 3799SOL     OW12295   1.051   0.531   5.633
 3799SOL    HW112296   1.131   0.573   5.591
 3799SOL    HW212297   1.004   0.473   5.566
 3800SOL     OW12298   5.018   2.459   4.740
 3800SOL    HW112299   4.964   2.455   4.655
 3800SOL    HW212300   4.979   2.529   4.800
 3801SOL     OW12301   6.669   0.341   6.048
 3801SOL    HW112302   6.657   0.290   5.963
 3801SOL    HW212303   6.764   0.369   6.058
 3802SOL     OW12304   1.922   2.434   5.144
 3802SOL    HW112305   1.993   2.372   5.112
 3802SOL    HW212306   1.904   2.503   5.074
 3803SOL     OW12307   4.210   1.239   1.442
 3803SOL    HW112308   4.139   1.253   1.373
 3803SOL    HW212309   4.185   1.288   1.526
 3804SOL     OW12310   5.327   3.686   5.045
 3804SOL    HW112311   5.375   3.766   5.082
 3804SOL    HW212312   5.235   3.680   5.084
 3805SOL     OW12313   1.829   3.728   1.529
 3805SOL    HW112314   1.901   3.782   1.485
 3805SOL    HW212315   1.851   3.715   1.625
 3806SOL     OW12316   3.424   0.649   6.893
 3806SOL    HW112317   3.331   0.613   6.885
 3806SOL    HW212318   3.433   0.731   6.837
 3807SOL     OW12319   1.549   6.704   2.840
 3807SOL    HW112320   1.535   6.713   2.939
 3807SOL    HW212321   1.534   6.793   2.796
 3808SOL     OW12322   3.835   0.994   0.442
 3808SOL    HW112323   3.832   0.894   0.444
 3808SOL    HW212324   3.873   1.024   0.355
 3809SOL     OW12325   4.199   1.154   0.235
 3809SOL    HW112326   4.272   1.105   0.282
 3809SOL    HW212327   4.187   1.245   0.276
 3810SOL     OW12328   1.928   3.791   6.822
 3810SOL    HW112329   1.847   3.843   6.847
 3810SOL    HW212330   1.997   3.852   6.783
 3811SOL     OW12331   6.862   0.507   6.269
 3811SOL    HW112332   6.835   0.425   6.318
 3811SOL    HW212333   6.840   0.588   6.324
 3812SOL     OW12334   4.407   0.711   5.854
 3812SOL    HW112335   4.392   0.692   5.951
 3812SOL    HW212336   4.467   0.790   5.844
 3813SOL     OW12337   3.813   4.873   2.133
 3813SOL    HW112338   3.765   4.872   2.220
 3813SOL    HW212339   3.765   4.815   2.067
 3814SOL     OW12340   2.129   0.636   1.636
 3814SOL    HW112341   2.156   0.616   1.730
 3814SOL    HW212342   2.066   0.713   1.635
 3815SOL     OW12343   5.624   1.990   2.009
 3815SOL    HW112344   5.640   2.074   2.060
 3815SOL    HW212345   5.655   1.912   2.063
 3816SOL     OW12346   0.398   6.337   0.498
 3816SOL    HW112347   0.344   6.276   0.556
 3816SOL    HW212348   0.467   6.383   0.553
 3817SOL     OW12349   5.474   2.022   5.448
 3817SOL    HW112350   5.507   1.965   5.373
 3817SOL    HW212351   5.413   1.969   5.506
 3818SOL     OW12352   3.445   5.724   3.099
 3818SOL    HW112353   3.413   5.703   3.007
 3818SOL    HW212354   3.405   5.811   3.129
 3819SOL     OW12355   5.398   3.507   6.482
 3819SOL    HW112356   5.358   3.598   6.470
 3819SOL    HW212357   5.380   3.452   6.401
 3820SOL     OW12358   4.179   6.221   3.283
 3820SOL    HW112359   4.163   6.151   3.352
 3820SOL    HW212360   4.277   6.227   3.263
 3821SOL     OW12361   6.958   4.627   1.397
 3821SOL    HW112362   6.907   4.547   1.365
 3821SOL    HW212363   7.020   4.658   1.325
 3822SOL     OW12364   0.787   3.890   1.193
 3822SOL    HW112365   0.849   3.815   1.168
 3822SOL    HW212366   0.786   3.900   1.293
 3823SOL     OW12367   2.546   3.591   5.431
 3823SOL    HW112368   2.601   3.520   5.387
 3823SOL    HW212369   2.495   3.642   5.361
 3824SOL     OW12370   0.643   2.559   6.063
 3824SOL    HW112371   0.551   2.587   6.033
 3824SOL    HW212372   0.646   2.556   6.163
 3825SOL     OW12373   0.576   6.308   6.051
 3825SOL    HW112374   0.547   6.301   6.146
 3825SOL    HW212375   0.642   6.383   6.041
 3826SOL     OW12376   6.503   1.887   1.824
 3826SOL    HW112377   6.434   1.908   1.894
 3826SOL    HW212378   6.594   1.901   1.863
 3827SOL     OW12379   5.294   1.676   2.322
 3827SOL    HW112380   5.246   1.730   2.253
 3827SOL    HW212381   5.390   1.666   2.295
 3828SOL     OW12382   3.656   1.156   1.461
 3828SOL    HW112383   3.672   1.196   1.551
 3828SOL    HW212384   3.572   1.102   1.463
 3829SOL     OW12385   0.842   4.931   3.673
 3829SOL    HW112386   0.838   4.840   3.632
 3829SOL    HW212387   0.850   5.000   3.600
 3830SOL     OW12388   2.276   0.295   5.391
 3830SOL    HW112389   2.326   0.381   5.392
 3830SOL    HW212390   2.294   0.245   5.476
 3831SOL     OW12391   4.884   1.660   2.319
 3831SOL    HW112392   4.867   1.715   2.401
 3831SOL    HW212393   4.952   1.706   2.262
 3832SOL     OW12394   5.986   6.760   2.376
 3832SOL    HW112395   5.936   6.846   2.391
 3832SOL    HW212396   6.084   6.778   2.373
 3833SOL     OW12397   1.449   6.542   2.644
 3833SOL    HW112398   1.457   6.588   2.556
 3833SOL    HW212399   1.494   6.597   2.715
 3834SOL     OW12400   3.489   3.113   0.657
 3834SOL    HW112401   3.447   3.027   0.684
 3834SOL    HW212402   3.491   3.175   0.735
 3835SOL     OW12403   2.931   4.871   3.066
 3835SOL    HW112404   3.018   4.884   3.113
 3835SOL    HW212405   2.903   4.775   3.071
 3836SOL     OW12406   1.298   2.977   6.072
 3836SOL    HW112407   1.244   2.971   6.156
 3836SOL    HW212408   1.277   2.901   6.012
 3837SOL     OW12409   3.257   4.409   6.474
 3837SOL    HW112410   3.187   4.480   6.475
 3837SOL    HW212411   3.212   4.319   6.474
 3838SOL     OW12412   6.858   3.370   4.593
 3838SOL    HW112413   6.948   3.376   4.636
 3838SOL    HW212414   6.833   3.459   4.556
 3839SOL     OW12415   0.653   6.264   0.115
 3839SOL    HW112416   0.579   6.314   0.158
 3839SOL    HW212417   0.620   6.220   0.031
 3840SOL     OW12418   2.931   2.186   3.171
 3840SOL    HW112419   3.026   2.163   3.150
 3840SOL    HW212420   2.891   2.236   3.094
 3841SOL     OW12421   1.019   2.962   3.657
 3841SOL    HW112422   1.098   3.007   3.615
 3841SOL    HW212423   0.993   3.010   3.741
 3842SOL     OW12424   1.046   5.034   6.805
 3842SOL    HW112425   0.958   5.069   6.775
 3842SOL    HW212426   1.034   4.979   6.887
 3843SOL     OW12427   7.017   4.583   6.904
 3843SOL    HW112428   0.033   4.641   6.833
 3843SOL    HW212429   6.952   4.519   6.864
 3844SOL     OW12430   2.676   4.404   5.737
 3844SOL    HW112431   2.744   4.442   5.674
 3844SOL    HW212432   2.584   4.426   5.703
 3845SOL     OW12433   3.225   3.410   4.143
 3845SOL    HW112434   3.154   3.364   4.090
 3845SOL    HW212435   3.284   3.463   4.083
 3846SOL     OW12436   6.833   4.779   5.023
 3846SOL    HW112437   6.750   4.782   5.078
 3846SOL    HW212438   6.913   4.768   5.082
 3847SOL     OW12439   1.504   6.796   0.863
 3847SOL    HW112440   1.432   6.736   0.899
 3847SOL    HW212441   1.513   6.876   0.921
 3848SOL     OW12442   2.830   6.303   2.100
 3848SOL    HW112443   2.902   6.234   2.105
 3848SOL    HW212444   2.744   6.259   2.072
 3849SOL     OW12445   2.633   1.466   5.209
 3849SOL    HW112446   2.713   1.412   5.236
 3849SOL    HW212447   2.636   1.481   5.110
 3850SOL     OW12448   1.400   3.503   1.476
 3850SOL    HW112449   1.419   3.510   1.378
 3850SOL    HW212450   1.486   3.514   1.527
 3851SOL     OW12451   2.803   3.039   0.738
 3851SOL    HW112452   2.751   2.987   0.670
 3851SOL    HW212453   2.757   3.033   0.827
 3852SOL     OW12454   4.835   0.937   5.240
 3852SOL    HW112455   4.826   1.019   5.297
 3852SOL    HW212456   4.822   0.961   5.144
 3853SOL     OW12457   0.196   3.522   2.417
 3853SOL    HW112458   0.116   3.562   2.372
 3853SOL    HW212459   0.253   3.594   2.455
 3854SOL     OW12460   1.425   3.416   4.213
 3854SOL    HW112461   1.469   3.427   4.303
 3854SOL    HW212462   1.460   3.334   4.169
 3855SOL     OW12463   6.883   1.539   4.950
 3855SOL    HW112464   6.923   1.626   4.922
 3855SOL    HW212465   6.954   1.468   4.952
 3856SOL     OW12466   0.974   6.179   6.239
 3856SOL    HW112467   1.057   6.125   6.252
 3856SOL    HW212468   0.972   6.253   6.307
 3857SOL     OW12469   6.922   0.391   6.770
 3857SOL    HW112470   6.940   0.301   6.810
 3857SOL    HW212471   6.940   0.462   6.838
 3858SOL     OW12472   4.051   4.719   6.846
 3858SOL    HW112473   3.981   4.775   6.802
 3858SOL    HW212474   4.080   4.646   6.784
 3859SOL     OW12475   6.611   2.652   2.376
 3859SOL    HW112476   6.649   2.679   2.288
 3859SOL    HW212477   6.678   2.598   2.426
 3860SOL     OW12478   2.520   6.094   4.881
 3860SOL    HW112479   2.512   6.124   4.786
 3860SOL    HW212480   2.432   6.058   4.912
 3861SOL     OW12481   2.948   4.302   0.005
 3861SOL    HW112482   2.888   4.359   0.061
 3861SOL    HW212483   2.917   4.304   6.933
 3862SOL     OW12484   0.942   6.236   5.473
 3862SOL    HW112485   0.935   6.328   5.433
 3862SOL    HW212486   0.883   6.230   5.553
 3863SOL     OW12487   2.662   2.686   0.167
 3863SOL    HW112488   2.656   2.748   0.089
 3863SOL    HW212489   2.728   2.721   0.233
 3864SOL     OW12490   3.325   2.047   1.416
 3864SOL    HW112491   3.395   2.089   1.474
 3864SOL    HW212492   3.278   1.976   1.468
 3865SOL     OW12493   4.035   1.051   2.264
 3865SOL    HW112494   3.956   1.111   2.249
 3865SOL    HW212495   4.060   1.007   2.178
 3866SOL     OW12496   4.356   6.238   0.222
 3866SOL    HW112497   4.420   6.228   0.299
 3866SOL    HW212498   4.337   6.149   0.183
 3867SOL     OW12499   1.542   4.760   3.156
 3867SOL    HW112500   1.636   4.744   3.185
 3867SOL    HW212501   1.542   4.792   3.061
 3868SOL     OW12502   1.828   5.023   3.077
 3868SOL    HW112503   1.857   4.984   3.164
 3868SOL    HW212504   1.781   4.954   3.023
 3869SOL     OW12505   1.099   1.307   3.884
 3869SOL    HW112506   1.060   1.223   3.920
 3869SOL    HW212507   1.121   1.295   3.787
 3870SOL     OW12508   3.929   3.836   0.146
 3870SOL    HW112509   3.891   3.927   0.165
 3870SOL    HW212510   3.893   3.771   0.213
 3871SOL     OW12511   3.142   0.786   4.366
 3871SOL    HW112512   3.057   0.819   4.324
 3871SOL    HW212513   3.189   0.726   4.301
 3872SOL     OW12514   4.716   3.989   0.793
 3872SOL    HW112515   4.632   3.993   0.845
 3872SOL    HW212516   4.794   4.006   0.853
 3873SOL     OW12517   6.547   4.664   2.044
 3873SOL    HW112518   6.582   4.717   1.967
 3873SOL    HW212519   6.622   4.612   2.085
 3874SOL     OW12520   5.598   6.266   5.989
 3874SOL    HW112521   5.677   6.254   6.049
 3874SOL    HW212522   5.567   6.361   5.994
 3875SOL     OW12523   3.081   3.441   0.181
 3875SOL    HW112524   3.076   3.343   0.197
 3875SOL    HW212525   3.120   3.486   0.261
 3876SOL     OW12526   5.452   3.783   2.679
 3876SOL    HW112527   5.492   3.814   2.593
 3876SOL    HW212528   5.504   3.705   2.714
 3877SOL     OW12529   4.440   1.991   2.092
 3877SOL    HW112530   4.430   2.013   2.189
 3877SOL    HW212531   4.362   2.026   2.041
 3878SOL     OW12532   5.352   5.658   4.653
 3878SOL    HW112533   5.415   5.582   4.669
 3878SOL    HW212534   5.349   5.677   4.555
 3879SOL     OW12535   2.339   5.957   0.548
 3879SOL    HW112536   2.333   6.033   0.613
 3879SOL    HW212537   2.430   5.915   0.554
 3880SOL     OW12538   6.177   1.355   4.542
 3880SOL    HW112539   6.224   1.283   4.492
 3880SOL    HW212540   6.078   1.342   4.533
 3881SOL     OW12541   0.482   6.028   5.536
 3881SOL    HW112542   0.569   6.061   5.574
 3881SOL    HW212543   0.491   6.015   5.438
 3882SOL     OW12544   0.159   6.186   0.058
 3882SOL    HW112545   0.135   6.097   0.019
 3882SOL    HW212546   0.165   6.254   7.008
 3883SOL     OW12547   3.864   1.876   0.481
 3883SOL    HW112548   3.915   1.859   0.565
 3883SOL    HW212549   3.926   1.875   0.403
 3884SOL     OW12550   3.057   5.822   5.640
 3884SOL    HW112551   3.141   5.769   5.646
 3884SOL    HW212552   2.993   5.778   5.576
 3885SOL     OW12553   0.189   1.089   3.858
 3885SOL    HW112554   0.122   1.096   3.785
 3885SOL    HW212555   0.142   1.081   3.946
 3886SOL     OW12556   6.869   6.025   4.628
 3886SOL    HW112557   6.854   6.064   4.538
 3886SOL    HW212558   6.807   5.947   4.642
 3887SOL     OW12559   6.955   3.166   5.434
 3887SOL    HW112560   6.923   3.260   5.420
 3887SOL    HW212561   7.005   3.136   5.352
 3888SOL     OW12562   4.977   1.799   3.380
 3888SOL    HW112563   4.977   1.848   3.293
 3888SOL    HW212564   5.072   1.785   3.411
 3889SOL     OW12565   6.549   5.652   0.331
 3889SOL    HW112566   6.620   5.719   0.352
 3889SOL    HW212567   6.583   5.560   0.351
 3890SOL     OW12568   6.193   3.104   3.293
 3890SOL    HW112569   6.131   3.027   3.314
 3890SOL    HW212570   6.163   3.149   3.210
 3891SOL     OW12571   3.768   4.240   6.071
 3891SOL    HW112572   3.779   4.285   6.159
 3891SOL    HW212573   3.672   4.212   6.060
 3892SOL     OW12574   5.316   5.674   3.859
 3892SOL    HW112575   5.244   5.635   3.916
 3892SOL    HW212576   5.293   5.768   3.836
 3893SOL     OW12577   2.435   5.983   4.565
 3893SOL    HW112578   2.477   5.936   4.488
 3893SOL    HW212579   2.354   5.933   4.595
 3894SOL     OW12580   5.656   5.687   5.881
 3894SOL    HW112581   5.632   5.781   5.903
 3894SOL    HW212582   5.724   5.654   5.947
 3895SOL     OW12583   1.332   1.728   5.256
 3895SOL    HW112584   1.381   1.713   5.342
 3895SOL    HW212585   1.277   1.647   5.234
 3896SOL     OW12586   6.568   2.773   0.488
 3896SOL    HW112587   6.583   2.788   0.586
 3896SOL    HW212588   6.652   2.741   0.446
 3897SOL     OW12589   2.622   0.191   3.298
 3897SOL    HW112590   2.593   0.284   3.318
 3897SOL    HW212591   2.622   0.177   3.198
 3898SOL     OW12592   3.304   4.098   3.398
 3898SOL    HW112593   3.241   4.111   3.474
 3898SOL    HW212594   3.387   4.052   3.431
 3899SOL     OW12595   4.919   1.889   6.266
 3899SOL    HW112596   4.974   1.883   6.349
 3899SOL    HW212597   4.838   1.946   6.284
 3900SOL     OW12598   0.980   2.580   3.892
 3900SOL    HW112599   1.013   2.583   3.986
 3900SOL    HW212600   1.052   2.613   3.830
 3901SOL     OW12601   3.772   6.079   4.367
 3901SOL    HW112602   3.726   6.163   4.340
 3901SOL    HW212603   3.783   6.020   4.287
 3902SOL     OW12604   2.667   5.311   3.202
 3902SOL    HW112605   2.722   5.228   3.192
 3902SOL    HW212606   2.620   5.330   3.115
 3903SOL     OW12607   2.897   3.744   6.430
 3903SOL    HW112608   2.911   3.717   6.335
 3903SOL    HW212609   2.868   3.839   6.435
 3904SOL     OW12610   2.723   6.269   0.759
 3904SOL    HW112611   2.810   6.231   0.729
 3904SOL    HW212612   2.738   6.329   0.838
 3905SOL     OW12613   4.135   6.529   5.512
 3905SOL    HW112614   4.208   6.582   5.469
 3905SOL    HW212615   4.174   6.467   5.580
 3906SOL     OW12616   6.488   5.693   4.245
 3906SOL    HW112617   6.528   5.602   4.238
 3906SOL    HW212618   6.436   5.700   4.330
 3907SOL     OW12619   1.184   1.438   4.908
 3907SOL    HW112620   1.106   1.380   4.932
 3907SOL    HW212621   1.172   1.472   4.814
 3908SOL     OW12622   2.097   1.691   4.897
 3908SOL    HW112623   2.037   1.637   4.838
 3908SOL    HW212624   2.146   1.758   4.842
 3909SOL     OW12625   6.298   3.348   2.377
 3909SOL    HW112626   6.396   3.329   2.383
 3909SOL    HW212627   6.280   3.438   2.415
 3910SOL     OW12628   1.967   2.244   0.289
 3910SOL    HW112629   1.923   2.333   0.293
 3910SOL    HW212630   2.066   2.256   0.281
 3911SOL     OW12631   6.185   1.082   1.996
 3911SOL    HW112632   6.104   1.121   1.953
 3911SOL    HW212633   6.170   0.985   2.016
 3912SOL     OW12634   5.013   4.492   0.141
 3912SOL    HW112635   4.988   4.589   0.138
 3912SOL    HW212636   4.930   4.436   0.135
 3913SOL     OW12637   4.167   4.524   1.009
 3913SOL    HW112638   4.215   4.586   1.071
 3913SOL    HW212639   4.203   4.431   1.020
 3914SOL     OW12640   0.360   1.092   0.325
 3914SOL    HW112641   0.298   1.134   0.390
 3914SOL    HW212642   0.452   1.088   0.364
 3915SOL     OW12643   5.512   6.991   5.017
 3915SOL    HW112644   5.486   6.917   4.955
 3915SOL    HW212645   5.582   0.026   4.973
 3916SOL     OW12646   1.994   2.766   2.033
 3916SOL    HW112647   2.002   2.763   2.133
 3916SOL    HW212648   1.922   2.702   2.003
 3917SOL     OW12649   3.821   5.721   2.132
 3917SOL    HW112650   3.848   5.683   2.044
 3917SOL    HW212651   3.821   5.821   2.128
 3918SOL     OW12652   3.673   6.953   0.361
 3918SOL    HW112653   3.659   6.868   0.412
 3918SOL    HW212654   3.747   7.006   0.403
 3919SOL     OW12655   4.913   4.521   3.358
 3919SOL    HW112656   4.863   4.583   3.297
 3919SOL    HW212657   5.009   4.549   3.362
 3920SOL     OW12658   4.329   1.119   5.968
 3920SOL    HW112659   4.351   1.107   6.064
 3920SOL    HW212660   4.410   1.099   5.912
 3921SOL     OW12661   0.776   3.729   5.888
 3921SOL    HW112662   0.718   3.667   5.941
 3921SOL    HW212663   0.732   3.748   5.800
 3922SOL     OW12664   5.430   2.146   3.971
 3922SOL    HW112665   5.516   2.148   4.022
 3922SOL    HW212666   5.356   2.179   4.030
 3923SOL     OW12667   5.749   1.217   1.291
 3923SOL    HW112668   5.838   1.252   1.262
 3923SOL    HW212669   5.749   1.201   1.389
 3924SOL     OW12670   5.488   5.222   3.828
 3924SOL    HW112671   5.425   5.239   3.752
 3924SOL    HW212672   5.494   5.124   3.845
 3925SOL     OW12673   3.736   4.288   1.501
 3925SOL    HW112674   3.688   4.285   1.414
 3925SOL    HW212675   3.688   4.350   1.564
 3926SOL     OW12676   1.189   5.842   5.384
 3926SOL    HW112677   1.191   5.913   5.454
 3926SOL    HW212678   1.276   5.792   5.385
 3927SOL     OW12679   6.384   6.130   4.935
 3927SOL    HW112680   6.383   6.177   4.847
 3927SOL    HW212681   6.311   6.165   4.992
 3928SOL     OW12682   4.381   5.583   2.538
 3928SOL    HW112683   4.324   5.646   2.486
 3928SOL    HW212684   4.459   5.556   2.482
 3929SOL     OW12685   2.149   0.961   5.053
 3929SOL    HW112686   2.084   0.990   4.982
 3929SOL    HW212687   2.098   0.937   5.136
 3930SOL     OW12688   1.880   5.900   4.297
 3930SOL    HW112689   1.824   5.955   4.235
 3930SOL    HW212690   1.969   5.882   4.255
 3931SOL     OW12691   0.429   2.277   0.222
 3931SOL    HW112692   0.507   2.319   0.175
 3931SOL    HW212693   0.350   2.338   0.218
 3932SOL     OW12694   1.639   4.795   2.016
 3932SOL    HW112695   1.629   4.723   2.085
 3932SOL    HW212696   1.557   4.853   2.016
 3933SOL     OW12697   1.394   6.870   1.248
 3933SOL    HW112698   1.453   6.796   1.280
 3933SOL    HW212699   1.303   6.859   1.288
 3934SOL     OW12700   1.342   6.903   2.103
 3934SOL    HW112701   1.441   6.916   2.091
 3934SOL    HW212702   1.296   6.915   2.015
 3935SOL     OW12703   0.343   1.280   4.821
 3935SOL    HW112704   0.424   1.221   4.823
 3935SOL    HW212705   0.298   1.271   4.733
 3936SOL     OW12706   6.218   4.679   4.005
 3936SOL    HW112707   6.280   4.757   4.005
 3936SOL    HW212708   6.257   4.605   4.059
 3937SOL     OW12709   1.522   6.371   0.331
 3937SOL    HW112710   1.468   6.402   0.253
 3937SOL    HW212711   1.471   6.301   0.381
 3938SOL     OW12712   0.857   4.756   6.704
 3938SOL    HW112713   0.821   4.674   6.750
 3938SOL    HW212714   0.956   4.760   6.717
 3939SOL     OW12715   2.290   6.354   4.214
 3939SOL    HW112716   2.276   6.375   4.117
 3939SOL    HW212717   2.211   6.305   4.250
 3940SOL     OW12718   2.657   5.904   6.843
 3940SOL    HW112719   2.634   5.994   6.882
 3940SOL    HW212720   2.691   5.916   6.750
 3941SOL     OW12721   5.649   5.513   2.464
 3941SOL    HW112722   5.652   5.604   2.423
 3941SOL    HW212723   5.630   5.445   2.393
 3942SOL     OW12724   0.429   6.387   0.245
 3942SOL    HW112725   0.430   6.487   0.237
 3942SOL    HW212726   0.420   6.362   0.341
 3943SOL     OW12727   0.321   4.993   0.454
 3943SOL    HW112728   0.408   4.946   0.439
 3943SOL    HW212729   0.327   5.086   0.417
 3944SOL     OW12730   5.417   3.387   0.689
 3944SOL    HW112731   5.481   3.347   0.624
 3944SOL    HW212732   5.364   3.315   0.733
 3945SOL     OW12733   6.927   0.808   2.516
 3945SOL    HW112734   6.984   0.752   2.456
 3945SOL    HW212735   6.974   0.894   2.536
 3946SOL     OW12736   5.052   1.419   0.776
 3946SOL    HW112737   5.110   1.362   0.834
 3946SOL    HW212738   5.092   1.510   0.767
 3947SOL     OW12739   5.425   0.194   1.110
 3947SOL    HW112740   5.476   0.190   1.195
 3947SOL    HW212741   5.435   0.284   1.068
 3948SOL     OW12742   1.444   1.717   4.267
 3948SOL    HW112743   1.440   1.621   4.293
 3948SOL    HW212744   1.538   1.742   4.244
 3949SOL     OW12745   5.926   6.987   2.952
 3949SOL    HW112746   5.981   6.910   2.985
 3949SOL    HW212747   5.839   6.988   3.000
 3950SOL     OW12748   2.488   4.612   1.676
 3950SOL    HW112749   2.446   4.655   1.597
 3950SOL    HW212750   2.576   4.572   1.649
 3951SOL     OW12751   6.632   2.579   3.352
 3951SOL    HW112752   6.641   2.617   3.260
 3951SOL    HW212753   6.542   2.536   3.362
 3952SOL     OW12754   6.044   5.355   0.093
 3952SOL    HW112755   5.974   5.317   0.033
 3952SOL    HW212756   6.131   5.359   0.044
 3953SOL     OW12757   3.493   2.812   5.007
 3953SOL    HW112758   3.556   2.805   5.084
 3953SOL    HW212759   3.417   2.748   5.019
 3954SOL     OW12760   1.001   4.528   5.507
 3954SOL    HW112761   1.066   4.593   5.545
 3954SOL    HW212762   1.029   4.502   5.415
 3955SOL     OW12763   5.729   3.419   0.041
 3955SOL    HW112764   5.758   3.412   6.968
 3955SOL    HW212765   5.709   3.328   0.077
 3956SOL     OW12766   6.850   2.868   4.926
 3956SOL    HW112767   6.842   2.833   5.020
 3956SOL    HW212768   6.946   2.871   4.900
 3957SOL     OW12769   1.880   2.928   1.525
 3957SOL    HW112770   1.957   2.990   1.510
 3957SOL    HW212771   1.856   2.927   1.622
 3958SOL     OW12772   5.436   5.430   1.103
 3958SOL    HW112773   5.424   5.331   1.091
 3958SOL    HW212774   5.367   5.465   1.166
 3959SOL     OW12775   3.577   4.886   0.697
 3959SOL    HW112776   3.553   4.977   0.664
 3959SOL    HW212777   3.652   4.894   0.763
 3960SOL     OW12778   5.682   3.168   0.954
 3960SOL    HW112779   5.704   3.150   0.859
 3960SOL    HW212780   5.765   3.183   1.006
 3961SOL     OW12781   6.734   1.168   1.358
 3961SOL    HW112782   6.742   1.172   1.258
 3961SOL    HW212783   6.747   1.259   1.396
 3962SOL     OW12784   0.400   6.758   6.551
 3962SOL    HW112785   0.311   6.797   6.528
 3962SOL    HW212786   0.418   6.679   6.493
 3963SOL     OW12787   5.577   3.191   4.640
 3963SOL    HW112788   5.634   3.153   4.714
 3963SOL    HW212789   5.600   3.145   4.554
 3964SOL     OW12790   5.703   4.524   6.759
 3964SOL    HW112791   5.775   4.594   6.755
 3964SOL    HW212792   5.649   4.528   6.675
 3965SOL     OW12793   2.846   4.584   1.456
 3965SOL    HW112794   2.751   4.561   1.432
 3965SOL    HW212795   2.900   4.591   1.372
 3966SOL     OW12796   0.082   3.612   5.795
 3966SOL    HW112797   0.059   3.529   5.744
 3966SOL    HW212798   0.154   3.661   5.746
 3967SOL     OW12799   2.276   0.349   0.686
 3967SOL    HW112800   2.277   0.266   0.742
 3967SOL    HW212801   2.234   0.423   0.739
 3968SOL     OW12802   4.732   2.851   0.802
 3968SOL    HW112803   4.669   2.927   0.786
 3968SOL    HW212804   4.716   2.812   0.893
 3969SOL     OW12805   6.410   6.092   1.471
 3969SOL    HW112806   6.402   6.163   1.400
 3969SOL    HW212807   6.438   6.134   1.557
 3970SOL     OW12808   6.003   4.102   4.165
 3970SOL    HW112809   5.951   4.168   4.111
 3970SOL    HW212810   5.951   4.017   4.173
 3971SOL     OW12811   0.065   5.897   4.024
 3971SOL    HW112812   6.991   5.877   4.040
 3971SOL    HW212813   0.121   5.842   4.086
 3972SOL     OW12814   0.991   0.950   6.587
 3972SOL    HW112815   0.929   0.873   6.603
 3972SOL    HW212816   1.072   0.941   6.645
 3973SOL     OW12817   4.128   3.125   1.766
 3973SOL    HW112818   4.071   3.139   1.685
 3973SOL    HW212819   4.223   3.111   1.737
 3974SOL     OW12820   5.325   1.316   6.770
 3974SOL    HW112821   5.276   1.240   6.727
 3974SOL    HW212822   5.420   1.291   6.785
 3975SOL     OW12823   6.910   6.332   4.046
 3975SOL    HW112824   6.953   6.261   4.101
 3975SOL    HW212825   6.961   6.343   3.960
 3976SOL     OW12826   0.592   3.061   5.214
 3976SOL    HW112827   0.672   3.017   5.255
 3976SOL    HW212828   0.548   2.998   5.149
 3977SOL     OW12829   1.981   4.782   5.526
 3977SOL    HW112830   2.048   4.799   5.598
 3977SOL    HW212831   1.894   4.757   5.566
 3978SOL     OW12832   4.528   3.298   6.107
 3978SOL    HW112833   4.566   3.342   6.026
 3978SOL    HW212834   4.430   3.285   6.095
 3979SOL     OW12835   0.232   5.226   2.946
 3979SOL    HW112836   0.324   5.260   2.926
 3979SOL    HW212837   0.172   5.303   2.970
 3980SOL     OW12838   5.187   4.368   3.881
 3980SOL    HW112839   5.262   4.354   3.946
 3980SOL    HW212840   5.222   4.414   3.800
 3981SOL     OW12841   6.902   0.866   6.698
 3981SOL    HW112842   6.917   0.796   6.629
 3981SOL    HW212843   6.982   0.870   6.759
 3982SOL     OW12844   2.071   3.108   4.424
 3982SOL    HW112845   2.147   3.103   4.489
 3982SOL    HW212846   1.990   3.144   4.471
 3983SOL     OW12847   2.683   1.154   3.102
 3983SOL    HW112848   2.620   1.188   3.033
 3983SOL    HW212849   2.668   1.204   3.188
 3984SOL     OW12850   1.223   5.805   2.412
 3984SOL    HW112851   1.200   5.898   2.382
 3984SOL    HW212852   1.243   5.806   2.510
 3985SOL     OW12853   1.494   2.714   1.247
 3985SOL    HW112854   1.404   2.697   1.208
 3985SOL    HW212855   1.507   2.656   1.328
 3986SOL     OW12856   0.762   1.358   3.033
 3986SOL    HW112857   0.740   1.439   2.978
 3986SOL    HW212858   0.728   1.372   3.126
 3987SOL     OW12859   1.331   4.330   5.484
 3987SOL    HW112860   1.346   4.419   5.442
 3987SOL    HW212861   1.377   4.327   5.573
 3988SOL     OW12862   5.183   6.270   2.507
 3988SOL    HW112863   5.191   6.361   2.465
 3988SOL    HW212864   5.090   6.236   2.495
 3989SOL     OW12865   4.342   0.651   6.116
 3989SOL    HW112866   4.360   0.555   6.137
 3989SOL    HW212867   4.280   0.689   6.185
 3990SOL     OW12868   6.176   6.892   3.984
 3990SOL    HW112869   6.188   6.991   3.981
 3990SOL    HW212870   6.098   6.870   4.043
 3991SOL     OW12871   6.373   2.280   4.007
 3991SOL    HW112872   6.310   2.207   4.033
 3991SOL    HW212873   6.350   2.313   3.916
 3992SOL     OW12874   5.753   3.332   5.711
 3992SOL    HW112875   5.713   3.243   5.689
 3992SOL    HW212876   5.683   3.391   5.749
 3993SOL     OW12877   1.584   0.957   4.279
 3993SOL    HW112878   1.536   1.043   4.259
 3993SOL    HW212879   1.542   0.912   4.358
 3994SOL     OW12880   3.030   2.245   3.698
 3994SOL    HW112881   3.067   2.157   3.667
 3994SOL    HW212882   2.978   2.287   3.624
 3995SOL     OW12883   1.061   3.239   1.989
 3995SOL    HW112884   1.114   3.207   1.911
 3995SOL    HW212885   0.965   3.250   1.962
 3996SOL     OW12886   0.451   6.221   5.009
 3996SOL    HW112887   0.378   6.217   4.941
 3996SOL    HW212888   0.539   6.225   4.963
 3997SOL     OW12889   6.188   3.368   5.107
 3997SOL    HW112890   6.266   3.328   5.060
 3997SOL    HW212891   6.126   3.408   5.039
 3998SOL     OW12892   4.240   2.294   2.826
 3998SOL    HW112893   4.286   2.282   2.738
 3998SOL    HW212894   4.152   2.247   2.825
 3999SOL     OW12895   4.820   3.496   1.138
 3999SOL    HW112896   4.837   3.563   1.210
 3999SOL    HW212897   4.843   3.536   1.050
 4000SOL     OW12898   2.363   4.792   2.448
 4000SOL    HW112899   2.278   4.744   2.425
 4000SOL    HW212900   2.342   4.885   2.477
 4001SOL     OW12901   0.790   6.020   4.295
 4001SOL    HW112902   0.864   6.033   4.360
 4001SOL    HW212903   0.707   6.064   4.329
 4002SOL     OW12904   3.667   4.197   4.910
 4002SOL    HW112905   3.571   4.206   4.938
 4002SOL    HW212906   3.671   4.180   4.812
 4003SOL     OW12907   2.726   1.542   4.384
 4003SOL    HW112908   2.768   1.602   4.315
 4003SOL    HW212909   2.651   1.590   4.429
 4004SOL     OW12910   1.820   3.566   4.985
 4004SOL    HW112911   1.919   3.548   4.987
 4004SOL    HW212912   1.800   3.642   5.047
 4005SOL     OW12913   5.798   2.772   1.135
 4005SOL    HW112914   5.762   2.828   1.210
 4005SOL    HW212915   5.770   2.812   1.047
 4006SOL     OW12916   0.315   5.930   2.152
 4006SOL    HW112917   0.264   5.933   2.238
 4006SOL    HW212918   0.413   5.928   2.170
 4007SOL     OW12919   0.485   1.589   1.267
 4007SOL    HW112920   0.534   1.506   1.289
 4007SOL    HW212921   0.414   1.569   1.199
 4008SOL     OW12922   3.800   0.898   1.233
 4008SOL    HW112923   3.897   0.884   1.254
 4008SOL    HW212924   3.763   0.966   1.296
 4009SOL     OW12925   3.443   2.512   1.169
 4009SOL    HW112926   3.532   2.538   1.208
 4009SOL    HW212927   3.450   2.422   1.127
 4010SOL     OW12928   1.458   4.998   1.108
 4010SOL    HW112929   1.557   4.992   1.119
 4010SOL    HW212930   1.420   5.057   1.180
 4011SOL     OW12931   5.737   6.687   6.535
 4011SOL    HW112932   5.698   6.761   6.590
 4011SOL    HW212933   5.831   6.709   6.511
 4012SOL     OW12934   5.270   4.967   1.412
 4012SOL    HW112935   5.280   4.897   1.342
 4012SOL    HW212936   5.347   5.031   1.405
 4013SOL     OW12937   6.858   1.877   6.747
 4013SOL    HW112938   6.826   1.840   6.835
 4013SOL    HW212939   6.955   1.903   6.755
 4014SOL     OW12940   3.245   6.448   2.769
 4014SOL    HW112941   3.303   6.367   2.758
 4014SOL    HW212942   3.270   6.516   2.701
 4015SOL     OW12943   3.856   6.305   4.549
 4015SOL    HW112944   3.924   6.279   4.618
 4015SOL    HW212945   3.864   6.245   4.469
 4016SOL     OW12946   4.641   4.943   4.361
 4016SOL    HW112947   4.585   5.016   4.400
 4016SOL    HW212948   4.600   4.912   4.275
 4017SOL     OW12949   1.788   6.120   5.853
 4017SOL    HW112950   1.805   6.025   5.882
 4017SOL    HW212951   1.845   6.182   5.907
 4018SOL     OW12952   5.268   5.338   0.763
 4018SOL    HW112953   5.189   5.323   0.822
 4018SOL    HW212954   5.242   5.325   0.668
 4019SOL     OW12955   0.560   2.188   3.380
 4019SOL    HW112956   0.544   2.129   3.459
 4019SOL    HW212957   0.497   2.163   3.306
 4020SOL     OW12958   6.860   5.787   4.146
 4020SOL    HW112959   6.915   5.728   4.206
 4020SOL    HW212960   6.845   5.740   4.059
 4021SOL     OW12961   4.809   5.157   5.898
 4021SOL    HW112962   4.804   5.247   5.940
 4021SOL    HW212963   4.821   5.087   5.968
 4022SOL     OW12964   3.528   0.075   1.439
 4022SOL    HW112965   3.512   0.098   1.343
 4022SOL    HW212966   3.492   7.006   1.457
 4023SOL     OW12967   0.651   1.823   4.333
 4023SOL    HW112968   0.749   1.827   4.353
 4023SOL    HW212969   0.637   1.818   4.234
 4024SOL     OW12970   0.846   6.736   6.466
 4024SOL    HW112971   0.924   6.798   6.462
 4024SOL    HW212972   0.819   6.710   6.373
 4025SOL     OW12973   0.849   4.189   4.506
 4025SOL    HW112974   0.936   4.238   4.500
 4025SOL    HW212975   0.788   4.239   4.567
 4026SOL     OW12976   0.624   6.741   4.374
 4026SOL    HW112977   0.655   6.654   4.413
 4026SOL    HW212978   0.637   6.740   4.275
 4027SOL     OW12979   2.899   5.517   5.297
 4027SOL    HW112980   2.860   5.602   5.332
 4027SOL    HW212981   2.860   5.496   5.207
 4028SOL     OW12982   4.710   1.623   4.782
 4028SOL    HW112983   4.659   1.676   4.850
 4028SOL    HW212984   4.808   1.635   4.797
 4029SOL     OW12985   1.888   6.697   0.605
 4029SOL    HW112986   1.879   6.598   0.595
 4029SOL    HW212987   1.958   6.717   0.674
 4030SOL     OW12988   0.874   1.293   1.789
 4030SOL    HW112989   0.868   1.384   1.748
 4030SOL    HW212990   0.793   1.277   1.845
 4031SOL     OW12991   6.094   5.660   0.703
 4031SOL    HW112992   6.018   5.632   0.761
 4031SOL    HW212993   6.148   5.580   0.677
 4032SOL     OW12994   4.872   2.193   2.113
 4032SOL    HW112995   4.847   2.097   2.116
 4032SOL    HW212996   4.793   2.248   2.087
 4033SOL     OW12997   1.622   3.581   2.651
 4033SOL    HW112998   1.677   3.508   2.693
 4033SOL    HW212999   1.582   3.638   2.723
 4034SOL     OW13000   2.319   2.383   4.673
 4034SOL    HW113001   2.355   2.473   4.650
 4034SOL    HW213002   2.368   2.313   4.621
 4035SOL     OW13003   3.791   2.553   1.724
 4035SOL    HW113004   3.745   2.473   1.762
 4035SOL    HW213005   3.737   2.635   1.742
 4036SOL     OW13006   4.207   6.429   3.558
 4036SOL    HW113007   4.190   6.331   3.551
 4036SOL    HW213008   4.282   6.454   3.497
 4037SOL     OW13009   2.117   1.512   6.151
 4037SOL    HW113010   2.031   1.462   6.164
 4037SOL    HW213011   2.098   1.599   6.104
 4038SOL     OW13012   3.996   4.968   5.800
 4038SOL    HW113013   3.987   4.993   5.704
 4038SOL    HW213014   3.972   5.046   5.858
 4039SOL     OW13015   6.262   4.522   1.161
 4039SOL    HW113016   6.300   4.572   1.238
 4039SOL    HW213017   6.266   4.424   1.180
 4040SOL     OW13018   2.091   6.760   5.058
 4040SOL    HW113019   2.128   6.810   5.137
 4040SOL    HW213020   2.019   6.815   5.015
 4041SOL     OW13021   1.537   6.212   1.578
 4041SOL    HW113022   1.570   6.123   1.609
 4041SOL    HW213023   1.560   6.282   1.646
 4042SOL     OW13024   0.891   1.524   3.910
 4042SOL    HW113025   0.799   1.484   3.912
 4042SOL    HW213026   0.959   1.452   3.896
 4043SOL     OW13027   3.592   2.575   5.945
 4043SOL    HW113028   3.553   2.484   5.929
 4043SOL    HW213029   3.565   2.636   5.871
 4044SOL     OW13030   4.509   4.409   3.018
 4044SOL    HW113031   4.420   4.452   3.003
 4044SOL    HW213032   4.549   4.444   3.103
 4045SOL     OW13033   4.775   1.293   5.143
 4045SOL    HW113034   4.819   1.261   5.059
 4045SOL    HW213035   4.676   1.293   5.132
 4046SOL     OW13036   5.059   1.224   3.787
 4046SOL    HW113037   5.077   1.304   3.731
 4046SOL    HW213038   4.999   1.161   3.738
 4047SOL     OW13039   3.111   2.361   6.143
 4047SOL    HW113040   3.038   2.424   6.119
 4047SOL    HW213041   3.147   2.318   6.060
 4048SOL     OW13042   4.830   2.169   3.540
 4048SOL    HW113043   4.866   2.258   3.512
 4048SOL    HW213044   4.905   2.106   3.559
 4049SOL     OW13045   4.046   3.944   1.868
 4049SOL    HW113046   4.134   3.987   1.851
 4049SOL    HW213047   4.058   3.870   1.935
 4050SOL     OW13048   6.770   4.691   3.399
 4050SOL    HW113049   6.808   4.733   3.481
 4050SOL    HW213050   6.775   4.592   3.407
 4051SOL     OW13051   5.997   1.113   4.210
 4051SOL    HW113052   5.907   1.112   4.254
 4051SOL    HW213053   5.996   1.178   4.133
 4052SOL     OW13054   4.718   1.504   4.346
 4052SOL    HW113055   4.657   1.495   4.425
 4052SOL    HW213056   4.693   1.587   4.296
 4053SOL     OW13057   0.629   4.272   3.368
 4053SOL    HW113058   0.706   4.226   3.324
 4053SOL    HW213059   0.628   4.368   3.340
 4054SOL     OW13060   5.235   3.961   1.623
 4054SOL    HW113061   5.155   3.904   1.605
 4054SOL    HW213062   5.249   3.969   1.721
 4055SOL     OW13063   0.172   4.600   0.102
 4055SOL    HW113064   0.236   4.528   0.076
 4055SOL    HW213065   0.108   4.617   0.027
 4056SOL     OW13066   4.485   3.885   0.069
 4056SOL    HW113067   4.437   3.850   0.150
 4056SOL    HW213068   4.517   3.978   0.087
 4057SOL     OW13069   6.972   4.340   6.018
 4057SOL    HW113070   6.911   4.272   6.058
 4057SOL    HW213071   0.003   4.384   6.091
 4058SOL     OW13072   3.773   0.778   4.427
 4058SOL    HW113073   3.726   0.793   4.340
 4058SOL    HW213074   3.834   0.855   4.446
 4059SOL     OW13075   1.223   1.432   4.092
 4059SOL    HW113076   1.212   1.381   4.006
 4059SOL    HW213077   1.139   1.482   4.111
 4060SOL     OW13078   0.126   6.443   4.278
 4060SOL    HW113079   0.028   6.461   4.269
 4060SOL    HW213080   0.155   6.460   4.372
 4061SOL     OW13081   1.701   4.182   2.280
 4061SOL    HW113082   1.714   4.118   2.205
 4061SOL    HW213083   1.625   4.152   2.337
 4062SOL     OW13084   2.487   4.506   0.200
 4062SOL    HW113085   2.525   4.598   0.209
 4062SOL    HW213086   2.493   4.459   0.288
 4063SOL     OW13087   3.440   0.783   0.788
 4063SOL    HW113088   3.489   0.697   0.798
 4063SOL    HW213089   3.500   0.859   0.814
 4064SOL     OW13090   2.605   0.365   4.814
 4064SOL    HW113091   2.550   0.434   4.767
 4064SOL    HW213092   2.702   0.386   4.802
 4065SOL     OW13093   2.531   1.453   0.968
 4065SOL    HW113094   2.468   1.529   0.984
 4065SOL    HW213095   2.561   1.453   0.873
 4066SOL     OW13096   0.555   3.664   4.613
 4066SOL    HW113097   0.534   3.675   4.516
 4066SOL    HW213098   0.648   3.627   4.623
 4067SOL     OW13099   6.233   4.445   0.722
 4067SOL    HW113100   6.237   4.356   0.766
 4067SOL    HW213101   6.281   4.512   0.778
 4068SOL     OW13102   1.947   2.802   5.673
 4068SOL    HW113103   2.027   2.758   5.632
 4068SOL    HW213104   1.893   2.848   5.603
 4069SOL     OW13105   4.167   0.103   5.712
 4069SOL    HW113106   4.129   0.114   5.620
 4069SOL    HW213107   4.181   0.005   5.731
 4070SOL     OW13108   1.698   3.813   4.268
 4070SOL    HW113109   1.717   3.911   4.269
 4070SOL    HW213110   1.750   3.768   4.342
 4071SOL     OW13111   1.666   0.530   4.974
 4071SOL    HW113112   1.656   0.442   5.022
 4071SOL    HW213113   1.760   0.563   4.986
 4072SOL     OW13114   3.066   6.770   2.778
 4072SOL    HW113115   3.019   6.687   2.807
 4072SOL    HW213116   3.069   6.774   2.678
 4073SOL     OW13117   4.394   4.949   6.599
 4073SOL    HW113118   4.304   4.977   6.565
 4073SOL    HW213119   4.453   4.927   6.521
 4074SOL     OW13120   1.672   5.788   2.333
 4074SOL    HW113121   1.652   5.691   2.342
 4074SOL    HW213122   1.670   5.831   2.424
 4075SOL     OW13123   6.034   0.723   7.005
 4075SOL    HW113124   5.993   0.647   6.955
 4075SOL    HW213125   5.969   0.799   7.010
 4076SOL     OW13126   2.194   6.137   3.705
 4076SOL    HW113127   2.116   6.089   3.666
 4076SOL    HW213128   2.166   6.187   3.786
 4077SOL     OW13129   2.329   1.994   1.721
 4077SOL    HW113130   2.237   1.981   1.758
 4077SOL    HW213131   2.397   1.979   1.792
 4078SOL     OW13132   4.390   5.261   2.099
 4078SOL    HW113133   4.403   5.334   2.033
 4078SOL    HW213134   4.378   5.300   2.191
 4079SOL     OW13135   0.554   1.847   4.044
 4079SOL    HW113136   0.505   1.777   3.992
 4079SOL    HW213137   0.512   1.936   4.028
 4080SOL     OW13138   6.085   1.877   4.377
 4080SOL    HW113139   6.053   1.971   4.370
 4080SOL    HW213140   6.075   1.831   4.288
 4081SOL     OW13141   6.785   3.368   2.714
 4081SOL    HW113142   6.845   3.353   2.792
 4081SOL    HW213143   6.718   3.439   2.737
 4082SOL     OW13144   0.271   3.411   0.241
 4082SOL    HW113145   0.265   3.326   0.293
 4082SOL    HW213146   0.358   3.457   0.263
 4083SOL     OW13147   6.926   3.438   5.309
 4083SOL    HW113148   6.839   3.451   5.357
 4083SOL    HW213149   6.943   3.515   5.248
 4084SOL     OW13150   5.237   0.925   4.345
 4084SOL    HW113151   5.291   0.992   4.294
 4084SOL    HW213152   5.172   0.881   4.283
 4085SOL     OW13153   3.191   5.228   6.749
 4085SOL    HW113154   3.266   5.294   6.750
 4085SOL    HW213155   3.180   5.187   6.840
 4086SOL     OW13156   0.897   2.663   1.407
 4086SOL    HW113157   0.945   2.612   1.478
 4086SOL    HW213158   0.932   2.638   1.317
 4087SOL     OW13159   2.100   1.377   3.215
 4087SOL    HW113160   2.178   1.336   3.261
 4087SOL    HW213161   2.131   1.430   3.136
 4088SOL     OW13162   0.126   2.397   6.591
 4088SOL    HW113163   0.213   2.352   6.571
 4088SOL    HW213164   0.054   2.329   6.599
 4089SOL     OW13165   0.374   1.563   5.793
 4089SOL    HW113166   0.401   1.546   5.698
 4089SOL    HW213167   0.326   1.483   5.828
 4090SOL     OW13168   3.365   5.399   6.390
 4090SOL    HW113169   3.387   5.303   6.377
 4090SOL    HW213170   3.276   5.419   6.349
 4091SOL     OW13171   4.322   6.660   1.517
 4091SOL    HW113172   4.398   6.615   1.565
 4091SOL    HW213173   4.235   6.627   1.553
 4092SOL     OW13174   1.025   1.511   4.320
 4092SOL    HW113175   0.943   1.535   4.268
 4092SOL    HW213176   1.042   1.580   4.390
 4093SOL     OW13177   5.132   6.583   4.394
 4093SOL    HW113178   5.083   6.497   4.383
 4093SOL    HW213179   5.067   6.655   4.421
 4094SOL     OW13180   3.258   3.472   6.572
 4094SOL    HW113181   3.182   3.536   6.578
 4094SOL    HW213182   3.335   3.516   6.526
 4095SOL     OW13183   1.678   3.599   5.815
 4095SOL    HW113184   1.736   3.552   5.882
 4095SOL    HW213185   1.669   3.695   5.841
 4096SOL     OW13186   4.584   5.040   1.840
 4096SOL    HW113187   4.514   5.001   1.780
 4096SOL    HW213188   4.545   5.053   1.931
 4097SOL     OW13189   3.625   4.108   3.566
 4097SOL    HW113190   3.638   4.116   3.665
 4097SOL    HW213191   3.584   4.020   3.545
 4098SOL     OW13192   1.121   3.296   2.248
 4098SOL    HW113193   1.106   3.211   2.297
 4098SOL    HW213194   1.124   3.278   2.149
 4099SOL     OW13195   2.560   6.310   1.727
 4099SOL    HW113196   2.498   6.271   1.658
 4099SOL    HW213197   2.645   6.338   1.683
 4100SOL     OW13198   3.751   0.033   2.756
 4100SOL    HW113199   3.669   7.005   2.783
 4100SOL    HW213200   3.814   0.038   2.833
 4101SOL     OW13201   4.522   1.647   6.619
 4101SOL    HW113202   4.532   1.547   6.617
 4101SOL    HW213203   4.593   1.689   6.564
 4102SOL     OW13204   4.346   1.380   6.192
 4102SOL    HW113205   4.334   1.382   6.093
 4102SOL    HW213206   4.433   1.423   6.216
 4103SOL     OW13207   6.946   0.465   1.743
 4103SOL    HW113208   6.932   0.528   1.819
 4103SOL    HW213209   6.938   0.514   1.657
 4104SOL     OW13210   2.136   4.234   2.165
 4104SOL    HW113211   2.040   4.217   2.143
 4104SOL    HW213212   2.149   4.332   2.181
 4105SOL     OW13213   6.133   5.564   0.410
 4105SOL    HW113214   6.169   5.612   0.490
 4105SOL    HW213215   6.042   5.529   0.431
 4106SOL     OW13216   0.329   3.907   4.435
 4106SOL    HW113217   0.364   3.932   4.525
 4106SOL    HW213218   0.293   3.813   4.438
 4107SOL     OW13219   0.231   0.804   1.015
 4107SOL    HW113220   0.279   0.853   0.942
 4107SOL    HW213221   0.225   0.862   1.096
 4108SOL     OW13222   5.978   2.396   5.068
 4108SOL    HW113223   6.063   2.350   5.091
 4108SOL    HW213224   5.961   2.390   4.970
 4109SOL     OW13225   2.200   6.886   3.679
 4109SOL    HW113226   2.272   6.834   3.726
 4109SOL    HW213227   2.217   6.884   3.581
 4110SOL     OW13228   4.837   3.268   5.109
 4110SOL    HW113229   4.901   3.267   5.186
 4110SOL    HW213230   4.784   3.353   5.111
 4111SOL     OW13231   3.936   3.070   6.322
 4111SOL    HW113232   3.880   3.052   6.403
 4111SOL    HW213233   4.004   3.140   6.344
 4112SOL     OW13234   4.589   0.504   5.831
 4112SOL    HW113235   4.665   0.539   5.776
 4112SOL    HW213236   4.506   0.556   5.811
 4113SOL     OW13237   3.950   5.460   4.539
 4113SOL    HW113238   3.975   5.508   4.622
 4113SOL    HW213239   3.881   5.513   4.489
 4114SOL     OW13240   3.731   1.952   3.455
 4114SOL    HW113241   3.709   1.875   3.516
 4114SOL    HW213242   3.658   2.020   3.459
 4115SOL     OW13243   4.790   3.881   3.053
 4115SOL    HW113244   4.760   3.976   3.062
 4115SOL    HW213245   4.774   3.850   2.959
 4116SOL     OW13246   2.870   0.738   2.139
 4116SOL    HW113247   2.920   0.790   2.207
 4116SOL    HW213248   2.874   0.785   2.051
 4117SOL     OW13249   1.092   6.094   1.533
 4117SOL    HW113250   1.014   6.116   1.591
 4117SOL    HW213251   1.062   6.083   1.438
 4118SOL     OW13252   1.481   0.156   6.886
 4118SOL    HW113253   1.433   0.241   6.863
 4118SOL    HW213254   1.416   0.091   6.924
 4119SOL     OW13255   5.570   2.011   3.276
 4119SOL    HW113256   5.650   1.952   3.261
 4119SOL    HW213257   5.520   1.978   3.356
 4120SOL     OW13258   5.610   1.371   2.143
 4120SOL    HW113259   5.560   1.386   2.228
 4120SOL    HW213260   5.698   1.327   2.163
 4121SOL     OW13261   5.819   2.366   4.352
 4121SOL    HW113262   5.759   2.392   4.427
 4121SOL    HW213263   5.908   2.412   4.363
 4122SOL     OW13264   2.099   5.181   6.871
 4122SOL    HW113265   2.169   5.195   6.941
 4122SOL    HW213266   2.116   5.241   6.793
 4123SOL     OW13267   4.174   3.863   5.130
 4123SOL    HW113268   4.248   3.856   5.197
 4123SOL    HW213269   4.208   3.835   5.041
 4124SOL     OW13270   4.601   6.405   3.234
 4124SOL    HW113271   4.600   6.324   3.175
 4124SOL    HW213272   4.689   6.453   3.223
 4125SOL     OW13273   4.483   1.374   1.687
 4125SOL    HW113274   4.453   1.296   1.742
 4125SOL    HW213275   4.572   1.405   1.721
 4126SOL     OW13276   1.975   3.814   4.816
 4126SOL    HW113277   2.006   3.878   4.886
 4126SOL    HW213278   1.878   3.795   4.828
 4127SOL     OW13279   5.525   4.523   4.531
 4127SOL    HW113280   5.457   4.574   4.583
 4127SOL    HW213281   5.566   4.583   4.462
 4128SOL     OW13282   0.057   1.698   1.729
 4128SOL    HW113283   0.046   1.727   1.633
 4128SOL    HW213284   0.050   1.778   1.788
 4129SOL     OW13285   6.964   2.991   6.664
 4129SOL    HW113286   7.017   3.063   6.709
 4129SOL    HW213287   7.004   2.971   6.574
 4130SOL     OW13288   6.330   1.922   1.604
 4130SOL    HW113289   6.393   1.935   1.528
 4130SOL    HW213290   6.382   1.905   1.688
 4131SOL     OW13291   6.831   3.109   3.109
 4131SOL    HW113292   6.910   3.048   3.112
 4131SOL    HW213293   6.858   3.200   3.139
 4132SOL     OW13294   4.912   1.849   4.534
 4132SOL    HW113295   4.885   1.913   4.607
 4132SOL    HW213296   4.898   1.755   4.565
 4133SOL     OW13297   2.644   2.503   1.004
 4133SOL    HW113298   2.672   2.411   1.030
 4133SOL    HW213299   2.633   2.559   1.086
 4134SOL     OW13300   2.092   0.902   0.127
 4134SOL    HW113301   2.019   0.884   0.193
 4134SOL    HW213302   2.126   0.995   0.138
 4135SOL     OW13303   1.693   0.434   0.836
 4135SOL    HW113304   1.693   0.336   0.858
 4135SOL    HW213305   1.606   0.474   0.866
 4136SOL     OW13306   1.031   1.841   3.571
 4136SOL    HW113307   1.059   1.813   3.479
 4136SOL    HW213308   0.940   1.805   3.590
 4137SOL     OW13309   4.062   3.052   5.347
 4137SOL    HW113310   3.965   3.055   5.323
 4137SOL    HW213311   4.077   2.979   5.414
 4138SOL     OW13312   5.109   5.676   1.575
 4138SOL    HW113313   5.167   5.758   1.574
 4138SOL    HW213314   5.160   5.599   1.538
 4139SOL     OW13315   3.029   1.903   0.544
 4139SOL    HW113316   2.991   1.976   0.487
 4139SOL    HW213317   3.009   1.814   0.502
 4140SOL     OW13318   4.596   1.874   5.404
 4140SOL    HW113319   4.603   1.915   5.313
 4140SOL    HW213320   4.582   1.775   5.395
 4141SOL     OW13321   5.406   6.124   1.165
 4141SOL    HW113322   5.485   6.094   1.113
 4141SOL    HW213323   5.424   6.215   1.203
 4142SOL     OW13324   5.984   3.191   1.622
 4142SOL    HW113325   5.946   3.112   1.670
 4142SOL    HW213326   6.084   3.189   1.629
 4143SOL     OW13327   0.697   3.254   1.759
 4143SOL    HW113328   0.699   3.262   1.858
 4143SOL    HW213329   0.788   3.271   1.722
 4144SOL     OW13330   4.089   0.954   2.012
 4144SOL    HW113331   4.089   1.011   1.929
 4144SOL    HW213332   4.022   0.881   2.002
 4145SOL     OW13333   2.838   0.359   3.453
 4145SOL    HW113334   2.788   0.337   3.369
 4145SOL    HW213335   2.783   0.420   3.510
 4146SOL     OW13336   4.921   4.207   0.478
 4146SOL    HW113337   4.825   4.184   0.495
 4146SOL    HW213338   4.980   4.145   0.530
 4147SOL     OW13339   2.459   1.849   5.875
 4147SOL    HW113340   2.365   1.878   5.893
 4147SOL    HW213341   2.470   1.753   5.901
 4148SOL     OW13342   0.055   0.163   2.420
 4148SOL    HW113343   0.014   0.253   2.434
 4148SOL    HW213344   0.012   0.096   2.480
 4149SOL     OW13345   4.779   4.180   2.073
 4149SOL    HW113346   4.702   4.235   2.042
 4149SOL    HW213347   4.759   4.141   2.163
 4150SOL     OW13348   4.128   0.318   5.265
 4150SOL    HW113349   4.055   0.312   5.197
 4150SOL    HW213350   4.187   0.397   5.244
 4151SOL     OW13351   0.370   5.484   0.407
 4151SOL    HW113352   0.335   5.554   0.344
 4151SOL    HW213353   0.457   5.515   0.445
 4152SOL     OW13354   3.196   4.009   1.136
 4152SOL    HW113355   3.223   3.949   1.211
 4152SOL    HW213356   3.169   3.955   1.057
 4153SOL     OW13357   6.295   5.750   6.060
 4153SOL    HW113358   6.248   5.824   6.108
 4153SOL    HW213359   6.238   5.669   6.059
 4154SOL     OW13360   4.468   2.525   4.750
 4154SOL    HW113361   4.559   2.556   4.779
 4154SOL    HW213362   4.406   2.603   4.745
 4155SOL     OW13363   1.653   2.748   0.479
 4155SOL    HW113364   1.671   2.652   0.497
 4155SOL    HW213365   1.558   2.760   0.453
 4156SOL     OW13366   6.046   0.658   5.179
 4156SOL    HW113367   6.010   0.697   5.264
 4156SOL    HW213368   6.010   0.709   5.101
 4157SOL     OW13369   3.431   0.775   3.339
 4157SOL    HW113370   3.347   0.781   3.394
 4157SOL    HW213371   3.481   0.861   3.344
 4158SOL     OW13372   1.164   0.485   3.691
 4158SOL    HW113373   1.105   0.481   3.772
 4158SOL    HW213374   1.129   0.555   3.628
 4159SOL     OW13375   0.108   4.687   5.169
 4159SOL    HW113376   0.127   4.672   5.266
 4159SOL    HW213377   0.184   4.736   5.127
 4160SOL     OW13378   0.117   0.573   0.922
 4160SOL    HW113379   0.141   0.655   0.973
 4160SOL    HW213380   0.171   0.496   0.955
 4161SOL     OW13381   6.074   1.757   1.233
 4161SOL    HW113382   6.053   1.660   1.241
 4161SOL    HW213383   6.129   1.773   1.151
 4162SOL     OW13384   0.975   6.878   5.397
 4162SOL    HW113385   1.019   6.838   5.316
 4162SOL    HW213386   0.991   6.819   5.476
 4163SOL     OW13387   6.816   1.748   5.497
 4163SOL    HW113388   6.748   1.764   5.569
 4163SOL    HW213389   6.770   1.721   5.413
 4164SOL     OW13390   2.951   6.682   5.479
 4164SOL    HW113391   2.874   6.701   5.419
 4164SOL    HW213392   2.981   6.587   5.466
 4165SOL     OW13393   1.962   6.276   1.714
 4165SOL    HW113394   2.025   6.202   1.738
 4165SOL    HW213395   1.932   6.264   1.619
 4166SOL     OW13396   6.098   2.160   2.323
 4166SOL    HW113397   6.061   2.131   2.411
 4166SOL    HW213398   6.024   2.170   2.256
 4167SOL     OW13399   1.704   2.662   1.072
 4167SOL    HW113400   1.660   2.685   1.159
 4167SOL    HW213401   1.740   2.568   1.077
 4168SOL     OW13402   2.208   5.750   0.900
 4168SOL    HW113403   2.202   5.682   0.827
 4168SOL    HW213404   2.129   5.740   0.961
 4169SOL     OW13405   6.552   3.430   6.876
 4169SOL    HW113406   6.649   3.427   6.850
 4169SOL    HW213407   6.542   3.404   6.972
 4170SOL     OW13408   3.266   0.860   5.701
 4170SOL    HW113409   3.357   0.902   5.706
 4170SOL    HW213410   3.231   0.868   5.608
 4171SOL     OW13411   6.245   3.136   1.662
 4171SOL    HW113412   6.270   3.122   1.758
 4171SOL    HW213413   6.310   3.200   1.620
 4172SOL     OW13414   2.969   0.974   1.261
 4172SOL    HW113415   2.937   0.882   1.239
 4172SOL    HW213416   2.892   1.030   1.292
 4173SOL     OW13417   3.995   3.651   5.742
 4173SOL    HW113418   4.030   3.744   5.751
 4173SOL    HW213419   4.071   3.587   5.727
 4174SOL     OW13420   5.073   0.770   3.268
 4174SOL    HW113421   5.056   0.808   3.359
 4174SOL    HW213422   5.047   0.837   3.199
 4175SOL     OW13423   2.382   1.360   2.435
 4175SOL    HW113424   2.393   1.264   2.410
 4175SOL    HW213425   2.470   1.407   2.428
 4176SOL     OW13426   5.653   4.693   2.788
 4176SOL    HW113427   5.625   4.601   2.815
 4176SOL    HW213428   5.654   4.752   2.869
 4177SOL     OW13429   6.822   5.485   3.259
 4177SOL    HW113430   6.826   5.388   3.284
 4177SOL    HW213431   6.733   5.505   3.218
 4178SOL     OW13432   4.300   2.426   5.501
 4178SOL    HW113433   4.355   2.487   5.557
 4178SOL    HW213434   4.214   2.407   5.548
 4179SOL     OW13435   6.642   1.979   0.247
 4179SOL    HW113436   6.545   1.954   0.243
 4179SOL    HW213437   6.692   1.914   0.303
 4180SOL     OW13438   5.485   3.856   1.556
 4180SOL    HW113439   5.484   3.762   1.591
 4180SOL    HW213440   5.395   3.897   1.568
 4181SOL     OW13441   6.154   1.146   1.073
 4181SOL    HW113442   6.070   1.172   1.026
 4181SOL    HW213443   6.215   1.098   1.009
 4182SOL     OW13444   6.210   0.984   3.503
 4182SOL    HW113445   6.177   1.060   3.559
 4182SOL    HW213446   6.187   1.001   3.407
 4183SOL     OW13447   1.140   0.969   1.900
 4183SOL    HW113448   1.171   0.924   1.817
 4183SOL    HW213449   1.146   1.069   1.888
 4184SOL     OW13450   4.414   4.462   6.251
 4184SOL    HW113451   4.395   4.486   6.346
 4184SOL    HW213452   4.460   4.374   6.247
 4185SOL     OW13453   0.178   0.499   3.989
 4185SOL    HW113454   0.081   0.498   4.010
 4185SOL    HW213455   0.213   0.405   3.991
 4186SOL     OW13456   3.516   4.087   1.889
 4186SOL    HW113457   3.615   4.097   1.880
 4186SOL    HW213458   3.489   4.107   1.984
 4187SOL     OW13459   4.319   5.032   6.214
 4187SOL    HW113460   4.287   5.120   6.178
 4187SOL    HW213461   4.257   5.000   6.286
 4188SOL     OW13462   4.787   5.752   3.304
 4188SOL    HW113463   4.806   5.838   3.256
 4188SOL    HW213464   4.858   5.685   3.281
 4189SOL     OW13465   1.440   3.363   3.113
 4189SOL    HW113466   1.524   3.381   3.164
 4189SOL    HW213467   1.452   3.282   3.056
 4190SOL     OW13468   2.272   6.879   1.620
 4190SOL    HW113469   2.186   6.833   1.599
 4190SOL    HW213470   2.344   6.811   1.634
 4191SOL     OW13471   0.444   2.298   3.801
 4191SOL    HW113472   0.426   2.393   3.774
 4191SOL    HW213473   0.498   2.298   3.885
 4192SOL     OW13474   6.061   6.540   3.760
 4192SOL    HW113475   6.093   6.478   3.689
 4192SOL    HW213476   6.080   6.501   3.850
 4193SOL     OW13477   1.503   6.909   4.059
 4193SOL    HW113478   1.408   6.923   4.088
 4193SOL    HW213479   1.509   6.915   3.960
 4194SOL     OW13480   5.399   0.102   3.176
 4194SOL    HW113481   5.467   0.133   3.110
 4194SOL    HW213482   5.445   0.082   3.263
 4195SOL     OW13483   4.612   0.190   3.916
 4195SOL    HW113484   4.612   0.212   3.818
 4195SOL    HW213485   4.561   0.261   3.965
 4196SOL     OW13486   4.904   2.487   3.301
 4196SOL    HW113487   4.873   2.475   3.206
 4196SOL    HW213488   4.915   2.585   3.319
 4197SOL     OW13489   5.225   3.915   4.463
 4197SOL    HW113490   5.217   3.816   4.464
 4197SOL    HW213491   5.149   3.956   4.514
 4198SOL     OW13492   6.171   3.095   5.718
 4198SOL    HW113493   6.101   3.082   5.789
 4198SOL    HW213494   6.260   3.103   5.761
 4199SOL     OW13495   2.839   3.953   5.989
 4199SOL    HW113496   2.761   3.943   5.929
 4199SOL    HW213497   2.867   4.049   5.991
 4200SOL     OW13498   3.242   0.231   6.639
 4200SOL    HW113499   3.299   0.296   6.690
 4200SOL    HW213500   3.175   0.282   6.584
 4201SOL     OW13501   6.543   0.176   4.764
 4201SOL    HW113502   6.607   0.250   4.784
 4201SOL    HW213503   6.571   0.093   4.813
 4202SOL     OW13504   5.708   3.082   4.867
 4202SOL    HW113505   5.782   3.017   4.884
 4202SOL    HW213506   5.690   3.135   4.950
 4203SOL     OW13507   4.070   5.687   4.751
 4203SOL    HW113508   4.003   5.760   4.742
 4203SOL    HW213509   4.060   5.643   4.840
 4204SOL     OW13510   1.630   4.155   0.369
 4204SOL    HW113511   1.708   4.139   0.308
 4204SOL    HW213512   1.619   4.076   0.430
 4205SOL     OW13513   2.608   6.262   3.536
 4205SOL    HW113514   2.653   6.205   3.605
 4205SOL    HW213515   2.579   6.349   3.577
 4206SOL     OW13516   4.808   6.229   3.885
 4206SOL    HW113517   4.780   6.133   3.885
 4206SOL    HW213518   4.885   6.242   3.948
 4207SOL     OW13519   1.297   6.377   0.145
 4207SOL    HW113520   1.267   6.288   0.112
 4207SOL    HW213521   1.294   6.443   0.070
 4208SOL     OW13522   0.689   2.420   1.678
 4208SOL    HW113523   0.718   2.469   1.596
 4208SOL    HW213524   0.689   2.482   1.757
 4209SOL     OW13525   2.910   0.147   5.518
 4209SOL    HW113526   2.891   0.079   5.589
 4209SOL    HW213527   2.824   0.182   5.481
 4210SOL     OW13528   3.772   3.072   0.601
 4210SOL    HW113529   3.672   3.065   0.594
 4210SOL    HW213530   3.801   3.039   0.691
 4211SOL     OW13531   5.721   3.627   4.340
 4211SOL    HW113532   5.651   3.555   4.339
 4211SOL    HW213533   5.730   3.663   4.433
 4212SOL     OW13534   5.965   7.016   2.057
 4212SOL    HW113535   5.891   6.948   2.065
 4212SOL    HW213536   6.051   6.968   2.042
 4213SOL     OW13537   0.678   6.765   1.254
 4213SOL    HW113538   0.746   6.714   1.202
 4213SOL    HW213539   0.636   6.835   1.196
 4214SOL     OW13540   2.582   5.717   3.406
 4214SOL    HW113541   2.568   5.708   3.505
 4214SOL    HW213542   2.679   5.734   3.387
 4215SOL     OW13543   1.373   5.778   6.726
 4215SOL    HW113544   1.370   5.868   6.684
 4215SOL    HW213545   1.461   5.735   6.707
 4216SOL     OW13546   2.572   2.766   5.277
 4216SOL    HW113547   2.579   2.862   5.305
 4216SOL    HW213548   2.494   2.755   5.215
 4217SOL     OW13549   6.588   0.951   4.387
 4217SOL    HW113550   6.556   1.023   4.449
 4217SOL    HW213551   6.669   0.984   4.338
 4218SOL     OW13552   3.160   5.463   2.498
 4218SOL    HW113553   3.241   5.507   2.458
 4218SOL    HW213554   3.165   5.365   2.483
 4219SOL     OW13555   4.887   0.161   2.977
 4219SOL    HW113556   4.872   0.260   2.977
 4219SOL    HW213557   4.955   0.137   3.046
 4220SOL     OW13558   0.028   4.385   2.670
 4220SOL    HW113559   7.020   4.457   2.607
 4220SOL    HW213560   7.003   4.300   2.650
 4221SOL     OW13561   5.352   6.495   6.236
 4221SOL    HW113562   5.270   6.482   6.180
 4221SOL    HW213563   5.359   6.421   6.302
 4222SOL     OW13564   2.627   2.466   7.009
 4222SOL    HW113565   2.638   2.524   0.066
 4222SOL    HW213566   2.694   2.491   6.939
 4223SOL     OW13567   3.705   4.106   3.269
 4223SOL    HW113568   3.781   4.052   3.305
 4223SOL    HW213569   3.642   4.129   3.343
 4224SOL     OW13570   3.627   2.170   5.621
 4224SOL    HW113571   3.722   2.163   5.653
 4224SOL    HW213572   3.625   2.163   5.522
 4225SOL     OW13573   5.189   6.792   4.736
 4225SOL    HW113574   5.143   6.783   4.648
 4225SOL    HW213575   5.191   6.888   4.764
 4226SOL     OW13576   2.684   2.070   2.214
 4226SOL    HW113577   2.758   2.131   2.187
 4226SOL    HW213578   2.621   2.058   2.137
 4227SOL     OW13579   5.356   4.287   0.438
 4227SOL    HW113580   5.282   4.282   0.370
 4227SOL    HW213581   5.385   4.381   0.448
 4228SOL     OW13582   4.250   5.601   3.055
 4228SOL    HW113583   4.298   5.648   2.980
 4228SOL    HW213584   4.270   5.647   3.141
 4229SOL     OW13585   3.787   4.953   4.904
 4229SOL    HW113586   3.867   4.953   4.845
 4229SOL    HW213587   3.799   4.887   4.978
 4230SOL     OW13588   2.181   0.990   6.129
 4230SOL    HW113589   2.253   1.059   6.125
 4230SOL    HW213590   2.137   0.983   6.039
 4231SOL     OW13591   3.785   6.148   6.222
 4231SOL    HW113592   3.801   6.050   6.235
 4231SOL    HW213593   3.862   6.187   6.171
 4232SOL     OW13594   1.185   4.046   1.427
 4232SOL    HW113595   1.253   4.079   1.493
 4232SOL    HW213596   1.216   4.066   1.334
 4233SOL     OW13597   5.373   5.224   1.303
 4233SOL    HW113598   5.274   5.225   1.290
 4233SOL    HW213599   5.401   5.305   1.354
 4234SOL     OW13600   3.865   3.559   5.979
 4234SOL    HW113601   3.910   3.647   5.992
 4234SOL    HW213602   3.840   3.548   5.883
 4235SOL     OW13603   0.449   3.986   4.681
 4235SOL    HW113604   0.429   4.082   4.702
 4235SOL    HW213605   0.543   3.978   4.649
 4236SOL     OW13606   1.088   3.976   4.549
 4236SOL    HW113607   1.124   4.065   4.520
 4236SOL    HW213608   1.056   3.925   4.469
 4237SOL     OW13609   5.653   3.599   5.537
 4237SOL    HW113610   5.720   3.528   5.515
 4237SOL    HW213611   5.608   3.629   5.453
 4238SOL     OW13612   4.871   4.618   4.885
 4238SOL    HW113613   4.874   4.704   4.936
 4238SOL    HW213614   4.949   4.561   4.910
 4239SOL     OW13615   4.934   5.320   5.458
 4239SOL    HW113616   4.937   5.231   5.412
 4239SOL    HW213617   5.028   5.351   5.476
 4240SOL     OW13618   2.584   4.783   6.025
 4240SOL    HW113619   2.541   4.870   6.046
 4240SOL    HW213620   2.617   4.784   5.930
 4241SOL     OW13621   3.131   2.249   1.400
 4241SOL    HW113622   3.210   2.189   1.391
 4241SOL    HW213623   3.048   2.199   1.379
 4242SOL     OW13624   2.552   0.516   1.763
 4242SOL    HW113625   2.582   0.425   1.791
 4242SOL    HW213626   2.483   0.549   1.828
 4243SOL     OW13627   1.786   2.178   1.882
 4243SOL    HW113628   1.710   2.165   1.818
 4243SOL    HW213629   1.756   2.159   1.975
 4244SOL     OW13630   2.959   0.163   0.705
 4244SOL    HW113631   2.941   0.078   0.655
 4244SOL    HW213632   3.029   0.147   0.775
 4245SOL     OW13633   0.360   1.527   0.995
 4245SOL    HW113634   0.452   1.559   1.016
 4245SOL    HW213635   0.301   1.605   0.976
 4246SOL     OW13636   4.179   1.944   3.575
 4246SOL    HW113637   4.087   1.919   3.608
 4246SOL    HW213638   4.171   2.017   3.508
 4247SOL     OW13639   2.554   5.546   6.577
 4247SOL    HW113640   2.526   5.467   6.633
 4247SOL    HW213641   2.506   5.628   6.609
 4248SOL     OW13642   2.776   0.020   2.584
 4248SOL    HW113643   2.681   0.014   2.554
 4248SOL    HW213644   2.789   0.103   2.638
 4249SOL     OW13645   6.024   0.967   5.282
 4249SOL    HW113646   6.015   1.067   5.276
 4249SOL    HW213647   6.086   0.935   5.210
 4250SOL     OW13648   0.928   5.517   4.120
 4250SOL    HW113649   0.898   5.611   4.141
 4250SOL    HW213650   1.004   5.520   4.056
 4251SOL     OW13651   4.821   1.978   4.966
 4251SOL    HW113652   4.748   1.964   5.033
 4251SOL    HW213653   4.873   2.060   4.990
 4252SOL     OW13654   0.902   0.022   6.331
 4252SOL    HW113655   0.956   0.001   6.412
 4252SOL    HW213656   0.877   0.119   6.332
 4253SOL     OW13657   4.216   0.015   2.900
 4253SOL    HW113658   4.220   6.938   2.904
 4253SOL    HW213659   4.161   0.043   2.821
 4254SOL     OW13660   0.921   1.113   5.452
 4254SOL    HW113661   0.851   1.135   5.383
 4254SOL    HW213662   0.970   1.196   5.477
 4255SOL     OW13663   1.139   3.169   4.223
 4255SOL    HW113664   1.089   3.084   4.205
 4255SOL    HW213665   1.223   3.170   4.169
 4256SOL     OW13666   5.887   6.271   1.141
 4256SOL    HW113667   5.857   6.224   1.058
 4256SOL    HW213668   5.912   6.204   1.211
 4257SOL     OW13669   0.245   1.056   1.937
 4257SOL    HW113670   0.223   1.152   1.920
 4257SOL    HW213671   0.311   1.049   2.011
 4258SOL     OW13672   2.672   5.799   0.981
 4258SOL    HW113673   2.693   5.725   1.045
 4258SOL    HW213674   2.739   5.873   0.993
 4259SOL     OW13675   0.770   6.536   0.453
 4259SOL    HW113676   0.850   6.538   0.513
 4259SOL    HW213677   0.794   6.489   0.368
 4260SOL     OW13678   0.152   0.677   5.356
 4260SOL    HW113679   0.135   0.767   5.315
 4260SOL    HW213680   0.068   0.623   5.351
 4261SOL     OW13681   2.312   6.786   3.430
 4261SOL    HW113682   2.401   6.826   3.452
 4261SOL    HW213683   2.293   6.800   3.332
 4262SOL     OW13684   1.434   3.755   4.868
 4262SOL    HW113685   1.385   3.822   4.813
 4262SOL    HW213686   1.527   3.744   4.833
 4263SOL     OW13687   3.558   0.588   2.741
 4263SOL    HW113688   3.653   0.589   2.773
 4263SOL    HW213689   3.528   0.681   2.724
 4264SOL     OW13690   4.487   1.839   6.856
 4264SOL    HW113691   4.495   1.755   6.803
 4264SOL    HW213692   4.563   1.900   6.833
 4265SOL     OW13693   3.264   6.640   6.901
 4265SOL    HW113694   3.260   6.642   6.801
 4265SOL    HW213695   3.260   6.545   6.932
 4266SOL     OW13696   1.244   4.353   2.489
 4266SOL    HW113697   1.172   4.413   2.524
 4266SOL    HW213698   1.266   4.285   2.559
 4267SOL     OW13699   1.963   3.638   3.564
 4267SOL    HW113700   1.914   3.639   3.651
 4267SOL    HW213701   2.023   3.718   3.559
 4268SOL     OW13702   1.397   3.892   6.071
 4268SOL    HW113703   1.417   3.927   6.163
 4268SOL    HW213704   1.352   3.803   6.078
 4269SOL     OW13705   2.118   1.646   4.388
 4269SOL    HW113706   2.138   1.551   4.363
 4269SOL    HW213707   2.137   1.706   4.310
 4270SOL     OW13708   4.074   4.178   1.216
 4270SOL    HW113709   3.989   4.145   1.256
 4270SOL    HW213710   4.121   4.237   1.281
 4271SOL     OW13711   6.312   0.450   0.401
 4271SOL    HW113712   6.396   0.400   0.381
 4271SOL    HW213713   6.244   0.387   0.440
 4272SOL     OW13714   6.451   1.508   5.365
 4272SOL    HW113715   6.416   1.420   5.333
 4272SOL    HW213716   6.517   1.493   5.438
 4273SOL     OW13717   3.601   5.996   3.839
 4273SOL    HW113718   3.565   5.903   3.830
 4273SOL    HW213719   3.682   6.006   3.781
 4274SOL     OW13720   6.595   0.373   1.558
 4274SOL    HW113721   6.553   0.370   1.649
 4274SOL    HW213722   6.589   0.466   1.522
 4275SOL     OW13723   5.842   1.363   4.394
 4275SOL    HW113724   5.775   1.432   4.421
 4275SOL    HW213725   5.838   1.285   4.457
 4276SOL     OW13726   1.686   0.919   2.875
 4276SOL    HW113727   1.682   0.999   2.816
 4276SOL    HW213728   1.774   0.916   2.922
 4277SOL     OW13729   6.167   5.274   2.542
 4277SOL    HW113730   6.116   5.192   2.565
 4277SOL    HW213731   6.261   5.265   2.576
 4278SOL     OW13732   0.525   0.161   1.478
 4278SOL    HW113733   0.515   0.251   1.435
 4278SOL    HW213734   0.463   0.155   1.557
 4279SOL     OW13735   1.275   3.597   3.011
 4279SOL    HW113736   1.253   3.613   2.914
 4279SOL    HW213737   1.313   3.506   3.022
 4280SOL     OW13738   3.046   6.407   6.433
 4280SOL    HW113739   3.041   6.506   6.417
 4280SOL    HW213740   2.979   6.381   6.502
 4281SOL     OW13741   6.817   6.755   2.724
 4281SOL    HW113742   6.740   6.694   2.704
 4281SOL    HW213743   6.891   6.703   2.765
 4282SOL     OW13744   5.138   4.727   2.065
 4282SOL    HW113745   5.202   4.660   2.026
 4282SOL    HW213746   5.187   4.783   2.132
 4283SOL     OW13747   6.112   1.599   4.981
 4283SOL    HW113748   6.021   1.568   4.955
 4283SOL    HW213749   6.174   1.591   4.902
 4284SOL     OW13750   4.762   6.050   6.999
 4284SOL    HW113751   4.756   5.954   0.004
 4284SOL    HW213752   4.742   6.108   0.055
 4285SOL     OW13753   2.907   1.186   6.073
 4285SOL    HW113754   2.939   1.193   5.978
 4285SOL    HW213755   2.810   1.211   6.077
 4286SOL     OW13756   5.434   6.139   0.141
 4286SOL    HW113757   5.420   6.155   0.239
 4286SOL    HW213758   5.434   6.227   0.092
 4287SOL     OW13759   4.505   0.282   0.979
 4287SOL    HW113760   4.547   0.195   1.002
 4287SOL    HW213761   4.575   0.344   0.943
 4288SOL     OW13762   0.217   6.660   2.502
 4288SOL    HW113763   0.266   6.575   2.482
 4288SOL    HW213764   0.130   6.660   2.454
 4289SOL     OW13765   0.294   4.222   5.816
 4289SOL    HW113766   0.283   4.122   5.818
 4289SOL    HW213767   0.224   4.262   5.757
 4290SOL     OW13768   0.090   0.849   2.877
 4290SOL    HW113769   0.037   0.932   2.891
 4290SOL    HW213770   0.031   0.777   2.840
 4291SOL     OW13771   4.620   4.922   6.027
 4291SOL    HW113772   4.700   4.950   6.080
 4291SOL    HW213773   4.590   4.998   5.970
 4292SOL     OW13774   6.542   0.042   0.455
 4292SOL    HW113775   6.482   6.986   0.439
 4292SOL    HW213776   6.635   0.010   0.471
 4293SOL     OW13777   4.076   2.660   5.717
 4293SOL    HW113778   4.125   2.667   5.805
 4293SOL    HW213779   4.049   2.565   5.702
 4294SOL     OW13780   3.319   2.267   0.189
 4294SOL    HW113781   3.277   2.268   0.280
 4294SOL    HW213782   3.384   2.343   0.182
 4295SOL     OW13783   4.093   6.656   2.657
 4295SOL    HW113784   4.112   6.569   2.613
 4295SOL    HW213785   3.996   6.679   2.643
 4296SOL     OW13786   2.186   5.521   1.800
 4296SOL    HW113787   2.208   5.597   1.862
 4296SOL    HW213788   2.221   5.436   1.838
 4297SOL     OW13789   5.012   4.652   6.823
 4297SOL    HW113790   5.074   4.689   6.893
 4297SOL    HW213791   4.949   4.724   6.794
 4298SOL     OW13792   2.313   6.238   0.470
 4298SOL    HW113793   2.257   6.165   0.431
 4298SOL    HW213794   2.298   6.323   0.419
 4299SOL     OW13795   6.778   3.212   6.574
 4299SOL    HW113796   6.823   3.134   6.617
 4299SOL    HW213797   6.838   3.293   6.581
 4300SOL     OW13798   3.861   0.741   2.032
 4300SOL    HW113799   3.773   0.749   2.078
 4300SOL    HW213800   3.890   0.645   2.032
 4301SOL     OW13801   2.023   6.107   4.665
 4301SOL    HW113802   1.970   6.122   4.582
 4301SOL    HW213803   1.970   6.136   4.744
 4302SOL     OW13804   4.392   5.077   0.194
 4302SOL    HW113805   4.429   5.134   0.268
 4302SOL    HW213806   4.293   5.067   0.206
 4303SOL     OW13807   4.545   4.781   3.118
 4303SOL    HW113808   4.469   4.717   3.122
 4303SOL    HW213809   4.553   4.829   3.205
 4304SOL     OW13810   3.387   4.152   1.655
 4304SOL    HW113811   3.438   4.126   1.738
 4304SOL    HW213812   3.434   4.227   1.610
 4305SOL     OW13813   0.995   6.721   5.609
 4305SOL    HW113814   1.081   6.729   5.660
 4305SOL    HW213815   0.918   6.732   5.671
 4306SOL     OW13816   6.400   3.719   5.101
 4306SOL    HW113817   6.478   3.730   5.163
 4306SOL    HW213818   6.337   3.796   5.113
 4307SOL     OW13819   6.469   1.664   4.311
 4307SOL    HW113820   6.390   1.636   4.257
 4307SOL    HW213821   6.500   1.587   4.366
 4308SOL     OW13822   4.404   5.694   5.950
 4308SOL    HW113823   4.310   5.676   5.923
 4308SOL    HW213824   4.435   5.780   5.909
 4309SOL     OW13825   3.045   2.153   0.942
 4309SOL    HW113826   3.014   2.238   0.901
 4309SOL    HW213827   3.028   2.077   0.879
 4310SOL     OW13828   6.457   1.276   4.351
 4310SOL    HW113829   6.508   1.303   4.433
 4310SOL    HW213830   6.403   1.194   4.370
 4311SOL     OW13831   1.176   6.792   1.427
 4311SOL    HW113832   1.113   6.787   1.504
 4311SOL    HW213833   1.208   6.700   1.404
 4312SOL     OW13834   0.715   3.067   2.671
 4312SOL    HW113835   0.705   3.161   2.703
 4312SOL    HW213836   0.708   3.065   2.572
 4313SOL     OW13837   0.881   3.384   0.773
 4313SOL    HW113838   0.865   3.349   0.681
 4313SOL    HW213839   0.964   3.342   0.810
 4314SOL     OW13840   2.687   1.439   5.661
 4314SOL    HW113841   2.772   1.402   5.625
 4314SOL    HW213842   2.626   1.365   5.689
 4315SOL     OW13843   2.701   2.372   5.516
 4315SOL    HW113844   2.758   2.352   5.595
 4315SOL    HW213845   2.673   2.468   5.517
 4316SOL     OW13846   4.483   4.201   1.354
 4316SOL    HW113847   4.501   4.107   1.326
 4316SOL    HW213848   4.386   4.212   1.375
 4317SOL     OW13849   5.306   0.265   3.704
 4317SOL    HW113850   5.314   0.184   3.764
 4317SOL    HW213851   5.221   0.314   3.725
 4318SOL     OW13852   2.042   6.175   4.188
 4318SOL    HW113853   2.101   6.155   4.267
 4318SOL    HW213854   2.066   6.112   4.113
 4319SOL     OW13855   2.160   4.889   1.344
 4319SOL    HW113856   2.157   4.967   1.282
 4319SOL    HW213857   2.221   4.908   1.421
 4320SOL     OW13858   4.154   1.379   2.012
 4320SOL    HW113859   4.154   1.420   2.103
 4320SOL    HW213860   4.061   1.349   1.989
 4321SOL     OW13861   6.277   6.083   3.177
 4321SOL    HW113862   6.227   6.050   3.257
 4321SOL    HW213863   6.236   6.045   3.094
 4322SOL     OW13864   2.681   2.105   4.433
 4322SOL    HW113865   2.589   2.138   4.453
 4322SOL    HW213866   2.704   2.031   4.496
 4323SOL     OW13867   5.467   4.256   1.818
 4323SOL    HW113868   5.509   4.173   1.781
 4323SOL    HW213869   5.445   4.242   1.915
 4324SOL     OW13870   6.546   4.095   5.414
 4324SOL    HW113871   6.460   4.106   5.364
 4324SOL    HW213872   6.559   3.999   5.437
 4325SOL     OW13873   1.534   0.853   0.875
 4325SOL    HW113874   1.528   0.905   0.790
 4325SOL    HW213875   1.624   0.865   0.916
 4326SOL     OW13876   4.959   2.703   2.254
 4326SOL    HW113877   5.046   2.751   2.266
 4326SOL    HW213878   4.972   2.605   2.268
 4327SOL     OW13879   2.959   6.651   4.105
 4327SOL    HW113880   2.929   6.689   4.018
 4327SOL    HW213881   2.895   6.580   4.134
 4328SOL     OW13882   5.900   0.035   2.486
 4328SOL    HW113883   5.820   0.093   2.470
 4328SOL    HW213884   5.980   0.093   2.499
 4329SOL     OW13885   5.813   3.907   0.336
 4329SOL    HW113886   5.758   3.884   0.255
 4329SOL    HW213887   5.823   4.007   0.341
 4330SOL     OW13888   2.812   6.015   5.148
 4330SOL    HW113889   2.796   6.112   5.130
 4330SOL    HW213890   2.766   5.960   5.078
 4331SOL     OW13891   6.104   1.360   2.850
 4331SOL    HW113892   6.130   1.434   2.912
 4331SOL    HW213893   6.184   1.301   2.833
 4332SOL     OW13894   0.030   5.878   1.265
 4332SOL    HW113895   0.052   5.931   1.347
 4332SOL    HW213896   6.962   5.836   1.275
 4333SOL     OW13897   3.888   2.896   5.789
 4333SOL    HW113898   3.968   2.836   5.779
 4333SOL    HW213899   3.880   2.955   5.709
 4334SOL     OW13900   0.549   2.061   3.627
 4334SOL    HW113901   0.584   1.987   3.684
 4334SOL    HW213902   0.472   2.105   3.674
 4335SOL     OW13903   2.077   3.153   1.559
 4335SOL    HW113904   2.107   3.148   1.464
 4335SOL    HW213905   2.156   3.156   1.619
 4336SOL     OW13906   2.431   5.228   5.408
 4336SOL    HW113907   2.485   5.173   5.471
 4336SOL    HW213908   2.365   5.170   5.360
 4337SOL     OW13909   0.506   4.657   4.157
 4337SOL    HW113910   0.555   4.615   4.080
 4337SOL    HW213911   0.414   4.619   4.163
 4338SOL     OW13912   3.438   3.049   5.547
 4338SOL    HW113913   3.440   3.023   5.451
 4338SOL    HW213914   3.522   3.098   5.570
 4339SOL     OW13915   3.733   3.970   5.336
 4339SOL    HW113916   3.820   3.921   5.348
 4339SOL    HW213917   3.748   4.068   5.349
 4340SOL     OW13918   7.009   4.253   0.163
 4340SOL    HW113919   0.034   4.322   0.218
 4340SOL    HW213920   0.052   4.205   0.106
 4341SOL     OW13921   5.981   6.322   1.660
 4341SOL    HW113922   6.047   6.397   1.662
 4341SOL    HW213923   6.006   6.253   1.728
 4342SOL     OW13924   4.981   3.358   2.018
 4342SOL    HW113925   4.939   3.394   1.934
 4342SOL    HW213926   4.981   3.258   2.014
 4343SOL     OW13927   4.496   6.764   6.143
 4343SOL    HW113928   4.509   6.859   6.115
 4343SOL    HW213929   4.401   6.739   6.131
 4344SOL     OW13930   1.428   4.081   2.000
 4344SOL    HW113931   1.501   4.090   1.932
 4344SOL    HW213932   1.467   4.090   2.091
 4345SOL     OW13933   4.151   3.286   2.616
 4345SOL    HW113934   4.248   3.304   2.604
 4345SOL    HW213935   4.098   3.351   2.561
 4346SOL     OW13936   0.896   3.385   2.513
 4346SOL    HW113937   0.841   3.467   2.493
 4346SOL    HW213938   0.893   3.323   2.436
 4347SOL     OW13939   6.070   6.213   1.415
 4347SOL    HW113940   6.037   6.277   1.484
 4347SOL    HW213941   5.995   6.153   1.387
 4348SOL     OW13942   6.379   4.407   6.272
 4348SOL    HW113943   6.379   4.348   6.352
 4348SOL    HW213944   6.461   4.464   6.273
 4349SOL     OW13945   0.820   3.632   3.895
 4349SOL    HW113946   0.872   3.714   3.869
 4349SOL    HW213947   0.883   3.557   3.913
 4350SOL     OW13948   5.313   0.023   3.837
 4350SOL    HW113949   5.390   6.995   3.799
 4350SOL    HW213950   5.230   0.001   3.784
 4351SOL     OW13951   0.076   6.402   1.124
 4351SOL    HW113952   0.126   6.476   1.081
 4351SOL    HW213953   0.119   6.378   1.211
 4352SOL     OW13954   3.684   4.515   1.314
 4352SOL    HW113955   3.661   4.419   1.299
 4352SOL    HW213956   3.604   4.564   1.349
 4353SOL     OW13957   2.124   4.045   0.229
 4353SOL    HW113958   2.147   3.972   0.294
 4353SOL    HW213959   2.186   4.041   0.151
 4354SOL     OW13960   5.400   4.951   2.082
 4354SOL    HW113961   5.491   4.914   2.103
 4354SOL    HW213962   5.342   4.944   2.163
 4355SOL     OW13963   1.949   4.995   3.924
 4355SOL    HW113964   1.931   5.074   3.983
 4355SOL    HW213965   1.997   5.025   3.842
 4356SOL     OW13966   5.762   1.678   5.885
 4356SOL    HW113967   5.714   1.591   5.899
 4356SOL    HW213968   5.704   1.753   5.918
 4357SOL     OW13969   4.618   5.916   2.835
 4357SOL    HW113970   4.705   5.886   2.873
 4357SOL    HW213971   4.556   5.942   2.909
 4358SOL     OW13972   2.908   0.688   1.287
 4358SOL    HW113973   2.839   0.631   1.242
 4358SOL    HW213974   2.927   0.650   1.378
 4359SOL     OW13975   2.700   3.298   1.693
 4359SOL    HW113976   2.658   3.224   1.640
 4359SOL    HW213977   2.636   3.375   1.698
 4360SOL     OW13978   2.861   6.298   4.098
 4360SOL    HW113979   2.944   6.243   4.088
 4360SOL    HW213980   2.840   6.343   4.011
 4361SOL     OW13981   1.872   1.008   6.503
 4361SOL    HW113982   1.774   1.002   6.522
 4361SOL    HW213983   1.923   0.981   6.584
 4362SOL     OW13984   6.808   5.964   2.411
 4362SOL    HW113985   6.891   5.916   2.381
 4362SOL    HW213986   6.775   5.923   2.496
 4363SOL     OW13987   4.016   0.262   2.547
 4363SOL    HW113988   3.924   0.265   2.505
 4363SOL    HW213989   4.021   0.185   2.610
 4364SOL     OW13990   2.966   3.893   3.041
 4364SOL    HW113991   2.924   3.859   3.125
 4364SOL    HW213992   3.050   3.942   3.064
 4365SOL     OW13993   2.440   1.604   0.691
 4365SOL    HW113994   2.480   1.695   0.703
 4365SOL    HW213995   2.512   1.535   0.695
 4366SOL     OW13996   4.913   5.802   4.809
 4366SOL    HW113997   4.922   5.879   4.746
 4366SOL    HW213998   4.844   5.738   4.774
 4367SOL     OW13999   1.858   7.004   1.564
 4367SOL    HW114000   1.947   0.027   1.561
 4367SOL    HW214001   1.787   0.048   1.587
 4368SOL     OW14002   4.844   4.898   4.520
 4368SOL    HW114003   4.770   4.916   4.455
 4368SOL    HW214004   4.875   4.984   4.560
 4369SOL     OW14005   6.792   3.924   4.327
 4369SOL    HW114006   6.710   3.948   4.273
 4369SOL    HW214007   6.865   3.989   4.306
 4370SOL     OW14008   5.177   4.448   1.295
 4370SOL    HW114009   5.213   4.371   1.348
 4370SOL    HW214010   5.080   4.460   1.315
 4371SOL     OW14011   3.460   0.497   3.283
 4371SOL    HW114012   3.494   0.447   3.362
 4371SOL    HW214013   3.463   0.595   3.302
 4372SOL     OW14014   1.864   4.575   5.133
 4372SOL    HW114015   1.899   4.643   5.069
 4372SOL    HW214016   1.928   4.565   5.209
 4373SOL     OW14017   4.487   0.538   0.257
 4373SOL    HW114018   4.569   0.530   0.199
 4373SOL    HW214019   4.496   0.478   0.336
 4374SOL     OW14020   2.086   6.094   0.386
 4374SOL    HW114021   2.067   6.097   0.484
 4374SOL    HW214022   2.062   6.183   0.345
 4375SOL     OW14023   4.613   0.854   5.932
 4375SOL    HW114024   4.677   0.833   5.858
 4375SOL    HW214025   4.664   0.880   6.014
 4376SOL     OW14026   3.059   4.535   6.841
 4376SOL    HW114027   3.028   4.575   6.927
 4376SOL    HW214028   3.158   4.521   6.843
 4377SOL     OW14029   5.495   6.391   0.029
 4377SOL    HW114030   5.584   6.417   7.015
 4377SOL    HW214031   5.423   6.413   6.985
 4378SOL     OW14032   3.457   4.650   1.409
 4378SOL    HW114033   3.372   4.614   1.448
 4378SOL    HW214034   3.507   4.701   1.478
 4379SOL     OW14035   6.440   6.037   0.489
 4379SOL    HW114036   6.492   6.009   0.569
 4379SOL    HW214037   6.366   5.972   0.473
 4380SOL     OW14038   1.913   6.260   4.875
 4380SOL    HW114039   1.907   6.205   4.959
 4380SOL    HW214040   1.824   6.300   4.854
 4381SOL     OW14041   3.411   6.382   4.332
 4381SOL    HW114042   3.421   6.324   4.413
 4381SOL    HW214043   3.413   6.478   4.358
 4382SOL     OW14044   5.419   4.230   3.745
 4382SOL    HW114045   5.400   4.327   3.733
 4382SOL    HW214046   5.364   4.177   3.681
 4383SOL     OW14047   1.289   0.371   6.830
 4383SOL    HW114048   1.261   0.341   6.739
 4383SOL    HW214049   1.276   0.470   6.839
 4384SOL     OW14050   3.858   6.728   2.023
 4384SOL    HW114051   3.782   6.790   2.001
 4384SOL    HW214052   3.914   6.769   2.095
 4385SOL     OW14053   6.085   2.461   4.408
 4385SOL    HW114054   6.038   2.543   4.440
 4385SOL    HW214055   6.161   2.440   4.471
 4386SOL     OW14056   1.849   5.590   6.892
 4386SOL    HW114057   1.852   5.684   6.927
 4386SOL    HW214058   1.925   5.576   6.829
 4387SOL     OW14059   6.017   2.345   1.037
 4387SOL    HW114060   5.918   2.356   1.043
 4387SOL    HW214061   6.053   2.405   0.965
 4388SOL     OW14062   4.116   1.267   5.925
 4388SOL    HW114063   4.191   1.203   5.940
 4388SOL    HW214064   4.058   1.269   6.006
 4389SOL     OW14065   1.000   2.297   2.697
 4389SOL    HW114066   1.053   2.378   2.722
 4389SOL    HW214067   0.942   2.271   2.774
 4390SOL     OW14068   4.731   3.853   1.105
 4390SOL    HW114069   4.700   3.778   1.048
 4390SOL    HW214070   4.804   3.903   1.059
 4391SOL     OW14071   0.630   5.602   0.907
 4391SOL    HW114072   0.543   5.570   0.870
 4391SOL    HW214073   0.665   5.676   0.849
 4392SOL     OW14074   5.010   5.187   4.777
 4392SOL    HW114075   5.042   5.228   4.862
 4392SOL    HW214076   5.066   5.220   4.701
 4393SOL     OW14077   4.782   6.394   3.021
 4393SOL    HW114078   4.731   6.455   2.960
 4393SOL    HW214079   4.756   6.299   3.003
 4394SOL     OW14080   4.558   0.984   2.537
 4394SOL    HW114081   4.567   1.020   2.445
 4394SOL    HW214082   4.501   0.902   2.536
 4395SOL     OW14083   4.528   2.523   0.808
 4395SOL    HW114084   4.456   2.591   0.802
 4395SOL    HW214085   4.550   2.489   0.717
 4396SOL     OW14086   1.850   1.479   2.380
 4396SOL    HW114087   1.948   1.497   2.393
 4396SOL    HW214088   1.834   1.380   2.379
 4397SOL     OW14089   4.105   1.616   6.930
 4397SOL    HW114090   4.005   1.613   6.918
 4397SOL    HW214091   4.127   1.684   7.001
 4398SOL     OW14092   0.874   5.117   4.673
 4398SOL    HW114093   0.858   5.092   4.577
 4398SOL    HW214094   0.965   5.087   4.700
 4399SOL     OW14095   2.867   0.511   1.503
 4399SOL    HW114096   2.843   0.419   1.473
 4399SOL    HW214097   2.950   0.507   1.558
 4400SOL     OW14098   3.201   5.101   2.692
 4400SOL    HW114099   3.170   5.163   2.764
 4400SOL    HW214100   3.136   5.026   2.683
 4401SOL     OW14101   5.226   6.382   4.639
 4401SOL    HW114102   5.160   6.342   4.575
 4401SOL    HW214103   5.271   6.310   4.690
 4402SOL     OW14104   0.005   6.311   1.828
 4402SOL    HW114105   6.946   6.282   1.879
 4402SOL    HW214106   0.087   6.289   1.881
 4403SOL     OW14107   6.358   1.721   3.498
 4403SOL    HW114108   6.261   1.704   3.486
 4403SOL    HW214109   6.384   1.804   3.447
 4404SOL     OW14110   1.827   3.470   2.502
 4404SOL    HW114111   1.778   3.400   2.449
 4404SOL    HW214112   1.765   3.545   2.523
 4405SOL     OW14113   2.641   3.674   6.586
 4405SOL    HW114114   2.733   3.707   6.570
 4405SOL    HW214115   2.613   3.614   6.511
 4406SOL     OW14116   5.824   2.727   2.297
 4406SOL    HW114117   5.771   2.643   2.303
 4406SOL    HW214118   5.897   2.716   2.231
 4407SOL     OW14119   0.963   0.660   0.359
 4407SOL    HW114120   0.928   0.635   0.449
 4407SOL    HW214121   1.019   0.586   0.322
 4408SOL     OW14122   4.253   6.163   1.321
 4408SOL    HW114123   4.185   6.213   1.268
 4408SOL    HW214124   4.334   6.221   1.335
 4409SOL     OW14125   3.506   2.034   3.182
 4409SOL    HW114126   3.542   1.941   3.193
 4409SOL    HW214127   3.523   2.087   3.265
 4410SOL     OW14128   2.056   5.741   0.557
 4410SOL    HW114129   2.040   5.656   0.507
 4410SOL    HW214130   2.143   5.781   0.527
 4411SOL     OW14131   3.421   2.989   2.262
 4411SOL    HW114132   3.449   3.071   2.312
 4411SOL    HW214133   3.501   2.932   2.245
 4412SOL     OW14134   3.762   1.545   6.031
 4412SOL    HW114135   3.687   1.524   5.968
 4412SOL    HW214136   3.752   1.492   6.115
 4413SOL     OW14137   3.656   5.546   3.760
 4413SOL    HW114138   3.643   5.451   3.786
 4413SOL    HW214139   3.753   5.563   3.742
 4414SOL     OW14140   3.540   4.840   1.622
 4414SOL    HW114141   3.555   4.784   1.704
 4414SOL    HW214142   3.614   4.906   1.613
 4415SOL     OW14143   4.037   0.991   1.443
 4415SOL    HW114144   4.014   0.935   1.523
 4415SOL    HW214145   4.127   1.032   1.457
 4416SOL     OW14146   3.005   2.161   4.688
 4416SOL    HW114147   3.090   2.186   4.734
 4416SOL    HW214148   2.945   2.113   4.752
 4417SOL     OW14149   5.662   6.862   1.514
 4417SOL    HW114150   5.716   6.946   1.509
 4417SOL    HW214151   5.724   6.784   1.521
 4418SOL     OW14152   4.599   0.051   3.266
 4418SOL    HW114153   4.602   0.103   3.181
 4418SOL    HW214154   4.522   0.082   3.322
 4419SOL     OW14155   6.160   5.379   6.263
 4419SOL    HW114156   6.147   5.280   6.253
 4419SOL    HW214157   6.256   5.399   6.278
 4420SOL     OW14158   5.283   0.783   0.849
 4420SOL    HW114159   5.294   0.880   0.874
 4420SOL    HW214160   5.367   0.750   0.806
 4421SOL     OW14161   0.487   1.533   3.232
 4421SOL    HW114162   0.539   1.603   3.281
 4421SOL    HW214163   0.390   1.559   3.230
 4422SOL     OW14164   1.260   4.071   5.923
 4422SOL    HW114165   1.317   4.008   5.976
 4422SOL    HW214166   1.222   4.022   5.844
 4423SOL     OW14167   6.519   1.453   5.642
 4423SOL    HW114168   6.601   1.464   5.699
 4423SOL    HW214169   6.438   1.452   5.700
 4424SOL     OW14170   1.491   5.554   3.372
 4424SOL    HW114171   1.571   5.505   3.336
 4424SOL    HW214172   1.409   5.524   3.323
 4425SOL     OW14173   5.243   3.922   1.890
 4425SOL    HW114174   5.145   3.944   1.899
 4425SOL    HW214175   5.254   3.823   1.885
 4426SOL     OW14176   0.638   6.902   6.553
 4426SOL    HW114177   0.714   6.843   6.525
 4426SOL    HW214178   0.553   6.851   6.550
 4427SOL     OW14179   0.811   5.554   3.377
 4427SOL    HW114180   0.820   5.614   3.456
 4427SOL    HW214181   0.736   5.489   3.392
 4428SOL     OW14182   1.363   0.150   3.009
 4428SOL    HW114183   1.351   0.245   2.979
 4428SOL    HW214184   1.449   0.115   2.973
 4429SOL     OW14185   2.696   0.063   2.231
 4429SOL    HW114186   2.633   0.009   2.287
 4429SOL    HW214187   2.762   0.108   2.290
 4430SOL     OW14188   2.018   0.313   1.922
 4430SOL    HW114189   2.001   0.215   1.921
 4430SOL    HW214190   1.947   0.360   1.975
 4431SOL     OW14191   1.858   2.170   2.611
 4431SOL    HW114192   1.952   2.160   2.577
 4431SOL    HW214193   1.823   2.260   2.585
 4432SOL     OW14194   3.693   4.081   4.653
 4432SOL    HW114195   3.613   4.079   4.592
 4432SOL    HW214196   3.699   3.995   4.703
 4433SOL     OW14197   6.484   0.168   1.429
 4433SOL    HW114198   6.550   0.240   1.453
 4433SOL    HW214199   6.391   0.204   1.438
 4434SOL     OW14200   5.636   1.866   5.704
 4434SOL    HW114201   5.588   1.804   5.765
 4434SOL    HW214202   5.694   1.928   5.758
 4435SOL     OW14203   3.728   2.925   1.907
 4435SOL    HW114204   3.652   2.859   1.905
 4435SOL    HW214205   3.750   2.954   1.814
 4436SOL     OW14206   5.795   0.120   0.319
 4436SOL    HW114207   5.721   0.091   0.258
 4436SOL    HW214208   5.758   0.175   0.394
 4437SOL     OW14209   3.319   6.742   5.488
 4437SOL    HW114210   3.355   6.801   5.560
 4437SOL    HW214211   3.390   6.727   5.419
 4438SOL     OW14212   3.705   2.550   6.750
 4438SOL    HW114213   3.720   2.631   6.693
 4438SOL    HW214214   3.792   2.520   6.788
 4439SOL     OW14215   1.267   4.263   3.011
 4439SOL    HW114216   1.279   4.205   3.092
 4439SOL    HW214217   1.347   4.320   2.999
 4440SOL     OW14218   6.210   0.998   0.641
 4440SOL    HW114219   6.118   1.035   0.630
 4440SOL    HW214220   6.206   0.909   0.685
 4441SOL     OW14221   6.574   0.566   4.155
 4441SOL    HW114222   6.614   0.497   4.095
 4441SOL    HW214223   6.544   0.523   4.240
 4442SOL     OW14224   2.083   5.795   2.436
 4442SOL    HW114225   2.011   5.806   2.368
 4442SOL    HW214226   2.044   5.765   2.522
 4443SOL     OW14227   1.869   1.163   1.039
 4443SOL    HW114228   1.919   1.213   1.109
 4443SOL    HW214229   1.918   1.169   0.952
 4444SOL     OW14230   4.729   1.686   3.273
 4444SOL    HW114231   4.800   1.713   3.339
 4444SOL    HW214232   4.730   1.749   3.195
 4445SOL     OW14233   0.957   2.204   6.399
 4445SOL    HW114234   0.949   2.304   6.396
 4445SOL    HW214235   0.891   2.167   6.464
 4446SOL     OW14236   6.827   4.898   4.409
 4446SOL    HW114237   6.729   4.899   4.387
 4446SOL    HW214238   6.857   4.803   4.418
 4447SOL     OW14239   4.902   3.854   5.099
 4447SOL    HW114240   4.897   3.764   5.055
 4447SOL    HW214241   4.865   3.847   5.192
 4448SOL     OW14242   2.533   3.411   6.778
 4448SOL    HW114243   2.581   3.336   6.734
 4448SOL    HW214244   2.501   3.476   6.708
 4449SOL     OW14245   6.883   1.469   5.483
 4449SOL    HW114246   6.863   1.553   5.532
 4449SOL    HW214247   6.798   1.427   5.450
 4450SOL     OW14248   3.710   3.590   3.328
 4450SOL    HW114249   3.692   3.617   3.234
 4450SOL    HW214250   3.667   3.502   3.347
 4451SOL     OW14251   0.569   5.017   1.206
 4451SOL    HW114252   0.619   5.033   1.122
 4451SOL    HW214253   0.623   4.958   1.266
 4452SOL     OW14254   0.685   3.829   6.745
 4452SOL    HW114255   0.642   3.884   6.816
 4452SOL    HW214256   0.705   3.738   6.782
 4453SOL     OW14257   6.012   0.386   1.613
 4453SOL    HW114258   5.926   0.437   1.619
 4453SOL    HW214259   6.089   0.449   1.625
 4454SOL     OW14260   5.983   3.381   1.848
 4454SOL    HW114261   5.984   3.281   1.841
 4454SOL    HW214262   5.965   3.420   1.757
 4455SOL     OW14263   4.642   2.415   2.593
 4455SOL    HW114264   4.670   2.502   2.552
 4455SOL    HW214265   4.547   2.397   2.571
 4456SOL     OW14266   0.303   5.917   2.467
 4456SOL    HW114267   0.367   5.904   2.542
 4456SOL    HW214268   0.282   5.829   2.425
 4457SOL     OW14269   4.273   2.641   6.311
 4457SOL    HW114270   4.369   2.613   6.305
 4457SOL    HW214271   4.267   2.736   6.340
 4458SOL     OW14272   4.870   1.918   1.123
 4458SOL    HW114273   4.809   1.958   1.191
 4458SOL    HW214274   4.816   1.879   1.048
 4459SOL     OW14275   5.910   5.656   6.021
 4459SOL    HW114276   5.871   5.688   6.107
 4459SOL    HW214277   5.994   5.605   6.040
 4460SOL     OW14278   1.460   1.294   0.285
 4460SOL    HW114279   1.507   1.348   0.355
 4460SOL    HW214280   1.363   1.285   0.309
 4461SOL     OW14281   1.951   0.927   2.979
 4461SOL    HW114282   2.007   0.932   3.062
 4461SOL    HW214283   1.992   0.983   2.908
 4462SOL     OW14284   6.986   3.598   0.750
 4462SOL    HW114285   7.018   3.613   0.843
 4462SOL    HW214286   6.975   3.500   0.733
 4463SOL     OW14287   0.530   4.596   6.981
 4463SOL    HW114288   0.582   4.560   6.904
 4463SOL    HW214289   0.478   4.676   6.951
 4464SOL     OW14290   6.810   3.166   0.004
 4464SOL    HW114291   6.752   3.199   0.078
 4464SOL    HW214292   6.892   3.122   0.042
 4465SOL     OW14293   6.216   5.320   1.196
 4465SOL    HW114294   6.166   5.294   1.279
 4465SOL    HW214295   6.308   5.279   1.198
 4466SOL     OW14296   6.507   3.117   3.970
 4466SOL    HW114297   6.439   3.182   4.004
 4466SOL    HW214298   6.549   3.070   4.047
 4467SOL     OW14299   1.023   0.392   4.645
 4467SOL    HW114300   1.048   0.377   4.741
 4467SOL    HW214301   1.058   0.480   4.615
 4468SOL     OW14302   1.137   0.920   0.675
 4468SOL    HW114303   1.215   0.913   0.613
 4468SOL    HW214304   1.103   1.014   0.676
 4469SOL     OW14305   4.611   6.813   0.310
 4469SOL    HW114306   4.702   6.786   0.342
 4469SOL    HW214307   4.579   6.892   0.362
 4470SOL     OW14308   4.916   4.420   1.354
 4470SOL    HW114309   4.920   4.348   1.424
 4470SOL    HW214310   4.830   4.411   1.303
 4471SOL     OW14311   5.726   2.383   1.812
 4471SOL    HW114312   5.684   2.396   1.902
 4471SOL    HW214313   5.811   2.331   1.824
 4472SOL     OW14314   2.577   5.118   1.419
 4472SOL    HW114315   2.494   5.103   1.473
 4472SOL    HW214316   2.634   5.186   1.465
 4473SOL     OW14317   6.131   0.240   0.985
 4473SOL    HW114318   6.148   0.300   0.906
 4473SOL    HW214319   6.117   0.296   1.067
 4474SOL     OW14320   6.188   1.132   5.023
 4474SOL    HW114321   6.217   1.225   5.047
 4474SOL    HW214322   6.261   1.068   5.043
 4475SOL     OW14323   1.603   3.457   0.417
 4475SOL    HW114324   1.595   3.525   0.489
 4475SOL    HW214325   1.570   3.495   0.331
 4476SOL     OW14326   3.714   6.236   2.810
 4476SOL    HW114327   3.703   6.173   2.887
 4476SOL    HW214328   3.768   6.192   2.738
 4477SOL     OW14329   2.015   2.388   0.969
 4477SOL    HW114330   1.940   2.413   1.030
 4477SOL    HW214331   2.014   2.289   0.952
 4478SOL     OW14332   1.251   4.667   0.996
 4478SOL    HW114333   1.241   4.709   1.086
 4478SOL    HW214334   1.168   4.683   0.942
 4479SOL     OW14335   1.765   6.547   6.136
 4479SOL    HW114336   1.837   6.524   6.201
 4479SOL    HW214337   1.731   6.463   6.093
 4480SOL     OW14338   6.656   3.626   3.309
 4480SOL    HW114339   6.712   3.664   3.383
 4480SOL    HW214340   6.699   3.646   3.221
 4481SOL     OW14341   0.797   0.903   4.517
 4481SOL    HW114342   0.771   0.813   4.551
 4481SOL    HW214343   0.883   0.931   4.558
 4482SOL     OW14344   0.312   4.031   2.974
 4482SOL    HW114345   0.289   3.949   3.027
 4482SOL    HW214346   0.312   4.009   2.876
 4483SOL     OW14347   5.896   3.698   1.289
 4483SOL    HW114348   5.844   3.770   1.244
 4483SOL    HW214349   5.842   3.613   1.289
 4484SOL     OW14350   3.081   3.678   6.615
 4484SOL    HW114351   3.010   3.698   6.548
 4484SOL    HW214352   3.052   3.711   6.705
 4485SOL     OW14353   4.456   0.258   5.974
 4485SOL    HW114354   4.507   0.344   5.982
 4485SOL    HW214355   4.409   0.255   5.886
 4486SOL     OW14356   6.210   3.361   4.292
 4486SOL    HW114357   6.229   3.268   4.322
 4486SOL    HW214358   6.111   3.372   4.277
 4487SOL     OW14359   3.234   3.070   6.000
 4487SOL    HW114360   3.258   3.026   5.913
 4487SOL    HW214361   3.202   3.163   5.982
 4488SOL     OW14362   6.976   2.200   6.656
 4488SOL    HW114363   6.886   2.204   6.699
 4488SOL    HW214364   0.023   2.181   6.726
 4489SOL     OW14365   0.841   1.083   3.117
 4489SOL    HW114366   0.830   1.044   3.025
 4489SOL    HW214367   0.848   1.182   3.110
 4490SOL     OW14368   6.653   2.061   4.099
 4490SOL    HW114369   6.607   2.009   4.171
 4490SOL    HW214370   6.598   2.142   4.076
 4491SOL     OW14371   1.901   4.492   1.969
 4491SOL    HW114372   1.899   4.535   2.060
 4491SOL    HW214373   1.817   4.515   1.920
 4492SOL     OW14374   5.091   3.794   5.769
 4492SOL    HW114375   5.051   3.799   5.677
 4492SOL    HW214376   5.176   3.742   5.765
 4493SOL     OW14377   5.844   4.343   3.174
 4493SOL    HW114378   5.924   4.402   3.183
 4493SOL    HW214379   5.841   4.303   3.083
 4494SOL     OW14380   5.055   2.567   2.028
 4494SOL    HW114381   4.965   2.607   2.010
 4494SOL    HW214382   5.070   2.490   1.965
 4495SOL     OW14383   5.719   5.151   1.789
 4495SOL    HW114384   5.814   5.177   1.771
 4495SOL    HW214385   5.668   5.150   1.703
 4496SOL     OW14386   5.863   3.433   6.021
 4496SOL    HW114387   5.832   3.346   6.060
 4496SOL    HW214388   5.802   3.506   6.050
 4497SOL     OW14389   6.713   6.371   1.392
 4497SOL    HW114390   6.744   6.300   1.454
 4497SOL    HW214391   6.748   6.460   1.421
 4498SOL     OW14392   1.089   4.208   6.077
 4498SOL    HW114393   1.065   4.133   6.138
 4498SOL    HW214394   1.157   4.177   6.011
 4499SOL     OW14395   5.629   4.029   0.699
 4499SOL    HW114396   5.646   4.061   0.606
 4499SOL    HW214397   5.653   3.932   0.706
 4500SOL     OW14398   3.723   4.061   2.089
 4500SOL    HW114399   3.724   3.962   2.079
 4500SOL    HW214400   3.782   4.102   2.019
 4501SOL     OW14401   1.933   5.567   5.003
 4501SOL    HW114402   1.973   5.589   5.092
 4501SOL    HW214403   1.974   5.483   4.967
 4502SOL     OW14404   5.812   2.400   0.525
 4502SOL    HW114405   5.730   2.365   0.571
 4502SOL    HW214406   5.785   2.468   0.457
 4503SOL     OW14407   0.953   3.169   2.839
 4503SOL    HW114408   1.008   3.252   2.844
 4503SOL    HW214409   0.863   3.190   2.801
 4504SOL     OW14410   4.317   2.205   4.178
 4504SOL    HW114411   4.295   2.254   4.094
 4504SOL    HW214412   4.273   2.250   4.255
 4505SOL     OW14413   2.349   5.448   0.193
 4505SOL    HW114414   2.432   5.502   0.203
 4505SOL    HW214415   2.370   5.363   0.143
 4506SOL     OW14416   3.555   6.676   5.319
 4506SOL    HW114417   3.567   6.585   5.358
 4506SOL    HW214418   3.643   6.723   5.319
 4507SOL     OW14419   5.981   3.704   2.641
 4507SOL    HW114420   5.947   3.776   2.702
 4507SOL    HW214421   6.010   3.744   2.554
 4508SOL     OW14422   2.031   4.083   0.499
 4508SOL    HW114423   2.041   4.081   0.400
 4508SOL    HW214424   2.108   4.133   0.540
 4509SOL     OW14425   0.788   2.846   3.382
 4509SOL    HW114426   0.771   2.831   3.479
 4509SOL    HW214427   0.886   2.834   3.364
 4510SOL     OW14428   2.823   6.760   6.684
 4510SOL    HW114429   2.737   6.746   6.635
 4510SOL    HW214430   2.813   6.730   6.779
 4511SOL     OW14431   0.606   2.333   0.019
 4511SOL    HW114432   0.645   2.424   0.011
 4511SOL    HW214433   0.529   2.323   6.978
 4512SOL     OW14434   2.278   3.958   0.022
 4512SOL    HW114435   2.377   3.947   0.028
 4512SOL    HW214436   2.257   4.026   6.974
 4513SOL     OW14437   6.512   1.436   2.875
 4513SOL    HW114438   6.474   1.356   2.828
 4513SOL    HW214439   6.471   1.443   2.966
 4514SOL     OW14440   2.360   0.318   4.988
 4514SOL    HW114441   2.279   0.337   4.933
 4514SOL    HW214442   2.442   0.348   4.938
 4515SOL     OW14443   0.094   4.831   0.469
 4515SOL    HW114444   0.172   4.892   0.453
 4515SOL    HW214445   0.103   4.789   0.559
 4516SOL     OW14446   0.545   6.767   3.809
 4516SOL    HW114447   0.487   6.780   3.728
 4516SOL    HW214448   0.608   6.844   3.818
 4517SOL     OW14449   2.697   0.638   6.793
 4517SOL    HW114450   2.774   0.590   6.750
 4517SOL    HW214451   2.730   0.691   6.871
 4518SOL     OW14452   1.460   0.610   3.595
 4518SOL    HW114453   1.473   0.682   3.527
 4518SOL    HW214454   1.367   0.615   3.632
 4519SOL     OW14455   6.653   2.200   4.812
 4519SOL    HW114456   6.722   2.213   4.741
 4519SOL    HW214457   6.672   2.115   4.862
 4520SOL     OW14458   0.141   3.400   3.095
 4520SOL    HW114459   0.080   3.399   3.174
 4520SOL    HW214460   0.232   3.369   3.123
 4521SOL     OW14461   5.430   1.865   6.362
 4521SOL    HW114462   5.426   1.880   6.461
 4521SOL    HW214463   5.343   1.826   6.331
 4522SOL     OW14464   5.294   6.801   3.469
 4522SOL    HW114465   5.344   6.768   3.389
 4522SOL    HW214466   5.224   6.865   3.440
 4523SOL     OW14467   4.793   2.063   5.827
 4523SOL    HW114468   4.707   2.106   5.856
 4523SOL    HW214469   4.786   2.037   5.731
 4524SOL     OW14470   5.806   0.801   5.663
 4524SOL    HW114471   5.798   0.806   5.563
 4524SOL    HW214472   5.860   0.877   5.696
 4525SOL     OW14473   6.762   1.400   3.896
 4525SOL    HW114474   6.799   1.489   3.923
 4525SOL    HW214475   6.662   1.402   3.903
 4526SOL     OW14476   2.782   1.733   1.482
 4526SOL    HW114477   2.764   1.806   1.548
 4526SOL    HW214478   2.803   1.648   1.531
 4527SOL     OW14479   4.596   6.472   3.696
 4527SOL    HW114480   4.681   6.524   3.687
 4527SOL    HW214481   4.546   6.475   3.609
 4528SOL     OW14482   4.648   0.387   6.540
 4528SOL    HW114483   4.667   0.289   6.538
 4528SOL    HW214484   4.697   0.431   6.464
 4529SOL     OW14485   3.247   0.396   4.165
 4529SOL    HW114486   3.305   0.320   4.135
 4529SOL    HW214487   3.304   0.470   4.201
 4530SOL     OW14488   6.559   2.483   4.153
 4530SOL    HW114489   6.581   2.566   4.103
 4530SOL    HW214490   6.490   2.431   4.103
 4531SOL     OW14491   0.148   4.203   3.818
 4531SOL    HW114492   0.231   4.150   3.832
 4531SOL    HW214493   0.166   4.299   3.839
 4532SOL     OW14494   0.418   2.469   0.477
 4532SOL    HW114495   0.406   2.402   0.551
 4532SOL    HW214496   0.330   2.514   0.460
 4533SOL     OW14497   3.290   6.527   2.000
 4533SOL    HW114498   3.256   6.612   2.040
 4533SOL    HW214499   3.333   6.547   1.912
 4534SOL     OW14500   6.691   3.928   6.041
 4534SOL    HW114501   6.753   4.004   6.020
 4534SOL    HW214502   6.700   3.857   5.971
 4535SOL     OW14503   5.198   2.143   2.746
 4535SOL    HW114504   5.221   2.140   2.649
 4535SOL    HW214505   5.113   2.092   2.761
 4536SOL     OW14506   6.989   0.061   3.805
 4536SOL    HW114507   0.059   0.096   3.812
 4536SOL    HW214508   6.990   6.992   3.763
 4537SOL     OW14509   5.029   2.849   5.456
 4537SOL    HW114510   5.076   2.898   5.529
 4537SOL    HW214511   4.987   2.915   5.393
 4538SOL     OW14512   3.489   2.076   1.846
 4538SOL    HW114513   3.483   2.095   1.748
 4538SOL    HW214514   3.555   2.138   1.888
 4539SOL     OW14515   2.579   3.073   1.578
 4539SOL    HW114516   2.504   3.010   1.601
 4539SOL    HW214517   2.566   3.108   1.485
 4540SOL     OW14518   3.580   2.838   4.746
 4540SOL    HW114519   3.579   2.751   4.695
 4540SOL    HW214520   3.528   2.827   4.830
 4541SOL     OW14521   6.369   1.316   1.610
 4541SOL    HW114522   6.345   1.384   1.679
 4541SOL    HW214523   6.326   1.229   1.634
 4542SOL     OW14524   5.274   6.557   3.624
 4542SOL    HW114525   5.363   6.556   3.670
 4542SOL    HW214526   5.274   6.629   3.554
 4543SOL     OW14527   5.273   2.514   2.616
 4543SOL    HW114528   5.185   2.489   2.575
 4543SOL    HW214529   5.259   2.536   2.713
 4544SOL     OW14530   5.384   4.949   6.490
 4544SOL    HW114531   5.461   4.906   6.537
 4544SOL    HW214532   5.361   5.035   6.536
 4545SOL     OW14533   3.708   3.679   6.920
 4545SOL    HW114534   3.806   3.698   6.919
 4545SOL    HW214535   3.682   3.636   6.833
 4546SOL     OW14536   0.524   5.841   0.348
 4546SOL    HW114537   0.605   5.870   0.298
 4546SOL    HW214538   0.446   5.897   0.320
 4547SOL     OW14539   4.635   1.407   2.746
 4547SOL    HW114540   4.729   1.425   2.776
 4547SOL    HW214541   4.615   1.309   2.755
 4548SOL     OW14542   0.811   3.424   4.241
 4548SOL    HW114543   0.839   3.509   4.198
 4548SOL    HW214544   0.869   3.405   4.320
 4549SOL     OW14545   5.837   1.246   2.242
 4549SOL    HW114546   5.869   1.255   2.337
 4549SOL    HW214547   5.833   1.150   2.216
 4550SOL     OW14548   2.283   5.053   4.995
 4550SOL    HW114549   2.219   5.084   4.924
 4550SOL    HW214550   2.239   5.059   5.085
 4551SOL     OW14551   6.689   3.642   0.529
 4551SOL    HW114552   6.691   3.546   0.557
 4551SOL    HW214553   6.779   3.683   0.544
 4552SOL     OW14554   0.023   3.443   5.012
 4552SOL    HW114555   7.017   3.530   5.053
 4552SOL    HW214556   7.000   3.368   5.059
 4553SOL     OW14557   5.357   5.211   6.625
 4553SOL    HW114558   5.442   5.250   6.662
 4553SOL    HW214559   5.300   5.178   6.700
 4554SOL     OW14560   6.544   6.415   3.861
 4554SOL    HW114561   6.527   6.351   3.787
 4554SOL    HW214562   6.541   6.367   3.948
 4555SOL     OW14563   3.919   2.792   0.438
 4555SOL    HW114564   3.945   2.888   0.425
 4555SOL    HW214565   3.831   2.776   0.394
 4556SOL     OW14566   4.320   0.580   5.234
 4556SOL    HW114567   4.408   0.625   5.248
 4556SOL    HW214568   4.281   0.610   5.147
 4557SOL     OW14569   5.389   1.071   4.163
 4557SOL    HW114570   5.461   1.005   4.184
 4557SOL    HW214571   5.429   1.163   4.154
 4558SOL     OW14572   0.234   3.115   6.401
 4558SOL    HW114573   0.252   3.088   6.306
 4558SOL    HW214574   0.198   3.036   6.451
 4559SOL     OW14575   1.554   6.551   1.323
 4559SOL    HW114576   1.590   6.493   1.250
 4559SOL    HW214577   1.502   6.495   1.387
 4560SOL     OW14578   5.827   2.909   2.908
 4560SOL    HW114579   5.758   2.869   2.849
 4560SOL    HW214580   5.897   2.841   2.929
 4561SOL     OW14581   3.270   6.262   6.044
 4561SOL    HW114582   3.260   6.348   6.094
 4561SOL    HW214583   3.194   6.201   6.069
 4562SOL     OW14584   2.725   4.398   6.009
 4562SOL    HW114585   2.660   4.325   6.030
 4562SOL    HW214586   2.702   4.438   5.920
 4563SOL     OW14587   5.860   2.721   0.008
 4563SOL    HW114588   5.774   2.766   0.033
 4563SOL    HW214589   5.876   2.735   6.933
 4564SOL     OW14590   6.897   4.974   7.015
 4564SOL    HW114591   6.939   5.023   0.069
 4564SOL    HW214592   6.882   4.879   0.018
 4565SOL     OW14593   3.709   1.090   3.944
 4565SOL    HW114594   3.654   1.099   4.028
 4565SOL    HW214595   3.666   1.023   3.883
 4566SOL     OW14596   1.896   0.874   0.707
 4566SOL    HW114597   1.840   0.877   0.790
 4566SOL    HW214598   1.841   0.903   0.628
 4567SOL     OW14599   5.587   2.132   0.556
 4567SOL    HW114600   5.536   2.179   0.484
 4567SOL    HW214601   5.637   2.055   0.517
 4568SOL     OW14602   4.715   4.473   4.061
 4568SOL    HW114603   4.721   4.571   4.080
 4568SOL    HW214604   4.653   4.431   4.128
 4569SOL     OW14605   1.275   2.017   4.171
 4569SOL    HW114606   1.225   2.072   4.105
 4569SOL    HW214607   1.246   1.921   4.165
 4570SOL     OW14608   5.442   5.796   5.103
 4570SOL    HW114609   5.390   5.872   5.063
 4570SOL    HW214610   5.540   5.810   5.085
 4571SOL     OW14611   3.934   3.032   4.071
 4571SOL    HW114612   4.030   3.050   4.045
 4571SOL    HW214613   3.886   2.992   3.993
 4572SOL     OW14614   2.790   5.362   0.707
 4572SOL    HW114615   2.808   5.275   0.751
 4572SOL    HW214616   2.692   5.369   0.687
 4573SOL     OW14617   5.037   6.995   1.584
 4573SOL    HW114618   5.059   0.016   1.497
 4573SOL    HW214619   5.003   6.903   1.568
 4574SOL     OW14620   0.129   4.784   1.982
 4574SOL    HW114621   0.180   4.698   1.985
 4574SOL    HW214622   0.036   4.767   1.948
 4575SOL     OW14623   0.043   5.993   1.894
 4575SOL    HW114624   0.101   6.038   1.962
 4575SOL    HW214625   0.101   5.944   1.828
 4576SOL     OW14626   3.134   6.540   4.290
 4576SOL    HW114627   3.232   6.548   4.273
 4576SOL    HW214628   3.086   6.616   4.247
 4577SOL     OW14629   1.949   4.055   3.975
 4577SOL    HW114630   1.947   4.061   3.875
 4577SOL    HW214631   2.008   4.127   4.012
 4578SOL     OW14632   6.285   5.743   3.536
 4578SOL    HW114633   6.340   5.689   3.599
 4578SOL    HW214634   6.229   5.682   3.479
 4579SOL     OW14635   4.683   1.810   3.666
 4579SOL    HW114636   4.745   1.889   3.660
 4579SOL    HW214637   4.600   1.837   3.715
 4580SOL     OW14638   0.218   5.363   6.963
 4580SOL    HW114639   0.200   5.283   7.020
 4580SOL    HW214640   0.233   5.334   6.869
 4581SOL     OW14641   3.557   5.985   4.658
 4581SOL    HW114642   3.595   5.903   4.616
 4581SOL    HW214643   3.461   5.969   4.682
 4582SOL     OW14644   4.898   6.687   3.310
 4582SOL    HW114645   4.898   6.740   3.394
 4582SOL    HW214646   4.863   6.743   3.235
 4583SOL     OW14647   3.419   6.906   5.655
 4583SOL    HW114648   3.500   6.876   5.705
 4583SOL    HW214649   3.442   6.981   5.594
 4584SOL     OW14650   6.955   5.525   5.542
 4584SOL    HW114651   6.907   5.482   5.619
 4584SOL    HW214652   0.022   5.483   5.530
 4585SOL     OW14653   2.979   6.490   2.345
 4585SOL    HW114654   2.906   6.485   2.413
 4585SOL    HW214655   2.959   6.427   2.270
 4586SOL     OW14656   2.405   6.188   1.523
 4586SOL    HW114657   2.481   6.183   1.458
 4586SOL    HW214658   2.324   6.222   1.477
 4587SOL     OW14659   3.072   4.752   0.674
 4587SOL    HW114660   3.169   4.769   0.689
 4587SOL    HW214661   3.058   4.658   0.643
 4588SOL     OW14662   3.260   4.322   5.299
 4588SOL    HW114663   3.328   4.281   5.360
 4588SOL    HW214664   3.193   4.252   5.273
 4589SOL     OW14665   1.667   2.234   3.378
 4589SOL    HW114666   1.711   2.221   3.467
 4589SOL    HW214667   1.737   2.258   3.311
 4590SOL     OW14668   4.071   6.348   2.968
 4590SOL    HW114669   3.984   6.357   2.920
 4590SOL    HW214670   4.058   6.364   3.065
 4591SOL     OW14671   4.838   6.118   5.058
 4591SOL    HW114672   4.875   6.026   5.068
 4591SOL    HW214673   4.913   6.183   5.042
 4592SOL     OW14674   3.567   1.761   5.733
 4592SOL    HW114675   3.658   1.801   5.731
 4592SOL    HW214676   3.554   1.710   5.818
 4593SOL     OW14677   4.285   6.231   1.751
 4593SOL    HW114678   4.296   6.162   1.823
 4593SOL    HW214679   4.210   6.293   1.775
 4594SOL     OW14680   3.960   2.037   2.454
 4594SOL    HW114681   3.897   2.000   2.386
 4594SOL    HW214682   3.912   2.048   2.542
 4595SOL     OW14683   4.285   3.155   5.458
 4595SOL    HW114684   4.208   3.122   5.402
 4595SOL    HW214685   4.251   3.191   5.544
 4596SOL     OW14686   4.956   0.717   2.822
 4596SOL    HW114687   5.036   0.778   2.825
 4596SOL    HW214688   4.986   0.625   2.797
 4597SOL     OW14689   6.335   3.858   5.996
 4597SOL    HW114690   6.372   3.765   5.990
 4597SOL    HW214691   6.287   3.880   5.911
 4598SOL     OW14692   2.446   3.958   6.467
 4598SOL    HW114693   2.461   3.859   6.477
 4598SOL    HW214694   2.361   3.974   6.417
 4599SOL     OW14695   3.363   5.086   0.468
 4599SOL    HW114696   3.302   5.084   0.548
 4599SOL    HW214697   3.333   5.017   0.402
 4600SOL     OW14698   2.634   3.782   0.753
 4600SOL    HW114699   2.603   3.687   0.746
 4600SOL    HW214700   2.588   3.827   0.830
 4601SOL     OW14701   1.896   5.207   3.578
 4601SOL    HW114702   1.820   5.208   3.643
 4601SOL    HW214703   1.894   5.290   3.523
 4602SOL     OW14704   1.744   6.669   1.563
 4602SOL    HW114705   1.715   6.634   1.474
 4602SOL    HW214706   1.839   6.700   1.556
 4603SOL     OW14707   3.026   1.213   1.905
 4603SOL    HW114708   2.959   1.140   1.924
 4603SOL    HW214709   3.004   1.255   1.817
 4604SOL     OW14710   1.258   6.825   3.283
 4604SOL    HW114711   1.205   6.799   3.363
 4604SOL    HW214712   1.252   6.753   3.214
 4605SOL     OW14713   5.549   6.535   5.452
 4605SOL    HW114714   5.501   6.580   5.527
 4605SOL    HW214715   5.646   6.557   5.456
 4606SOL     OW14716   6.601   6.600   4.497
 4606SOL    HW114717   6.557   6.647   4.573
 4606SOL    HW214718   6.634   6.667   4.430
 4607SOL     OW14719   3.135   3.691   0.749
 4607SOL    HW114720   3.126   3.593   0.766
 4607SOL    HW214721   3.047   3.728   0.720
 4608SOL     OW14722   1.177   3.230   6.032
 4608SOL    HW114723   1.166   3.266   5.940
 4608SOL    HW214724   1.250   3.162   6.033
 4609SOL     OW14725   3.271   7.022   0.412
 4609SOL    HW114726   3.337   7.018   0.487
 4609SOL    HW214727   3.236   0.092   0.402
 4610SOL     OW14728   6.945   3.701   0.261
 4610SOL    HW114729   6.961   3.796   0.287
 4610SOL    HW214730   6.848   3.687   0.243
 4611SOL     OW14731   1.967   5.080   6.367
 4611SOL    HW114732   2.050   5.101   6.420
 4611SOL    HW214733   1.989   5.012   6.298
 4612SOL     OW14734   1.702   0.512   6.489
 4612SOL    HW114735   1.797   0.530   6.463
 4612SOL    HW214736   1.649   0.596   6.478
 4613SOL     OW14737   4.013   5.023   1.463
 4613SOL    HW114738   4.010   5.056   1.368
 4613SOL    HW214739   3.930   4.970   1.482
 4614SOL     OW14740   2.113   4.635   0.267
 4614SOL    HW114741   2.116   4.687   0.181
 4614SOL    HW214742   2.123   4.538   0.247
 4615SOL     OW14743   5.851   3.226   6.363
 4615SOL    HW114744   5.863   3.323   6.383
 4615SOL    HW214745   5.789   3.185   6.430
 4616SOL     OW14746   5.432   0.799   6.904
 4616SOL    HW114747   5.359   0.866   6.919
 4616SOL    HW214748   5.456   0.798   6.807
 4617SOL     OW14749   0.410   3.986   1.450
 4617SOL    HW114750   0.369   4.072   1.481
 4617SOL    HW214751   0.432   3.992   1.353
 4618SOL     OW14752   1.099   3.327   6.597
 4618SOL    HW114753   1.105   3.412   6.545
 4618SOL    HW214754   1.191   3.291   6.612
 4619SOL     OW14755   3.999   0.908   3.955
 4619SOL    HW114756   4.065   0.903   4.030
 4619SOL    HW214757   3.973   1.004   3.940
 4620SOL     OW14758   1.732   5.939   0.332
 4620SOL    HW114759   1.728   6.037   0.350
 4620SOL    HW214760   1.812   5.919   0.276
 4621SOL     OW14761   6.595   0.433   6.724
 4621SOL    HW114762   6.540   0.429   6.807
 4621SOL    HW214763   6.686   0.395   6.742
 4622SOL     OW14764   1.585   4.416   0.369
 4622SOL    HW114765   1.654   4.465   0.314
 4622SOL    HW214766   1.618   4.324   0.390
 4623SOL     OW14767   5.379   3.568   3.767
 4623SOL    HW114768   5.329   3.648   3.733
 4623SOL    HW214769   5.350   3.549   3.861
 4624SOL     OW14770   4.433   6.382   6.288
 4624SOL    HW114771   4.339   6.391   6.324
 4624SOL    HW214772   4.497   6.384   6.365
 4625SOL     OW14773   1.356   4.165   6.508
 4625SOL    HW114774   1.273   4.185   6.455
 4625SOL    HW214775   1.345   4.077   6.554
 4626SOL     OW14776   6.172   4.357   2.188
 4626SOL    HW114777   6.229   4.409   2.124
 4626SOL    HW214778   6.190   4.387   2.281
 4627SOL     OW14779   2.156   0.020   4.788
 4627SOL    HW114780   2.092   6.970   4.762
 4627SOL    HW214781   2.198   0.060   4.707
 4628SOL     OW14782   6.750   2.680   1.990
 4628SOL    HW114783   6.833   2.691   2.045
 4628SOL    HW214784   6.700   2.767   1.988
 4629SOL     OW14785   4.020   5.158   4.197
 4629SOL    HW114786   3.986   5.192   4.109
 4629SOL    HW214787   3.983   5.067   4.214
 4630SOL     OW14788   2.676   6.120   2.488
 4630SOL    HW114789   2.627   6.148   2.406
 4630SOL    HW214790   2.625   6.149   2.569
 4631SOL     OW14791   1.856   1.214   2.662
 4631SOL    HW114792   1.954   1.226   2.647
 4631SOL    HW214793   1.805   1.278   2.605
 4632SOL     OW14794   5.545   5.953   3.705
 4632SOL    HW114795   5.557   5.926   3.800
 4632SOL    HW214796   5.572   5.878   3.644
 4633SOL     OW14797   5.261   2.798   6.044
 4633SOL    HW114798   5.299   2.706   6.057
 4633SOL    HW214799   5.191   2.815   6.113
 4634SOL     OW14800   2.651   4.183   0.352
 4634SOL    HW114801   2.664   4.086   0.375
 4634SOL    HW214802   2.624   4.191   0.257
 4635SOL     OW14803   4.921   3.411   1.537
 4635SOL    HW114804   4.896   3.377   1.627
 4635SOL    HW214805   4.838   3.421   1.481
 4636SOL     OW14806   0.731   4.891   2.066
 4636SOL    HW114807   0.826   4.905   2.035
 4636SOL    HW214808   0.670   4.944   2.007
 4637SOL     OW14809   0.786   0.960   5.826
 4637SOL    HW114810   0.832   0.933   5.742
 4637SOL    HW214811   0.736   0.882   5.863
 4638SOL     OW14812   4.289   4.882   5.847
 4638SOL    HW114813   4.330   4.794   5.823
 4638SOL    HW214814   4.207   4.897   5.792
 4639SOL     OW14815   6.752   2.172   5.258
 4639SOL    HW114816   6.688   2.102   5.289
 4639SOL    HW214817   6.816   2.132   5.193
 4640SOL     OW14818   6.391   5.023   2.779
 4640SOL    HW114819   6.417   5.106   2.731
 4640SOL    HW214820   6.384   5.041   2.877
 4641SOL     OW14821   2.390   3.759   5.277
 4641SOL    HW114822   2.296   3.723   5.275
 4641SOL    HW214823   2.390   3.852   5.240
 4642SOL     OW14824   5.720   5.648   4.207
 4642SOL    HW114825   5.637   5.686   4.165
 4642SOL    HW214826   5.767   5.590   4.140
 4643SOL     OW14827   4.587   3.482   1.245
 4643SOL    HW114828   4.671   3.489   1.192
 4643SOL    HW214829   4.601   3.416   1.320
 4644SOL     OW14830   3.479   4.938   5.603
 4644SOL    HW114831   3.535   5.018   5.624
 4644SOL    HW214832   3.416   4.959   5.529
 4645SOL     OW14833   1.707   6.446   4.644
 4645SOL    HW114834   1.796   6.455   4.598
 4645SOL    HW214835   1.669   6.356   4.624
 4646SOL     OW14836   3.293   0.774   1.005
 4646SOL    HW114837   3.359   0.769   0.930
 4646SOL    HW214838   3.299   0.864   1.049
 4647SOL     OW14839   6.695   0.423   5.176
 4647SOL    HW114840   6.711   0.467   5.264
 4647SOL    HW214841   6.690   0.324   5.189
 4648SOL     OW14842   2.326   6.202   3.477
 4648SOL    HW114843   2.297   6.175   3.569
 4648SOL    HW214844   2.426   6.213   3.475
 4649SOL     OW14845   6.031   5.537   5.649
 4649SOL    HW114846   6.100   5.470   5.676
 4649SOL    HW214847   6.003   5.520   5.554
 4650SOL     OW14848   6.437   4.856   1.251
 4650SOL    HW114849   6.357   4.863   1.310
 4650SOL    HW214850   6.519   4.843   1.308
 4651SOL     OW14851   5.920   2.195   2.112
 4651SOL    HW114852   5.952   2.233   2.025
 4651SOL    HW214853   5.830   2.234   2.134
 4652SOL     OW14854   0.286   6.388   5.342
 4652SOL    HW114855   0.296   6.293   5.313
 4652SOL    HW214856   0.372   6.421   5.381
 4653SOL     OW14857   1.363   4.924   0.163
 4653SOL    HW114858   1.361   4.946   0.065
 4653SOL    HW214859   1.324   4.834   0.178
 4654SOL     OW14860   1.457   1.970   0.211
 4654SOL    HW114861   1.403   1.903   0.159
 4654SOL    HW214862   1.537   1.924   0.251
 4655SOL     OW14863   0.805   4.885   3.963
 4655SOL    HW114864   0.706   4.892   3.972
 4655SOL    HW214865   0.831   4.891   3.866
 4656SOL     OW14866   2.707   0.205   3.014
 4656SOL    HW114867   2.627   0.266   3.009
 4656SOL    HW214868   2.748   0.197   2.923
 4657SOL     OW14869   6.492   0.702   5.900
 4657SOL    HW114870   6.507   0.780   5.960
 4657SOL    HW214871   6.467   0.622   5.955
 4658SOL     OW14872   5.436   0.129   3.472
 4658SOL    HW114873   5.522   0.158   3.514
 4658SOL    HW214874   5.361   0.183   3.509
 4659SOL     OW14875   2.048   3.398   4.662
 4659SOL    HW114876   2.104   3.316   4.671
 4659SOL    HW214877   2.097   3.476   4.700
 4660SOL     OW14878   6.749   1.303   5.201
 4660SOL    HW114879   6.743   1.401   5.218
 4660SOL    HW214880   6.791   1.287   5.111
 4661SOL     OW14881   3.845   2.993   3.819
 4661SOL    HW114882   3.935   2.990   3.776
 4661SOL    HW214883   3.783   2.932   3.772
 4662SOL     OW14884   6.376   6.465   4.240
 4662SOL    HW114885   6.474   6.453   4.230
 4662SOL    HW214886   6.342   6.527   4.170
 4663SOL     OW14887   0.558   2.476   2.565
 4663SOL    HW114888   0.654   2.466   2.540
 4663SOL    HW214889   0.544   2.439   2.657
 4664SOL     OW14890   3.691   4.219   0.120
 4664SOL    HW114891   3.648   4.176   0.040
 4664SOL    HW214892   3.709   4.315   0.100
 4665SOL     OW14893   5.777   0.294   5.806
 4665SOL    HW114894   5.797   0.384   5.770
 4665SOL    HW214895   5.740   0.236   5.734
 4666SOL     OW14896   1.894   1.092   0.415
 4666SOL    HW114897   1.851   1.139   0.338
 4666SOL    HW214898   1.993   1.087   0.400
 4667SOL     OW14899   0.276   6.059   3.855
 4667SOL    HW114900   0.223   5.986   3.899
 4667SOL    HW214901   0.272   6.047   3.756
 4668SOL     OW14902   5.415   0.815   4.867
 4668SOL    HW114903   5.369   0.861   4.943
 4668SOL    HW214904   5.460   0.884   4.809
 4669SOL     OW14905   2.284   1.726   2.442
 4669SOL    HW114906   2.200   1.773   2.414
 4669SOL    HW214907   2.363   1.780   2.414
 4670SOL     OW14908   2.271   1.747   4.616
 4670SOL    HW114909   2.207   1.698   4.556
 4670SOL    HW214910   2.225   1.825   4.658
 4671SOL     OW14911   6.126   1.811   2.871
 4671SOL    HW114912   6.187   1.891   2.877
 4671SOL    HW214913   6.035   1.841   2.844
 4672SOL     OW14914   2.891   2.128   4.942
 4672SOL    HW114915   2.857   2.035   4.925
 4672SOL    HW214916   2.974   2.124   4.996
 4673SOL     OW14917   5.410   0.451   2.080
 4673SOL    HW114918   5.331   0.392   2.100
 4673SOL    HW214919   5.386   0.546   2.099
 4674SOL     OW14920   4.809   6.386   5.399
 4674SOL    HW114921   4.745   6.422   5.332
 4674SOL    HW214922   4.895   6.361   5.354
 4675SOL     OW14923   0.701   4.477   6.796
 4675SOL    HW114924   0.741   4.477   6.704
 4675SOL    HW214925   0.770   4.450   6.863
 4676SOL     OW14926   1.227   4.585   3.798
 4676SOL    HW114927   1.203   4.617   3.706
 4676SOL    HW214928   1.147   4.541   3.839
 4677SOL     OW14929   1.334   3.568   0.657
 4677SOL    HW114930   1.315   3.493   0.594
 4677SOL    HW214931   1.433   3.573   0.673
 4678SOL     OW14932   1.185   2.978   1.324
 4678SOL    HW114933   1.210   3.049   1.258
 4678SOL    HW214934   1.094   2.997   1.360
 4679SOL     OW14935   4.569   0.558   2.618
 4679SOL    HW114936   4.498   0.607   2.669
 4679SOL    HW214937   4.532   0.528   2.530
 4680SOL     OW14938   2.574   0.876   6.525
 4680SOL    HW114939   2.561   0.968   6.562
 4680SOL    HW214940   2.531   0.809   6.586
 4681SOL     OW14941   4.566   5.883   2.399
 4681SOL    HW114942   4.632   5.845   2.464
 4681SOL    HW214943   4.579   5.840   2.309
 4682SOL     OW14944   3.625   3.273   6.140
 4682SOL    HW114945   3.575   3.221   6.071
 4682SOL    HW214946   3.562   3.302   6.212
 4683SOL     OW14947   6.522   4.255   4.258
 4683SOL    HW114948   6.617   4.253   4.289
 4683SOL    HW214949   6.497   4.166   4.221
 4684SOL     OW14950   5.664   0.137   5.584
 4684SOL    HW114951   5.568   0.133   5.557
 4684SOL    HW214952   5.707   0.048   5.570
 4685SOL     OW14953   3.154   4.069   4.416
 4685SOL    HW114954   3.231   4.125   4.384
 4685SOL    HW214955   3.155   4.064   4.516
 4686SOL     OW14956   1.269   0.003   6.942
 4686SOL    HW114957   1.230   7.003   0.008
 4686SOL    HW214958   1.231   6.964   6.872
 4687SOL     OW14959   1.580   0.539   2.593
 4687SOL    HW114960   1.499   0.591   2.568
 4687SOL    HW214961   1.556   0.442   2.601
 4688SOL     OW14962   4.640   2.774   4.811
 4688SOL    HW114963   4.557   2.824   4.834
 4688SOL    HW214964   4.660   2.707   4.883
 4689SOL     OW14965   6.892   0.466   1.021
 4689SOL    HW114966   6.927   0.437   1.110
 4689SOL    HW214967   6.966   0.508   0.968
 4690SOL     OW14968   3.661   2.684   1.334
 4690SOL    HW114969   3.650   2.780   1.311
 4690SOL    HW214970   3.748   2.670   1.382
 4691SOL     OW14971   6.435   3.543   2.007
 4691SOL    HW114972   6.463   3.620   2.064
 4691SOL    HW214973   6.339   3.521   2.024
 4692SOL     OW14974   5.408   2.892   2.729
 4692SOL    HW114975   5.422   2.851   2.639
 4692SOL    HW214976   5.494   2.892   2.779
 4693SOL     OW14977   0.216   0.200   3.711
 4693SOL    HW114978   0.250   0.292   3.728
 4693SOL    HW214979   0.288   0.133   3.730
 4694SOL     OW14980   2.268   6.803   6.001
 4694SOL    HW114981   2.293   6.714   5.960
 4694SOL    HW214982   2.326   6.874   5.962
 4695SOL     OW14983   2.136   4.808   2.006
 4695SOL    HW114984   2.232   4.824   2.030
 4695SOL    HW214985   2.127   4.719   1.962
 4696SOL     OW14986   1.964   6.435   6.307
 4696SOL    HW114987   2.049   6.394   6.273
 4696SOL    HW214988   1.987   6.505   6.375
 4697SOL     OW14989   4.768   5.652   1.169
 4697SOL    HW114990   4.696   5.693   1.226
 4697SOL    HW214991   4.756   5.553   1.166
 4698SOL     OW14992   5.213   1.294   4.506
 4698SOL    HW114993   5.157   1.342   4.574
 4698SOL    HW214994   5.214   1.347   4.421
 4699SOL     OW14995   0.779   1.530   2.631
 4699SOL    HW114996   0.861   1.586   2.622
 4699SOL    HW214997   0.804   1.440   2.667
 4700SOL     OW14998   6.725   1.946   3.239
 4700SOL    HW114999   6.802   1.935   3.302
 4700SOL    HW215000   6.640   1.949   3.291
 4701SOL     OW15001   3.025   2.618   1.745
 4701SOL    HW115002   2.998   2.540   1.803
 4701SOL    HW215003   2.955   2.689   1.750
 4702SOL     OW15004   6.438   5.014   1.023
 4702SOL    HW115005   6.338   5.022   1.020
 4702SOL    HW215006   6.463   4.932   1.074
 4703SOL     OW15007   0.316   4.995   3.710
 4703SOL    HW115008   0.295   4.987   3.612
 4703SOL    HW215009   0.303   5.090   3.739
 4704SOL     OW15010   1.743   4.673   4.640
 4704SOL    HW115011   1.666   4.737   4.640
 4704SOL    HW215012   1.765   4.647   4.733
 4705SOL     OW15013   3.362   1.933   2.040
 4705SOL    HW115014   3.268   1.908   2.019
 4705SOL    HW215015   3.406   1.972   1.959
 4706SOL     OW15016   1.790   1.887   0.773
 4706SOL    HW115017   1.706   1.834   0.776
 4706SOL    HW215018   1.768   1.985   0.766
 4707SOL     OW15019   1.770   5.329   2.051
 4707SOL    HW115020   1.854   5.365   2.093
 4707SOL    HW215021   1.757   5.370   1.961
 4708SOL     OW15022   2.108   2.871   6.340
 4708SOL    HW115023   2.105   2.789   6.397
 4708SOL    HW215024   2.189   2.925   6.365
 4709SOL     OW15025   5.513   3.492   4.988
 4709SOL    HW115026   5.449   3.569   4.989
 4709SOL    HW215027   5.602   3.522   5.021
 4710SOL     OW15028   5.911   5.455   5.299
 4710SOL    HW115029   5.998   5.448   5.250
 4710SOL    HW215030   5.840   5.407   5.248
 4711SOL     OW15031   4.913   4.382   2.981
 4711SOL    HW115032   4.823   4.340   2.967
 4711SOL    HW215033   4.975   4.315   3.022
 4712SOL     OW15034   3.779   4.647   5.727
 4712SOL    HW115035   3.762   4.728   5.783
 4712SOL    HW215036   3.708   4.639   5.657
 4713SOL     OW15037   5.525   4.576   1.004
 4713SOL    HW115038   5.443   4.519   0.996
 4713SOL    HW215039   5.536   4.629   0.919
 4714SOL     OW15040   4.412   1.828   6.083
 4714SOL    HW115041   4.360   1.759   6.032
 4714SOL    HW215042   4.414   1.803   6.180
 4715SOL     OW15043   6.784   1.936   2.399
 4715SOL    HW115044   6.709   1.994   2.367
 4715SOL    HW215045   6.871   1.983   2.383
 4716SOL     OW15046   3.617   4.312   5.685
 4716SOL    HW115047   3.555   4.389   5.698
 4716SOL    HW215048   3.689   4.316   5.755
 4717SOL     OW15049   1.978   4.908   5.893
 4717SOL    HW115050   1.974   4.987   5.831
 4717SOL    HW215051   1.885   4.881   5.917
 4718SOL     OW15052   4.969   3.857   2.388
 4718SOL    HW115053   4.967   3.817   2.296
 4718SOL    HW215054   4.959   3.956   2.381
 4719SOL     OW15055   6.015   3.798   4.056
 4719SOL    HW115056   5.916   3.808   4.065
 4719SOL    HW215057   6.038   3.775   3.962
 4720SOL     OW15058   1.198   2.078   6.440
 4720SOL    HW115059   1.189   1.984   6.405
 4720SOL    HW215060   1.128   2.135   6.399
 4721SOL     OW15061   0.343   2.818   2.708
 4721SOL    HW115062   0.378   2.836   2.799
 4721SOL    HW215063   0.308   2.903   2.668
 4722SOL     OW15064   1.441   5.468   5.848
 4722SOL    HW115065   1.513   5.523   5.804
 4722SOL    HW215066   1.395   5.524   5.917
 4723SOL     OW15067   2.766   4.618   6.144
 4723SOL    HW115068   2.714   4.696   6.111
 4723SOL    HW215069   2.750   4.539   6.084
 4724SOL     OW15070   0.134   6.973   4.150
 4724SOL    HW115071   0.048   7.011   4.115
 4724SOL    HW215072   0.114   6.905   4.220
 4725SOL     OW15073   6.320   5.071   1.435
 4725SOL    HW115074   6.220   5.074   1.438
 4725SOL    HW215075   6.353   5.128   1.359
 4726SOL     OW15076   1.765   2.789   5.878
 4726SOL    HW115077   1.760   2.703   5.928
 4726SOL    HW215078   1.839   2.786   5.812
 4727SOL     OW15079   6.211   5.533   1.576
 4727SOL    HW115080   6.119   5.495   1.562
 4727SOL    HW215081   6.218   5.621   1.529
 4728SOL     OW15082   4.941   0.499   3.379
 4728SOL    HW115083   4.904   0.576   3.327
 4728SOL    HW215084   4.979   0.532   3.466
 4729SOL     OW15085   0.252   1.118   2.780
 4729SOL    HW115086   0.240   1.142   2.877
 4729SOL    HW215087   0.175   1.062   2.750
 4730SOL     OW15088   3.135   0.641   3.771
 4730SOL    HW115089   3.063   0.697   3.812
 4730SOL    HW215090   3.129   0.644   3.672
 4731SOL     OW15091   3.279   6.822   2.041
 4731SOL    HW115092   3.183   6.843   2.059
 4731SOL    HW215093   3.338   6.887   2.090
 4732SOL     OW15094   0.312   4.947   4.676
 4732SOL    HW115095   0.409   4.941   4.653
 4732SOL    HW215096   0.298   4.916   4.770
 4733SOL     OW15097   1.834   4.041   3.155
 4733SOL    HW115098   1.736   4.027   3.168
 4733SOL    HW215099   1.873   3.961   3.109
 4734SOL     OW15100   4.801   4.110   6.308
 4734SOL    HW115101   4.793   4.133   6.405
 4734SOL    HW215102   4.841   4.188   6.259
 4735SOL     OW15103   6.752   0.551   5.408
 4735SOL    HW115104   6.798   0.517   5.490
 4735SOL    HW215105   6.766   0.649   5.400
 4736SOL     OW15106   6.437   0.574   4.646
 4736SOL    HW115107   6.525   0.611   4.674
 4736SOL    HW215108   6.392   0.533   4.726
 4737SOL     OW15109   2.335   5.112   0.035
 4737SOL    HW115110   2.422   5.142   7.017
 4737SOL    HW215111   2.352   5.035   0.095
 4738SOL     OW15112   0.287   5.313   3.423
 4738SOL    HW115113   0.310   5.249   3.350
 4738SOL    HW215114   0.191   5.341   3.414
 4739SOL     OW15115   5.771   3.610   3.437
 4739SOL    HW115116   5.682   3.576   3.408
 4739SOL    HW215117   5.761   3.658   3.524
 4740SOL     OW15118   2.173   6.495   0.969
 4740SOL    HW115119   2.211   6.570   1.023
 4740SOL    HW215120   2.114   6.532   0.898
 4741SOL     OW15121   5.752   4.501   1.830
 4741SOL    HW115122   5.836   4.543   1.798
 4741SOL    HW215123   5.716   4.439   1.760
 4742SOL     OW15124   1.998   5.517   2.098
 4742SOL    HW115125   1.975   5.608   2.134
 4742SOL    HW215126   2.050   5.527   2.013
 4743SOL     OW15127   2.640   3.921   0.473
 4743SOL    HW115128   2.590   3.858   0.414
 4743SOL    HW215129   2.634   3.890   0.567
 4744SOL     OW15130   2.940   1.570   5.891
 4744SOL    HW115131   2.841   1.578   5.901
 4744SOL    HW215132   2.984   1.589   5.979
 4745SOL     OW15133   4.542   5.659   4.266
 4745SOL    HW115134   4.534   5.743   4.320
 4745SOL    HW215135   4.451   5.621   4.251
 4746SOL     OW15136   5.696   1.126   0.907
 4746SOL    HW115137   5.709   1.027   0.911
 4746SOL    HW215138   5.612   1.150   0.955
 4747SOL     OW15139   1.008   2.693   2.531
 4747SOL    HW115140   0.940   2.622   2.511
 4747SOL    HW215141   1.079   2.692   2.461
 4748SOL     OW15142   2.230   6.450   0.326
 4748SOL    HW115143   2.167   6.407   0.261
 4748SOL    HW215144   2.180   6.511   0.386
 4749SOL     OW15145   3.364   0.882   6.680
 4749SOL    HW115146   3.394   0.932   6.599
 4749SOL    HW215147   3.275   0.839   6.662
 4750SOL     OW15148   0.633   2.057   5.001
 4750SOL    HW115149   0.684   2.131   5.045
 4750SOL    HW215150   0.615   1.985   5.068
 4751SOL     OW15151   1.497   4.388   6.832
 4751SOL    HW115152   1.437   4.451   6.782
 4751SOL    HW215153   1.443   4.335   6.897
 4752SOL     OW15154   2.160   5.997   1.385
 4752SOL    HW115155   2.161   6.095   1.368
 4752SOL    HW215156   2.088   5.954   1.330
 4753SOL     OW15157   0.135   0.782   6.264
 4753SOL    HW115158   0.226   0.740   6.259
 4753SOL    HW215159   0.070   0.729   6.210
 4754SOL     OW15160   1.435   1.379   6.301
 4754SOL    HW115161   1.372   1.353   6.374
 4754SOL    HW215162   1.433   1.479   6.289
 4755SOL     OW15163   3.067   0.005   2.922
 4755SOL    HW115164   3.078   6.956   2.853
 4755SOL    HW215165   3.039   0.090   2.879
 4756SOL     OW15166   5.829   2.385   1.298
 4756SOL    HW115167   5.884   2.303   1.282
 4756SOL    HW215168   5.734   2.366   1.276
 4757SOL     OW15169   2.687   2.855   0.574
 4757SOL    HW115170   2.757   2.794   0.537
 4757SOL    HW215171   2.617   2.801   0.621
 4758SOL     OW15172   5.998   3.925   6.520
 4758SOL    HW115173   6.024   4.004   6.464
 4758SOL    HW215174   6.064   3.851   6.505
 4759SOL     OW15175   0.080   4.371   6.508
 4759SOL    HW115176   0.100   4.279   6.475
 4759SOL    HW215177   7.016   4.402   6.469
 4760SOL     OW15178   1.104   2.520   0.367
 4760SOL    HW115179   1.102   2.619   0.377
 4760SOL    HW215180   1.167   2.494   0.294
 4761SOL     OW15181   2.698   6.203   6.548
 4761SOL    HW115182   2.704   6.259   6.466
 4761SOL    HW215183   2.734   6.254   6.626
 4762SOL     OW15184   3.745   0.193   2.505
 4762SOL    HW115185   3.749   0.136   2.588
 4762SOL    HW215186   3.749   0.134   2.425
 4763SOL     OW15187   4.889   4.855   5.001
 4763SOL    HW115188   4.983   4.870   5.032
 4763SOL    HW215189   4.842   4.943   4.996
 4764SOL     OW15190   3.669   3.673   3.792
 4764SOL    HW115191   3.678   3.650   3.694
 4764SOL    HW215192   3.725   3.753   3.812
 4765SOL     OW15193   5.828   5.692   6.315
 4765SOL    HW115194   5.731   5.707   6.333
 4765SOL    HW215195   5.881   5.767   6.355
 4766SOL     OW15196   3.027   1.472   3.342
 4766SOL    HW115197   2.978   1.510   3.421
 4766SOL    HW215198   3.037   1.373   3.354
 4767SOL     OW15199   4.379   0.932   0.007
 4767SOL    HW115200   4.370   0.889   6.940
 4767SOL    HW215201   4.359   0.865   0.079
 4768SOL     OW15202   1.685   0.627   5.502
 4768SOL    HW115203   1.767   0.627   5.445
 4768SOL    HW215204   1.651   0.720   5.513
 4769SOL     OW15205   4.709   0.767   1.812
 4769SOL    HW115206   4.748   0.809   1.730
 4769SOL    HW215207   4.696   0.669   1.797
 4770SOL     OW15208   2.184   1.067   4.042
 4770SOL    HW115209   2.125   1.097   3.967
 4770SOL    HW215210   2.278   1.061   4.010
 4771SOL     OW15211   3.832   4.344   5.799
 4771SOL    HW115212   3.816   4.312   5.893
 4771SOL    HW215213   3.876   4.434   5.802
 4772SOL     OW15214   3.144   2.688   0.151
 4772SOL    HW115215   3.049   2.718   0.161
 4772SOL    HW215216   3.146   2.596   0.112
 4773SOL     OW15217   6.782   5.060   5.219
 4773SOL    HW115218   6.871   5.016   5.224
 4773SOL    HW215219   6.775   5.129   5.291
 4774SOL     OW15220   1.647   4.635   6.960
 4774SOL    HW115221   1.643   4.704   6.888
 4774SOL    HW215222   1.554   4.612   6.989
 4775SOL     OW15223   1.980   2.754   2.303
 4775SOL    HW115224   2.031   2.706   2.375
 4775SOL    HW215225   1.953   2.844   2.335
 4776SOL     OW15226   4.239   5.126   1.842
 4776SOL    HW115227   4.182   5.165   1.770
 4776SOL    HW215228   4.319   5.082   1.800
 4777SOL     OW15229   2.470   4.248   1.548
 4777SOL    HW115230   2.506   4.313   1.615
 4777SOL    HW215231   2.515   4.262   1.460
 4778SOL     OW15232   5.341   3.407   2.681
 4778SOL    HW115233   5.299   3.318   2.666
 4778SOL    HW215234   5.385   3.438   2.597
 4779SOL     OW15235   5.302   1.129   2.947
 4779SOL    HW115236   5.318   1.133   3.046
 4779SOL    HW215237   5.295   1.034   2.918
 4780SOL     OW15238   1.933   1.439   5.802
 4780SOL    HW115239   1.908   1.405   5.711
 4780SOL    HW215240   1.850   1.458   5.854
 4781SOL     OW15241   2.198   5.643   3.038
 4781SOL    HW115242   2.292   5.632   3.070
 4781SOL    HW215243   2.192   5.615   2.942
 4782SOL     OW15244   6.117   6.387   6.918
 4782SOL    HW115245   6.211   6.359   6.938
 4782SOL    HW215246   6.091   6.355   6.827
 4783SOL     OW15247   5.846   3.901   2.783
 4783SOL    HW115248   5.873   3.966   2.712
 4783SOL    HW215249   5.774   3.942   2.839
 4784SOL     OW15250   5.541   4.628   5.193
 4784SOL    HW115251   5.617   4.588   5.141
 4784SOL    HW215252   5.576   4.663   5.280
 4785SOL     OW15253   5.627   6.455   0.807
 4785SOL    HW115254   5.569   6.439   0.886
 4785SOL    HW215255   5.639   6.369   0.756
 4786SOL     OW15256   1.243   3.896   2.488
 4786SOL    HW115257   1.334   3.918   2.524
 4786SOL    HW215258   1.250   3.871   2.392
 4787SOL     OW15259   3.907   2.108   3.131
 4787SOL    HW115260   3.887   2.017   3.166
 4787SOL    HW215261   4.007   2.120   3.125
 4788SOL     OW15262   2.301   0.418   4.645
 4788SOL    HW115263   2.393   0.456   4.633
 4788SOL    HW215264   2.234   0.483   4.610
 4789SOL     OW15265   5.063   6.101   7.010
 4789SOL    HW115266   5.093   6.077   0.079
 4789SOL    HW215267   5.028   6.195   7.009
 4790SOL     OW15268   5.102   0.015   6.657
 4790SOL    HW115269   5.127   6.964   6.595
 4790SOL    HW215270   5.140   7.020   6.747
 4791SOL     OW15271   4.327   2.410   3.371
 4791SOL    HW115272   4.384   2.490   3.391
 4791SOL    HW215273   4.301   2.411   3.275
 4792SOL     OW15274   3.097   3.433   0.805
 4792SOL    HW115275   3.074   3.412   0.900
 4792SOL    HW215276   3.142   3.355   0.763
 4793SOL     OW15277   0.384   0.649   0.175
 4793SOL    HW115278   0.447   0.725   0.192
 4793SOL    HW215279   0.344   0.620   0.263
 4794SOL     OW15280   5.468   1.303   1.911
 4794SOL    HW115281   5.529   1.345   1.978
 4794SOL    HW215282   5.488   1.341   1.820
 4795SOL     OW15283   5.934   2.857   4.159
 4795SOL    HW115284   5.985   2.881   4.077
 4795SOL    HW215285   5.932   2.936   4.221
 4796SOL     OW15286   5.113   3.778   0.381
 4796SOL    HW115287   5.213   3.775   0.374
 4796SOL    HW215288   5.075   3.823   0.300
 4797SOL     OW15289   1.324   5.842   4.655
 4797SOL    HW115290   1.311   5.941   4.643
 4797SOL    HW215291   1.387   5.825   4.731
 4798SOL     OW15292   6.916   5.242   5.959
 4798SOL    HW115293   6.984   5.192   6.012
 4798SOL    HW215294   6.845   5.277   6.020
 4799SOL     OW15295   5.112   1.557   3.948
 4799SOL    HW115296   5.114   1.488   4.020
 4799SOL    HW215297   5.020   1.561   3.909
 4800SOL     OW15298   1.654   2.712   3.508
 4800SOL    HW115299   1.571   2.696   3.561
 4800SOL    HW215300   1.701   2.794   3.542
 4801SOL     OW15301   0.048   2.238   0.477
 4801SOL    HW115302   6.985   2.288   0.461
 4801SOL    HW215303   0.030   2.139   0.474
 4802SOL     OW15304   1.663   0.216   2.031
 4802SOL    HW115305   1.705   0.298   1.991
 4802SOL    HW215306   1.701   0.200   2.122
 4803SOL     OW15307   1.094   0.063   0.795
 4803SOL    HW115308   1.062   0.148   0.836
 4803SOL    HW215309   1.061   7.008   0.849
 4804SOL     OW15310   4.540   5.734   0.674
 4804SOL    HW115311   4.584   5.824   0.676
 4804SOL    HW215312   4.610   5.663   0.660
 4805SOL     OW15313   0.372   0.174   1.737
 4805SOL    HW115314   0.312   0.248   1.769
 4805SOL    HW215315   0.317   0.092   1.718
 4806SOL     OW15316   0.088   2.368   3.847
 4806SOL    HW115317   0.061   2.283   3.801
 4806SOL    HW215318   0.183   2.359   3.879
 4807SOL     OW15319   1.048   0.331   2.692
 4807SOL    HW115320   1.096   0.296   2.773
 4807SOL    HW215321   1.055   0.264   2.618
 4808SOL     OW15322   6.735   2.398   0.371
 4808SOL    HW115323   6.656   2.371   0.425
 4808SOL    HW215324   6.708   2.464   0.301
 4809SOL     OW15325   4.615   0.006   0.520
 4809SOL    HW115326   4.694   0.067   0.531
 4809SOL    HW215327   4.548   0.049   0.460
 4810SOL     OW15328   2.019   6.266   6.947
 4810SOL    HW115329   2.001   6.181   6.897
 4810SOL    HW215330   1.939   6.326   6.942
 4811SOL     OW15331   5.183   4.057   4.166
 4811SOL    HW115332   5.198   3.976   4.109
 4811SOL    HW215333   5.206   4.036   4.261
 4812SOL     OW15334   6.495   5.129   4.173
 4812SOL    HW115335   6.465   5.176   4.090
 4812SOL    HW215336   6.421   5.129   4.240
 4813SOL     OW15337   5.663   3.437   2.956
 4813SOL    HW115338   5.621   3.350   2.932
 4813SOL    HW215339   5.688   3.437   3.053
 4814SOL     OW15340   0.100   2.966   1.431
 4814SOL    HW115341   0.184   2.936   1.386
 4814SOL    HW215342   0.022   2.913   1.395
 4815SOL     OW15343   4.787   0.380   3.584
 4815SOL    HW115344   4.692   0.395   3.610
 4815SOL    HW215345   4.809   0.435   3.503
 4816SOL     OW15346   5.817   4.229   4.003
 4816SOL    HW115347   5.757   4.154   4.031
 4816SOL    HW215348   5.796   4.255   3.909
 4817SOL     OW15349   6.107   1.675   6.781
 4817SOL    HW115350   6.084   1.771   6.798
 4817SOL    HW215351   6.141   1.634   6.866
 4818SOL     OW15352   6.777   5.946   3.450
 4818SOL    HW115353   6.726   5.860   3.460
 4818SOL    HW215354   6.842   5.956   3.525
 4819SOL     OW15355   1.925   3.230   0.611
 4819SOL    HW115356   1.875   3.208   0.527
 4819SOL    HW215357   1.909   3.157   0.679
 4820SOL     OW15358   6.669   3.815   1.950
 4820SOL    HW115359   6.616   3.811   2.034
 4820SOL    HW215360   6.765   3.833   1.971
 4821SOL     OW15361   0.679   5.549   3.960
 4821SOL    HW115362   0.756   5.520   4.015
 4821SOL    HW215363   0.696   5.527   3.864
 4822SOL     OW15364   2.650   4.662   4.336
 4822SOL    HW115365   2.745   4.694   4.339
 4822SOL    HW215366   2.639   4.598   4.260
 4823SOL     OW15367   1.286   2.232   0.437
 4823SOL    HW115368   1.313   2.190   0.350
 4823SOL    HW215369   1.187   2.245   0.438
 4824SOL     OW15370   6.711   2.150   6.724
 4824SOL    HW115371   6.617   2.133   6.752
 4824SOL    HW215372   6.759   2.064   6.710
 4825SOL     OW15373   1.070   6.483   3.679
 4825SOL    HW115374   1.063   6.439   3.589
 4825SOL    HW215375   0.978   6.509   3.710
 4826SOL     OW15376   4.170   6.795   0.356
 4826SOL    HW115377   4.250   6.737   0.336
 4826SOL    HW215378   4.107   6.745   0.415
 4827SOL     OW15379   5.996   1.309   1.449
 4827SOL    HW115380   6.070   1.365   1.411
 4827SOL    HW215381   5.951   1.361   1.522
 4828SOL     OW15382   5.205   1.106   6.421
 4828SOL    HW115383   5.167   1.113   6.513
 4828SOL    HW215384   5.263   1.185   6.402
 4829SOL     OW15385   4.466   5.804   5.064
 4829SOL    HW115386   4.507   5.887   5.103
 4829SOL    HW215387   4.420   5.752   5.135
 4830SOL     OW15388   1.921   6.742   3.432
 4830SOL    HW115389   1.859   6.782   3.499
 4830SOL    HW215390   1.916   6.794   3.346
 4831SOL     OW15391   3.185   4.796   5.514
 4831SOL    HW115392   3.161   4.739   5.435
 4831SOL    HW215393   3.240   4.873   5.484
 4832SOL     OW15394   4.054   3.307   4.355
 4832SOL    HW115395   3.982   3.376   4.361
 4832SOL    HW215396   4.022   3.223   4.399
 4833SOL     OW15397   5.722   2.393   5.175
 4833SOL    HW115398   5.811   2.378   5.132
 4833SOL    HW215399   5.728   2.373   5.273
 4834SOL     OW15400   0.674   5.034   0.961
 4834SOL    HW115401   0.768   5.012   0.985
 4834SOL    HW215402   0.672   5.121   0.910
 4835SOL     OW15403   6.743   3.485   6.259
 4835SOL    HW115404   6.841   3.498   6.279
 4835SOL    HW215405   6.702   3.574   6.238
 4836SOL     OW15406   4.540   1.069   5.735
 4836SOL    HW115407   4.573   1.136   5.669
 4836SOL    HW215408   4.614   1.008   5.760
 4837SOL     OW15409   1.336   3.523   4.777
 4837SOL    HW115410   1.364   3.607   4.823
 4837SOL    HW215411   1.405   3.452   4.793
 4838SOL     OW15412   2.241   4.292   5.838
 4838SOL    HW115413   2.191   4.234   5.902
 4838SOL    HW215414   2.315   4.240   5.796
 4839SOL     OW15415   2.570   1.106   2.098
 4839SOL    HW115416   2.513   1.044   2.152
 4839SOL    HW215417   2.554   1.090   2.001
 4840SOL     OW15418   4.732   2.456   3.525
 4840SOL    HW115419   4.767   2.452   3.432
 4840SOL    HW215420   4.654   2.394   3.534
 4841SOL     OW15421   2.783   5.481   2.901
 4841SOL    HW115422   2.795   5.390   2.942
 4841SOL    HW215423   2.872   5.525   2.891
 4842SOL     OW15424   4.454   5.155   3.465
 4842SOL    HW115425   4.507   5.237   3.445
 4842SOL    HW215426   4.372   5.154   3.408
 4843SOL     OW15427   5.464   2.435   0.166
 4843SOL    HW115428   5.524   2.447   0.087
 4843SOL    HW215429   5.370   2.456   0.140
 4844SOL     OW15430   0.808   5.145   6.706
 4844SOL    HW115431   0.742   5.103   6.643
 4844SOL    HW215432   0.759   5.188   6.781
 4845SOL     OW15433   5.408   3.937   5.094
 4845SOL    HW115434   5.312   3.931   5.069
 4845SOL    HW215435   5.460   3.978   5.018
 4846SOL     OW15436   6.480   4.347   4.680
 4846SOL    HW115437   6.382   4.361   4.695
 4846SOL    HW215438   6.518   4.426   4.631
 4847SOL     OW15439   2.926   0.116   0.047
 4847SOL    HW115440   2.905   0.122   6.972
 4847SOL    HW215441   2.876   0.039   0.087
 4848SOL     OW15442   4.633   1.235   3.902
 4848SOL    HW115443   4.653   1.137   3.899
 4848SOL    HW215444   4.668   1.274   3.987
 4849SOL     OW15445   1.500   5.416   1.822
 4849SOL    HW115446   1.537   5.481   1.889
 4849SOL    HW215447   1.504   5.324   1.859
 4850SOL     OW15448   3.500   0.240   2.249
 4850SOL    HW115449   3.571   0.263   2.183
 4850SOL    HW215450   3.522   0.282   2.337
 4851SOL     OW15451   4.848   4.384   6.801
 4851SOL    HW115452   4.770   4.438   6.835
 4851SOL    HW215453   4.922   4.446   6.775
 4852SOL     OW15454   4.975   3.977   5.499
 4852SOL    HW115455   4.939   4.030   5.422
 4852SOL    HW215456   5.033   3.904   5.464
 4853SOL     OW15457   4.022   0.639   3.102
 4853SOL    HW115458   4.014   0.737   3.118
 4853SOL    HW215459   3.941   0.593   3.138
 4854SOL     OW15460   4.218   6.842   2.510
 4854SOL    HW115461   4.274   6.798   2.440
 4854SOL    HW215462   4.151   6.777   2.546
 4855SOL     OW15463   4.212   5.126   5.615
 4855SOL    HW115464   4.252   5.111   5.525
 4855SOL    HW215465   4.279   5.102   5.686
 4856SOL     OW15466   1.180   2.615   2.256
 4856SOL    HW115467   1.194   2.541   2.322
 4856SOL    HW215468   1.082   2.638   2.251
 4857SOL     OW15469   2.718   1.978   5.884
 4857SOL    HW115470   2.784   1.961   5.811
 4857SOL    HW215471   2.635   1.925   5.867
 4858SOL     OW15472   1.946   4.898   4.878
 4858SOL    HW115473   1.974   4.838   4.953
 4858SOL    HW215474   2.026   4.941   4.837
 4859SOL     OW15475   6.483   5.619   3.330
 4859SOL    HW115476   6.466   5.538   3.387
 4859SOL    HW215477   6.400   5.640   3.277
 4860SOL     OW15478   4.236   5.319   1.057
 4860SOL    HW115479   4.302   5.281   1.123
 4860SOL    HW215480   4.236   5.419   1.064
 4861SOL     OW15481   6.124   4.921   4.696
 4861SOL    HW115482   6.109   4.944   4.600
 4861SOL    HW215483   6.107   4.824   4.711
 4862SOL     OW15484   1.587   5.732   4.454
 4862SOL    HW115485   1.683   5.719   4.430
 4862SOL    HW215486   1.545   5.795   4.388
 4863SOL     OW15487   5.777   1.510   1.598
 4863SOL    HW115488   5.789   1.592   1.653
 4863SOL    HW215489   5.698   1.458   1.632
 4864SOL     OW15490   2.378   2.884   1.687
 4864SOL    HW115491   2.303   2.938   1.726
 4864SOL    HW215492   2.342   2.817   1.623
 4865SOL     OW15493   3.844   6.549   5.141
 4865SOL    HW115494   3.767   6.613   5.132
 4865SOL    HW215495   3.929   6.598   5.125
 4866SOL     OW15496   0.566   5.037   1.917
 4866SOL    HW115497   0.612   5.078   1.839
 4866SOL    HW215498   0.483   4.991   1.886
 4867SOL     OW15499   5.630   4.872   5.853
 4867SOL    HW115500   5.672   4.842   5.768
 4867SOL    HW215501   5.603   4.792   5.906
 4868SOL     OW15502   2.205   6.022   1.906
 4868SOL    HW115503   2.239   6.116   1.909
 4868SOL    HW215504   2.201   5.992   1.810
 4869SOL     OW15505   0.702   1.884   1.878
 4869SOL    HW115506   0.697   1.837   1.967
 4869SOL    HW215507   0.669   1.978   1.888
 4870SOL     OW15508   5.941   1.211   0.888
 4870SOL    HW115509   5.960   1.168   0.800
 4870SOL    HW215510   5.855   1.174   0.925
 4871SOL     OW15511   1.968   2.628   5.400
 4871SOL    HW115512   1.981   2.726   5.388
 4871SOL    HW215513   2.057   2.582   5.400
 4872SOL     OW15514   2.132   2.538   2.521
 4872SOL    HW115515   2.209   2.551   2.459
 4872SOL    HW215516   2.166   2.515   2.612
 4873SOL     OW15517   0.781   6.765   5.800
 4873SOL    HW115518   0.755   6.859   5.821
 4873SOL    HW215519   0.705   6.719   5.754
 4874SOL     OW15520   5.673   1.961   4.030
 4874SOL    HW115521   5.741   1.895   4.064
 4874SOL    HW215522   5.699   1.990   3.938
 4875SOL     OW15523   0.189   3.123   0.350
 4875SOL    HW115524   0.245   3.186   0.404
 4875SOL    HW215525   0.242   3.042   0.328
 4876SOL     OW15526   6.596   1.074   6.995
 4876SOL    HW115527   6.523   1.140   7.010
 4876SOL    HW215528   6.624   1.034   0.060
 4877SOL     OW15529   4.357   1.955   1.347
 4877SOL    HW115530   4.444   1.945   1.396
 4877SOL    HW215531   4.333   1.869   1.304
 4878SOL     OW15532   1.219   2.916   2.449
 4878SOL    HW115533   1.247   2.861   2.527
 4878SOL    HW215534   1.299   2.944   2.396
 4879SOL     OW15535   3.583   6.368   3.535
 4879SOL    HW115536   3.515   6.296   3.545
 4879SOL    HW215537   3.544   6.445   3.485
 4880SOL     OW15538   6.383   1.875   5.812
 4880SOL    HW115539   6.434   1.879   5.898
 4880SOL    HW215540   6.295   1.921   5.824
 4881SOL     OW15541   2.825   6.300   5.799
 4881SOL    HW115542   2.902   6.301   5.735
 4881SOL    HW215543   2.828   6.382   5.857
 4882SOL     OW15544   5.703   5.755   6.718
 4882SOL    HW115545   5.697   5.749   6.817
 4882SOL    HW215546   5.779   5.697   6.686
 4883SOL     OW15547   5.955   5.606   0.102
 4883SOL    HW115548   6.027   5.642   0.043
 4883SOL    HW215549   5.983   5.517   0.138
 4884SOL     OW15550   3.932   6.252   1.552
 4884SOL    HW115551   3.890   6.255   1.643
 4884SOL    HW215552   3.994   6.330   1.542
 4885SOL     OW15553   1.588   0.666   2.143
 4885SOL    HW115554   1.536   0.711   2.070
 4885SOL    HW215555   1.594   0.727   2.222
 4886SOL     OW15556   5.984   1.056   5.700
 4886SOL    HW115557   6.043   1.044   5.620
 4886SOL    HW215558   5.970   1.154   5.716
 4887SOL     OW15559   0.152   2.128   5.516
 4887SOL    HW115560   0.172   2.117   5.613
 4887SOL    HW215561   0.055   2.109   5.500
 4888SOL     OW15562   4.065   5.925   0.953
 4888SOL    HW115563   4.042   6.017   0.984
 4888SOL    HW215564   4.067   5.863   1.031
 4889SOL     OW15565   1.502   3.522   6.400
 4889SOL    HW115566   1.572   3.452   6.407
 4889SOL    HW215567   1.483   3.541   6.303
 4890SOL     OW15568   6.847   0.486   4.355
 4890SOL    HW115569   6.785   0.560   4.382
 4890SOL    HW215570   6.941   0.519   4.356
 4891SOL     OW15571   1.137   5.179   0.557
 4891SOL    HW115572   1.099   5.087   0.555
 4891SOL    HW215573   1.146   5.215   0.464
 4892SOL     OW15574   1.925   5.790   2.212
 4892SOL    HW115575   1.935   5.852   2.134
 4892SOL    HW215576   1.832   5.798   2.249
 4893SOL     OW15577   0.334   4.531   6.436
 4893SOL    HW115578   0.300   4.476   6.512
 4893SOL    HW215579   0.434   4.534   6.439
 4894SOL     OW15580   0.577   6.687   3.430
 4894SOL    HW115581   0.516   6.614   3.399
 4894SOL    HW215582   0.590   6.753   3.356
 4895SOL     OW15583   6.380   4.292   6.514
 4895SOL    HW115584   6.330   4.224   6.568
 4895SOL    HW215585   6.458   4.325   6.567
 4896SOL     OW15586   3.825   0.580   4.592
 4896SOL    HW115587   3.923   0.588   4.609
 4896SOL    HW215588   3.800   0.634   4.512
 4897SOL     OW15589   2.567   5.207   6.912
 4897SOL    HW115590   2.613   5.278   6.965
 4897SOL    HW215591   2.609   5.118   6.932
 4898SOL     OW15592   4.951   2.825   4.475
 4898SOL    HW115593   4.972   2.839   4.572
 4898SOL    HW215594   5.000   2.744   4.441
 4899SOL     OW15595   0.009   3.771   4.568
 4899SOL    HW115596   0.014   3.713   4.649
 4899SOL    HW215597   0.032   3.865   4.593
 4900SOL     OW15598   0.516   6.708   5.701
 4900SOL    HW115599   0.494   6.712   5.603
 4900SOL    HW215600   0.437   6.674   5.751
 4901SOL     OW15601   5.671   6.022   3.304
 4901SOL    HW115602   5.629   6.017   3.214
 4901SOL    HW215603   5.601   6.041   3.373
 4902SOL     OW15604   3.808   5.398   0.587
 4902SOL    HW115605   3.741   5.328   0.566
 4902SOL    HW215606   3.806   5.419   0.685
 4903SOL     OW15607   5.989   4.848   6.172
 4903SOL    HW115608   6.072   4.799   6.196
 4903SOL    HW215609   5.936   4.796   6.105
 4904SOL     OW15610   3.146   1.106   3.667
 4904SOL    HW115611   3.230   1.158   3.680
 4904SOL    HW215612   3.124   1.056   3.751
 4905SOL     OW15613   5.930   3.867   3.056
 4905SOL    HW115614   5.985   3.844   2.976
 4905SOL    HW215615   5.839   3.828   3.046
 4906SOL     OW15616   4.569   0.250   2.039
 4906SOL    HW115617   4.525   0.241   2.128
 4906SOL    HW215618   4.566   0.163   1.990
 4907SOL     OW15619   2.597   2.647   1.237
 4907SOL    HW115620   2.685   2.674   1.275
 4907SOL    HW215621   2.540   2.608   1.310
 4908SOL     OW15622   5.329   4.718   6.294
 4908SOL    HW115623   5.329   4.807   6.338
 4908SOL    HW215624   5.320   4.646   6.363
 4909SOL     OW15625   5.920   6.284   5.828
 4909SOL    HW115626   5.855   6.360   5.818
 4909SOL    HW215627   5.975   6.276   5.746
 4910SOL     OW15628   5.379   6.706   5.624
 4910SOL    HW115629   5.285   6.701   5.589
 4910SOL    HW215630   5.436   6.758   5.561
 4911SOL     OW15631   0.268   4.414   6.703
 4911SOL    HW115632   0.191   4.420   6.640
 4911SOL    HW215633   0.299   4.319   6.710
 4912SOL     OW15634   2.163   3.169   1.313
 4912SOL    HW115635   2.191   3.113   1.235
 4912SOL    HW215636   2.226   3.246   1.323
 4913SOL     OW15637   2.898   3.280   2.103
 4913SOL    HW115638   2.850   3.367   2.099
 4913SOL    HW215639   2.908   3.242   2.011
 4914SOL     OW15640   1.155   7.006   2.789
 4914SOL    HW115641   1.085   6.945   2.750
 4914SOL    HW215642   1.137   7.020   2.886
 4915SOL     OW15643   3.746   6.687   4.175
 4915SOL    HW115644   3.838   6.655   4.151
 4915SOL    HW215645   3.717   6.757   4.110
 4916SOL     OW15646   1.262   1.568   1.971
 4916SOL    HW115647   1.237   1.509   2.049
 4916SOL    HW215648   1.359   1.557   1.952
 4917SOL     OW15649   1.005   4.716   6.269
 4917SOL    HW115650   1.089   4.706   6.322
 4917SOL    HW215651   1.012   4.797   6.211
 4918SOL     OW15652   2.459   6.811   4.296
 4918SOL    HW115653   2.401   6.746   4.346
 4918SOL    HW215654   2.518   6.860   4.360
 4919SOL     OW15655   1.914   2.998   0.784
 4919SOL    HW115656   1.908   2.944   0.700
 4919SOL    HW215657   1.883   2.942   0.861
 4920SOL     OW15658   3.465   2.024   6.679
 4920SOL    HW115659   3.429   1.965   6.606
 4920SOL    HW215660   3.498   1.968   6.755
 4921SOL     OW15661   6.582   4.791   2.523
 4921SOL    HW115662   6.681   4.798   2.536
 4921SOL    HW215663   6.563   4.717   2.458
 4922SOL     OW15664   0.648   3.161   6.271
 4922SOL    HW115665   0.616   3.085   6.214
 4922SOL    HW215666   0.742   3.184   6.245
 4923SOL     OW15667   3.388   2.264   6.743
 4923SOL    HW115668   3.413   2.322   6.666
 4923SOL    HW215669   3.424   2.172   6.729
 4924SOL     OW15670   0.317   2.890   4.533
 4924SOL    HW115671   0.338   2.820   4.465
 4924SOL    HW215672   0.244   2.949   4.498
 4925SOL     OW15673   4.698   5.050   5.231
 4925SOL    HW115674   4.683   4.956   5.263
 4925SOL    HW215675   4.787   5.083   5.263
 4926SOL     OW15676   4.297   3.366   0.652
 4926SOL    HW115677   4.297   3.313   0.568
 4926SOL    HW215678   4.217   3.342   0.706
 4927SOL     OW15679   2.829   3.893   1.728
 4927SOL    HW115680   2.844   3.989   1.703
 4927SOL    HW215681   2.873   3.874   1.816
 4928SOL     OW15682   6.793   1.585   6.880
 4928SOL    HW115683   6.756   1.578   6.787
 4928SOL    HW215684   6.889   1.557   6.880
 4929SOL     OW15685   1.108   4.202   4.339
 4929SOL    HW115686   1.132   4.268   4.269
 4929SOL    HW215687   1.111   4.245   4.429
 4930SOL     OW15688   0.261   3.645   6.982
 4930SOL    HW115689   0.353   3.614   7.005
 4930SOL    HW215690   0.199   3.624   0.035
 4931SOL     OW15691   5.429   6.752   1.047
 4931SOL    HW115692   5.339   6.792   1.064
 4931SOL    HW215693   5.476   6.805   0.977
 4932SOL     OW15694   3.539   1.498   1.020
 4932SOL    HW115695   3.634   1.469   1.018
 4932SOL    HW215696   3.532   1.586   1.068
 4933SOL     OW15697   2.629   0.071   5.193
 4933SOL    HW115698   2.663   0.070   5.099
 4933SOL    HW215699   2.530   0.081   5.193
 4934SOL     OW15700   2.129   6.129   5.446
 4934SOL    HW115701   2.076   6.093   5.523
 4934SOL    HW215702   2.193   6.059   5.414
 4935SOL     OW15703   2.075   2.169   0.590
 4935SOL    HW115704   2.141   2.227   0.544
 4935SOL    HW215705   2.098   2.073   0.575
 4936SOL     OW15706   6.616   4.078   1.488
 4936SOL    HW115707   6.711   4.097   1.512
 4936SOL    HW215708   6.557   4.094   1.568
 4937SOL     OW15709   0.662   3.764   5.215
 4937SOL    HW115710   0.733   3.798   5.277
 4937SOL    HW215711   0.703   3.739   5.127
 4938SOL     OW15712   3.674   4.222   0.994
 4938SOL    HW115713   3.617   4.295   0.957
 4938SOL    HW215714   3.646   4.134   0.955
 4939SOL     OW15715   0.860   1.537   1.236
 4939SOL    HW115716   0.898   1.584   1.316
 4939SOL    HW215717   0.935   1.496   1.184
 4940SOL     OW15718   1.761   1.270   5.308
 4940SOL    HW115719   1.846   1.297   5.263
 4940SOL    HW215720   1.778   1.256   5.406
 4941SOL     OW15721   3.891   1.973   6.325
 4941SOL    HW115722   3.966   2.038   6.339
 4941SOL    HW215723   3.811   2.002   6.377
 4942SOL     OW15724   0.352   1.079   2.438
 4942SOL    HW115725   0.367   0.989   2.479
 4942SOL    HW215726   0.409   1.146   2.484
 4943SOL     OW15727   4.839   2.623   6.332
 4943SOL    HW115728   4.909   2.643   6.263
 4943SOL    HW215729   4.768   2.693   6.329
 4944SOL     OW15730   0.684   4.997   0.612
 4944SOL    HW115731   0.629   5.029   0.690
 4944SOL    HW215732   0.625   4.955   0.544
 4945SOL     OW15733   2.389   0.280   6.481
 4945SOL    HW115734   2.332   0.329   6.415
 4945SOL    HW215735   2.481   0.319   6.483
 4946SOL     OW15736   2.732   5.687   6.993
 4946SOL    HW115737   2.693   5.754   6.931
 4946SOL    HW215738   2.770   5.611   6.940
 4947SOL     OW15739   1.278   0.262   1.351
 4947SOL    HW115740   1.216   0.199   1.304
 4947SOL    HW215741   1.300   0.225   1.442
 4948SOL     OW15742   1.405   3.060   2.291
 4948SOL    HW115743   1.459   3.060   2.207
 4948SOL    HW215744   1.396   3.154   2.325
 4949SOL     OW15745   6.413   4.793   6.474
 4949SOL    HW115746   6.473   4.855   6.424
 4949SOL    HW215747   6.468   4.724   6.521
 4950SOL     OW15748   4.239   3.976   5.967
 4950SOL    HW115749   4.328   3.973   6.013
 4950SOL    HW215750   4.167   3.952   6.032
 4951SOL     OW15751   4.923   5.314   3.652
 4951SOL    HW115752   4.898   5.358   3.566
 4951SOL    HW215753   4.926   5.215   3.639
 4952SOL     OW15754   0.814   0.929   6.862
 4952SOL    HW115755   0.899   0.886   6.890
 4952SOL    HW215756   0.760   0.864   6.809
 4953SOL     OW15757   1.362   1.052   5.918
 4953SOL    HW115758   1.269   1.071   5.887
 4953SOL    HW215759   1.421   1.130   5.898
 4954SOL     OW15760   3.482   3.652   5.639
 4954SOL    HW115761   3.512   3.688   5.551
 4954SOL    HW215762   3.532   3.698   5.713
 4955SOL     OW15763   3.746   6.139   6.914
 4955SOL    HW115764   3.826   6.082   6.932
 4955SOL    HW215765   3.744   6.215   6.979
 4956SOL     OW15766   2.596   0.561   4.318
 4956SOL    HW115767   2.665   0.503   4.274
 4956SOL    HW215768   2.505   0.534   4.285
 4957SOL     OW15769   5.731   5.416   0.022
 4957SOL    HW115770   5.785   5.477   0.080
 4957SOL    HW215771   5.678   5.353   0.079
 4958SOL     OW15772   3.323   5.286   0.190
 4958SOL    HW115773   3.392   5.337   0.140
 4958SOL    HW215774   3.353   5.191   0.200
 4959SOL     OW15775   1.093   1.725   3.325
 4959SOL    HW115776   1.050   1.776   3.250
 4959SOL    HW215777   1.193   1.726   3.313
 4960SOL     OW15778   4.842   3.834   4.401
 4960SOL    HW115779   4.873   3.740   4.397
 4960SOL    HW215780   4.836   3.864   4.496
 4961SOL     OW15781   3.640   2.831   2.164
 4961SOL    HW115782   3.684   2.742   2.171
 4961SOL    HW215783   3.692   2.889   2.101
 4962SOL     OW15784   1.731   2.180   0.678
 4962SOL    HW115785   1.791   2.259   0.665
 4962SOL    HW215786   1.699   2.148   0.589
 4963SOL     OW15787   0.774   3.624   6.498
 4963SOL    HW115788   0.763   3.561   6.574
 4963SOL    HW215789   0.861   3.673   6.508
 4964SOL     OW15790   1.237   5.245   4.144
 4964SOL    HW115791   1.186   5.311   4.089
 4964SOL    HW215792   1.183   5.162   4.156
 4965SOL     OW15793   2.283   0.530   3.066
 4965SOL    HW115794   2.278   0.551   2.968
 4965SOL    HW215795   2.224   0.593   3.116
 4966SOL     OW15796   4.311   6.951   5.367
 4966SOL    HW115797   4.354   7.010   5.298
 4966SOL    HW215798   4.228   6.995   5.402
 4967SOL     OW15799   4.327   4.592   3.099
 4967SOL    HW115800   4.236   4.568   3.064
 4967SOL    HW215801   4.322   4.609   3.198
 4968SOL     OW15802   6.621   3.032   3.448
 4968SOL    HW115803   6.524   3.048   3.463
 4968SOL    HW215804   6.664   3.002   3.533
 4969SOL     OW15805   1.202   6.192   4.143
 4969SOL    HW115806   1.174   6.101   4.173
 4969SOL    HW215807   1.147   6.261   4.190
 4970SOL     OW15808   2.034   1.275   1.234
 4970SOL    HW115809   2.123   1.230   1.244
 4970SOL    HW215810   2.006   1.314   1.321
 4971SOL     OW15811   0.567   5.950   1.908
 4971SOL    HW115812   0.542   6.044   1.933
 4971SOL    HW215813   0.591   5.899   1.990
 4972SOL     OW15814   0.344   3.753   0.258
 4972SOL    HW115815   0.374   3.659   0.273
 4972SOL    HW215816   0.327   3.768   0.160
 4973SOL     OW15817   5.388   2.595   6.904
 4973SOL    HW115818   5.411   2.526   6.836
 4973SOL    HW215819   5.325   2.556   6.971
 4974SOL     OW15820   3.403   0.186   5.717
 4974SOL    HW115821   3.319   0.164   5.668
 4974SOL    HW215822   3.380   0.227   5.806
 4975SOL     OW15823   5.861   4.268   1.309
 4975SOL    HW115824   5.892   4.344   1.252
 4975SOL    HW215825   5.761   4.267   1.312
 4976SOL     OW15826   0.980   0.420   3.895
 4976SOL    HW115827   0.943   0.389   3.983
 4976SOL    HW215828   0.905   0.430   3.829
 4977SOL     OW15829   1.163   3.669   4.995
 4977SOL    HW115830   1.092   3.677   4.925
 4977SOL    HW215831   1.171   3.574   5.024
 4978SOL     OW15832   6.098   5.435   4.569
 4978SOL    HW115833   6.004   5.467   4.583
 4978SOL    HW215834   6.141   5.488   4.497
 4979SOL     OW15835   3.690   6.331   5.986
 4979SOL    HW115836   3.615   6.265   5.991
 4979SOL    HW215837   3.771   6.293   6.031
 4980SOL     OW15838   5.735   2.550   3.776
 4980SOL    HW115839   5.779   2.570   3.863
 4980SOL    HW215840   5.661   2.485   3.790
 4981SOL     OW15841   3.289   6.104   3.318
 4981SOL    HW115842   3.345   6.093   3.236
 4981SOL    HW215843   3.300   6.023   3.376
 4982SOL     OW15844   4.345   1.995   4.967
 4982SOL    HW115845   4.245   1.999   4.965
 4982SOL    HW215846   4.383   2.086   4.950
 4983SOL     OW15847   5.682   3.740   2.966
 4983SOL    HW115848   5.611   3.774   3.028
 4983SOL    HW215849   5.683   3.640   2.968
 4984SOL     OW15850   5.103   3.570   5.254
 4984SOL    HW115851   5.099   3.541   5.159
 4984SOL    HW215852   5.011   3.593   5.287
 4985SOL     OW15853   5.282   0.433   2.717
 4985SOL    HW115854   5.185   0.455   2.714
 4985SOL    HW215855   5.324   0.453   2.628
 4986SOL     OW15856   1.562   5.376   1.045
 4986SOL    HW115857   1.545   5.323   1.129
 4986SOL    HW215858   1.515   5.464   1.052
 4987SOL     OW15859   2.179   3.903   1.784
 4987SOL    HW115860   2.196   3.996   1.816
 4987SOL    HW215861   2.189   3.839   1.860
 4988SOL     OW15862   6.426   5.282   3.960
 4988SOL    HW115863   6.499   5.344   3.932
 4988SOL    HW215864   6.381   5.245   3.878
 4989SOL     OW15865   7.012   6.805   3.777
 4989SOL    HW115866   0.025   6.743   3.846
 4989SOL    HW215867   6.934   6.763   3.731
 4990SOL     OW15868   5.285   1.948   5.651
 4990SOL    HW115869   5.204   1.999   5.682
 4990SOL    HW215870   5.260   1.853   5.635
 4991SOL     OW15871   2.308   5.755   5.476
 4991SOL    HW115872   2.319   5.838   5.531
 4991SOL    HW215873   2.229   5.765   5.416
 4992SOL     OW15874   2.563   3.205   5.599
 4992SOL    HW115875   2.610   3.153   5.670
 4992SOL    HW215876   2.490   3.259   5.640
 4993SOL     OW15877   2.326   5.472   4.156
 4993SOL    HW115878   2.306   5.424   4.071
 4993SOL    HW215879   2.380   5.413   4.216
 4994SOL     OW15880   2.918   4.759   5.648
 4994SOL    HW115881   3.016   4.771   5.665
 4994SOL    HW215882   2.902   4.668   5.610
 4995SOL     OW15883   0.452   1.916   5.434
 4995SOL    HW115884   0.423   2.005   5.399
 4995SOL    HW215885   0.375   1.853   5.435
 4996SOL     OW15886   0.116   0.561   4.758
 4996SOL    HW115887   0.025   0.575   4.717
 4996SOL    HW215888   0.107   0.554   4.857
 4997SOL     OW15889   3.778   1.324   0.565
 4997SOL    HW115890   3.774   1.229   0.595
 4997SOL    HW215891   3.775   1.328   0.465
 4998SOL     OW15892   1.065   3.657   3.560
 4998SOL    HW115893   1.067   3.573   3.614
 4998SOL    HW215894   1.148   3.664   3.505
 4999SOL     OW15895   0.037   2.966   3.406
 4999SOL    HW115896   0.047   3.064   3.390
 4999SOL    HW215897   0.010   2.921   3.320
 5000SOL     OW15898   2.925   6.573   3.066
 5000SOL    HW115899   2.925   6.541   2.971
 5000SOL    HW215900   2.888   6.501   3.124
 5001SOL     OW15901   0.097   5.834   3.323
 5001SOL    HW115902   0.077   5.889   3.404
 5001SOL    HW215903   0.036   5.861   3.249
 5002SOL     OW15904   1.115   4.920   3.864
 5002SOL    HW115905   1.079   4.867   3.788
 5002SOL    HW215906   1.208   4.950   3.843
 5003SOL     OW15907   3.401   1.027   1.173
 5003SOL    HW115908   3.427   0.982   1.258
 5003SOL    HW215909   3.341   1.105   1.194
 5004SOL     OW15910   4.540   6.255   0.439
 5004SOL    HW115911   4.534   6.178   0.503
 5004SOL    HW215912   4.538   6.341   0.490
 5005SOL     OW15913   4.394   2.925   1.032
 5005SOL    HW115914   4.446   2.936   0.948
 5005SOL    HW215915   4.457   2.925   1.110
 5006SOL     OW15916   4.805   0.819   3.016
 5006SOL    HW115917   4.819   0.911   2.980
 5006SOL    HW215918   4.844   0.752   2.954
 5007SOL     OW15919   6.277   5.272   2.055
 5007SOL    HW115920   6.328   5.317   2.128
 5007SOL    HW215921   6.289   5.323   1.970
 5008SOL     OW15922   5.009   6.619   3.753
 5008SOL    HW115923   5.077   6.644   3.684
 5008SOL    HW215924   4.959   6.539   3.722
 5009SOL     OW15925   0.512   1.681   6.576
 5009SOL    HW115926   0.542   1.747   6.646
 5009SOL    HW215927   0.585   1.668   6.510
 5010SOL     OW15928   4.906   4.274   1.037
 5010SOL    HW115929   4.813   4.278   1.000
 5010SOL    HW215930   4.902   4.272   1.137
 5011SOL     OW15931   1.727   2.256   6.132
 5011SOL    HW115932   1.662   2.313   6.184
 5011SOL    HW215933   1.815   2.256   6.179
 5012SOL     OW15934   6.108   2.449   6.053
 5012SOL    HW115935   6.074   2.393   6.128
 5012SOL    HW215936   6.195   2.411   6.020
 5013SOL     OW15937   5.809   6.222   5.178
 5013SOL    HW115938   5.842   6.159   5.108
 5013SOL    HW215939   5.781   6.171   5.259
 5014SOL     OW15940   6.291   3.804   0.700
 5014SOL    HW115941   6.266   3.726   0.642
 5014SOL    HW215942   6.388   3.824   0.689
 5015SOL     OW15943   6.412   5.140   4.571
 5015SOL    HW115944   6.483   5.210   4.577
 5015SOL    HW215945   6.455   5.050   4.564
 5016SOL     OW15946   1.396   2.255   6.554
 5016SOL    HW115947   1.426   2.208   6.637
 5016SOL    HW215948   1.330   2.199   6.505
 5017SOL     OW15949   1.250   2.899   2.050
 5017SOL    HW115950   1.304   2.984   2.050
 5017SOL    HW215951   1.284   2.838   2.121
 5018SOL     OW15952   0.785   0.672   0.135
 5018SOL    HW115953   0.724   0.751   0.140
 5018SOL    HW215954   0.840   0.666   0.218
 5019SOL     OW15955   1.963   4.237   3.703
 5019SOL    HW115956   1.964   4.239   3.603
 5019SOL    HW215957   1.944   4.328   3.738
 5020SOL     OW15958   1.895   0.137   3.554
 5020SOL    HW115959   1.958   0.182   3.617
 5020SOL    HW215960   1.902   0.180   3.464
 5021SOL     OW15961   2.605   0.565   1.502
 5021SOL    HW115962   2.576   0.549   1.596
 5021SOL    HW215963   2.703   0.545   1.494
 5022SOL     OW15964   6.978   2.924   1.182
 5022SOL    HW115965   6.979   2.847   1.246
 5022SOL    HW215966   6.903   2.912   1.117
 5023SOL     OW15967   0.576   2.385   2.898
 5023SOL    HW115968   0.610   2.296   2.870
 5023SOL    HW215969   0.651   2.441   2.933
 5024SOL     OW15970   4.663   4.128   6.816
 5024SOL    HW115971   4.699   4.083   6.898
 5024SOL    HW215972   4.590   4.192   6.841
 5025SOL     OW15973   5.213   2.028   4.719
 5025SOL    HW115974   5.271   2.104   4.750
 5025SOL    HW215975   5.145   2.063   4.654
 5026SOL     OW15976   4.938   5.869   5.108
 5026SOL    HW115977   4.893   5.821   5.033
 5026SOL    HW215978   4.944   5.809   5.187
 5027SOL     OW15979   5.208   6.440   0.840
 5027SOL    HW115980   5.287   6.499   0.856
 5027SOL    HW215981   5.217   6.395   0.751
 5028SOL     OW15982   6.776   1.721   2.606
 5028SOL    HW115983   6.772   1.800   2.545
 5028SOL    HW215984   6.686   1.704   2.645
 5029SOL     OW15985   5.590   2.515   2.707
 5029SOL    HW115986   5.664   2.452   2.682
 5029SOL    HW215987   5.507   2.491   2.658
 5030SOL     OW15988   0.458   3.183   1.224
 5030SOL    HW115989   0.385   3.191   1.156
 5030SOL    HW215990   0.425   3.217   1.312
 5031SOL     OW15991   6.770   6.770   6.021
 5031SOL    HW115992   6.706   6.779   5.944
 5031SOL    HW215993   6.749   6.839   6.090
 5032SOL     OW15994   2.457   4.569   6.268
 5032SOL    HW115995   2.457   4.637   6.341
 5032SOL    HW215996   2.481   4.613   6.181
 5033SOL     OW15997   1.851   6.823   4.425
 5033SOL    HW115998   1.762   6.779   4.410
 5033SOL    HW215999   1.893   6.844   4.337
 5034SOL     OW16000   4.215   5.477   3.532
 5034SOL    HW116001   4.209   5.409   3.605
 5034SOL    HW216002   4.129   5.479   3.481
 5035SOL     OW16003   1.849   3.501   3.231
 5035SOL    HW116004   1.820   3.416   3.274
 5035SOL    HW216005   1.949   3.508   3.234
 5036SOL     OW16006   1.435   3.300   4.863
 5036SOL    HW116007   1.452   3.225   4.799
 5036SOL    HW216008   1.389   3.265   4.944
 5037SOL     OW16009   5.508   4.580   1.294
 5037SOL    HW116010   5.431   4.639   1.318
 5037SOL    HW216011   5.514   4.572   1.195
 5038SOL     OW16012   2.958   3.745   4.617
 5038SOL    HW116013   3.046   3.729   4.661
 5038SOL    HW216014   2.897   3.793   4.680
 5039SOL     OW16015   0.779   3.668   6.957
 5039SOL    HW116016   0.780   3.584   7.011
 5039SOL    HW216017   0.869   3.712   6.961
 5040SOL     OW16018   0.638   1.881   5.209
 5040SOL    HW116019   0.587   1.803   5.172
 5040SOL    HW216020   0.604   1.902   5.301
 5041SOL     OW16021   0.017   2.536   1.548
 5041SOL    HW116022   7.015   2.440   1.540
 5041SOL    HW216023   0.033   2.559   1.644
 5042SOL     OW16024   1.088   1.808   5.917
 5042SOL    HW116025   1.114   1.844   6.007
 5042SOL    HW216026   0.991   1.823   5.902
 5043SOL     OW16027   2.634   6.685   1.799
 5043SOL    HW116028   2.714   6.638   1.834
 5043SOL    HW216029   2.573   6.709   1.874
 5044SOL     OW16030   0.503   5.814   0.670
 5044SOL    HW116031   0.515   5.877   0.593
 5044SOL    HW216032   0.584   5.758   0.681
 5045SOL     OW16033   5.681   2.788   1.627
 5045SOL    HW116034   5.733   2.715   1.672
 5045SOL    HW216035   5.692   2.873   1.678
 5046SOL     OW16036   3.829   3.280   2.284
 5046SOL    HW116037   3.886   3.229   2.348
 5046SOL    HW216038   3.851   3.253   2.190
 5047SOL     OW16039   1.844   4.517   3.822
 5047SOL    HW116040   1.831   4.609   3.860
 5047SOL    HW216041   1.797   4.510   3.734
 5048SOL     OW16042   2.326   0.183   5.639
 5048SOL    HW116043   2.409   0.204   5.690
 5048SOL    HW216044   2.248   0.181   5.701
 5049SOL     OW16045   3.830   1.574   6.845
 5049SOL    HW116046   3.794   1.504   6.907
 5049SOL    HW216047   3.772   1.582   6.765
 5050SOL     OW16048   1.181   0.450   0.899
 5050SOL    HW116049   1.263   0.403   0.868
 5050SOL    HW216050   1.170   0.535   0.847
 5051SOL     OW16051   4.511   4.362   0.969
 5051SOL    HW116052   4.543   4.333   0.879
 5051SOL    HW216053   4.433   4.307   0.996
 5052SOL     OW16054   1.906   3.481   4.439
 5052SOL    HW116055   1.946   3.455   4.528
 5052SOL    HW216056   1.871   3.574   4.445
 5053SOL     OW16057   6.451   0.598   0.770
 5053SOL    HW116058   6.547   0.619   0.787
 5053SOL    HW216059   6.404   0.582   0.857
 5054SOL     OW16060   4.316   5.661   3.338
 5054SOL    HW116061   4.309   5.591   3.408
 5054SOL    HW216062   4.392   5.640   3.276
 5055SOL     OW16063   0.244   4.415   5.597
 5055SOL    HW116064   0.259   4.511   5.622
 5055SOL    HW216065   0.160   4.407   5.544
 5056SOL     OW16066   6.636   4.515   3.007
 5056SOL    HW116067   6.633   4.415   3.009
 5056SOL    HW216068   6.555   4.551   3.053
 5057SOL     OW16069   0.050   6.186   2.317
 5057SOL    HW116070   0.055   6.278   2.355
 5057SOL    HW216071   0.010   6.124   2.384
 5058SOL     OW16072   2.512   5.606   5.592
 5058SOL    HW116073   2.441   5.655   5.541
 5058SOL    HW216074   2.543   5.528   5.539
 5059SOL     OW16075   6.757   0.203   1.848
 5059SOL    HW116076   6.668   0.249   1.850
 5059SOL    HW216077   6.817   0.249   1.783
 5060SOL     OW16078   0.282   2.870   6.160
 5060SOL    HW116079   0.303   2.772   6.166
 5060SOL    HW216080   0.248   2.891   6.069
 5061SOL     OW16081   6.119   2.996   0.735
 5061SOL    HW116082   6.144   2.915   0.787
 5061SOL    HW216083   6.141   2.983   0.638
 5062SOL     OW16084   6.295   0.003   6.973
 5062SOL    HW116085   6.386   7.001   7.008
 5062SOL    HW216086   6.225   6.980   0.005
 5063SOL     OW16087   0.967   6.446   2.704
 5063SOL    HW116088   1.049   6.450   2.646
 5063SOL    HW216089   0.973   6.517   2.774
 5064SOL     OW16090   5.181   3.974   0.002
 5064SOL    HW116091   5.263   4.009   6.978
 5064SOL    HW216092   5.104   3.976   6.962
 5065SOL     OW16093   2.812   6.501   6.034
 5065SOL    HW116094   2.746   6.568   5.999
 5065SOL    HW216095   2.769   6.411   6.037
 5066SOL     OW16096   5.027   4.475   0.592
 5066SOL    HW116097   5.009   4.377   0.586
 5066SOL    HW216098   5.066   4.507   0.506
 5067SOL     OW16099   5.577   1.218   6.709
 5067SOL    HW116100   5.619   1.138   6.751
 5067SOL    HW216101   5.558   1.199   6.613
 5068SOL     OW16102   3.739   4.752   1.081
 5068SOL    HW116103   3.763   4.740   1.178
 5068SOL    HW216104   3.787   4.684   1.026
 5069SOL     OW16105   6.659   5.239   2.915
 5069SOL    HW116106   6.625   5.308   2.979
 5069SOL    HW216107   6.602   5.157   2.921
 5070SOL     OW16108   5.070   2.295   3.845
 5070SOL    HW116109   5.042   2.209   3.801
 5070SOL    HW216110   5.016   2.309   3.928
 5071SOL     OW16111   5.566   0.887   1.503
 5071SOL    HW116112   5.497   0.815   1.499
 5071SOL    HW216113   5.528   0.967   1.551
 5072SOL     OW16114   0.576   3.983   1.674
 5072SOL    HW116115   0.524   3.950   1.595
 5072SOL    HW216116   0.526   3.960   1.758
 5073SOL     OW16117   3.981   2.112   3.432
 5073SOL    HW116118   3.987   2.171   3.351
 5073SOL    HW216119   3.900   2.054   3.424
 5074SOL     OW16120   4.140   4.134   5.259
 5074SOL    HW116121   4.124   4.082   5.175
 5074SOL    HW216122   4.155   4.230   5.236
 5075SOL     OW16123   6.802   0.248   4.203
 5075SOL    HW116124   6.802   0.319   4.273
 5075SOL    HW216125   6.744   0.277   4.126
 5076SOL     OW16126   5.270   0.483   1.366
 5076SOL    HW116127   5.322   0.412   1.318
 5076SOL    HW216128   5.188   0.505   1.313
 5077SOL     OW16129   6.688   2.449   2.975
 5077SOL    HW116130   6.745   2.478   2.897
 5077SOL    HW216131   6.654   2.529   3.023
 5078SOL     OW16132   0.158   1.792   4.944
 5078SOL    HW116133   0.226   1.718   4.939
 5078SOL    HW216134   0.164   1.835   5.034
 5079SOL     OW16135   4.733   5.052   4.800
 5079SOL    HW116136   4.730   5.095   4.890
 5079SOL    HW216137   4.828   5.030   4.777
 5080SOL     OW16138   5.756   0.762   6.349
 5080SOL    HW116139   5.808   0.814   6.282
 5080SOL    HW216140   5.757   0.665   6.325
 5081SOL     OW16141   2.953   3.215   3.228
 5081SOL    HW116142   2.924   3.256   3.141
 5081SOL    HW216143   2.876   3.212   3.291
 5082SOL     OW16144   0.762   1.657   5.544
 5082SOL    HW116145   0.705   1.739   5.540
 5082SOL    HW216146   0.811   1.646   5.458
 5083SOL     OW16147   0.818   4.001   1.990
 5083SOL    HW116148   0.771   3.953   1.917
 5083SOL    HW216149   0.890   3.943   2.029
 5084SOL     OW16150   1.232   5.659   2.172
 5084SOL    HW116151   1.252   5.715   2.252
 5084SOL    HW216152   1.236   5.715   2.089
 5085SOL     OW16153   6.205   3.999   0.190
 5085SOL    HW116154   6.154   3.983   0.105
 5085SOL    HW216155   6.300   3.974   0.177
 5086SOL     OW16156   6.144   5.380   4.858
 5086SOL    HW116157   6.240   5.390   4.882
 5086SOL    HW216158   6.132   5.397   4.760
 5087SOL     OW16159   5.177   5.411   5.479
 5087SOL    HW116160   5.193   5.509   5.469
 5087SOL    HW216161   5.247   5.361   5.427
 5088SOL     OW16162   6.333   1.011   6.411
 5088SOL    HW116163   6.246   1.058   6.400
 5088SOL    HW216164   6.317   0.914   6.429
 5089SOL     OW16165   5.505   2.931   3.914
 5089SOL    HW116166   5.452   2.930   3.830
 5089SOL    HW216167   5.445   2.956   3.991
 5090SOL     OW16168   1.204   5.314   0.199
 5090SOL    HW116169   1.192   5.302   0.101
 5090SOL    HW216170   1.117   5.342   0.240
 5091SOL     OW16171   0.744   6.213   3.750
 5091SOL    HW116172   0.674   6.270   3.792
 5091SOL    HW216173   0.758   6.131   3.806
 5092SOL     OW16174   3.298   2.751   1.168
 5092SOL    HW116175   3.345   2.663   1.171
 5092SOL    HW216176   3.201   2.739   1.190
 5093SOL     OW16177   0.614   1.034   1.891
 5093SOL    HW116178   0.696   0.979   1.907
 5093SOL    HW216179   0.553   1.026   1.970
 5094SOL     OW16180   0.212   0.079   6.723
 5094SOL    HW116181   0.239   0.045   6.813
 5094SOL    HW216182   0.294   0.098   6.669
 5095SOL     OW16183   3.189   0.108   5.527
 5095SOL    HW116184   3.223   0.074   5.439
 5095SOL    HW216185   3.089   0.100   5.528
 5096SOL     OW16186   3.624   6.267   2.342
 5096SOL    HW116187   3.583   6.286   2.253
 5096SOL    HW216188   3.625   6.169   2.359
 5097SOL     OW16189   1.114   2.215   6.770
 5097SOL    HW116190   1.067   2.221   6.857
 5097SOL    HW216191   1.170   2.132   6.768
 5098SOL     OW16192   0.809   2.196   2.881
 5098SOL    HW116193   0.785   2.100   2.869
 5098SOL    HW216194   0.805   2.220   2.978
 5099SOL     OW16195   0.501   1.442   4.169
 5099SOL    HW116196   0.567   1.452   4.095
 5099SOL    HW216197   0.409   1.464   4.135
 5100SOL     OW16198   4.484   5.089   5.846
 5100SOL    HW116199   4.414   5.018   5.854
 5100SOL    HW216200   4.528   5.083   5.757
 5101SOL     OW16201   5.664   6.193   0.723
 5101SOL    HW116202   5.614   6.123   0.775
 5101SOL    HW216203   5.658   6.173   0.626
 5102SOL     OW16204   3.416   6.169   3.652
 5102SOL    HW116205   3.348   6.096   3.654
 5102SOL    HW216206   3.500   6.138   3.696
 5103SOL     OW16207   1.323   2.107   3.587
 5103SOL    HW116208   1.314   2.126   3.489
 5103SOL    HW216209   1.275   2.022   3.609
 5104SOL     OW16210   0.667   0.429   0.262
 5104SOL    HW116211   0.621   0.377   0.191
 5104SOL    HW216212   0.747   0.475   0.223
 5105SOL     OW16213   1.732   3.159   6.860
 5105SOL    HW116214   1.756   3.086   6.796
 5105SOL    HW216215   1.642   3.139   6.900
 5106SOL     OW16216   2.110   6.829   2.467
 5106SOL    HW116217   2.129   6.926   2.450
 5106SOL    HW216218   2.189   6.787   2.512
 5107SOL     OW16219   1.922   6.963   6.327
 5107SOL    HW116220   2.015   6.930   6.342
 5107SOL    HW216221   1.906   0.021   6.384
 5108SOL     OW16222   3.736   3.805   4.738
 5108SOL    HW116223   3.656   3.757   4.774
 5108SOL    HW216224   3.801   3.823   4.811
 5109SOL     OW16225   0.295   2.276   2.692
 5109SOL    HW116226   0.280   2.266   2.594
 5109SOL    HW216227   0.238   2.351   2.727
 5110SOL     OW16228   2.290   5.973   5.650
 5110SOL    HW116229   2.327   6.065   5.640
 5110SOL    HW216230   2.335   5.928   5.727
 5111SOL     OW16231   1.134   0.454   6.373
 5111SOL    HW116232   1.190   0.385   6.419
 5111SOL    HW216233   1.043   0.418   6.356
 5112SOL     OW16234   0.137   0.090   2.827
 5112SOL    HW116235   0.211   0.053   2.883
 5112SOL    HW216236   0.107   0.178   2.865
 5113SOL     OW16237   0.647   1.293   6.840
 5113SOL    HW116238   0.641   1.228   6.765
 5113SOL    HW216239   0.599   1.257   6.920
 5114SOL     OW16240   4.835   5.552   6.443
 5114SOL    HW116241   4.935   5.550   6.440
 5114SOL    HW216242   4.801   5.626   6.385
 5115SOL     OW16243   2.624   3.982   5.309
 5115SOL    HW116244   2.671   3.922   5.244
 5115SOL    HW216245   2.535   4.008   5.273
 5116SOL     OW16246   0.025   3.704   1.038
 5116SOL    HW116247   0.011   3.790   1.087
 5116SOL    HW216248   6.959   3.665   1.014
 5117SOL     OW16249   2.357   5.281   3.120
 5117SOL    HW116250   2.342   5.297   3.217
 5117SOL    HW216251   2.364   5.368   3.072
 5118SOL     OW16252   4.098   0.285   1.085
 5118SOL    HW116253   4.165   0.314   1.152
 5118SOL    HW216254   4.074   0.190   1.101
 5119SOL     OW16255   5.918   0.682   2.390
 5119SOL    HW116256   5.938   0.779   2.403
 5119SOL    HW216257   5.938   0.632   2.474
 5120SOL     OW16258   3.395   1.271   1.773
 5120SOL    HW116259   3.370   1.320   1.690
 5120SOL    HW216260   3.493   1.251   1.772
 5121SOL     OW16261   0.713   3.988   4.128
 5121SOL    HW116262   0.700   3.893   4.101
 5121SOL    HW216263   0.637   4.017   4.187
 5122SOL     OW16264   2.231   5.581   2.752
 5122SOL    HW116265   2.210   5.503   2.693
 5122SOL    HW216266   2.313   5.627   2.718
 5123SOL     OW16267   6.216   3.506   2.761
 5123SOL    HW116268   6.208   3.472   2.855
 5123SOL    HW216269   6.149   3.459   2.703
 5124SOL     OW16270   3.239   6.072   0.795
 5124SOL    HW116271   3.306   6.118   0.737
 5124SOL    HW216272   3.268   6.077   0.890
 5125SOL     OW16273   0.635   1.936   5.989
 5125SOL    HW116274   0.611   1.992   6.068
 5125SOL    HW216275   0.577   1.855   5.987
 5126SOL     OW16276   4.449   1.785   0.645
 5126SOL    HW116277   4.425   1.806   0.740
 5126SOL    HW216278   4.507   1.703   0.643
 5127SOL     OW16279   4.800   3.698   6.193
 5127SOL    HW116280   4.765   3.761   6.263
 5127SOL    HW216281   4.843   3.751   6.120
 5128SOL     OW16282   0.273   0.387   6.707
 5128SOL    HW116283   0.235   0.300   6.737
 5128SOL    HW216284   0.209   0.432   6.645
 5129SOL     OW16285   4.769   2.778   3.977
 5129SOL    HW116286   4.730   2.729   4.055
 5129SOL    HW216287   4.827   2.853   4.010
 5130SOL     OW16288   2.538   6.594   4.943
 5130SOL    HW116289   2.473   6.558   5.011
 5130SOL    HW216290   2.491   6.660   4.885
 5131SOL     OW16291   2.987   5.325   3.092
 5131SOL    HW116292   2.972   5.419   3.122
 5131SOL    HW216293   2.976   5.263   3.170
 5132SOL     OW16294   3.361   1.855   6.463
 5132SOL    HW116295   3.379   1.775   6.406
 5132SOL    HW216296   3.346   1.935   6.406
 5133SOL     OW16297   4.044   4.230   5.980
 5133SOL    HW116298   4.075   4.210   5.887
 5133SOL    HW216299   3.973   4.164   6.006
 5134SOL     OW16300   5.842   6.113   0.909
 5134SOL    HW116301   5.769   6.141   0.847
 5134SOL    HW216302   5.921   6.082   0.857
 5135SOL     OW16303   0.765   2.949   2.403
 5135SOL    HW116304   0.708   2.875   2.438
 5135SOL    HW216305   0.777   2.939   2.304
 5136SOL     OW16306   6.939   0.070   4.364
 5136SOL    HW116307   6.855   0.024   4.393
 5136SOL    HW216308   6.921   0.122   4.281
 5137SOL     OW16309   5.546   0.720   2.818
 5137SOL    HW116310   5.484   0.680   2.886
 5137SOL    HW216311   5.542   0.667   2.734
 5138SOL     OW16312   3.387   3.600   2.888
 5138SOL    HW116313   3.292   3.617   2.862
 5138SOL    HW216314   3.435   3.687   2.897
 5139SOL     OW16315   5.241   0.686   4.679
 5139SOL    HW116316   5.177   0.646   4.745
 5139SOL    HW216317   5.284   0.767   4.720
 5140SOL     OW16318   2.710   3.725   6.115
 5140SOL    HW116319   2.690   3.673   6.031
 5140SOL    HW216320   2.746   3.815   6.090
 5141SOL     OW16321   1.083   3.218   0.832
 5141SOL    HW116322   1.162   3.258   0.878
 5141SOL    HW216323   1.090   3.118   0.833
 5142SOL     OW16324   0.235   6.825   2.972
 5142SOL    HW116325   0.301   6.757   3.003
 5142SOL    HW216326   0.246   6.909   3.026
 5143SOL     OW16327   6.445   6.120   2.800
 5143SOL    HW116328   6.524   6.152   2.854
 5143SOL    HW216329   6.393   6.199   2.769
 5144SOL     OW16330   2.043   2.895   5.285
 5144SOL    HW116331   1.994   2.977   5.316
 5144SOL    HW216332   2.142   2.911   5.292
 5145SOL     OW16333   1.268   5.380   5.651
 5145SOL    HW116334   1.319   5.387   5.737
 5145SOL    HW216335   1.275   5.287   5.616
 5146SOL     OW16336   5.283   6.225   6.697
 5146SOL    HW116337   5.353   6.295   6.708
 5146SOL    HW216338   5.308   6.144   6.749
 5147SOL     OW16339   4.905   1.021   2.832
 5147SOL    HW116340   4.911   1.121   2.826
 5147SOL    HW216341   4.910   0.981   2.741
 5148SOL     OW16342   6.061   1.462   0.894
 5148SOL    HW116343   6.003   1.382   0.880
 5148SOL    HW216344   6.057   1.491   0.990
 5149SOL     OW16345   2.832   6.406   3.847
 5149SOL    HW116346   2.857   6.363   3.760
 5149SOL    HW216347   2.883   6.491   3.859
 5150SOL     OW16348   6.676   0.800   4.068
 5150SOL    HW116349   6.641   0.709   4.089
 5150SOL    HW216350   6.775   0.800   4.076
 5151SOL     OW16351   5.346   4.590   1.922
 5151SOL    HW116352   5.320   4.540   1.839
 5151SOL    HW216353   5.424   4.544   1.965
 5152SOL     OW16354   2.257   1.947   0.300
 5152SOL    HW116355   2.354   1.931   0.316
 5152SOL    HW216356   2.205   1.917   0.380
 5153SOL     OW16357   2.354   2.371   0.136
 5153SOL    HW116358   2.447   2.342   0.159
 5153SOL    HW216359   2.339   2.464   0.171
 5154SOL     OW16360   0.647   2.880   0.127
 5154SOL    HW116361   0.547   2.882   0.125
 5154SOL    HW216362   0.679   2.786   0.112
 5155SOL     OW16363   1.401   0.733   0.262
 5155SOL    HW116364   1.409   0.711   0.359
 5155SOL    HW216365   1.486   0.708   0.215
 5156SOL     OW16366   5.368   4.923   5.873
 5156SOL    HW116367   5.368   4.829   5.841
 5156SOL    HW216368   5.461   4.949   5.900
 5157SOL     OW16369   3.672   1.207   1.729
 5157SOL    HW116370   3.723   1.154   1.797
 5157SOL    HW216371   3.704   1.301   1.730
 5158SOL     OW16372   1.905   2.783   2.666
 5158SOL    HW116373   1.850   2.813   2.744
 5158SOL    HW216374   1.847   2.774   2.585
 5159SOL     OW16375   6.636   2.894   5.578
 5159SOL    HW116376   6.622   2.991   5.597
 5159SOL    HW216377   6.622   2.841   5.662
 5160SOL     OW16378   6.723   0.349   3.019
 5160SOL    HW116379   6.730   0.267   2.962
 5160SOL    HW216380   6.736   0.430   2.962
 5161SOL     OW16381   1.070   1.906   6.689
 5161SOL    HW116382   1.144   1.858   6.737
 5161SOL    HW216383   1.106   1.952   6.609
 5162SOL     OW16384   0.310   7.005   5.644
 5162SOL    HW116385   0.280   6.972   5.734
 5162SOL    HW216386   0.247   6.972   5.574
 5163SOL     OW16387   2.884   0.889   1.575
 5163SOL    HW116388   2.807   0.913   1.516
 5163SOL    HW216389   2.969   0.923   1.534
 5164SOL     OW16390   2.536   3.019   0.325
 5164SOL    HW116391   2.451   3.006   0.377
 5164SOL    HW216392   2.602   2.948   0.350
 5165SOL     OW16393   0.999   5.096   5.512
 5165SOL    HW116394   1.092   5.132   5.503
 5165SOL    HW216395   1.003   5.002   5.546
 5166SOL     OW16396   6.871   6.175   5.494
 5166SOL    HW116397   6.918   6.235   5.429
 5166SOL    HW216398   6.773   6.182   5.482
 5167SOL     OW16399   6.385   3.525   6.046
 5167SOL    HW116400   6.417   3.520   6.141
 5167SOL    HW216401   6.463   3.511   5.984
 5168SOL     OW16402   5.245   1.767   3.433
 5168SOL    HW116403   5.283   1.698   3.372
 5168SOL    HW216404   5.313   1.840   3.447
 5169SOL     OW16405   5.156   5.479   4.578
 5169SOL    HW116406   5.066   5.499   4.618
 5169SOL    HW216407   5.226   5.535   4.623
 5170SOL     OW16408   2.335   3.631   6.214
 5170SOL    HW116409   2.416   3.589   6.255
 5170SOL    HW216410   2.293   3.567   6.150
 5171SOL     OW16411   2.305   6.456   5.588
 5171SOL    HW116412   2.271   6.516   5.515
 5171SOL    HW216413   2.389   6.495   5.627
 5172SOL     OW16414   4.834   5.356   5.712
 5172SOL    HW116415   4.816   5.281   5.776
 5172SOL    HW216416   4.866   5.319   5.625
 5173SOL     OW16417   3.987   6.283   4.276
 5173SOL    HW116418   4.003   6.353   4.206
 5173SOL    HW216419   3.933   6.321   4.351
 5174SOL     OW16420   0.489   5.748   3.153
 5174SOL    HW116421   0.449   5.755   3.244
 5174SOL    HW216422   0.588   5.740   3.161
 5175SOL     OW16423   2.979   1.570   6.506
 5175SOL    HW116424   2.938   1.579   6.597
 5175SOL    HW216425   2.915   1.524   6.445
 5176SOL     OW16426   5.720   6.487   6.351
 5176SOL    HW116427   5.699   6.542   6.270
 5176SOL    HW216428   5.739   6.548   6.428
 5177SOL     OW16429   5.897   5.578   0.860
 5177SOL    HW116430   5.809   5.623   0.842
 5177SOL    HW216431   5.906   5.561   0.958
 5178SOL     OW16432   1.040   4.338   0.710
 5178SOL    HW116433   1.021   4.338   0.808
 5178SOL    HW216434   1.055   4.245   0.678
 5179SOL     OW16435   3.778   5.357   2.667
 5179SOL    HW116436   3.858   5.330   2.613
 5179SOL    HW216437   3.755   5.283   2.730
 5180SOL     OW16438   2.786   5.164   2.033
 5180SOL    HW116439   2.818   5.072   2.009
 5180SOL    HW216440   2.864   5.227   2.037
 5181SOL     OW16441   6.537   1.172   5.645
 5181SOL    HW116442   6.625   1.154   5.689
 5181SOL    HW216443   6.531   1.269   5.620
 5182SOL     OW16444   2.029   6.121   2.555
 5182SOL    HW116445   1.949   6.068   2.524
 5182SOL    HW216446   2.075   6.071   2.628
 5183SOL     OW16447   5.439   1.942   3.508
 5183SOL    HW116448   5.435   2.032   3.549
 5183SOL    HW216449   5.498   1.882   3.563
 5184SOL     OW16450   3.198   0.876   2.327
 5184SOL    HW116451   3.228   0.914   2.414
 5184SOL    HW216452   3.172   0.780   2.338
 5185SOL     OW16453   6.246   0.283   1.435
 5185SOL    HW116454   6.256   0.379   1.408
 5185SOL    HW216455   6.189   0.277   1.517
 5186SOL     OW16456   5.795   2.473   6.663
 5186SOL    HW116457   5.872   2.517   6.618
 5186SOL    HW216458   5.821   2.380   6.690
 5187SOL     OW16459   1.308   4.806   4.635
 5187SOL    HW116460   1.392   4.832   4.587
 5187SOL    HW216461   1.331   4.768   4.724
 5188SOL     OW16462   0.201   0.354   1.814
 5188SOL    HW116463   0.229   0.447   1.838
 5188SOL    HW216464   0.107   0.355   1.782
 5189SOL     OW16465   5.617   6.154   6.465
 5189SOL    HW116466   5.669   6.191   6.388
 5189SOL    HW216467   5.535   6.107   6.431
 5190SOL     OW16468   1.617   5.150   0.837
 5190SOL    HW116469   1.624   5.240   0.880
 5190SOL    HW216470   1.521   5.127   0.821
 5191SOL     OW16471   2.964   4.123   1.638
 5191SOL    HW116472   3.033   4.150   1.704
 5191SOL    HW216473   2.952   4.195   1.570
 5192SOL     OW16474   0.603   4.291   2.964
 5192SOL    HW116475   0.622   4.209   3.019
 5192SOL    HW216476   0.577   4.264   2.872
 5193SOL     OW16477   3.984   0.275   4.575
 5193SOL    HW116478   3.896   0.281   4.620
 5193SOL    HW216479   4.057   0.279   4.643
 5194SOL     OW16480   4.471   1.513   5.582
 5194SOL    HW116481   4.427   1.596   5.547
 5194SOL    HW216482   4.570   1.522   5.573
 5195SOL     OW16483   1.879   1.301   5.569
 5195SOL    HW116484   1.955   1.341   5.517
 5195SOL    HW216485   1.895   1.203   5.582
 5196SOL     OW16486   5.565   6.339   3.044
 5196SOL    HW116487   5.627   6.377   2.976
 5196SOL    HW216488   5.477   6.386   3.040
 5197SOL     OW16489   1.934   4.054   5.377
 5197SOL    HW116490   1.985   4.140   5.381
 5197SOL    HW216491   1.989   3.985   5.331
 5198SOL     OW16492   6.360   5.684   3.975
 5198SOL    HW116493   6.384   5.674   4.071
 5198SOL    HW216494   6.279   5.742   3.966
 5199SOL     OW16495   0.959   5.596   1.495
 5199SOL    HW116496   0.886   5.663   1.507
 5199SOL    HW216497   0.918   5.509   1.466
 5200SOL     OW16498   6.863   4.234   5.031
 5200SOL    HW116499   6.934   4.194   5.089
 5200SOL    HW216500   6.831   4.166   4.965
 5201SOL     OW16501   0.912   6.158   4.515
 5201SOL    HW116502   0.829   6.201   4.548
 5201SOL    HW216503   0.969   6.130   4.592
 5202SOL     OW16504   0.057   4.636   1.639
 5202SOL    HW116505   0.026   4.644   1.545
 5202SOL    HW216506   7.001   4.646   1.701
 5203SOL     OW16507   6.535   3.365   6.446
 5203SOL    HW116508   6.594   3.404   6.376
 5203SOL    HW216509   6.571   3.276   6.474
 5204SOL     OW16510   5.536   5.341   6.218
 5204SOL    HW116511   5.516   5.367   6.124
 5204SOL    HW216512   5.621   5.385   6.247
 5205SOL     OW16513   2.546   5.862   0.239
 5205SOL    HW116514   2.583   5.935   0.181
 5205SOL    HW216515   2.592   5.864   0.328
 5206SOL     OW16516   0.810   4.386   5.046
 5206SOL    HW116517   0.835   4.295   5.014
 5206SOL    HW216518   0.727   4.380   5.102
 5207SOL     OW16519   1.447   6.009   2.268
 5207SOL    HW116520   1.543   6.005   2.240
 5207SOL    HW216521   1.430   5.939   2.338
 5208SOL     OW16522   4.413   1.570   0.324
 5208SOL    HW116523   4.320   1.597   0.300
 5208SOL    HW216524   4.451   1.514   0.251
 5209SOL     OW16525   6.336   5.086   3.050
 5209SOL    HW116526   6.395   5.065   3.128
 5209SOL    HW216527   6.241   5.071   3.076
 5210SOL     OW16528   5.182   3.791   3.331
 5210SOL    HW116529   5.091   3.776   3.371
 5210SOL    HW216530   5.196   3.889   3.317
 5211SOL     OW16531   3.392   4.150   2.447
 5211SOL    HW116532   3.437   4.147   2.536
 5211SOL    HW216533   3.298   4.117   2.455
 5212SOL     OW16534   0.767   0.344   6.546
 5212SOL    HW116535   0.780   0.270   6.612
 5212SOL    HW216536   0.816   0.323   6.462
 5213SOL     OW16537   4.705   2.105   6.214
 5213SOL    HW116538   4.730   2.196   6.245
 5213SOL    HW216539   4.693   2.045   6.293
 5214SOL     OW16540   4.788   2.143   0.369
 5214SOL    HW116541   4.857   2.102   0.309
 5214SOL    HW216542   4.768   2.080   0.444
 5215SOL     OW16543   5.665   5.255   4.237
 5215SOL    HW116544   5.722   5.173   4.236
 5215SOL    HW216545   5.722   5.334   4.261
 5216SOL     OW16546   4.286   5.594   1.206
 5216SOL    HW116547   4.333   5.512   1.241
 5216SOL    HW216548   4.309   5.605   1.109
 5217SOL     OW16549   3.124   5.134   3.753
 5217SOL    HW116550   3.173   5.219   3.771
 5217SOL    HW216551   3.065   5.112   3.831
 5218SOL     OW16552   1.250   0.222   3.362
 5218SOL    HW116553   1.322   0.160   3.331
 5218SOL    HW216554   1.282   0.274   3.441
 5219SOL     OW16555   3.293   0.017   1.041
 5219SOL    HW116556   3.313   6.976   0.967
 5219SOL    HW216557   3.374   0.027   1.099
 5220SOL     OW16558   0.771   6.541   2.508
 5220SOL    HW116559   0.735   6.599   2.582
 5220SOL    HW216560   0.849   6.489   2.542
 5221SOL     OW16561   4.495   0.955   0.509
 5221SOL    HW116562   4.413   0.905   0.482
 5221SOL    HW216563   4.566   0.942   0.440
 5222SOL     OW16564   0.403   6.566   2.738
 5222SOL    HW116565   0.418   6.592   2.833
 5222SOL    HW216566   0.305   6.564   2.719
 5223SOL     OW16567   4.304   6.890   1.364
 5223SOL    HW116568   4.312   6.803   1.413
 5223SOL    HW216569   4.217   6.933   1.386
 5224SOL     OW16570   5.600   0.784   3.875
 5224SOL    HW116571   5.504   0.793   3.849
 5224SOL    HW216572   5.654   0.755   3.796
 5225SOL     OW16573   0.152   6.873   5.455
 5225SOL    HW116574   0.163   6.851   5.358
 5225SOL    HW216575   0.062   6.913   5.470
 5226SOL     OW16576   2.326   0.718   3.916
 5226SOL    HW116577   2.288   0.778   3.846
 5226SOL    HW216578   2.415   0.683   3.885
 5227SOL     OW16579   4.888   3.395   4.633
 5227SOL    HW116580   4.825   3.326   4.598
 5227SOL    HW216581   4.982   3.367   4.614
 5228SOL     OW16582   4.576   6.753   1.829
 5228SOL    HW116583   4.629   6.837   1.816
 5228SOL    HW216584   4.593   6.718   1.921
 5229SOL     OW16585   0.725   3.978   3.678
 5229SOL    HW116586   0.644   3.938   3.720
 5229SOL    HW216587   0.805   3.924   3.704
 5230SOL     OW16588   0.229   1.572   6.459
 5230SOL    HW116589   0.289   1.643   6.496
 5230SOL    HW216590   0.251   1.484   6.500
 5231SOL     OW16591   3.004   3.866   3.543
 5231SOL    HW116592   3.032   3.955   3.577
 5231SOL    HW216593   3.027   3.858   3.446
 5232SOL     OW16594   5.108   3.072   4.688
 5232SOL    HW116595   5.033   3.119   4.733
 5232SOL    HW216596   5.113   2.978   4.719
 5233SOL     OW16597   0.930   6.856   3.089
 5233SOL    HW116598   0.941   6.791   3.163
 5233SOL    HW216599   1.012   6.913   3.081
 5234SOL     OW16600   3.964   4.594   1.259
 5234SOL    HW116601   3.872   4.555   1.262
 5234SOL    HW216602   4.018   4.547   1.188
 5235SOL     OW16603   1.232   2.364   1.554
 5235SOL    HW116604   1.162   2.296   1.573
 5235SOL    HW216605   1.281   2.386   1.638
 5236SOL     OW16606   6.310   3.363   0.283
 5236SOL    HW116607   6.241   3.422   0.242
 5236SOL    HW216608   6.273   3.321   0.366
 5237SOL     OW16609   2.038   1.874   2.433
 5237SOL    HW116610   1.944   1.844   2.450
 5237SOL    HW216611   2.044   1.913   2.342
 5238SOL     OW16612   2.276   3.217   0.891
 5238SOL    HW116613   2.236   3.295   0.843
 5238SOL    HW216614   2.340   3.170   0.830
 5239SOL     OW16615   2.724   3.438   5.300
 5239SOL    HW116616   2.814   3.452   5.259
 5239SOL    HW216617   2.711   3.341   5.319
 5240SOL     OW16618   4.080   2.037   4.508
 5240SOL    HW116619   4.141   2.068   4.581
 5240SOL    HW216620   4.135   2.003   4.431
 5241SOL     OW16621   4.024   5.689   5.494
 5241SOL    HW116622   3.951   5.635   5.537
 5241SOL    HW216623   3.988   5.779   5.470
 5242SOL     OW16624   3.888   0.399   5.516
 5242SOL    HW116625   3.967   0.426   5.570
 5242SOL    HW216626   3.856   0.309   5.546
 5243SOL     OW16627   1.352   3.959   0.483
 5243SOL    HW116628   1.342   3.964   0.582
 5243SOL    HW216629   1.437   3.912   0.460
 5244SOL     OW16630   5.818   3.441   6.808
 5244SOL    HW116631   5.883   3.447   6.732
 5244SOL    HW216632   5.731   3.480   6.781
 5245SOL     OW16633   4.643   3.877   5.955
 5245SOL    HW116634   4.614   3.802   5.896
 5245SOL    HW216635   4.602   3.867   6.045
 5246SOL     OW16636   1.399   3.437   3.561
 5246SOL    HW116637   1.386   3.525   3.516
 5246SOL    HW216638   1.484   3.395   3.529
 5247SOL     OW16639   0.572   4.869   0.369
 5247SOL    HW116640   0.625   4.873   0.284
 5247SOL    HW216641   0.558   4.773   0.394
 5248SOL     OW16642   4.958   1.097   0.324
 5248SOL    HW116643   4.920   1.006   0.339
 5248SOL    HW216644   4.889   1.155   0.279
 5249SOL     OW16645   0.836   5.574   0.185
 5249SOL    HW116646   0.736   5.569   0.192
 5249SOL    HW216647   0.862   5.582   0.089
 5250SOL     OW16648   0.980   1.531   5.931
 5250SOL    HW116649   0.915   1.593   5.888
 5250SOL    HW216650   1.047   1.501   5.863
 5251SOL     OW16651   0.725   2.909   1.219
 5251SOL    HW116652   0.675   2.955   1.291
 5251SOL    HW216653   0.692   2.814   1.211
 5252SOL     OW16654   5.085   6.009   1.040
 5252SOL    HW116655   5.137   6.040   0.960
 5252SOL    HW216656   5.113   5.916   1.064
 5253SOL     OW16657   5.692   2.838   3.718
 5253SOL    HW116658   5.648   2.858   3.806
 5253SOL    HW216659   5.700   2.739   3.707
 5254SOL     OW16660   5.566   0.214   4.550
 5254SOL    HW116661   5.562   0.235   4.648
 5254SOL    HW216662   5.661   0.203   4.521
 5255SOL     OW16663   2.396   5.843   3.205
 5255SOL    HW116664   2.459   5.786   3.257
 5255SOL    HW216665   2.374   5.925   3.258
 5256SOL     OW16666   4.953   6.072   2.202
 5256SOL    HW116667   4.913   5.988   2.165
 5256SOL    HW216668   5.045   6.085   2.166
 5257SOL     OW16669   3.175   1.140   2.571
 5257SOL    HW116670   3.094   1.109   2.621
 5257SOL    HW216671   3.156   1.230   2.530
 5258SOL     OW16672   5.739   2.009   1.496
 5258SOL    HW116673   5.781   2.097   1.520
 5258SOL    HW216674   5.750   1.993   1.398
 5259SOL     OW16675   5.963   4.857   1.725
 5259SOL    HW116676   5.947   4.762   1.752
 5259SOL    HW216677   5.947   4.917   1.803
 5260SOL     OW16678   5.001   2.744   1.684
 5260SOL    HW116679   4.946   2.665   1.711
 5260SOL    HW216680   5.028   2.796   1.766
 5261SOL     OW16681   2.363   2.733   5.093
 5261SOL    HW116682   2.348   2.832   5.092
 5261SOL    HW216683   2.329   2.694   5.007
 5262SOL     OW16684   1.535   0.249   1.631
 5262SOL    HW116685   1.515   0.190   1.554
 5262SOL    HW216686   1.461   0.315   1.643
 5263SOL     OW16687   1.098   0.048   0.185
 5263SOL    HW116688   1.193   0.071   0.205
 5263SOL    HW216689   1.041   0.070   0.265
 5264SOL     OW16690   0.904   0.534   0.641
 5264SOL    HW116691   0.818   0.569   0.679
 5264SOL    HW216692   0.981   0.583   0.682
 5265SOL     OW16693   5.254   4.647   4.288
 5265SOL    HW116694   5.246   4.700   4.372
 5265SOL    HW216695   5.244   4.550   4.309
 5266SOL     OW16696   1.395   0.276   1.001
 5266SOL    HW116697   1.442   0.321   1.077
 5266SOL    HW216698   1.303   0.249   1.030
 5267SOL     OW16699   3.900   4.196   5.026
 5267SOL    HW116700   3.958   4.245   4.960
 5267SOL    HW216701   3.805   4.203   4.997
 5268SOL     OW16702   5.654   5.000   5.570
 5268SOL    HW116703   5.672   5.012   5.667
 5268SOL    HW216704   5.643   5.090   5.527
 5269SOL     OW16705   2.637   5.424   5.440
 5269SOL    HW116706   2.593   5.345   5.397
 5269SOL    HW216707   2.736   5.414   5.434
 5270SOL     OW16708   6.992   1.932   2.921
 5270SOL    HW116709   0.032   1.984   2.863
 5270SOL    HW216710   0.003   1.934   3.015
 5271SOL     OW16711   5.471   3.671   5.337
 5271SOL    HW116712   5.432   3.760   5.361
 5271SOL    HW216713   5.479   3.663   5.238
 5272SOL     OW16714   2.325   2.096   3.689
 5272SOL    HW116715   2.400   2.133   3.635
 5272SOL    HW216716   2.289   2.014   3.644
 5273SOL     OW16717   6.546   0.537   5.661
 5273SOL    HW116718   6.490   0.604   5.710
 5273SOL    HW216719   6.642   0.566   5.664
 5274SOL     OW16720   0.549   5.252   4.204
 5274SOL    HW116721   0.567   5.256   4.303
 5274SOL    HW216722   0.461   5.295   4.184
 5275SOL     OW16723   2.283   6.348   6.926
 5275SOL    HW116724   2.197   6.306   6.952
 5275SOL    HW216725   2.270   6.404   6.844
 5276SOL     OW16726   0.353   7.012   0.499
 5276SOL    HW116727   0.329   0.046   0.420
 5276SOL    HW216728   0.453   7.008   0.508
 5277SOL     OW16729   0.665   1.116   1.629
 5277SOL    HW116730   0.637   1.097   1.722
 5277SOL    HW216731   0.587   1.149   1.576
 5278SOL     OW16732   0.426   4.767   6.073
 5278SOL    HW116733   0.377   4.847   6.037
 5278SOL    HW216734   0.421   4.692   6.007
 5279SOL     OW16735   2.403   6.511   0.124
 5279SOL    HW116736   2.334   6.484   0.192
 5279SOL    HW216737   2.365   6.497   0.032
 5280SOL     OW16738   4.501   6.238   6.072
 5280SOL    HW116739   4.510   6.301   5.995
 5280SOL    HW216740   4.474   6.290   6.154
 5281SOL     OW16741   2.138   6.685   4.783
 5281SOL    HW116742   2.130   6.586   4.770
 5281SOL    HW216743   2.126   6.706   4.880
 5282SOL     OW16744   6.589   5.783   0.881
 5282SOL    HW116745   6.591   5.755   0.785
 5282SOL    HW216746   6.676   5.827   0.903
 5283SOL     OW16747   1.487   0.595   4.356
 5283SOL    HW116748   1.493   0.675   4.415
 5283SOL    HW216749   1.580   0.563   4.336
 5284SOL     OW16750   4.828   2.935   2.314
 5284SOL    HW116751   4.870   2.848   2.289
 5284SOL    HW216752   4.779   2.972   2.235
 5285SOL     OW16753   1.725   1.897   4.232
 5285SOL    HW116754   1.736   1.808   4.275
 5285SOL    HW216755   1.635   1.934   4.254
 5286SOL     OW16756   0.118   3.201   1.234
 5286SOL    HW116757   0.061   3.119   1.233
 5286SOL    HW216758   0.091   3.259   1.312
 5287SOL     OW16759   0.445   5.022   2.301
 5287SOL    HW116760   0.486   4.943   2.346
 5287SOL    HW216761   0.364   4.994   2.250
 5288SOL     OW16762   3.992   1.195   1.231
 5288SOL    HW116763   4.023   1.129   1.299
 5288SOL    HW216764   4.015   1.163   1.139
 5289SOL     OW16765   1.778   4.855   6.291
 5289SOL    HW116766   1.821   4.945   6.297
 5289SOL    HW216767   1.842   4.789   6.251
 5290SOL     OW16768   1.508   2.966   5.255
 5290SOL    HW116769   1.525   2.875   5.293
 5290SOL    HW216770   1.575   2.984   5.183
 5291SOL     OW16771   2.814   5.527   4.740
 5291SOL    HW116772   2.743   5.571   4.795
 5291SOL    HW216773   2.802   5.554   4.644
 5292SOL     OW16774   0.878   3.954   4.784
 5292SOL    HW116775   0.949   3.978   4.718
 5292SOL    HW216776   0.788   3.971   4.744
 5293SOL     OW16777   2.487   0.521   3.240
 5293SOL    HW116778   2.463   0.466   3.320
 5293SOL    HW216779   2.409   0.524   3.178
 5294SOL     OW16780   4.919   6.887   4.158
 5294SOL    HW116781   4.854   6.927   4.094
 5294SOL    HW216782   5.006   6.869   4.111
 5295SOL     OW16783   2.169   0.525   0.885
 5295SOL    HW116784   2.085   0.542   0.834
 5295SOL    HW216785   2.149   0.520   0.982
 5296SOL     OW16786   4.641   5.215   2.320
 5296SOL    HW116787   4.714   5.147   2.316
 5296SOL    HW216788   4.556   5.174   2.289
 5297SOL     OW16789   3.463   5.105   6.105
 5297SOL    HW116790   3.452   5.017   6.058
 5297SOL    HW216791   3.418   5.100   6.194
 5298SOL     OW16792   3.534   1.577   0.050
 5298SOL    HW116793   3.474   1.523   0.108
 5298SOL    HW216794   3.479   1.636   7.013
 5299SOL     OW16795   2.105   0.540   1.151
 5299SOL    HW116796   2.152   0.586   1.226
 5299SOL    HW216797   2.060   0.457   1.185
 5300SOL     OW16798   3.123   5.176   6.490
 5300SOL    HW116799   3.046   5.236   6.469
 5300SOL    HW216800   3.162   5.201   6.578
 5301SOL     OW16801   6.555   6.812   5.807
 5301SOL    HW116802   6.474   6.757   5.824
 5301SOL    HW216803   6.547   6.900   5.854
 5302SOL     OW16804   4.955   5.254   2.990
 5302SOL    HW116805   4.892   5.307   2.933
 5302SOL    HW216806   4.905   5.179   3.034
 5303SOL     OW16807   1.433   6.299   4.996
 5303SOL    HW116808   1.470   6.380   5.042
 5303SOL    HW216809   1.384   6.243   5.062
 5304SOL     OW16810   0.310   0.517   3.084
 5304SOL    HW116811   0.302   0.420   3.108
 5304SOL    HW216812   0.365   0.526   3.001
 5305SOL     OW16813   0.055   5.287   4.668
 5305SOL    HW116814   0.032   5.224   4.594
 5305SOL    HW216815   0.006   5.261   4.751
 5306SOL     OW16816   0.968   1.987   6.187
 5306SOL    HW116817   0.890   1.972   6.126
 5306SOL    HW216818   0.947   2.058   6.253
 5307SOL     OW16819   0.668   1.412   1.042
 5307SOL    HW116820   0.720   1.379   0.963
 5307SOL    HW216821   0.731   1.438   1.115
 5308SOL     OW16822   1.927   4.539   2.580
 5308SOL    HW116823   1.930   4.457   2.522
 5308SOL    HW216824   1.960   4.516   2.672
 5309SOL     OW16825   5.493   6.173   3.558
 5309SOL    HW116826   5.395   6.163   3.576
 5309SOL    HW216827   5.544   6.114   3.620
 5310SOL     OW16828   6.483   1.694   3.149
 5310SOL    HW116829   6.541   1.726   3.223
 5310SOL    HW216830   6.504   1.745   3.065
 5311SOL     OW16831   5.989   6.966   0.415
 5311SOL    HW116832   6.021   7.022   0.492
 5311SOL    HW216833   5.905   7.005   0.379
 5312SOL     OW16834   5.887   6.862   0.904
 5312SOL    HW116835   5.951   6.833   0.832
 5312SOL    HW216836   5.793   6.851   0.872
 5313SOL     OW16837   1.451   6.752   5.881
 5313SOL    HW116838   1.465   6.815   5.957
 5313SOL    HW216839   1.536   6.702   5.864
 5314SOL     OW16840   5.883   2.211   1.557
 5314SOL    HW116841   5.980   2.205   1.579
 5314SOL    HW216842   5.871   2.259   1.470
 5315SOL     OW16843   4.155   2.282   3.558
 5315SOL    HW116844   4.211   2.325   3.486
 5315SOL    HW216845   4.084   2.226   3.516
 5316SOL     OW16846   0.441   2.910   5.017
 5316SOL    HW116847   0.363   2.854   5.047
 5316SOL    HW216848   0.453   2.900   4.918
 5317SOL     OW16849   5.596   3.273   0.452
 5317SOL    HW116850   5.542   3.295   0.371
 5317SOL    HW216851   5.688   3.311   0.443
 5318SOL     OW16852   0.102   4.072   5.621
 5318SOL    HW116853   0.189   4.064   5.572
 5318SOL    HW216854   0.096   4.000   5.690
 5319SOL     OW16855   3.729   6.412   2.549
 5319SOL    HW116856   3.676   6.358   2.484
 5319SOL    HW216857   3.674   6.428   2.631
 5320SOL     OW16858   4.742   5.991   0.695
 5320SOL    HW116859   4.774   5.939   0.774
 5320SOL    HW216860   4.801   5.973   0.617
 5321SOL     OW16861   1.651   4.015   6.007
 5321SOL    HW116862   1.563   3.983   6.044
 5321SOL    HW216863   1.723   3.997   6.074
 5322SOL     OW16864   3.610   6.400   1.941
 5322SOL    HW116865   3.554   6.366   1.865
 5322SOL    HW216866   3.558   6.393   2.026
 5323SOL     OW16867   4.156   0.438   6.327
 5323SOL    HW116868   4.196   0.371   6.265
 5323SOL    HW216869   4.057   0.441   6.314
 5324SOL     OW16870   1.411   2.041   1.518
 5324SOL    HW116871   1.485   2.079   1.574
 5324SOL    HW216872   1.379   1.956   1.559
 5325SOL     OW16873   1.950   2.669   4.878
 5325SOL    HW116874   1.958   2.700   4.784
 5325SOL    HW216875   1.949   2.748   4.939
 5326SOL     OW16876   6.043   6.720   1.422
 5326SOL    HW116877   6.066   6.738   1.326
 5326SOL    HW216878   6.080   6.631   1.448
 5327SOL     OW16879   0.716   2.606   5.423
 5327SOL    HW116880   0.712   2.520   5.474
 5327SOL    HW216881   0.793   2.661   5.456
 5328SOL     OW16882   4.401   5.118   0.554
 5328SOL    HW116883   4.416   5.191   0.487
 5328SOL    HW216884   4.324   5.061   0.524
 5329SOL     OW16885   2.257   6.438   6.072
 5329SOL    HW116886   2.208   6.466   5.989
 5329SOL    HW216887   2.355   6.450   6.057
 5330SOL     OW16888   2.801   4.954   1.294
 5330SOL    HW116889   2.801   4.889   1.219
 5330SOL    HW216890   2.713   4.953   1.340
 5331SOL     OW16891   6.419   1.303   6.598
 5331SOL    HW116892   6.382   1.340   6.683
 5331SOL    HW216893   6.383   1.356   6.521
 5332SOL     OW16894   0.754   4.468   1.554
 5332SOL    HW116895   0.699   4.527   1.612
 5332SOL    HW216896   0.759   4.376   1.594
 5333SOL     OW16897   0.865   6.484   4.857
 5333SOL    HW116898   0.818   6.572   4.860
 5333SOL    HW216899   0.885   6.454   4.950
 5334SOL     OW16900   3.813   6.835   5.374
 5334SOL    HW116901   3.911   6.857   5.376
 5334SOL    HW216902   3.781   6.818   5.467
 5335SOL     OW16903   6.688   6.051   0.677
 5335SOL    HW116904   6.781   6.016   0.685
 5335SOL    HW216905   6.661   6.093   0.764
 5336SOL     OW16906   1.409   4.399   1.256
 5336SOL    HW116907   1.391   4.491   1.293
 5336SOL    HW216908   1.348   4.382   1.179
 5337SOL     OW16909   4.872   4.459   1.809
 5337SOL    HW116910   4.778   4.430   1.790
 5337SOL    HW216911   4.920   4.388   1.861
 5338SOL     OW16912   5.192   2.870   0.384
 5338SOL    HW116913   5.153   2.961   0.368
 5338SOL    HW216914   5.251   2.874   0.465
 5339SOL     OW16915   6.325   0.303   2.048
 5339SOL    HW116916   6.332   0.204   2.057
 5339SOL    HW216917   6.245   0.327   1.993
 5340SOL     OW16918   4.937   2.604   6.597
 5340SOL    HW116919   4.869   2.608   6.524
 5340SOL    HW216920   4.924   2.521   6.651
 5341SOL     OW16921   4.900   0.322   1.128
 5341SOL    HW116922   4.854   0.236   1.107
 5341SOL    HW216923   4.852   0.398   1.083
 5342SOL     OW16924   2.866   0.321   5.846
 5342SOL    HW116925   2.845   0.363   5.758
 5342SOL    HW216926   2.890   0.225   5.832
 5343SOL     OW16927   3.471   3.839   1.632
 5343SOL    HW116928   3.429   3.929   1.637
 5343SOL    HW216929   3.466   3.795   1.722
 5344SOL     OW16930   2.150   2.257   2.388
 5344SOL    HW116931   2.108   2.344   2.417
 5344SOL    HW216932   2.247   2.258   2.411
 5345SOL     OW16933   4.642   0.446   3.269
 5345SOL    HW116934   4.578   0.422   3.341
 5345SOL    HW216935   4.701   0.520   3.301
 5346SOL     OW16936   3.027   0.729   4.062
 5346SOL    HW116937   2.964   0.793   4.106
 5346SOL    HW216938   2.990   0.636   4.067
 5347SOL     OW16939   6.709   1.468   1.434
 5347SOL    HW116940   6.684   1.564   1.444
 5347SOL    HW216941   6.667   1.414   1.507
 5348SOL     OW16942   6.430   1.480   0.068
 5348SOL    HW116943   6.390   1.468   0.159
 5348SOL    HW216944   6.513   1.534   0.076
 5349SOL     OW16945   5.745   0.132   1.504
 5349SOL    HW116946   5.820   0.170   1.449
 5349SOL    HW216947   5.779   0.105   1.593
 5350SOL     OW16948   2.448   0.604   6.572
 5350SOL    HW116949   2.529   0.560   6.535
 5350SOL    HW216950   2.465   0.634   6.666
 5351SOL     OW16951   4.336   1.200   1.956
 5351SOL    HW116952   4.272   1.275   1.975
 5351SOL    HW216953   4.287   1.113   1.963
 5352SOL     OW16954   3.181   6.705   3.522
 5352SOL    HW116955   3.153   6.785   3.574
 5352SOL    HW216956   3.229   6.641   3.582
 5353SOL     OW16957   5.931   0.256   6.074
 5353SOL    HW116958   6.009   0.300   6.118
 5353SOL    HW216959   5.900   0.311   5.997
 5354SOL     OW16960   1.533   3.330   0.763
 5354SOL    HW116961   1.585   3.245   0.758
 5354SOL    HW216962   1.566   3.394   0.693
 5355SOL     OW16963   4.577   1.452   5.959
 5355SOL    HW116964   4.578   1.546   5.992
 5355SOL    HW216965   4.490   1.434   5.914
 5356SOL     OW16966   6.585   3.386   1.316
 5356SOL    HW116967   6.548   3.428   1.233
 5356SOL    HW216968   6.651   3.316   1.290
 5357SOL     OW16969   3.778   6.087   0.199
 5357SOL    HW116970   3.771   6.178   0.238
 5357SOL    HW216971   3.856   6.082   0.137
 5358SOL     OW16972   5.185   4.311   1.857
 5358SOL    HW116973   5.282   4.296   1.879
 5358SOL    HW216974   5.132   4.313   1.942
 5359SOL     OW16975   3.391   0.048   6.177
 5359SOL    HW116976   3.374   0.004   6.089
 5359SOL    HW216977   3.352   0.140   6.178
 5360SOL     OW16978   4.253   1.472   6.758
 5360SOL    HW116979   4.208   1.539   6.817
 5360SOL    HW216980   4.231   1.491   6.662
 5361SOL     OW16981   1.543   1.104   6.270
 5361SOL    HW116982   1.451   1.072   6.245
 5361SOL    HW216983   1.538   1.200   6.297
 5362SOL     OW16984   4.175   5.736   3.630
 5362SOL    HW116985   4.191   5.640   3.607
 5362SOL    HW216986   4.252   5.771   3.682
 5363SOL     OW16987   0.877   5.763   4.632
 5363SOL    HW116988   0.875   5.676   4.682
 5363SOL    HW216989   0.791   5.774   4.582
 5364SOL     OW16990   1.295   6.115   6.998
 5364SOL    HW116991   1.341   6.029   7.016
 5364SOL    HW216992   1.326   6.152   6.910
 5365SOL     OW16993   3.865   2.092   5.964
 5365SOL    HW116994   3.782   2.136   5.999
 5365SOL    HW216995   3.884   2.010   6.018
 5366SOL     OW16996   3.685   3.956   6.203
 5366SOL    HW116997   3.604   3.917   6.159
 5366SOL    HW216998   3.657   4.035   6.258
 5367SOL     OW16999   0.218   4.866   0.941
 5367SOL    HW117000   0.203   4.923   1.022
 5367SOL    HW217001   0.312   4.879   0.908
 5368SOL     OW17002   0.690   0.646   3.925
 5368SOL    HW117003   0.698   0.556   3.882
 5368SOL    HW217004   0.608   0.649   3.981
 5369SOL     OW17005   2.095   3.537   2.544
 5369SOL    HW117006   2.115   3.624   2.500
 5369SOL    HW217007   1.996   3.523   2.547
 5370SOL     OW17008   3.789   3.085   1.674
 5370SOL    HW117009   3.823   3.178   1.672
 5370SOL    HW217010   3.689   3.085   1.671
 5371SOL     OW17011   1.855   4.217   4.946
 5371SOL    HW117012   1.877   4.255   4.856
 5371SOL    HW217013   1.928   4.154   4.974
 5372SOL     OW17014   3.221   6.346   2.410
 5372SOL    HW117015   3.131   6.375   2.377
 5372SOL    HW217016   3.262   6.421   2.462
 5373SOL     OW17017   1.710   5.271   3.824
 5373SOL    HW117018   1.620   5.254   3.783
 5373SOL    HW217019   1.709   5.242   3.920
 5374SOL     OW17020   3.172   2.443   0.653
 5374SOL    HW117021   3.151   2.532   0.693
 5374SOL    HW217022   3.257   2.449   0.601
 5375SOL     OW17023   1.263   3.866   5.179
 5375SOL    HW117024   1.326   3.937   5.147
 5375SOL    HW217025   1.254   3.796   5.108
 5376SOL     OW17026   2.907   4.943   5.998
 5376SOL    HW117027   2.924   5.026   5.945
 5376SOL    HW217028   2.857   4.967   6.081
 5377SOL     OW17029   0.644   2.165   1.883
 5377SOL    HW117030   0.709   2.241   1.872
 5377SOL    HW217031   0.571   2.174   1.815
 5378SOL     OW17032   4.950   0.462   6.706
 5378SOL    HW117033   5.040   0.505   6.694
 5378SOL    HW217034   4.939   0.390   6.637
 5379SOL     OW17035   0.089   0.035   0.547
 5379SOL    HW117036   0.060   0.120   0.591
 5379SOL    HW217037   0.186   0.041   0.524
 5380SOL     OW17038   1.929   1.410   5.098
 5380SOL    HW117039   1.889   1.500   5.079
 5380SOL    HW217040   2.011   1.398   5.043
 5381SOL     OW17041   6.199   3.653   1.882
 5381SOL    HW117042   6.142   3.620   1.957
 5381SOL    HW217043   6.186   3.595   1.802
 5382SOL     OW17044   2.011   6.750   1.602
 5382SOL    HW117045   2.013   6.715   1.695
 5382SOL    HW217046   1.971   6.842   1.601
 5383SOL     OW17047   2.222   1.972   4.827
 5383SOL    HW117048   2.147   2.005   4.769
 5383SOL    HW217049   2.262   2.049   4.876
 5384SOL     OW17050   5.357   6.703   4.504
 5384SOL    HW117051   5.278   6.665   4.457
 5384SOL    HW217052   5.436   6.643   4.492
 5385SOL     OW17053   3.908   3.970   2.821
 5385SOL    HW117054   3.978   3.906   2.854
 5385SOL    HW217055   3.928   3.996   2.727
 5386SOL     OW17056   6.116   6.445   5.931
 5386SOL    HW117057   6.049   6.378   5.899
 5386SOL    HW217058   6.069   6.516   5.983
 5387SOL     OW17059   3.768   4.995   0.865
 5387SOL    HW117060   3.834   5.071   0.866
 5387SOL    HW217061   3.713   4.998   0.948
 5388SOL     OW17062   5.666   5.717   3.094
 5388SOL    HW117063   5.576   5.756   3.075
 5388SOL    HW217064   5.666   5.675   3.185
 5389SOL     OW17065   5.716   3.280   1.493
 5389SOL    HW117066   5.796   3.309   1.545
 5389SOL    HW217067   5.727   3.307   1.397
 5390SOL     OW17068   6.444   5.079   6.419
 5390SOL    HW117069   6.345   5.073   6.407
 5390SOL    HW217070   6.468   5.168   6.458
 5391SOL     OW17071   3.559   3.867   0.085
 5391SOL    HW117072   3.616   3.816   0.020
 5391SOL    HW217073   3.468   3.882   0.046
 5392SOL     OW17074   0.096   2.366   3.323
 5392SOL    HW117075   0.014   2.419   3.345
 5392SOL    HW217076   0.083   2.271   3.352
 5393SOL     OW17077   6.518   0.016   6.350
 5393SOL    HW117078   6.450   6.967   6.334
 5393SOL    HW217079   6.509   0.087   6.280
 5394SOL     OW17080   1.712   3.720   6.094
 5394SOL    HW117081   1.748   3.767   6.175
 5394SOL    HW217082   1.774   3.647   6.067
 5395SOL     OW17083   4.337   0.692   1.228
 5395SOL    HW117084   4.394   0.671   1.308
 5395SOL    HW217085   4.383   0.761   1.172
 5396SOL     OW17086   4.851   2.528   1.226
 5396SOL    HW117087   4.773   2.506   1.284
 5396SOL    HW217088   4.826   2.513   1.130
 5397SOL     OW17089   1.565   2.599   1.784
 5397SOL    HW117090   1.641   2.578   1.845
 5397SOL    HW217091   1.528   2.513   1.747
 5398SOL     OW17092   3.396   3.319   2.941
 5398SOL    HW117093   3.405   3.419   2.932
 5398SOL    HW217094   3.309   3.290   2.902
 5399SOL     OW17095   0.430   5.225   0.321
 5399SOL    HW117096   0.399   5.314   0.353
 5399SOL    HW217097   0.367   5.190   0.252
 5400SOL     OW17098   2.180   3.362   6.929
 5400SOL    HW117099   2.107   3.424   6.900
 5400SOL    HW217100   2.149   3.267   6.922
 5401SOL     OW17101   6.545   1.678   0.610
 5401SOL    HW117102   6.564   1.585   0.644
 5401SOL    HW217103   6.618   1.739   0.640
 5402SOL     OW17104   0.963   6.144   2.189
 5402SOL    HW117105   1.032   6.156   2.118
 5402SOL    HW217106   0.877   6.185   2.159
 5403SOL     OW17107   6.356   2.864   6.450
 5403SOL    HW117108   6.270   2.914   6.460
 5403SOL    HW217109   6.408   2.871   6.535
 5404SOL     OW17110   0.905   3.071   3.102
 5404SOL    HW117111   0.997   3.041   3.129
 5404SOL    HW217112   0.911   3.125   3.018
 5405SOL     OW17113   6.671   4.471   5.365
 5405SOL    HW117114   6.650   4.547   5.426
 5405SOL    HW217115   6.733   4.407   5.411
 5406SOL     OW17116   1.602   0.179   3.572
 5406SOL    HW117117   1.690   0.151   3.533
 5406SOL    HW217118   1.547   0.098   3.592
 5407SOL     OW17119   4.304   3.361   6.336
 5407SOL    HW117120   4.273   3.286   6.395
 5407SOL    HW217121   4.403   3.368   6.341
 5408SOL     OW17122   3.616   1.091   6.303
 5408SOL    HW117123   3.666   1.049   6.227
 5408SOL    HW217124   3.643   1.187   6.311
 5409SOL     OW17125   5.127   0.543   1.775
 5409SOL    HW117126   5.086   0.568   1.688
 5409SOL    HW217127   5.055   0.530   1.844
 5410SOL     OW17128   1.369   2.470   3.048
 5410SOL    HW117129   1.280   2.507   3.024
 5410SOL    HW217130   1.358   2.381   3.092
 5411SOL     OW17131   2.350   4.806   4.855
 5411SOL    HW117132   2.419   4.834   4.922
 5411SOL    HW217133   2.327   4.885   4.797
 5412SOL     OW17134   6.321   2.032   2.296
 5412SOL    HW117135   6.238   2.086   2.307
 5412SOL    HW217136   6.297   1.935   2.292
 5413SOL     OW17137   1.527   6.927   2.693
 5413SOL    HW117138   1.439   6.968   2.671
 5413SOL    HW217139   1.576   6.987   2.757
 5414SOL     OW17140   4.279   0.233   6.200
 5414SOL    HW117141   4.323   0.261   6.115
 5414SOL    HW217142   4.346   0.195   6.263
 5415SOL     OW17143   6.295   3.423   3.015
 5415SOL    HW117144   6.225   3.370   3.064
 5415SOL    HW217145   6.386   3.394   3.046
 5416SOL     OW17146   4.254   5.032   4.263
 5416SOL    HW117147   4.299   5.091   4.329
 5416SOL    HW217148   4.165   5.071   4.238
 5417SOL     OW17149   2.973   0.070   5.811
 5417SOL    HW117150   3.015   0.012   5.740
 5417SOL    HW217151   2.947   0.013   5.889
 5418SOL     OW17152   3.634   1.029   3.287
 5418SOL    HW117153   3.623   1.009   3.189
 5418SOL    HW217154   3.674   1.119   3.298
 5419SOL     OW17155   3.327   4.231   6.798
 5419SOL    HW117156   3.273   4.280   6.866
 5419SOL    HW217157   3.346   4.292   6.721
 5420SOL     OW17158   0.986   2.466   2.994
 5420SOL    HW117159   0.887   2.468   2.983
 5420SOL    HW217160   1.021   2.560   2.996
 5421SOL     OW17161   2.323   2.374   0.575
 5421SOL    HW117162   2.332   2.319   0.492
 5421SOL    HW217163   2.391   2.343   0.642
 5422SOL     OW17164   0.780   3.498   0.350
 5422SOL    HW117165   0.813   3.592   0.362
 5422SOL    HW217166   0.830   3.437   0.411
 5423SOL     OW17167   4.527   3.035   5.817
 5423SOL    HW117168   4.497   3.027   5.912
 5423SOL    HW217169   4.586   2.958   5.794
 5424SOL     OW17170   5.244   2.871   5.647
 5424SOL    HW117171   5.295   2.937   5.703
 5424SOL    HW217172   5.296   2.851   5.564
 5425SOL     OW17173   5.099   1.082   4.858
 5425SOL    HW117174   5.172   1.034   4.906
 5425SOL    HW217175   5.104   1.061   4.760
 5426SOL     OW17176   0.466   0.015   4.524
 5426SOL    HW117177   0.494   6.972   4.595
 5426SOL    HW217178   0.523   0.097   4.531
 5427SOL     OW17179   4.190   0.032   0.459
 5427SOL    HW117180   4.240   0.099   0.404
 5427SOL    HW217181   4.184   6.968   0.408
 5428SOL     OW17182   1.670   0.864   0.203
 5428SOL    HW117183   1.671   0.861   0.103
 5428SOL    HW217184   1.759   0.837   0.239
 5429SOL     OW17185   1.044   2.453   6.166
 5429SOL    HW117186   1.139   2.447   6.196
 5429SOL    HW217187   1.023   2.373   6.109
 5430SOL     OW17188   2.196   2.730   5.609
 5430SOL    HW117189   2.209   2.829   5.603
 5430SOL    HW217190   2.223   2.688   5.523
 5431SOL     OW17191   3.838   5.547   4.096
 5431SOL    HW117192   3.895   5.467   4.074
 5431SOL    HW217193   3.870   5.626   4.044
 5432SOL     OW17194   5.882   4.911   1.467
 5432SOL    HW117195   5.836   4.822   1.465
 5432SOL    HW217196   5.934   4.919   1.552
 5433SOL     OW17197   0.886   1.553   3.390
 5433SOL    HW117198   0.966   1.609   3.368
 5433SOL    HW217199   0.832   1.599   3.460
 5434SOL     OW17200   2.303   6.351   4.927
 5434SOL    HW117201   2.363   6.372   5.004
 5434SOL    HW217202   2.305   6.252   4.908
 5435SOL     OW17203   4.585   0.889   2.237
 5435SOL    HW117204   4.537   0.977   2.241
 5435SOL    HW217205   4.651   0.890   2.162
 5436SOL     OW17206   5.411   3.960   2.896
 5436SOL    HW117207   5.428   3.913   2.810
 5436SOL    HW217208   5.329   4.016   2.887
 5437SOL     OW17209   3.897   4.702   6.240
 5437SOL    HW117210   3.809   4.661   6.215
 5437SOL    HW217211   3.882   4.793   6.278
 5438SOL     OW17212   6.704   0.704   0.836
 5438SOL    HW117213   6.736   0.709   0.930
 5438SOL    HW217214   6.743   0.780   0.783
 5439SOL     OW17215   1.247   3.298   0.541
 5439SOL    HW117216   1.306   3.240   0.598
 5439SOL    HW217217   1.213   3.245   0.463
 5440SOL     OW17218   1.854   0.821   1.423
 5440SOL    HW117219   1.913   0.839   1.344
 5440SOL    HW217220   1.889   0.872   1.502
 5441SOL     OW17221   3.708   1.862   4.562
 5441SOL    HW117222   3.784   1.922   4.535
 5441SOL    HW217223   3.743   1.788   4.619
 5442SOL     OW17224   3.229   0.828   2.048
 5442SOL    HW117225   3.249   0.865   2.138
 5442SOL    HW217226   3.238   0.900   1.979
 5443SOL     OW17227   1.645   6.561   5.792
 5443SOL    HW117228   1.660   6.503   5.872
 5443SOL    HW217229   1.677   6.514   5.710
 5444SOL     OW17230   0.601   1.117   3.441
 5444SOL    HW117231   0.564   1.025   3.431
 5444SOL    HW217232   0.701   1.112   3.440
 5445SOL     OW17233   6.233   3.378   2.112
 5445SOL    HW117234   6.250   3.331   2.198
 5445SOL    HW217235   6.144   3.423   2.115
 5446SOL     OW17236   6.442   5.865   5.853
 5446SOL    HW117237   6.408   5.824   5.768
 5446SOL    HW217238   6.386   5.833   5.929
 5447SOL     OW17239   3.122   2.509   0.987
 5447SOL    HW117240   3.088   2.486   1.078
 5447SOL    HW217241   3.220   2.490   0.981
 5448SOL     OW17242   5.650   1.634   6.334
 5448SOL    HW117243   5.570   1.691   6.316
 5448SOL    HW217244   5.724   1.690   6.371
 5449SOL     OW17245   0.242   2.792   6.885
 5449SOL    HW117246   0.186   2.752   6.813
 5449SOL    HW217247   0.289   2.873   6.850
 5450SOL     OW17248   2.514   6.079   0.767
 5450SOL    HW117249   2.464   6.070   0.853
 5450SOL    HW217250   2.572   6.160   0.771
 5451SOL     OW17251   2.473   0.368   2.692
 5451SOL    HW117252   2.480   0.467   2.677
 5451SOL    HW217253   2.404   0.330   2.630
 5452SOL     OW17254   2.617   3.898   5.818
 5452SOL    HW117255   2.519   3.914   5.803
 5452SOL    HW217256   2.661   3.877   5.731
 5453SOL     OW17257   0.621   5.548   5.339
 5453SOL    HW117258   0.654   5.594   5.422
 5453SOL    HW217259   0.624   5.449   5.352
 5454SOL     OW17260   0.832   3.867   5.393
 5454SOL    HW117261   0.915   3.812   5.392
 5454SOL    HW217262   0.856   3.964   5.394
 5455SOL     OW17263   6.603   2.021   0.801
 5455SOL    HW117264   6.503   2.016   0.800
 5455SOL    HW217265   6.631   2.097   0.860
 5456SOL     OW17266   3.644   6.769   1.234
 5456SOL    HW117267   3.690   6.697   1.182
 5456SOL    HW217268   3.672   6.765   1.330
 5457SOL     OW17269   6.505   3.516   1.082
 5457SOL    HW117270   6.408   3.497   1.072
 5457SOL    HW217271   6.538   3.568   1.003
 5458SOL     OW17272   1.629   4.293   5.883
 5458SOL    HW117273   1.650   4.199   5.911
 5458SOL    HW217274   1.715   4.343   5.869
 5459SOL     OW17275   2.269   3.870   6.144
 5459SOL    HW117276   2.233   3.907   6.229
 5459SOL    HW217277   2.299   3.776   6.157
 5460SOL     OW17278   3.926   0.185   4.000
 5460SOL    HW117279   3.915   0.130   4.083
 5460SOL    HW217280   3.995   0.143   3.941
 5461SOL     OW17281   4.176   6.984   5.062
 5461SOL    HW117282   4.154   0.059   5.057
 5461SOL    HW217283   4.227   6.957   4.981
 5462SOL     OW17284   0.166   0.346   1.392
 5462SOL    HW117285   0.247   0.291   1.369
 5462SOL    HW217286   0.195   0.436   1.425
 5463SOL     OW17287   6.752   2.939   1.006
 5463SOL    HW117288   6.706   2.850   1.007
 5463SOL    HW217289   6.683   3.012   1.010
 5464SOL     OW17290   1.558   6.626   4.503
 5464SOL    HW117291   1.617   6.557   4.545
 5464SOL    HW217292   1.563   6.618   4.403
 5465SOL     OW17293   2.991   5.798   6.912
 5465SOL    HW117294   2.993   5.869   6.841
 5465SOL    HW217295   2.897   5.764   6.921
 5466SOL     OW17296   5.624   5.831   4.769
 5466SOL    HW117297   5.629   5.931   4.770
 5466SOL    HW217298   5.615   5.799   4.675
 5467SOL     OW17299   5.877   1.747   1.711
 5467SOL    HW117300   5.856   1.840   1.681
 5467SOL    HW217301   5.958   1.714   1.663
 5468SOL     OW17302   4.150   1.221   6.448
 5468SOL    HW117303   4.142   1.148   6.380
 5468SOL    HW217304   4.243   1.222   6.485
 5469SOL     OW17305   4.692   4.748   1.868
 5469SOL    HW117306   4.680   4.847   1.872
 5469SOL    HW217307   4.787   4.727   1.848
 5470SOL     OW17308   0.102   4.675   3.261
 5470SOL    HW117309   0.120   4.667   3.359
 5470SOL    HW217310   0.016   4.629   3.239
 5471SOL     OW17311   6.484   4.314   2.305
 5471SOL    HW117312   6.578   4.322   2.339
 5471SOL    HW217313   6.443   4.405   2.299
 5472SOL     OW17314   3.823   5.256   4.926
 5472SOL    HW117315   3.769   5.237   5.008
 5472SOL    HW217316   3.809   5.182   4.860
 5473SOL     OW17317   1.794   4.774   3.845
 5473SOL    HW117318   1.846   4.858   3.861
 5473SOL    HW217319   1.696   4.793   3.851
 5474SOL     OW17320   0.959   5.928   3.047
 5474SOL    HW117321   0.946   5.947   3.145
 5474SOL    HW217322   0.950   6.013   2.995
 5475SOL     OW17323   3.131   2.888   1.514
 5475SOL    HW117324   3.188   2.926   1.442
 5475SOL    HW217325   3.187   2.874   1.597
 5476SOL     OW17326   2.067   3.123   6.936
 5476SOL    HW117327   1.970   3.144   6.932
 5476SOL    HW217328   2.079   3.024   6.938
 5477SOL     OW17329   2.058   2.402   2.103
 5477SOL    HW117330   2.021   2.357   2.184
 5477SOL    HW217331   2.152   2.429   2.120
 5478SOL     OW17332   6.997   5.784   5.512
 5478SOL    HW117333   0.072   5.799   5.527
 5478SOL    HW217334   6.974   5.689   5.535
 5479SOL     OW17335   4.399   6.346   5.484
 5479SOL    HW117336   4.402   6.373   5.388
 5479SOL    HW217337   4.489   6.357   5.525
 5480SOL     OW17338   0.071   2.268   5.861
 5480SOL    HW117339   0.019   2.298   5.781
 5480SOL    HW217340   0.139   2.201   5.833
 5481SOL     OW17341   3.953   6.335   3.205
 5481SOL    HW117342   3.919   6.396   3.277
 5481SOL    HW217343   4.030   6.282   3.241
 5482SOL     OW17344   1.666   6.170   2.030
 5482SOL    HW117345   1.701   6.245   1.974
 5482SOL    HW217346   1.658   6.201   2.125
 5483SOL     OW17347   0.850   2.339   6.738
 5483SOL    HW117348   0.935   2.301   6.701
 5483SOL    HW217349   0.870   2.423   6.789
 5484SOL     OW17350   5.317   0.010   4.632
 5484SOL    HW117351   5.299   0.085   4.569
 5484SOL    HW217352   5.352   6.953   4.582
 5485SOL     OW17353   3.538   0.797   4.639
 5485SOL    HW117354   3.631   0.781   4.606
 5485SOL    HW217355   3.527   0.753   4.728
 5486SOL     OW17356   3.230   4.939   3.610
 5486SOL    HW117357   3.185   5.010   3.663
 5486SOL    HW217358   3.192   4.850   3.634
 5487SOL     OW17359   3.491   6.088   5.064
 5487SOL    HW117360   3.558   6.156   5.091
 5487SOL    HW217361   3.537   6.006   5.030
 5488SOL     OW17362   4.790   2.359   6.282
 5488SOL    HW117363   4.853   2.436   6.287
 5488SOL    HW217364   4.711   2.376   6.340
 5489SOL     OW17365   6.642   2.688   4.017
 5489SOL    HW117366   6.717   2.644   3.968
 5489SOL    HW217367   6.595   2.752   3.956
 5490SOL     OW17368   0.631   5.182   2.175
 5490SOL    HW117369   0.560   5.112   2.180
 5490SOL    HW217370   0.611   5.245   2.100
 5491SOL     OW17371   6.123   4.098   0.447
 5491SOL    HW117372   6.101   4.044   0.528
 5491SOL    HW217373   6.157   4.038   0.375
 5492SOL     OW17374   0.585   1.862   6.796
 5492SOL    HW117375   0.631   1.946   6.826
 5492SOL    HW217376   0.491   1.862   6.831
 5493SOL     OW17377   4.429   4.058   6.548
 5493SOL    HW117378   4.495   3.998   6.594
 5493SOL    HW217379   4.359   4.087   6.613
 5494SOL     OW17380   5.710   2.410   5.462
 5494SOL    HW117381   5.680   2.333   5.519
 5494SOL    HW217382   5.650   2.488   5.479
 5495SOL     OW17383   5.917   0.594   0.960
 5495SOL    HW117384   5.844   0.526   0.954
 5495SOL    HW217385   5.887   0.670   1.018
 5496SOL     OW17386   4.183   6.217   6.006
 5496SOL    HW117387   4.223   6.168   6.083
 5496SOL    HW217388   4.251   6.227   5.934
 5497SOL     OW17389   1.067   6.880   6.200
 5497SOL    HW117390   1.163   6.878   6.225
 5497SOL    HW217391   1.021   6.953   6.251
 5498SOL     OW17392   0.782   5.861   1.784
 5498SOL    HW117393   0.693   5.884   1.824
 5498SOL    HW217394   0.833   5.804   1.847
 5499SOL     OW17395   2.223   0.569   3.584
 5499SOL    HW117396   2.239   0.488   3.640
 5499SOL    HW217397   2.238   0.652   3.638
 5500SOL     OW17398   1.547   6.517   1.814
 5500SOL    HW117399   1.505   6.432   1.845
 5500SOL    HW217400   1.510   6.541   1.724
 5501SOL     OW17401   5.579   3.691   0.750
 5501SOL    HW117402   5.613   3.705   0.657
 5501SOL    HW217403   5.492   3.740   0.762
 5502SOL     OW17404   4.523   3.500   0.268
 5502SOL    HW117405   4.514   3.508   0.168
 5502SOL    HW217406   4.600   3.556   0.299
 5503SOL     OW17407   6.216   2.932   1.475
 5503SOL    HW117408   6.175   2.845   1.504
 5503SOL    HW217409   6.219   2.995   1.553
 5504SOL     OW17410   3.488   2.190   6.989
 5504SOL    HW117411   3.476   2.244   6.906
 5504SOL    HW217412   3.422   2.219   0.035
 5505SOL     OW17413   2.538   5.381   1.990
 5505SOL    HW117414   2.612   5.328   2.031
 5505SOL    HW217415   2.457   5.376   2.047
 5506SOL     OW17416   6.515   2.589   5.921
 5506SOL    HW117417   6.575   2.567   5.997
 5506SOL    HW217418   6.472   2.506   5.886
 5507SOL     OW17419   3.958   6.455   0.264
 5507SOL    HW117420   3.955   6.547   0.225
 5507SOL    HW217421   4.048   6.439   0.306
 5508SOL     OW17422   6.475   1.896   6.065
 5508SOL    HW117423   6.568   1.860   6.077
 5508SOL    HW217424   6.473   1.992   6.094
 5509SOL     OW17425   5.891   4.192   0.326
 5509SOL    HW117426   5.919   4.208   0.232
 5509SOL    HW217427   5.971   4.166   0.381
 5510SOL     OW17428   5.610   5.939   0.118
 5510SOL    HW117429   5.688   5.989   0.079
 5510SOL    HW217430   5.534   6.002   0.132
 5511SOL     OW17431   1.120   2.871   6.291
 5511SOL    HW117432   1.131   2.786   6.342
 5511SOL    HW217433   1.022   2.889   6.279
 5512SOL     OW17434   3.041   6.923   2.142
 5512SOL    HW117435   2.997   6.869   2.214
 5512SOL    HW217436   2.974   6.945   2.071
 5513SOL     OW17437   4.072   4.467   6.720
 5513SOL    HW117438   4.064   4.386   6.661
 5513SOL    HW217439   4.086   4.437   6.815
 5514SOL     OW17440   3.575   1.510   0.549
 5514SOL    HW117441   3.524   1.446   0.492
 5514SOL    HW217442   3.637   1.459   0.609
 5515SOL     OW17443   3.290   4.885   2.485
 5515SOL    HW117444   3.231   4.808   2.462
 5515SOL    HW217445   3.239   4.951   2.541
 5516SOL     OW17446   0.920   2.473   6.393
 5516SOL    HW117447   0.823   2.488   6.409
 5516SOL    HW217448   0.938   2.470   6.295
 5517SOL     OW17449   1.027   2.036   4.454
 5517SOL    HW117450   0.943   2.045   4.507
 5517SOL    HW217451   1.083   2.117   4.466
 5518SOL     OW17452   4.420   4.267   5.927
 5518SOL    HW117453   4.338   4.318   5.901
 5518SOL    HW217454   4.393   4.177   5.962
 5519SOL     OW17455   5.276   2.519   5.713
 5519SOL    HW117456   5.263   2.430   5.757
 5519SOL    HW217457   5.205   2.582   5.744
 5520SOL     OW17458   5.269   5.880   1.610
 5520SOL    HW117459   5.335   5.843   1.674
 5520SOL    HW217460   5.264   5.980   1.620
 5521SOL     OW17461   4.497   0.666   2.075
 5521SOL    HW117462   4.542   0.706   2.155
 5521SOL    HW217463   4.398   0.660   2.092
 5522SOL     OW17464   4.592   6.399   6.808
 5522SOL    HW117465   4.498   6.373   6.831
 5522SOL    HW217466   4.645   6.317   6.788
 5523SOL     OW17467   5.211   1.696   0.645
 5523SOL    HW117468   5.160   1.716   0.728
 5523SOL    HW217469   5.195   1.769   0.578
 5524SOL     OW17470   2.216   1.739   3.053
 5524SOL    HW117471   2.156   1.819   3.053
 5524SOL    HW217472   2.297   1.757   2.998
 5525SOL     OW17473   6.954   0.974   1.074
 5525SOL    HW117474   6.982   0.998   0.981
 5525SOL    HW217475   6.915   0.882   1.074
 5526SOL     OW17476   4.986   4.231   4.203
 5526SOL    HW117477   4.900   4.183   4.220
 5526SOL    HW217478   5.055   4.166   4.172
 5527SOL     OW17479   6.163   0.091   2.536
 5527SOL    HW117480   6.176   0.168   2.599
 5527SOL    HW217481   6.249   0.040   2.527
 5528SOL     OW17482   1.602   1.414   0.074
 5528SOL    HW117483   1.548   1.382   0.152
 5528SOL    HW217484   1.572   1.367   7.014
 5529SOL     OW17485   3.694   0.288   2.060
 5529SOL    HW117486   3.760   0.363   2.051
 5529SOL    HW217487   3.617   0.305   1.997
 5530SOL     OW17488   0.987   1.798   0.871
 5530SOL    HW117489   1.021   1.722   0.928
 5530SOL    HW217490   1.024   1.884   0.906
 5531SOL     OW17491   1.114   5.036   0.322
 5531SOL    HW117492   1.138   4.947   0.360
 5531SOL    HW217493   1.175   5.059   0.247
 5532SOL     OW17494   0.221   4.533   6.194
 5532SOL    HW117495   0.277   4.540   6.276
 5532SOL    HW217496   0.260   4.591   6.122
 5533SOL     OW17497   3.098   1.198   3.403
 5533SOL    HW117498   3.102   1.154   3.493
 5533SOL    HW217499   3.049   1.138   3.340
 5534SOL     OW17500   1.264   0.701   4.625
 5534SOL    HW117501   1.277   0.649   4.709
 5534SOL    HW217502   1.229   0.640   4.553
 5535SOL     OW17503   0.323   1.961   2.372
 5535SOL    HW117504   0.365   1.995   2.288
 5535SOL    HW217505   0.275   2.036   2.418
 5536SOL     OW17506   4.611   0.154   4.414
 5536SOL    HW117507   4.586   0.115   4.326
 5536SOL    HW217508   4.529   0.183   4.463
 5537SOL     OW17509   2.609   2.462   2.816
 5537SOL    HW117510   2.510   2.470   2.826
 5537SOL    HW217511   2.633   2.455   2.719
 5538SOL     OW17512   4.009   5.381   3.743
 5538SOL    HW117513   3.972   5.474   3.743
 5538SOL    HW217514   4.017   5.348   3.837
 5539SOL     OW17515   2.543   3.972   7.008
 5539SOL    HW117516   2.542   4.072   7.013
 5539SOL    HW217517   2.531   3.944   6.912
 5540SOL     OW17518   3.566   5.314   1.074
 5540SOL    HW117519   3.496   5.250   1.104
 5540SOL    HW217520   3.654   5.289   1.114
 5541SOL     OW17521   4.723   0.548   6.339
 5541SOL    HW117522   4.690   0.558   6.245
 5541SOL    HW217523   4.690   0.625   6.394
 5542SOL     OW17524   5.556   4.024   6.629
 5542SOL    HW117525   5.622   4.070   6.689
 5542SOL    HW217526   5.605   3.956   6.573
 5543SOL     OW17527   0.765   2.274   5.097
 5543SOL    HW117528   0.782   2.288   5.194
 5543SOL    HW217529   0.844   2.304   5.044
 5544SOL     OW17530   5.475   0.364   0.245
 5544SOL    HW117531   5.526   0.288   0.204
 5544SOL    HW217532   5.378   0.353   0.225
 5545SOL     OW17533   2.329   2.448   2.129
 5545SOL    HW117534   2.420   2.407   2.124
 5545SOL    HW217535   2.336   2.547   2.114
 5546SOL     OW17536   3.702   5.662   4.808
 5546SOL    HW117537   3.781   5.639   4.864
 5546SOL    HW217538   3.732   5.681   4.714
 5547SOL     OW17539   2.854   5.041   3.560
 5547SOL    HW117540   2.820   4.956   3.521
 5547SOL    HW217541   2.912   5.088   3.493
 5548SOL     OW17542   6.696   1.774   4.699
 5548SOL    HW117543   6.678   1.853   4.639
 5548SOL    HW217544   6.770   1.719   4.660
 5549SOL     OW17545   3.236   5.323   5.903
 5549SOL    HW117546   3.239   5.390   5.829
 5549SOL    HW217547   3.302   5.250   5.885
 5550SOL     OW17548   2.935   6.006   2.467
 5550SOL    HW117549   2.840   6.037   2.469
 5550SOL    HW217550   2.979   6.038   2.384
 5551SOL     OW17551   0.446   1.270   2.703
 5551SOL    HW117552   0.457   1.337   2.777
 5551SOL    HW217553   0.356   1.227   2.711
 5552SOL     OW17554   1.968   2.095   2.232
 5552SOL    HW117555   1.891   2.158   2.230
 5552SOL    HW217556   2.048   2.142   2.270
 5553SOL     OW17557   4.973   6.647   6.518
 5553SOL    HW117558   4.887   6.643   6.569
 5553SOL    HW217559   4.966   6.588   6.437
 5554SOL     OW17560   3.279   0.529   5.228
 5554SOL    HW117561   3.364   0.522   5.281
 5554SOL    HW217562   3.217   0.455   5.253
 5555SOL     OW17563   1.306   5.924   1.624
 5555SOL    HW117564   1.271   5.842   1.669
 5555SOL    HW217565   1.238   5.959   1.559
 5556SOL     OW17566   6.455   1.292   4.914
 5556SOL    HW117567   6.389   1.354   4.870
 5556SOL    HW217568   6.545   1.336   4.917
 5557SOL     OW17569   3.988   1.021   2.545
 5557SOL    HW117570   3.896   0.982   2.535
 5557SOL    HW217571   4.040   1.002   2.462
 5558SOL     OW17572   4.735   2.762   5.935
 5558SOL    HW117573   4.674   2.699   5.983
 5558SOL    HW217574   4.824   2.718   5.920
 5559SOL     OW17575   2.885   0.936   0.823
 5559SOL    HW117576   2.800   0.987   0.832
 5559SOL    HW217577   2.865   0.842   0.795
 5560SOL     OW17578   6.997   1.778   4.733
 5560SOL    HW117579   7.003   1.855   4.670
 5560SOL    HW217580   0.048   1.783   4.799
 5561SOL     OW17581   2.144   4.497   1.860
 5561SOL    HW117582   2.217   4.469   1.923
 5561SOL    HW217583   2.056   4.465   1.894
 5562SOL     OW17584   3.734   2.471   0.473
 5562SOL    HW117585   3.761   2.525   0.394
 5562SOL    HW217586   3.792   2.389   0.479
 5563SOL     OW17587   3.863   4.583   0.874
 5563SOL    HW117588   3.914   4.499   0.895
 5563SOL    HW217589   3.788   4.561   0.811
 5564SOL     OW17590   6.442   1.015   2.271
 5564SOL    HW117591   6.497   1.033   2.189
 5564SOL    HW217592   6.357   1.068   2.266
 5565SOL     OW17593   1.547   2.872   5.705
 5565SOL    HW117594   1.640   2.862   5.669
 5565SOL    HW217595   1.542   2.832   5.797
 5566SOL     OW17596   2.322   4.277   0.334
 5566SOL    HW117597   2.316   4.303   0.430
 5566SOL    HW217598   2.375   4.192   0.326
 5567SOL     OW17599   1.268   5.512   3.221
 5567SOL    HW117600   1.206   5.461   3.281
 5567SOL    HW217601   1.222   5.594   3.187
 5568SOL     OW17602   3.788   2.805   0.093
 5568SOL    HW117603   3.836   2.789   0.007
 5568SOL    HW217604   3.780   2.718   0.143
 5569SOL     OW17605   4.787   1.689   6.539
 5569SOL    HW117606   4.794   1.619   6.467
 5569SOL    HW217607   4.858   1.758   6.525
 5570SOL     OW17608   1.791   2.535   5.937
 5570SOL    HW117609   1.729   2.467   5.977
 5570SOL    HW217610   1.878   2.535   5.987
 5571SOL     OW17611   0.602   4.627   6.486
 5571SOL    HW117612   0.672   4.560   6.510
 5571SOL    HW217613   0.639   4.693   6.420
 5572SOL     OW17614   0.930   3.508   5.671
 5572SOL    HW117615   0.956   3.603   5.657
 5572SOL    HW217616   0.845   3.489   5.623
 5573SOL     OW17617   6.670   3.597   6.592
 5573SOL    HW117618   6.720   3.585   6.678
 5573SOL    HW217619   6.701   3.530   6.525
 5574SOL     OW17620   2.223   6.122   4.404
 5574SOL    HW117621   2.255   6.035   4.368
 5574SOL    HW217622   2.189   6.109   4.498
 5575SOL     OW17623   1.402   1.378   2.828
 5575SOL    HW117624   1.326   1.319   2.854
 5575SOL    HW217625   1.409   1.455   2.893
 5576SOL     OW17626   5.269   6.911   6.160
 5576SOL    HW117627   5.238   6.878   6.071
 5576SOL    HW217628   5.253   6.839   6.229
 5577SOL     OW17629   1.137   5.088   4.723
 5577SOL    HW117630   1.210   5.154   4.703
 5577SOL    HW217631   1.142   5.012   4.658
 5578SOL     OW17632   4.173   1.673   6.264
 5578SOL    HW117633   4.224   1.631   6.339
 5578SOL    HW217634   4.215   1.646   6.177
 5579SOL     OW17635   4.722   4.849   2.506
 5579SOL    HW117636   4.744   4.922   2.571
 5579SOL    HW217637   4.765   4.869   2.418
 5580SOL     OW17638   6.662   1.218   1.655
 5580SOL    HW117639   6.749   1.236   1.701
 5580SOL    HW217640   6.591   1.277   1.693
 5581SOL     OW17641   3.462   3.411   0.528
 5581SOL    HW117642   3.434   3.467   0.606
 5581SOL    HW217643   3.457   3.314   0.553
 5582SOL     OW17644   2.955   3.428   5.146
 5582SOL    HW117645   2.952   3.491   5.069
 5582SOL    HW217646   3.039   3.375   5.144
 5583SOL     OW17647   3.779   0.890   6.426
 5583SOL    HW117648   3.843   0.896   6.350
 5583SOL    HW217649   3.730   0.977   6.436
 5584SOL     OW17650   4.840   3.186   4.500
 5584SOL    HW117651   4.840   3.103   4.557
 5584SOL    HW217652   4.750   3.197   4.459
 5585SOL     OW17653   6.995   0.851   3.474
 5585SOL    HW117654   0.013   0.918   3.412
 5585SOL    HW217655   6.941   0.897   3.544
 5586SOL     OW17656   1.669   0.504   6.881
 5586SOL    HW117657   1.762   0.541   6.879
 5586SOL    HW217658   1.609   0.561   6.825
 5587SOL     OW17659   3.390   6.007   3.074
 5587SOL    HW117660   3.335   6.013   2.991
 5587SOL    HW217661   3.487   6.010   3.050
 5588SOL     OW17662   4.826   5.361   0.079
 5588SOL    HW117663   4.789   5.275   0.043
 5588SOL    HW217664   4.808   5.435   0.015
 5589SOL     OW17665   1.644   2.577   6.747
 5589SOL    HW117666   1.640   2.522   6.663
 5589SOL    HW217667   1.577   2.543   6.812
 5590SOL     OW17668   6.423   0.580   3.502
 5590SOL    HW117669   6.479   0.641   3.447
 5590SOL    HW217670   6.351   0.632   3.548
 5591SOL     OW17671   5.237   1.425   6.440
 5591SOL    HW117672   5.168   1.420   6.512
 5591SOL    HW217673   5.328   1.435   6.481
 5592SOL     OW17674   1.411   3.579   2.432
 5592SOL    HW117675   1.481   3.576   2.503
 5592SOL    HW217676   1.328   3.534   2.466
 5593SOL     OW17677   2.140   3.663   5.300
 5593SOL    HW117678   2.069   3.661   5.370
 5593SOL    HW217679   2.175   3.570   5.285
 5594SOL     OW17680   3.002   0.943   6.154
 5594SOL    HW117681   2.978   1.040   6.150
 5594SOL    HW217682   3.091   0.928   6.111
 5595SOL     OW17683   6.688   3.424   0.269
 5595SOL    HW117684   6.698   3.405   0.367
 5595SOL    HW217685   6.773   3.399   0.222
 5596SOL     OW17686   4.991   3.622   4.392
 5596SOL    HW117687   5.062   3.609   4.461
 5596SOL    HW217688   4.938   3.538   4.381
 5597SOL     OW17689   0.378   1.984   6.517
 5597SOL    HW117690   0.474   2.007   6.501
 5597SOL    HW217691   0.337   1.949   6.433
 5598SOL     OW17692   6.587   6.892   3.424
 5598SOL    HW117693   6.583   6.963   3.353
 5598SOL    HW217694   6.669   6.904   3.479
 5599SOL     OW17695   4.894   3.073   3.280
 5599SOL    HW117696   4.993   3.083   3.275
 5599SOL    HW217697   4.869   2.977   3.264
 5600SOL     OW17698   1.886   3.321   1.754
 5600SOL    HW117699   1.925   3.253   1.692
 5600SOL    HW217700   1.791   3.339   1.728
 5601SOL     OW17701   5.179   2.603   6.475
 5601SOL    HW117702   5.207   2.507   6.486
 5601SOL    HW217703   5.098   2.621   6.530
 5602SOL     OW17704   6.098   1.095   2.684
 5602SOL    HW117705   6.170   1.030   2.661
 5602SOL    HW217706   6.022   1.047   2.727
 5603SOL     OW17707   3.659   1.184   5.884
 5603SOL    HW117708   3.596   1.260   5.895
 5603SOL    HW217709   3.716   1.199   5.803
 5604SOL     OW17710   1.624   4.243   3.513
 5604SOL    HW117711   1.684   4.164   3.498
 5604SOL    HW217712   1.586   4.239   3.605
 5605SOL     OW17713   3.478   6.672   4.613
 5605SOL    HW117714   3.524   6.585   4.596
 5605SOL    HW217715   3.451   6.676   4.709
 5606SOL     OW17716   4.510   3.939   1.289
 5606SOL    HW117717   4.417   3.926   1.257
 5606SOL    HW217718   4.574   3.895   1.226
 5607SOL     OW17719   1.396   1.927   2.322
 5607SOL    HW117720   1.326   1.880   2.268
 5607SOL    HW217721   1.387   2.026   2.309
 5608SOL     OW17722   6.531   6.195   3.664
 5608SOL    HW117723   6.487   6.144   3.590
 5608SOL    HW217724   6.625   6.216   3.639
 5609SOL     OW17725   6.515   0.980   0.633
 5609SOL    HW117726   6.420   0.987   0.663
 5609SOL    HW217727   6.526   1.027   0.545
 5610SOL     OW17728   5.369   6.745   6.651
 5610SOL    HW117729   5.395   6.705   6.563
 5610SOL    HW217730   5.404   6.687   6.725
 5611SOL     OW17731   6.973   3.884   1.498
 5611SOL    HW117732   6.977   3.786   1.520
 5611SOL    HW217733   0.028   3.908   1.440
 5612SOL     OW17734   5.354   1.975   1.146
 5612SOL    HW117735   5.413   2.056   1.151
 5612SOL    HW217736   5.408   1.893   1.167
 5613SOL     OW17737   6.763   5.241   5.437
 5613SOL    HW117738   6.689   5.214   5.499
 5613SOL    HW217739   6.758   5.339   5.420
 5614SOL     OW17740   5.722   2.707   4.444
 5614SOL    HW117741   5.672   2.624   4.418
 5614SOL    HW217742   5.812   2.682   4.481
 5615SOL     OW17743   0.723   3.317   2.731
 5615SOL    HW117744   0.809   3.329   2.681
 5615SOL    HW217745   0.652   3.375   2.691
 5616SOL     OW17746   1.637   3.042   1.435
 5616SOL    HW117747   1.571   2.974   1.468
 5616SOL    HW217748   1.730   3.009   1.451
 5617SOL     OW17749   0.309   5.239   4.749
 5617SOL    HW117750   0.324   5.145   4.719
 5617SOL    HW217751   0.212   5.263   4.738
 5618SOL     OW17752   5.067   0.983   3.116
 5618SOL    HW117753   5.005   1.051   3.077
 5618SOL    HW217754   5.117   0.938   3.042
 5619SOL     OW17755   3.899   3.970   4.488
 5619SOL    HW117756   3.826   4.037   4.505
 5619SOL    HW217757   3.935   3.937   4.575
 5620SOL     OW17758   4.557   4.938   5.509
 5620SOL    HW117759   4.540   4.872   5.582
 5620SOL    HW217760   4.599   4.892   5.431
 5621SOL     OW17761   1.002   3.360   6.949
 5621SOL    HW117762   0.990   3.273   6.900
 5621SOL    HW217763   0.918   3.383   6.997
 5622SOL     OW17764   5.362   5.667   3.231
 5622SOL    HW117765   5.337   5.592   3.291
 5622SOL    HW217766   5.347   5.640   3.136
 5623SOL     OW17767   4.212   4.820   3.539
 5623SOL    HW117768   4.232   4.850   3.632
 5623SOL    HW217769   4.118   4.846   3.516
 5624SOL     OW17770   4.882   4.156   3.630
 5624SOL    HW117771   4.857   4.248   3.601
 5624SOL    HW217772   4.874   4.149   3.729
 5625SOL     OW17773   4.037   6.913   6.263
 5625SOL    HW117774   4.046   6.951   6.171
 5625SOL    HW217775   4.031   6.814   6.257
 5626SOL     OW17776   1.916   4.474   5.889
 5626SOL    HW117777   1.990   4.473   5.957
 5626SOL    HW217778   1.934   4.405   5.819
 5627SOL     OW17779   0.843   5.497   1.020
 5627SOL    HW117780   0.769   5.539   0.967
 5627SOL    HW217781   0.896   5.569   1.065
 5628SOL     OW17782   0.677   2.620   0.090
 5628SOL    HW117783   0.731   2.619   0.006
 5628SOL    HW217784   0.730   2.580   0.164
 5629SOL     OW17785   0.647   3.398   4.720
 5629SOL    HW117786   0.704   3.359   4.648
 5629SOL    HW217787   0.570   3.337   4.739
 5630SOL     OW17788   1.316   4.539   6.662
 5630SOL    HW117789   1.226   4.493   6.667
 5630SOL    HW217790   1.356   4.524   6.572
 5631SOL     OW17791   3.198   0.879   3.479
 5631SOL    HW117792   3.174   0.945   3.551
 5631SOL    HW217793   3.132   0.804   3.481
 5632SOL     OW17794   3.331   6.526   6.190
 5632SOL    HW117795   3.397   6.589   6.150
 5632SOL    HW217796   3.252   6.516   6.128
 5633SOL     OW17797   2.304   5.826   4.966
 5633SOL    HW117798   2.297   5.916   4.922
 5633SOL    HW217799   2.309   5.754   4.897
 5634SOL     OW17800   2.450   0.144   1.573
 5634SOL    HW117801   2.412   0.172   1.661
 5634SOL    HW217802   2.410   0.200   1.500
 5635SOL     OW17803   4.266   1.238   2.299
 5635SOL    HW117804   4.247   1.336   2.300
 5635SOL    HW217805   4.180   1.187   2.304
 5636SOL     OW17806   5.056   0.732   4.236
 5636SOL    HW117807   5.001   0.648   4.232
 5636SOL    HW217808   5.153   0.709   4.234
 5637SOL     OW17809   6.068   0.076   5.465
 5637SOL    HW117810   6.010   0.021   5.405
 5637SOL    HW217811   6.037   0.066   5.559
 5638SOL     OW17812   1.185   5.710   6.952
 5638SOL    HW117813   1.130   5.785   6.987
 5638SOL    HW217814   1.239   5.743   6.874
 5639SOL     OW17815   3.248   6.948   1.645
 5639SOL    HW117816   3.335   6.945   1.693
 5639SOL    HW217817   3.177   6.905   1.702
 5640SOL     OW17818   4.093   6.734   4.226
 5640SOL    HW117819   4.073   6.764   4.320
 5640SOL    HW217820   4.159   6.660   4.228
 5641SOL     OW17821   6.475   5.118   3.623
 5641SOL    HW117822   6.552   5.140   3.682
 5641SOL    HW217823   6.480   5.023   3.594
 5642SOL     OW17824   2.460   1.900   6.438
 5642SOL    HW117825   2.546   1.866   6.399
 5642SOL    HW217826   2.414   1.957   6.370
 5643SOL     OW17827   5.152   2.757   3.653
 5643SOL    HW117828   5.106   2.671   3.674
 5643SOL    HW217829   5.243   2.739   3.617
 5644SOL     OW17830   3.195   0.599   5.696
 5644SOL    HW117831   3.282   0.558   5.722
 5644SOL    HW217832   3.211   0.691   5.660
 5645SOL     OW17833   6.429   6.197   4.312
 5645SOL    HW117834   6.517   6.240   4.330
 5645SOL    HW217835   6.370   6.261   4.262
 5646SOL     OW17836   6.589   1.101   2.528
 5646SOL    HW117837   6.497   1.067   2.511
 5646SOL    HW217838   6.586   1.200   2.543
 5647SOL     OW17839   5.799   3.527   6.347
 5647SOL    HW117840   5.716   3.512   6.293
 5647SOL    HW217841   5.833   3.620   6.331
 5648SOL     OW17842   1.594   1.601   3.805
 5648SOL    HW117843   1.589   1.663   3.884
 5648SOL    HW217844   1.651   1.642   3.734
 5649SOL     OW17845   6.731   0.714   4.440
 5649SOL    HW117846   6.642   0.755   4.420
 5649SOL    HW217847   6.803   0.781   4.426
 5650SOL     OW17848   6.004   4.817   5.310
 5650SOL    HW117849   6.076   4.749   5.299
 5650SOL    HW217850   6.017   4.865   5.397
 5651SOL     OW17851   5.999   0.577   3.284
 5651SOL    HW117852   6.087   0.530   3.279
 5651SOL    HW217853   5.987   0.634   3.203
 5652SOL     OW17854   4.415   4.301   6.778
 5652SOL    HW117855   4.339   4.329   6.836
 5652SOL    HW217856   4.395   4.326   6.683
 5653SOL     OW17857   2.207   6.437   6.691
 5653SOL    HW117858   2.156   6.476   6.614
 5653SOL    HW217859   2.305   6.438   6.670
 5654SOL     OW17860   2.563   6.728   0.258
 5654SOL    HW117861   2.554   6.753   0.161
 5654SOL    HW217862   2.582   6.630   0.265
 5655SOL     OW17863   6.443   5.708   2.575
 5655SOL    HW117864   6.498   5.791   2.588
 5655SOL    HW217865   6.468   5.666   2.488
 5656SOL     OW17866   3.361   5.120   6.362
 5656SOL    HW117867   3.264   5.139   6.375
 5656SOL    HW217868   3.388   5.043   6.420
 5657SOL     OW17869   4.930   5.469   2.074
 5657SOL    HW117870   4.942   5.525   1.992
 5657SOL    HW217871   4.950   5.524   2.155
 5658SOL     OW17872   4.914   6.469   6.245
 5658SOL    HW117873   4.847   6.495   6.177
 5658SOL    HW217874   5.006   6.472   6.205
 5659SOL     OW17875   3.194   3.583   2.124
 5659SOL    HW117876   3.227   3.495   2.157
 5659SOL    HW217877   3.150   3.632   2.199
 5660SOL     OW17878   6.989   5.493   1.744
 5660SOL    HW117879   7.014   5.410   1.694
 5660SOL    HW217880   6.925   5.547   1.689
 5661SOL     OW17881   5.986   5.719   4.239
 5661SOL    HW117882   6.037   5.774   4.305
 5661SOL    HW217883   5.888   5.725   4.259
 5662SOL     OW17884   1.495   3.835   4.507
 5662SOL    HW117885   1.542   3.907   4.557
 5662SOL    HW217886   1.454   3.873   4.424
 5663SOL     OW17887   2.516   3.684   0.387
 5663SOL    HW117888   2.538   3.733   0.303
 5663SOL    HW217889   2.558   3.594   0.386
 5664SOL     OW17890   6.287   6.760   1.635
 5664SOL    HW117891   6.343   6.822   1.691
 5664SOL    HW217892   6.316   6.766   1.540
 5665SOL     OW17893   1.759   0.749   5.798
 5665SOL    HW117894   1.775   0.700   5.712
 5665SOL    HW217895   1.672   0.797   5.794
 5666SOL     OW17896   5.028   6.273   6.713
 5666SOL    HW117897   5.121   6.238   6.722
 5666SOL    HW217898   5.006   6.285   6.616
 5667SOL     OW17899   5.284   4.490   3.105
 5667SOL    HW117900   5.358   4.552   3.079
 5667SOL    HW217901   5.295   4.403   3.056
 5668SOL     OW17902   6.156   2.391   6.618
 5668SOL    HW117903   6.256   2.390   6.625
 5668SOL    HW217904   6.129   2.445   6.539
 5669SOL     OW17905   0.212   2.113   4.961
 5669SOL    HW117906   0.221   2.056   5.043
 5669SOL    HW217907   0.302   2.129   4.921
 5670SOL     OW17908   1.499   3.074   2.029
 5670SOL    HW117909   1.533   2.981   2.010
 5670SOL    HW217910   1.511   3.131   1.948
 5671SOL     OW17911   0.964   0.629   5.886
 5671SOL    HW117912   0.870   0.662   5.890
 5671SOL    HW217913   0.991   0.616   5.790
 5672SOL     OW17914   4.251   4.487   5.836
 5672SOL    HW117915   4.238   4.437   5.750
 5672SOL    HW217916   4.189   4.566   5.838
 5673SOL     OW17917   2.056   6.553   1.406
 5673SOL    HW117918   1.985   6.606   1.452
 5673SOL    HW217919   2.124   6.615   1.367
 5674SOL     OW17920   0.404   2.692   0.831
 5674SOL    HW117921   0.407   2.774   0.773
 5674SOL    HW217922   0.467   2.624   0.795
 5675SOL     OW17923   4.365   1.072   5.515
 5675SOL    HW117924   4.439   1.105   5.457
 5675SOL    HW217925   4.402   1.045   5.604
 5676SOL     OW17926   2.162   6.430   2.410
 5676SOL    HW117927   2.225   6.463   2.481
 5676SOL    HW217928   2.074   6.407   2.451
 5677SOL     OW17929   6.390   0.140   2.834
 5677SOL    HW117930   6.334   0.183   2.763
 5677SOL    HW217931   6.415   0.048   2.805
 5678SOL     OW17932   1.477   5.359   2.738
 5678SOL    HW117933   1.398   5.405   2.697
 5678SOL    HW217934   1.449   5.314   2.823
 5679SOL     OW17935   3.919   5.953   5.423
 5679SOL    HW117936   3.954   6.046   5.433
 5679SOL    HW217937   3.849   5.950   5.352
 5680SOL     OW17938   1.706   0.131   6.446
 5680SOL    HW117939   1.715   0.079   6.531
 5680SOL    HW217940   1.623   0.188   6.450
 5681SOL     OW17941   3.249   3.554   0.394
 5681SOL    HW117942   3.315   3.487   0.428
 5681SOL    HW217943   3.263   3.641   0.441
 5682SOL     OW17944   2.156   3.648   4.705
 5682SOL    HW117945   2.150   3.683   4.612
 5682SOL    HW217946   2.089   3.695   4.763
 5683SOL     OW17947   3.715   3.672   5.106
 5683SOL    HW117948   3.802   3.662   5.058
 5683SOL    HW217949   3.680   3.765   5.094
 5684SOL     OW17950   3.190   4.031   3.148
 5684SOL    HW117951   3.211   4.089   3.227
 5684SOL    HW217952   3.253   4.054   3.074
 5685SOL     OW17953   0.124   0.059   1.586
 5685SOL    HW117954   0.091   7.002   1.635
 5685SOL    HW217955   0.054   0.130   1.586
 5686SOL     OW17956   3.295   4.722   6.315
 5686SOL    HW117957   3.275   4.629   6.284
 5686SOL    HW217958   3.222   4.783   6.284
 5687SOL     OW17959   4.471   6.097   6.595
 5687SOL    HW117960   4.373   6.083   6.610
 5687SOL    HW217961   4.486   6.184   6.550
 5688SOL     OW17962   5.133   1.767   2.547
 5688SOL    HW117963   5.183   1.728   2.470
 5688SOL    HW217964   5.192   1.770   2.627
 5689SOL     OW17965   3.811   3.052   5.010
 5689SOL    HW117966   3.857   3.139   5.028
 5689SOL    HW217967   3.842   2.984   5.076
 5690SOL     OW17968   3.896   0.379   3.003
 5690SOL    HW117969   3.888   0.287   2.964
 5690SOL    HW217970   3.809   0.406   3.044
 5691SOL     OW17971   3.492   0.594   4.441
 5691SOL    HW117972   3.475   0.503   4.479
 5691SOL    HW217973   3.508   0.658   4.516
 5692SOL     OW17974   6.192   2.894   0.452
 5692SOL    HW117975   6.111   2.891   0.394
 5692SOL    HW217976   6.271   2.924   0.399
 5693SOL     OW17977   5.452   3.410   1.847
 5693SOL    HW117978   5.365   3.436   1.890
 5693SOL    HW217979   5.526   3.423   1.913
 5694SOL     OW17980   1.921   2.060   5.069
 5694SOL    HW117981   2.003   2.114   5.053
 5694SOL    HW217982   1.849   2.089   5.005
 5695SOL     OW17983   2.006   3.386   3.464
 5695SOL    HW117984   1.987   3.301   3.513
 5695SOL    HW217985   1.989   3.464   3.525
 5696SOL     OW17986   3.504   1.414   6.771
 5696SOL    HW117987   3.471   1.490   6.826
 5696SOL    HW217988   3.582   1.371   6.816
 5697SOL     OW17989   6.831   4.013   0.320
 5697SOL    HW117990   6.878   4.082   0.376
 5697SOL    HW217991   6.835   4.040   0.224
 5698SOL     OW17992   1.700   4.329   4.004
 5698SOL    HW117993   1.755   4.397   3.954
 5698SOL    HW217994   1.623   4.374   4.048
 5699SOL     OW17995   1.065   2.542   5.320
 5699SOL    HW117996   1.123   2.542   5.239
 5699SOL    HW217997   0.982   2.594   5.301
 5700SOL     OW17998   1.301   5.066   4.397
 5700SOL    HW117999   1.295   5.137   4.328
 5700SOL    HW218000   1.328   5.106   4.485
 5701SOL     OW18001   5.021   2.551   2.518
 5701SOL    HW118002   4.984   2.492   2.446
 5701SOL    HW218003   4.995   2.646   2.499
 5702SOL     OW18004   3.837   0.512   6.810
 5702SOL    HW118005   3.892   0.550   6.736
 5702SOL    HW218006   3.895   0.454   6.868
 5703SOL     OW18007   5.043   4.175   2.704
 5703SOL    HW118008   4.952   4.208   2.680
 5703SOL    HW218009   5.102   4.253   2.726
 5704SOL     OW18010   5.259   4.046   3.322
 5704SOL    HW118011   5.328   4.116   3.343
 5704SOL    HW218012   5.176   4.089   3.288
 5705SOL     OW18013   6.831   0.994   3.752
 5705SOL    HW118014   6.795   0.900   3.755
 5705SOL    HW218015   6.803   1.042   3.835
 5706SOL     OW18016   2.394   1.150   6.205
 5706SOL    HW118017   2.382   1.174   6.301
 5706SOL    HW218018   2.488   1.119   6.189
 5707SOL     OW18019   3.915   1.067   0.686
 5707SOL    HW118020   3.888   1.033   0.596
 5707SOL    HW218021   3.835   1.072   0.745
 5708SOL     OW18022   0.953   6.830   0.682
 5708SOL    HW118023   0.939   6.740   0.640
 5708SOL    HW218024   1.030   6.875   0.638
 5709SOL     OW18025   0.564   2.492   0.770
 5709SOL    HW118026   0.575   2.471   0.673
 5709SOL    HW218027   0.642   2.456   0.821
 5710SOL     OW18028   3.607   4.966   6.705
 5710SOL    HW118029   3.586   4.868   6.703
 5710SOL    HW218030   3.596   5.005   6.614
 5711SOL     OW18031   4.962   1.787   4.828
 5711SOL    HW118032   5.045   1.827   4.866
 5711SOL    HW218033   4.882   1.838   4.861
 5712SOL     OW18034   5.490   6.936   6.409
 5712SOL    HW118035   5.396   6.969   6.398
 5712SOL    HW218036   5.489   6.836   6.412
 5713SOL     OW18037   0.149   3.736   2.756
 5713SOL    HW118038   0.177   3.643   2.780
 5713SOL    HW218039   0.209   3.802   2.802
 5714SOL     OW18040   2.289   0.744   0.788
 5714SOL    HW118041   2.387   0.726   0.798
 5714SOL    HW218042   2.237   0.662   0.811
 5715SOL     OW18043   0.249   6.183   3.602
 5715SOL    HW118044   0.232   6.278   3.625
 5715SOL    HW218045   0.332   6.176   3.547
 5716SOL     OW18046   1.956   2.220   5.336
 5716SOL    HW118047   1.934   2.290   5.268
 5716SOL    HW218048   1.895   2.142   5.324
 5717SOL     OW18049   0.943   3.626   6.089
 5717SOL    HW118050   0.872   3.652   6.155
 5717SOL    HW218051   0.907   3.637   5.996
 5718SOL     OW18052   3.486   5.894   5.799
 5718SOL    HW118053   3.559   5.885   5.731
 5718SOL    HW218054   3.399   5.868   5.758
 5719SOL     OW18055   2.525   1.031   6.935
 5719SOL    HW118056   2.537   1.063   0.006
 5719SOL    HW218057   2.615   1.016   6.893
 5720SOL     OW18058   2.443   6.017   4.088
 5720SOL    HW118059   2.500   6.091   4.125
 5720SOL    HW218060   2.497   5.963   4.023
 5721SOL     OW18061   6.337   4.972   6.921
 5721SOL    HW118062   6.405   4.903   6.945
 5721SOL    HW218063   6.384   5.058   6.899
 5722SOL     OW18064   5.191   1.025   4.596
 5722SOL    HW118065   5.208   1.123   4.594
 5722SOL    HW218066   5.211   0.986   4.506
 5723SOL     OW18067   0.064   4.802   1.216
 5723SOL    HW118068   0.090   4.741   1.141
 5723SOL    HW218069   0.008   4.876   1.180
 5724SOL     OW18070   4.819   3.024   5.998
 5724SOL    HW118071   4.750   2.954   5.977
 5724SOL    HW218072   4.823   3.039   6.097
 5725SOL     OW18073   6.064   6.679   5.480
 5725SOL    HW118074   6.098   6.753   5.422
 5725SOL    HW218075   6.132   6.656   5.549
 5726SOL     OW18076   3.701   5.079   5.656
 5726SOL    HW118077   3.719   5.057   5.752
 5726SOL    HW218078   3.750   5.015   5.597
 5727SOL     OW18079   5.874   2.245   3.866
 5727SOL    HW118080   5.854   2.267   3.770
 5727SOL    HW218081   5.948   2.304   3.898
 5728SOL     OW18082   3.582   1.118   5.166
 5728SOL    HW118083   3.672   1.103   5.205
 5728SOL    HW218084   3.578   1.210   5.126
 5729SOL     OW18085   2.508   2.450   4.189
 5729SOL    HW118086   2.574   2.446   4.113
 5729SOL    HW218087   2.557   2.447   4.276
 5730SOL     OW18088   4.275   4.673   0.413
 5730SOL    HW118089   4.326   4.663   0.329
 5730SOL    HW218090   4.338   4.678   0.491
 5731SOL     OW18091   4.846   1.177   5.395
 5731SOL    HW118092   4.855   1.235   5.314
 5731SOL    HW218093   4.755   1.186   5.434
 5732SOL     OW18094   6.582   3.966   4.131
 5732SOL    HW118095   6.530   3.884   4.152
 5732SOL    HW218096   6.566   3.993   4.036
 5733SOL     OW18097   2.128   6.841   1.233
 5733SOL    HW118098   2.189   6.780   1.284
 5733SOL    HW218099   2.038   6.842   1.277
 5734SOL     OW18100   1.841   0.267   5.589
 5734SOL    HW118101   1.890   0.261   5.502
 5734SOL    HW218102   1.897   0.317   5.655
 5735SOL     OW18103   5.254   1.227   0.752
 5735SOL    HW118104   5.186   1.156   0.732
 5735SOL    HW218105   5.307   1.247   0.670
 5736SOL     OW18106   4.690   3.369   6.620
 5736SOL    HW118107   4.747   3.423   6.558
 5736SOL    HW218108   4.744   3.343   6.700
 5737SOL     OW18109   5.020   5.856   2.471
 5737SOL    HW118110   4.943   5.894   2.522
 5737SOL    HW218111   5.099   5.916   2.482
 5738SOL     OW18112   3.306   1.576   1.236
 5738SOL    HW118113   3.212   1.605   1.255
 5738SOL    HW218114   3.353   1.646   1.184
 5739SOL     OW18115   2.379   1.278   5.542
 5739SOL    HW118116   2.367   1.374   5.516
 5739SOL    HW218117   2.345   1.265   5.635
 5740SOL     OW18118   4.900   3.105   3.007
 5740SOL    HW118119   4.910   3.110   3.107
 5740SOL    HW218120   4.962   3.171   2.964
 5741SOL     OW18121   1.597   3.458   3.809
 5741SOL    HW118122   1.508   3.480   3.770
 5741SOL    HW218123   1.627   3.369   3.774
 5742SOL     OW18124   6.105   5.183   2.272
 5742SOL    HW118125   6.166   5.217   2.200
 5742SOL    HW218126   6.125   5.229   2.358
 5743SOL     OW18127   3.809   6.560   6.572
 5743SOL    HW118128   3.829   6.477   6.624
 5743SOL    HW218129   3.812   6.640   6.633
 5744SOL     OW18130   5.157   5.553   3.446
 5744SOL    HW118131   5.154   5.514   3.538
 5744SOL    HW218132   5.102   5.637   3.443
 5745SOL     OW18133   0.900   3.656   2.390
 5745SOL    HW118134   0.840   3.691   2.318
 5745SOL    HW218135   0.986   3.624   2.349
 5746SOL     OW18136   5.521   0.909   3.502
 5746SOL    HW118137   5.588   0.835   3.498
 5746SOL    HW218138   5.555   0.981   3.562
 5747SOL     OW18139   1.614   6.899   2.059
 5747SOL    HW118140   1.645   6.882   1.966
 5747SOL    HW218141   1.589   6.812   2.102
 5748SOL     OW18142   6.332   6.707   0.006
 5748SOL    HW118143   6.414   6.729   0.059
 5748SOL    HW218144   6.251   6.739   0.055
 5749SOL     OW18145   2.001   6.624   6.505
 5749SOL    HW118146   2.075   6.681   6.540
 5749SOL    HW218147   1.916   6.677   6.504
 5750SOL     OW18148   6.228   2.508   4.174
 5750SOL    HW118149   6.269   2.418   4.157
 5750SOL    HW218150   6.153   2.499   4.240
 5751SOL     OW18151   0.354   4.024   3.963
 5751SOL    HW118152   0.279   3.958   3.957
 5751SOL    HW218153   0.358   4.062   4.055
 5752SOL     OW18154   5.782   1.651   6.655
 5752SOL    HW118155   5.816   1.558   6.636
 5752SOL    HW218156   5.683   1.653   6.645
 5753SOL     OW18157   3.468   3.288   4.248
 5753SOL    HW118158   3.383   3.297   4.196
 5753SOL    HW218159   3.486   3.191   4.266
 5754SOL     OW18160   6.345   6.805   0.924
 5754SOL    HW118161   6.426   6.853   0.891
 5754SOL    HW218162   6.273   6.871   0.944
 5755SOL     OW18163   0.468   3.714   6.598
 5755SOL    HW118164   0.510   3.690   6.511
 5755SOL    HW218165   0.536   3.755   6.658
 5756SOL     OW18166   6.264   6.441   1.857
 5756SOL    HW118167   6.294   6.361   1.910
 5756SOL    HW218168   6.178   6.475   1.894
 5757SOL     OW18169   1.162   1.711   3.845
 5757SOL    HW118170   1.079   1.658   3.832
 5757SOL    HW218171   1.209   1.722   3.758
 5758SOL     OW18172   6.036   6.697   3.045
 5758SOL    HW118173   5.953   6.707   3.100
 5758SOL    HW218174   6.035   6.608   2.999
 5759SOL     OW18175   2.216   6.246   2.840
 5759SOL    HW118176   2.148   6.308   2.800
 5759SOL    HW218177   2.224   6.264   2.938
 5760SOL     OW18178   0.352   1.970   0.340
 5760SOL    HW118179   0.442   2.012   0.351
 5760SOL    HW218180   0.350   1.916   0.256
 5761SOL     OW18181   6.271   0.120   5.301
 5761SOL    HW118182   6.347   0.090   5.359
 5761SOL    HW218183   6.185   0.105   5.350
 5762SOL     OW18184   1.009   5.855   5.614
 5762SOL    HW118185   0.939   5.892   5.553
 5762SOL    HW218186   1.063   5.786   5.566
 5763SOL     OW18187   4.938   0.860   0.047
 5763SOL    HW118188   4.847   0.835   0.013
 5763SOL    HW218189   4.942   0.846   0.146
 5764SOL     OW18190   3.686   6.379   4.240
 5764SOL    HW118191   3.722   6.469   4.215
 5764SOL    HW218192   3.589   6.388   4.263
 5765SOL     OW18193   7.011   6.368   2.555
 5765SOL    HW118194   6.971   6.423   2.482
 5765SOL    HW218195   6.943   6.305   2.591
 5766SOL     OW18196   0.620   0.826   4.888
 5766SOL    HW118197   0.710   0.840   4.929
 5766SOL    HW218198   0.627   0.759   4.814
 5767SOL     OW18199   6.091   6.656   0.215
 5767SOL    HW118200   6.018   6.620   0.157
 5767SOL    HW218201   6.155   6.583   0.238
 5768SOL     OW18202   0.923   0.513   4.959
 5768SOL    HW118203   0.917   0.595   4.902
 5768SOL    HW218204   1.014   0.472   4.948
 5769SOL     OW18205   1.370   2.650   5.900
 5769SOL    HW118206   1.348   2.556   5.874
 5769SOL    HW218207   1.287   2.704   5.901
 5770SOL     OW18208   1.456   3.901   2.635
 5770SOL    HW118209   1.447   3.968   2.709
 5770SOL    HW218210   1.457   3.809   2.673
 5771SOL     OW18211   2.492   6.208   3.174
 5771SOL    HW118212   2.459   6.137   3.112
 5771SOL    HW218213   2.555   6.268   3.124
 5772SOL     OW18214   2.580   0.729   2.975
 5772SOL    HW118215   2.630   0.678   3.045
 5772SOL    HW218216   2.644   0.787   2.924
 5773SOL     OW18217   5.892   0.369   4.446
 5773SOL    HW118218   5.896   0.374   4.546
 5773SOL    HW218219   5.985   0.373   4.409
 5774SOL     OW18220   1.115   5.710   3.534
 5774SOL    HW118221   1.140   5.800   3.569
 5774SOL    HW218222   1.105   5.714   3.435
 5775SOL     OW18223   5.191   4.556   2.446
 5775SOL    HW118224   5.096   4.534   2.427
 5775SOL    HW218225   5.204   4.566   2.545
 5776SOL     OW18226   3.714   0.792   3.921
 5776SOL    HW118227   3.806   0.800   3.885
 5776SOL    HW218228   3.649   0.835   3.858
 5777SOL     OW18229   0.718   0.706   1.787
 5777SOL    HW118230   0.650   0.670   1.851
 5777SOL    HW218231   0.784   0.635   1.765
 5778SOL     OW18232   0.147   1.019   0.138
 5778SOL    HW118233   0.219   1.020   0.207
 5778SOL    HW218234   0.180   1.064   0.055
 5779SOL     OW18235   5.431   1.522   0.292
 5779SOL    HW118236   5.438   1.603   0.351
 5779SOL    HW218237   5.498   1.528   0.218
 5780SOL     OW18238   5.232   4.942   4.483
 5780SOL    HW118239   5.220   4.972   4.388
 5780SOL    HW218240   5.205   5.016   4.545
 5781SOL     OW18241   1.370   6.270   5.853
 5781SOL    HW118242   1.387   6.331   5.931
 5781SOL    HW218243   1.343   6.325   5.774
 5782SOL     OW18244   6.092   0.453   1.177
 5782SOL    HW118245   6.047   0.493   1.097
 5782SOL    HW218246   6.157   0.518   1.215
 5783SOL     OW18247   2.542   2.383   6.406
 5783SOL    HW118248   2.503   2.461   6.455
 5783SOL    HW218249   2.495   2.371   6.319
 5784SOL     OW18250   6.624   6.579   0.585
 5784SOL    HW118251   6.650   6.568   0.489
 5784SOL    HW218252   6.696   6.630   0.633
 5785SOL     OW18253   1.646   1.820   1.838
 5785SOL    HW118254   1.677   1.908   1.874
 5785SOL    HW218255   1.709   1.789   1.767
 5786SOL     OW18256   6.457   5.521   2.032
 5786SOL    HW118257   6.440   5.619   2.021
 5786SOL    HW218258   6.430   5.473   1.949
 5787SOL     OW18259   1.852   3.053   6.433
 5787SOL    HW118260   1.850   2.994   6.352
 5787SOL    HW218261   1.947   3.077   6.454
 5788SOL     OW18262   3.182   0.469   3.296
 5788SOL    HW118263   3.280   0.485   3.282
 5788SOL    HW218264   3.167   0.372   3.316
 5789SOL     OW18265   3.049   4.533   6.108
 5789SOL    HW118266   3.077   4.605   6.044
 5789SOL    HW218267   2.956   4.505   6.089
 5790SOL     OW18268   1.490   3.676   4.105
 5790SOL    HW118269   1.543   3.712   4.182
 5790SOL    HW218270   1.490   3.576   4.108
 5791SOL     OW18271   1.468   0.972   3.550
 5791SOL    HW118272   1.386   1.008   3.505
 5791SOL    HW218273   1.513   0.907   3.489
 5792SOL     OW18274   0.424   2.642   3.203
 5792SOL    HW118275   0.515   2.648   3.244
 5792SOL    HW218276   0.354   2.648   3.274
 5793SOL     OW18277   5.992   1.234   5.300
 5793SOL    HW118278   6.027   1.203   5.389
 5793SOL    HW218279   6.059   1.294   5.257
 5794SOL     OW18280   0.004   3.866   6.584
 5794SOL    HW118281   6.979   3.873   6.496
 5794SOL    HW218282   0.101   3.887   6.571
 5795SOL     OW18283   6.722   4.823   6.520
 5795SOL    HW118284   6.703   4.744   6.578
 5795SOL    HW218285   6.691   4.804   6.427
 5796SOL     OW18286   2.693   2.179   0.671
 5796SOL    HW118287   2.777   2.178   0.726
 5796SOL    HW218288   2.620   2.224   0.723
 5797SOL     OW18289   3.188   3.211   5.467
 5797SOL    HW118290   3.261   3.147   5.489
 5797SOL    HW218291   3.215   3.267   5.389
 5798SOL     OW18292   6.400   4.880   4.073
 5798SOL    HW118293   6.491   4.844   4.095
 5798SOL    HW218294   6.394   4.975   4.103
 5799SOL     OW18295   5.745   0.271   4.225
 5799SOL    HW118296   5.803   0.207   4.174
 5799SOL    HW218297   5.788   0.293   4.312
 5800SOL     OW18298   5.784   6.300   6.865
 5800SOL    HW118299   5.775   6.216   6.918
 5800SOL    HW218300   5.852   6.288   6.793
 5801SOL     OW18301   1.561   1.559   1.939
 5801SOL    HW118302   1.632   1.506   1.986
 5801SOL    HW218303   1.594   1.651   1.922
 5802SOL     OW18304   0.105   2.241   4.479
 5802SOL    HW118305   0.078   2.258   4.384
 5802SOL    HW218306   0.065   2.311   4.538
 5803SOL     OW18307   1.446   5.246   1.282
 5803SOL    HW118308   1.423   5.337   1.248
 5803SOL    HW218309   1.533   5.249   1.330
 5804SOL     OW18310   0.556   2.982   6.089
 5804SOL    HW118311   0.559   2.993   5.990
 5804SOL    HW218312   0.472   2.934   6.115
 5805SOL     OW18313   5.116   3.313   6.803
 5805SOL    HW118314   5.024   3.278   6.785
 5805SOL    HW218315   5.171   3.242   6.847
 5806SOL     OW18316   6.311   6.838   6.303
 5806SOL    HW118317   6.240   6.862   6.237
 5806SOL    HW218318   6.280   6.861   6.395
 5807SOL     OW18319   2.924   4.074   1.221
 5807SOL    HW118320   2.864   3.994   1.216
 5807SOL    HW218321   3.018   4.045   1.205
 5808SOL     OW18322   6.438   1.982   3.358
 5808SOL    HW118323   6.448   2.054   3.426
 5808SOL    HW218324   6.391   2.018   3.278
 5809SOL     OW18325   0.429   2.592   3.800
 5809SOL    HW118326   0.506   2.618   3.859
 5809SOL    HW218327   0.456   2.599   3.704
 5810SOL     OW18328   2.867   2.174   2.753
 5810SOL    HW118329   2.962   2.181   2.784
 5810SOL    HW218330   2.857   2.096   2.692
 5811SOL     OW18331   2.645   0.265   1.827
 5811SOL    HW118332   2.590   0.228   1.902
 5811SOL    HW218333   2.735   0.221   1.827
 5812SOL     OW18334   4.355   0.408   4.534
 5812SOL    HW118335   4.447   0.448   4.533
 5812SOL    HW218336   4.342   0.352   4.452
 5813SOL     OW18337   1.912   1.864   5.238
 5813SOL    HW118338   1.915   1.928   5.162
 5813SOL    HW218339   1.841   1.892   5.303
 5814SOL     OW18340   0.382   5.143   1.354
 5814SOL    HW118341   0.326   5.077   1.404
 5814SOL    HW218342   0.439   5.095   1.287
 5815SOL     OW18343   4.201   6.755   4.703
 5815SOL    HW118344   4.138   6.688   4.741
 5815SOL    HW218345   4.284   6.710   4.672
 5816SOL     OW18346   5.368   6.465   0.286
 5816SOL    HW118347   5.352   6.383   0.341
 5816SOL    HW218348   5.423   6.442   0.206
 5817SOL     OW18349   6.080   2.790   6.327
 5817SOL    HW118350   6.121   2.881   6.324
 5817SOL    HW218351   6.046   2.766   6.236
 5818SOL     OW18352   6.562   6.761   5.136
 5818SOL    HW118353   6.485   6.756   5.072
 5818SOL    HW218354   6.545   6.833   5.203
 5819SOL     OW18355   6.463   0.050   0.968
 5819SOL    HW118356   6.437   0.061   0.872
 5819SOL    HW218357   6.547   0.101   0.986
 5820SOL     OW18358   5.281   4.948   1.814
 5820SOL    HW118359   5.328   4.951   1.902
 5820SOL    HW218360   5.333   4.892   1.750
 5821SOL     OW18361   3.036   6.890   2.533
 5821SOL    HW118362   2.994   6.848   2.452
 5821SOL    HW218363   2.968   6.945   2.581
 5822SOL     OW18364   0.404   0.841   2.564
 5822SOL    HW118365   0.406   0.831   2.664
 5822SOL    HW218366   0.462   0.772   2.522
 5823SOL     OW18367   1.673   2.771   3.936
 5823SOL    HW118368   1.590   2.759   3.989
 5823SOL    HW218369   1.686   2.691   3.876
 5824SOL     OW18370   5.008   0.260   3.706
 5824SOL    HW118371   4.926   0.289   3.656
 5824SOL    HW218372   5.044   0.175   3.668
 5825SOL     OW18373   3.330   1.410   1.539
 5825SOL    HW118374   3.340   1.339   1.469
 5825SOL    HW218375   3.246   1.461   1.523
 5826SOL     OW18376   0.357   6.735   3.612
 5826SOL    HW118377   0.278   6.722   3.552
 5826SOL    HW218378   0.441   6.734   3.558
 5827SOL     OW18379   1.591   4.888   5.494
 5827SOL    HW118380   1.681   4.844   5.493
 5827SOL    HW218381   1.594   4.972   5.439
 5828SOL     OW18382   6.166   1.962   1.377
 5828SOL    HW118383   6.187   1.936   1.472
 5828SOL    HW218384   6.118   1.888   1.331
 5829SOL     OW18385   1.991   1.663   1.352
 5829SOL    HW118386   1.950   1.731   1.291
 5829SOL    HW218387   1.933   1.581   1.354
 5830SOL     OW18388   1.542   0.894   5.727
 5830SOL    HW118389   1.488   0.976   5.748
 5830SOL    HW218390   1.544   0.880   5.628
 5831SOL     OW18391   5.765   5.273   2.837
 5831SOL    HW118392   5.688   5.257   2.775
 5831SOL    HW218393   5.796   5.368   2.828
 5832SOL     OW18394   3.500   3.627   4.773
 5832SOL    HW118395   3.479   3.538   4.812
 5832SOL    HW218396   3.507   3.619   4.673
 5833SOL     OW18397   3.068   3.067   4.908
 5833SOL    HW118398   3.088   3.068   4.810
 5833SOL    HW218399   2.991   3.006   4.926
 5834SOL     OW18400   6.278   1.100   7.016
 5834SOL    HW118401   6.284   1.029   6.946
 5834SOL    HW218402   6.265   1.189   6.973
 5835SOL     OW18403   5.320   3.089   4.121
 5835SOL    HW118404   5.229   3.056   4.148
 5835SOL    HW218405   5.314   3.135   4.033
 5836SOL     OW18406   3.462   0.154   3.609
 5836SOL    HW118407   3.495   0.121   3.521
 5836SOL    HW218408   3.536   0.154   3.675
 5837SOL     OW18409   4.200   3.839   6.377
 5837SOL    HW118410   4.238   3.922   6.337
 5837SOL    HW218411   4.170   3.858   6.471
 5838SOL     OW18412   0.459   1.280   6.006
 5838SOL    HW118413   0.368   1.298   5.971
 5838SOL    HW218414   0.518   1.250   5.931
 5839SOL     OW18415   7.013   2.405   2.558
 5839SOL    HW118416   0.059   2.461   2.605
 5839SOL    HW218417   7.022   2.310   2.588
 5840SOL     OW18418   3.588   5.797   0.643
 5840SOL    HW118419   3.606   5.820   0.739
 5840SOL    HW218420   3.538   5.711   0.639
 5841SOL     OW18421   6.210   2.086   3.185
 5841SOL    HW118422   6.181   1.995   3.215
 5841SOL    HW218423   6.133   2.149   3.193
 5842SOL     OW18424   3.749   1.999   1.340
 5842SOL    HW118425   3.682   2.023   1.270
 5842SOL    HW218426   3.827   2.062   1.335
 5843SOL     OW18427   0.497   2.495   1.230
 5843SOL    HW118428   0.464   2.538   1.146
 5843SOL    HW218429   0.499   2.396   1.218
 5844SOL     OW18430   1.569   6.562   6.309
 5844SOL    HW118431   1.558   6.465   6.334
 5844SOL    HW218432   1.638   6.569   6.236
 5845SOL     OW18433   1.699   2.853   4.726
 5845SOL    HW118434   1.688   2.785   4.799
 5845SOL    HW218435   1.797   2.869   4.710
 5846SOL     OW18436   0.331   3.855   6.817
 5846SOL    HW118437   0.420   3.895   6.841
 5846SOL    HW218438   0.322   3.767   6.862
 5847SOL     OW18439   1.496   2.492   4.340
 5847SOL    HW118440   1.560   2.569   4.334
 5847SOL    HW218441   1.423   2.514   4.404
 5848SOL     OW18442   0.803   4.703   3.528
 5848SOL    HW118443   0.737   4.677   3.457
 5848SOL    HW218444   0.876   4.635   3.532
 5849SOL     OW18445   2.857   0.178   6.133
 5849SOL    HW118446   2.924   0.247   6.160
 5849SOL    HW218447   2.779   0.223   6.089
 5850SOL     OW18448   0.856   4.163   3.033
 5850SOL    HW118449   0.797   4.093   3.074
 5850SOL    HW218450   0.951   4.142   3.053
 5851SOL     OW18451   6.353   2.894   2.063
 5851SOL    HW118452   6.449   2.907   2.037
 5851SOL    HW218453   6.342   2.912   2.161
 5852SOL     OW18454   3.752   6.139   3.204
 5852SOL    HW118455   3.674   6.197   3.183
 5852SOL    HW218456   3.834   6.196   3.213
 5853SOL     OW18457   4.902   4.141   5.310
 5853SOL    HW118458   4.825   4.176   5.257
 5853SOL    HW218459   4.943   4.215   5.363
 5854SOL     OW18460   0.884   1.390   6.709
 5854SOL    HW118461   0.951   1.447   6.757
 5854SOL    HW218462   0.793   1.410   6.744
 5855SOL     OW18463   1.600   1.493   4.566
 5855SOL    HW118464   1.655   1.452   4.639
 5855SOL    HW218465   1.544   1.423   4.523
 5856SOL     OW18466   0.915   5.974   3.330
 5856SOL    HW118467   0.964   6.052   3.369
 5856SOL    HW218468   0.822   5.971   3.368
 5857SOL     OW18469   0.088   2.319   5.122
 5857SOL    HW118470   0.163   2.385   5.115
 5857SOL    HW218471   0.118   2.231   5.086
 5858SOL     OW18472   2.914   6.687   3.836
 5858SOL    HW118473   2.962   6.756   3.781
 5858SOL    HW218474   2.818   6.711   3.844
 5859SOL     OW18475   6.045   5.453   1.915
 5859SOL    HW118476   5.991   5.466   1.998
 5859SOL    HW218477   6.047   5.356   1.892
 5860SOL     OW18478   6.914   4.411   0.652
 5860SOL    HW118479   6.956   4.396   0.742
 5860SOL    HW218480   6.816   4.391   0.657
 5861SOL     OW18481   6.052   1.360   4.015
 5861SOL    HW118482   6.042   1.375   3.917
 5861SOL    HW218483   5.966   1.379   4.062
 5862SOL     OW18484   5.524   4.971   3.900
 5862SOL    HW118485   5.461   4.977   3.977
 5862SOL    HW218486   5.593   4.901   3.917
 5863SOL     OW18487   2.146   1.510   0.151
 5863SOL    HW118488   2.220   1.532   0.215
 5863SOL    HW218489   2.186   1.478   0.065
 5864SOL     OW18490   4.887   5.073   0.933
 5864SOL    HW118491   4.835   5.013   0.994
 5864SOL    HW218492   4.884   5.037   0.840
 5865SOL     OW18493   4.394   0.958   3.042
 5865SOL    HW118494   4.481   0.950   3.092
 5865SOL    HW218495   4.388   0.884   2.975
 5866SOL     OW18496   3.371   1.715   6.927
 5866SOL    HW118497   3.415   1.803   6.944
 5866SOL    HW218498   3.272   1.728   6.921
 5867SOL     OW18499   6.634   2.925   1.964
 5867SOL    HW118500   6.617   2.941   1.867
 5867SOL    HW218501   6.680   3.005   2.003
 5868SOL     OW18502   0.322   6.501   5.069
 5868SOL    HW118503   0.383   6.421   5.069
 5868SOL    HW218504   0.264   6.498   5.151
 5869SOL     OW18505   2.544   4.852   4.150
 5869SOL    HW118506   2.445   4.864   4.161
 5869SOL    HW218507   2.580   4.805   4.230
 5870SOL     OW18508   5.147   5.591   4.073
 5870SOL    HW118509   5.138   5.550   4.164
 5870SOL    HW218510   5.059   5.629   4.045
 5871SOL     OW18511   3.324   4.381   0.544
 5871SOL    HW118512   3.364   4.472   0.538
 5871SOL    HW218513   3.312   4.356   0.640
 5872SOL     OW18514   4.244   5.718   4.041
 5872SOL    HW118515   4.305   5.770   4.100
 5872SOL    HW218516   4.262   5.620   4.053
 5873SOL     OW18517   2.051   2.631   0.366
 5873SOL    HW118518   2.068   2.728   0.350
 5873SOL    HW218519   2.137   2.586   0.393
 5874SOL     OW18520   0.823   4.472   6.560
 5874SOL    HW118521   0.815   4.376   6.533
 5874SOL    HW218522   0.873   4.522   6.489
 5875SOL     OW18523   4.049   1.820   1.016
 5875SOL    HW118524   3.950   1.831   1.013
 5875SOL    HW218525   4.091   1.905   1.046
 5876SOL     OW18526   4.430   3.640   5.722
 5876SOL    HW118527   4.350   3.699   5.731
 5876SOL    HW218528   4.449   3.595   5.809
 5877SOL     OW18529   5.254   0.194   2.899
 5877SOL    HW118530   5.193   0.217   2.974
 5877SOL    HW218531   5.276   0.276   2.846
 5878SOL     OW18532   5.010   3.394   2.952
 5878SOL    HW118533   4.942   3.461   2.981
 5878SOL    HW218534   5.097   3.413   2.999
 5879SOL     OW18535   3.094   4.807   5.019
 5879SOL    HW118536   3.187   4.772   5.021
 5879SOL    HW218537   3.029   4.731   5.021
 5880SOL     OW18538   6.082   2.549   0.080
 5880SOL    HW118539   6.137   2.498   0.147
 5880SOL    HW218540   6.044   2.630   0.123
 5881SOL     OW18541   1.109   6.019   2.689
 5881SOL    HW118542   1.029   5.971   2.725
 5881SOL    HW218543   1.091   6.048   2.595
 5882SOL     OW18544   1.769   5.587   5.268
 5882SOL    HW118545   1.718   5.583   5.183
 5882SOL    HW218546   1.712   5.554   5.344
 5883SOL     OW18547   0.182   5.622   0.241
 5883SOL    HW118548   0.124   5.564   0.184
 5883SOL    HW218549   0.136   5.710   0.255
 5884SOL     OW18550   0.208   1.394   2.308
 5884SOL    HW118551   0.114   1.423   2.293
 5884SOL    HW218552   0.229   1.394   2.406
 5885SOL     OW18553   6.987   5.786   1.706
 5885SOL    HW118554   6.935   5.719   1.653
 5885SOL    HW218555   7.012   5.747   1.794
 5886SOL     OW18556   1.803   4.688   3.217
 5886SOL    HW118557   1.889   4.739   3.228
 5886SOL    HW218558   1.815   4.595   3.251
 5887SOL     OW18559   2.367   4.110   0.799
 5887SOL    HW118560   2.416   4.025   0.781
 5887SOL    HW218561   2.312   4.100   0.882
 5888SOL     OW18562   3.044   6.159   1.567
 5888SOL    HW118563   3.057   6.258   1.564
 5888SOL    HW218564   3.131   6.113   1.545
 5889SOL     OW18565   4.872   1.723   2.004
 5889SOL    HW118566   4.836   1.745   1.913
 5889SOL    HW218567   4.828   1.641   2.038
 5890SOL     OW18568   2.461   4.746   3.199
 5890SOL    HW118569   2.418   4.657   3.214
 5890SOL    HW218570   2.404   4.802   3.139
 5891SOL     OW18571   2.546   2.813   6.514
 5891SOL    HW118572   2.622   2.753   6.539
 5891SOL    HW218573   2.578   2.882   6.449
 5892SOL     OW18574   0.206   2.510   0.865
 5892SOL    HW118575   0.264   2.591   0.855
 5892SOL    HW218576   0.215   2.473   0.957
 5893SOL     OW18577   0.469   5.977   1.386
 5893SOL    HW118578   0.435   5.912   1.455
 5893SOL    HW218579   0.510   5.926   1.311
 5894SOL     OW18580   2.308   4.900   6.195
 5894SOL    HW118581   2.315   4.843   6.277
 5894SOL    HW218582   2.397   4.938   6.173
 5895SOL     OW18583   6.096   2.844   3.923
 5895SOL    HW118584   6.090   2.768   3.858
 5895SOL    HW218585   6.143   2.921   3.881
 5896SOL     OW18586   5.581   2.589   1.205
 5896SOL    HW118587   5.647   2.664   1.207
 5896SOL    HW218588   5.625   2.505   1.174
 5897SOL     OW18589   3.774   3.183   0.321
 5897SOL    HW118590   3.744   3.278   0.311
 5897SOL    HW218591   3.741   3.147   0.408
 5898SOL     OW18592   3.505   0.643   6.557
 5898SOL    HW118593   3.486   0.690   6.471
 5898SOL    HW218594   3.418   0.618   6.601
 5899SOL     OW18595   0.490   0.407   0.027
 5899SOL    HW118596   0.490   0.406   6.950
 5899SOL    HW218597   0.483   0.501   0.059
 5900SOL     OW18598   5.426   6.483   2.851
 5900SOL    HW118599   5.505   6.495   2.791
 5900SOL    HW218600   5.379   6.398   2.826
 5901SOL     OW18601   1.226   0.757   4.896
 5901SOL    HW118602   1.222   0.835   4.833
 5901SOL    HW218603   1.320   0.723   4.902
 5902SOL     OW18604   4.029   3.800   6.096
 5902SOL    HW118605   4.110   3.743   6.110
 5902SOL    HW218606   3.971   3.795   6.177
 5903SOL     OW18607   5.738   1.690   5.048
 5903SOL    HW118608   5.681   1.612   5.071
 5903SOL    HW218609   5.787   1.672   4.963
 5904SOL     OW18610   6.836   5.059   1.796
 5904SOL    HW118611   6.915   5.103   1.838
 5904SOL    HW218612   6.752   5.099   1.834
 5905SOL     OW18613   6.260   2.244   5.000
 5905SOL    HW118614   6.173   2.196   5.007
 5905SOL    HW218615   6.327   2.201   5.061
 5906SOL     OW18616   4.102   0.623   4.604
 5906SOL    HW118617   4.177   0.591   4.662
 5906SOL    HW218618   4.093   0.563   4.525
 5907SOL     OW18619   0.472   3.530   5.911
 5907SOL    HW118620   0.427   3.473   5.843
 5907SOL    HW218621   0.560   3.489   5.936
 5908SOL     OW18622   4.490   3.596   6.487
 5908SOL    HW118623   4.540   3.596   6.400
 5908SOL    HW218624   4.555   3.594   6.562
 5909SOL     OW18625   6.279   4.855   3.358
 5909SOL    HW118626   6.230   4.909   3.427
 5909SOL    HW218627   6.357   4.908   3.325
 5910SOL     OW18628   2.806   4.247   1.440
 5910SOL    HW118629   2.786   4.150   1.451
 5910SOL    HW218630   2.893   4.258   1.391
 5911SOL     OW18631   6.244   0.739   5.565
 5911SOL    HW118632   6.292   0.703   5.486
 5911SOL    HW218633   6.203   0.664   5.616
 5912SOL     OW18634   0.595   3.700   6.241
 5912SOL    HW118635   0.559   3.608   6.221
 5912SOL    HW218636   0.663   3.694   6.315
 5913SOL     OW18637   1.578   2.727   4.520
 5913SOL    HW118638   1.619   2.779   4.594
 5913SOL    HW218639   1.582   2.629   4.542
 5914SOL     OW18640   1.331   5.742   0.409
 5914SOL    HW118641   1.259   5.736   0.479
 5914SOL    HW218642   1.310   5.679   0.335
 5915SOL     OW18643   5.749   4.014   4.369
 5915SOL    HW118644   5.745   4.113   4.386
 5915SOL    HW218645   5.657   3.975   4.379
 5916SOL     OW18646   3.111   1.198   6.495
 5916SOL    HW118647   3.199   1.213   6.540
 5916SOL    HW218648   3.119   1.221   6.398
 5917SOL     OW18649   3.458   4.074   2.201
 5917SOL    HW118650   3.549   4.112   2.184
 5917SOL    HW218651   3.423   4.107   2.289
 5918SOL     OW18652   3.032   1.848   4.026
 5918SOL    HW118653   3.105   1.857   4.094
 5918SOL    HW218654   2.974   1.771   4.049
 5919SOL     OW18655   1.623   2.123   6.718
 5919SOL    HW118656   1.654   2.086   6.630
 5919SOL    HW218657   1.600   2.048   6.779
 5920SOL     OW18658   2.265   4.931   6.670
 5920SOL    HW118659   2.170   4.936   6.700
 5920SOL    HW218660   2.322   4.896   6.744
 5921SOL     OW18661   3.937   6.008   4.590
 5921SOL    HW118662   3.870   6.048   4.653
 5921SOL    HW218663   3.900   6.009   4.497
 5922SOL     OW18664   6.855   5.611   2.322
 5922SOL    HW118665   6.855   5.518   2.284
 5922SOL    HW218666   6.904   5.612   2.408
 5923SOL     OW18667   0.575   0.686   3.203
 5923SOL    HW118668   0.647   0.677   3.134
 5923SOL    HW218669   0.489   0.652   3.166
 5924SOL     OW18670   5.605   1.912   4.554
 5924SOL    HW118671   5.572   1.963   4.633
 5924SOL    HW218672   5.595   1.968   4.471
 5925SOL     OW18673   6.773   5.838   0.397
 5925SOL    HW118674   6.844   5.848   0.327
 5925SOL    HW218675   6.783   5.911   0.464
 5926SOL     OW18676   2.911   6.616   1.836
 5926SOL    HW118677   2.996   6.563   1.843
 5926SOL    HW218678   2.858   6.604   1.920
 5927SOL     OW18679   2.277   5.127   1.280
 5927SOL    HW118680   2.288   5.169   1.370
 5927SOL    HW218681   2.338   5.171   1.214
 5928SOL     OW18682   6.686   6.181   1.193
 5928SOL    HW118683   6.775   6.166   1.150
 5928SOL    HW218684   6.695   6.251   1.264
 5929SOL     OW18685   0.227   6.947   5.910
 5929SOL    HW118686   0.309   6.934   5.966
 5929SOL    HW218687   0.171   6.864   5.913
 5930SOL     OW18688   6.214   1.391   5.141
 5930SOL    HW118689   6.212   1.444   5.056
 5930SOL    HW218690   6.169   1.443   5.214
 5931SOL     OW18691   5.521   4.907   0.557
 5931SOL    HW118692   5.431   4.880   0.523
 5931SOL    HW218693   5.562   4.830   0.607
 5932SOL     OW18694   2.277   0.217   0.265
 5932SOL    HW118695   2.364   0.228   0.216
 5932SOL    HW218696   2.204   0.202   0.199
 5933SOL     OW18697   5.936   2.263   3.165
 5933SOL    HW118698   5.990   2.329   3.219
 5933SOL    HW218699   5.839   2.280   3.180
 5934SOL     OW18700   4.093   3.193   2.050
 5934SOL    HW118701   3.994   3.183   2.044
 5934SOL    HW218702   4.137   3.134   1.982
 5935SOL     OW18703   3.801   3.058   2.786
 5935SOL    HW118704   3.729   3.125   2.767
 5935SOL    HW218705   3.771   2.998   2.860
 5936SOL     OW18706   6.701   6.264   6.498
 5936SOL    HW118707   6.648   6.208   6.435
 5936SOL    HW218708   6.644   6.288   6.577
 5937SOL     OW18709   0.877   4.350   0.225
 5937SOL    HW118710   0.780   4.374   0.219
 5937SOL    HW218711   0.918   4.395   0.304
 5938SOL     OW18712   2.612   4.873   0.879
 5938SOL    HW118713   2.564   4.820   0.949
 5938SOL    HW218714   2.611   4.970   0.904
 5939SOL     OW18715   1.298   0.742   2.355
 5939SOL    HW118716   1.310   0.795   2.271
 5939SOL    HW218717   1.308   0.644   2.333
 5940SOL     OW18718   3.854   4.856   2.973
 5940SOL    HW118719   3.768   4.875   3.021
 5940SOL    HW218720   3.840   4.870   2.875
 5941SOL     OW18721   6.157   2.598   3.756
 5941SOL    HW118722   6.231   2.654   3.718
 5941SOL    HW218723   6.088   2.581   3.685
 5942SOL     OW18724   6.953   1.322   4.732
 5942SOL    HW118725   7.008   1.326   4.816
 5942SOL    HW218726   6.961   1.409   4.684
 5943SOL     OW18727   1.815   5.348   1.115
 5943SOL    HW118728   1.729   5.375   1.073
 5943SOL    HW218729   1.840   5.414   1.185
 5944SOL     OW18730   5.256   2.693   2.832
 5944SOL    HW118731   5.318   2.755   2.785
 5944SOL    HW218732   5.162   2.714   2.806
 5945SOL     OW18733   6.666   5.654   6.212
 5945SOL    HW118734   6.692   5.662   6.308
 5945SOL    HW218735   6.743   5.616   6.160
 5946SOL     OW18736   3.803   2.498   5.340
 5946SOL    HW118737   3.737   2.531   5.408
 5946SOL    HW218738   3.881   2.561   5.337
 5947SOL     OW18739   4.813   3.869   2.752
 5947SOL    HW118740   4.760   3.858   2.668
 5947SOL    HW218741   4.908   3.843   2.735
 5948SOL     OW18742   2.524   5.485   3.021
 5948SOL    HW118743   2.548   5.553   3.090
 5948SOL    HW218744   2.585   5.495   2.942
 5949SOL     OW18745   4.695   4.252   2.896
 5949SOL    HW118746   4.711   4.178   2.961
 5949SOL    HW218747   4.622   4.312   2.930
 5950SOL     OW18748   6.386   2.169   4.424
 5950SOL    HW118749   6.339   2.181   4.511
 5950SOL    HW218750   6.480   2.204   4.432
 5951SOL     OW18751   2.190   0.843   3.707
 5951SOL    HW118752   2.192   0.912   3.635
 5951SOL    HW218753   2.099   0.839   3.747
 5952SOL     OW18754   0.353   6.413   4.148
 5952SOL    HW118755   0.371   6.511   4.134
 5952SOL    HW218756   0.258   6.400   4.174
 5953SOL     OW18757   0.255   3.440   6.203
 5953SOL    HW118758   0.188   3.425   6.131
 5953SOL    HW218759   0.208   3.450   6.291
 5954SOL     OW18760   1.278   4.727   6.344
 5954SOL    HW118761   1.312   4.647   6.393
 5954SOL    HW218762   1.329   4.738   6.258
 5955SOL     OW18763   3.982   5.456   2.471
 5955SOL    HW118764   3.929   5.538   2.492
 5955SOL    HW218765   3.934   5.401   2.403
 5956SOL     OW18766   0.281   2.118   0.034
 5956SOL    HW118767   0.196   2.078   0.069
 5956SOL    HW218768   0.332   2.161   0.109
 5957SOL     OW18769   4.317   6.526   5.866
 5957SOL    HW118770   4.416   6.519   5.855
 5957SOL    HW218771   4.272   6.454   5.814
 5958SOL     OW18772   1.205   5.378   2.426
 5958SOL    HW118773   1.153   5.298   2.397
 5958SOL    HW218774   1.150   5.461   2.411
 5959SOL     OW18775   1.552   0.785   6.130
 5959SOL    HW118776   1.476   0.846   6.149
 5959SOL    HW218777   1.532   0.731   6.048
 5960SOL     OW18778   3.715   5.977   5.257
 5960SOL    HW118779   3.686   5.924   5.178
 5960SOL    HW218780   3.703   6.074   5.238
 5961SOL     OW18781   2.767   1.135   5.518
 5961SOL    HW118782   2.730   1.133   5.611
 5961SOL    HW218783   2.719   1.067   5.462
 5962SOL     OW18784   5.498   4.377   2.535
 5962SOL    HW118785   5.539   4.455   2.487
 5962SOL    HW218786   5.423   4.340   2.481
 5963SOL     OW18787   4.268   4.441   1.726
 5963SOL    HW118788   4.333   4.492   1.670
 5963SOL    HW218789   4.315   4.365   1.771
 5964SOL     OW18790   1.331   3.471   5.459
 5964SOL    HW118791   1.421   3.472   5.414
 5964SOL    HW218792   1.343   3.444   5.555
 5965SOL     OW18793   2.155   1.846   4.157
 5965SOL    HW118794   2.104   1.874   4.075
 5965SOL    HW218795   2.134   1.908   4.232
 5966SOL     OW18796   1.815   6.327   4.235
 5966SOL    HW118797   1.877   6.254   4.206
 5966SOL    HW218798   1.807   6.326   4.334
 5967SOL     OW18799   4.776   5.368   1.152
 5967SOL    HW118800   4.785   5.357   1.053
 5967SOL    HW218801   4.741   5.283   1.192
 5968SOL     OW18802   1.433   1.768   4.591
 5968SOL    HW118803   1.456   1.687   4.646
 5968SOL    HW218804   1.456   1.750   4.495
 5969SOL     OW18805   0.284   1.857   2.740
 5969SOL    HW118806   0.315   1.912   2.663
 5969SOL    HW218807   0.184   1.844   2.734
 5970SOL     OW18808   2.184   3.865   3.569
 5970SOL    HW118809   2.171   3.877   3.470
 5970SOL    HW218810   2.219   3.950   3.608
 5971SOL     OW18811   3.042   5.783   3.215
 5971SOL    HW118812   3.073   5.709   3.156
 5971SOL    HW218813   2.985   5.846   3.163
 5972SOL     OW18814   5.870   6.998   1.720
 5972SOL    HW118815   5.931   6.919   1.715
 5972SOL    HW218816   5.872   0.014   1.812
 5973SOL     OW18817   2.477   4.949   3.400
 5973SOL    HW118818   2.494   5.035   3.351
 5973SOL    HW218819   2.525   4.874   3.352
 5974SOL     OW18820   0.909   4.203   6.511
 5974SOL    HW118821   0.897   4.204   6.610
 5974SOL    HW218822   0.876   4.117   6.474
 5975SOL     OW18823   2.180   2.287   6.435
 5975SOL    HW118824   2.160   2.322   6.526
 5975SOL    HW218825   2.214   2.361   6.377
 5976SOL     OW18826   3.514   3.589   4.481
 5976SOL    HW118827   3.488   3.675   4.439
 5976SOL    HW218828   3.613   3.576   4.472
 5977SOL     OW18829   0.453   3.417   2.706
 5977SOL    HW118830   0.364   3.463   2.709
 5977SOL    HW218831   0.449   3.333   2.760
 5978SOL     OW18832   5.169   5.536   1.836
 5978SOL    HW118833   5.110   5.603   1.791
 5978SOL    HW218834   5.231   5.496   1.769
 5979SOL     OW18835   0.919   1.134   1.522
 5979SOL    HW118836   0.926   1.233   1.535
 5979SOL    HW218837   0.835   1.101   1.565
 5980SOL     OW18838   6.095   2.750   5.321
 5980SOL    HW118839   6.025   2.696   5.367
 5980SOL    HW218840   6.156   2.790   5.389
 5981SOL     OW18841   3.294   2.078   0.506
 5981SOL    HW118842   3.369   2.144   0.501
 5981SOL    HW218843   3.212   2.117   0.465
 5982SOL     OW18844   6.282   2.894   6.816
 5982SOL    HW118845   6.273   2.907   6.915
 5982SOL    HW218846   6.375   2.917   6.787
 5983SOL     OW18847   0.553   0.274   4.556
 5983SOL    HW118848   0.503   0.331   4.622
 5983SOL    HW218849   0.625   0.223   4.603
 5984SOL     OW18850   0.798   0.289   6.039
 5984SOL    HW118851   0.747   0.361   5.992
 5984SOL    HW218852   0.880   0.266   5.986
 5985SOL     OW18853   5.838   3.231   4.038
 5985SOL    HW118854   5.745   3.197   4.024
 5985SOL    HW218855   5.862   3.223   4.135
 5986SOL     OW18856   3.126   3.568   2.785
 5986SOL    HW118857   3.049   3.511   2.812
 5986SOL    HW218858   3.137   3.564   2.686
 5987SOL     OW18859   4.335   0.398   5.452
 5987SOL    HW118860   4.362   0.482   5.405
 5987SOL    HW218861   4.236   0.397   5.464
 5988SOL     OW18862   3.900   6.578   6.041
 5988SOL    HW118863   3.977   6.602   5.981
 5988SOL    HW218864   3.814   6.606   5.997
 5989SOL     OW18865   3.094   1.827   6.540
 5989SOL    HW118866   3.067   1.739   6.500
 5989SOL    HW218867   3.192   1.840   6.528
 5990SOL     OW18868   3.379   5.376   2.851
 5990SOL    HW118869   3.426   5.353   2.766
 5990SOL    HW218870   3.432   5.344   2.929
 5991SOL     OW18871   3.421   4.924   3.369
 5991SOL    HW118872   3.433   5.023   3.361
 5991SOL    HW218873   3.359   4.904   3.446
 5992SOL     OW18874   4.053   1.721   4.338
 5992SOL    HW118875   4.113   1.785   4.291
 5992SOL    HW218876   3.958   1.750   4.327
 5993SOL     OW18877   2.601   5.191   3.794
 5993SOL    HW118878   2.679   5.135   3.767
 5993SOL    HW218879   2.567   5.161   3.883
 5994SOL     OW18880   6.267   2.247   0.071
 5994SOL    HW118881   6.232   2.278   0.159
 5994SOL    HW218882   6.203   2.272   7.021
 5995SOL     OW18883   0.526   3.675   2.000
 5995SOL    HW118884   0.454   3.649   2.065
 5995SOL    HW218885   0.517   3.620   1.917
 5996SOL     OW18886   1.593   5.989   6.016
 5996SOL    HW118887   1.606   5.905   6.069
 5996SOL    HW218888   1.643   5.982   5.930
 5997SOL     OW18889   0.966   0.662   1.579
 5997SOL    HW118890   0.958   0.674   1.480
 5997SOL    HW218891   0.888   0.607   1.612
 5998SOL     OW18892   5.370   3.012   3.334
 5998SOL    HW118893   5.298   3.065   3.289
 5998SOL    HW218894   5.337   2.919   3.350
 5999SOL     OW18895   2.316   2.625   2.852
 5999SOL    HW118896   2.302   2.711   2.804
 5999SOL    HW218897   2.265   2.626   2.938
 6000SOL     OW18898   4.754   1.227   3.470
 6000SOL    HW118899   4.738   1.151   3.408
 6000SOL    HW218900   4.682   1.296   3.458
 6001SOL     OW18901   6.207   1.287   0.297
 6001SOL    HW118902   6.130   1.296   0.360
 6001SOL    HW218903   6.229   1.190   0.284
 6002SOL     OW18904   2.250   0.048   2.363
 6002SOL    HW118905   2.287   0.140   2.346
 6002SOL    HW218906   2.190   0.022   2.289
 6003SOL     OW18907   4.563   4.353   3.792
 6003SOL    HW118908   4.636   4.347   3.861
 6003SOL    HW218909   4.502   4.274   3.801
 6004SOL     OW18910   0.421   3.283   1.816
 6004SOL    HW118911   0.507   3.263   1.769
 6004SOL    HW218912   0.413   3.382   1.829
 6005SOL     OW18913   1.777   6.066   2.456
 6005SOL    HW118914   1.747   6.133   2.387
 6005SOL    HW218915   1.700   6.010   2.484
 6006SOL     OW18916   2.362   5.408   6.838
 6006SOL    HW118917   2.405   5.491   6.874
 6006SOL    HW218918   2.379   5.331   6.899
 6007SOL     OW18919   5.648   3.689   4.601
 6007SOL    HW118920   5.566   3.709   4.655
 6007SOL    HW218921   5.692   3.607   4.638
 6008SOL     OW18922   4.884   3.939   1.663
 6008SOL    HW118923   4.881   4.034   1.632
 6008SOL    HW218924   4.802   3.891   1.631
 6009SOL     OW18925   4.375   1.563   4.807
 6009SOL    HW118926   4.429   1.492   4.762
 6009SOL    HW218927   4.304   1.596   4.744
 6010SOL     OW18928   1.909   4.449   3.330
 6010SOL    HW118929   1.919   4.364   3.383
 6010SOL    HW218930   1.995   4.499   3.332
 6011SOL     OW18931   6.334   2.003   2.033
 6011SOL    HW118932   6.238   2.003   2.007
 6011SOL    HW218933   6.342   1.999   2.132
 6012SOL     OW18934   0.963   3.054   1.122
 6012SOL    HW118935   0.900   2.988   1.165
 6012SOL    HW218936   0.967   3.037   1.024
 6013SOL     OW18937   5.514   0.445   2.534
 6013SOL    HW118938   5.518   0.415   2.439
 6013SOL    HW218939   5.546   0.540   2.541
 6014SOL     OW18940   6.236   0.772   0.778
 6014SOL    HW118941   6.154   0.719   0.801
 6014SOL    HW218942   6.311   0.709   0.757
 6015SOL     OW18943   5.871   7.014   4.448
 6015SOL    HW118944   5.808   6.992   4.374
 6015SOL    HW218945   5.960   6.971   4.431
 6016SOL     OW18946   1.530   0.232   5.794
 6016SOL    HW118947   1.555   0.280   5.710
 6016SOL    HW218948   1.469   0.290   5.848
 6017SOL     OW18949   6.870   3.752   2.592
 6017SOL    HW118950   6.879   3.655   2.571
 6017SOL    HW218951   6.958   3.798   2.576
 6018SOL     OW18952   3.341   5.137   1.168
 6018SOL    HW118953   3.275   5.098   1.231
 6018SOL    HW218954   3.407   5.067   1.141
 6019SOL     OW18955   6.241   6.426   3.326
 6019SOL    HW118956   6.310   6.411   3.255
 6019SOL    HW218957   6.222   6.524   3.334
 6020SOL     OW18958   1.959   6.367   2.823
 6020SOL    HW118959   1.941   6.336   2.729
 6020SOL    HW218960   1.905   6.450   2.841
 6021SOL     OW18961   3.081   0.640   3.505
 6021SOL    HW118962   3.133   0.584   3.441
 6021SOL    HW218963   2.991   0.659   3.467
 6022SOL     OW18964   3.840   1.054   5.586
 6022SOL    HW118965   3.784   1.133   5.612
 6022SOL    HW218966   3.907   1.036   5.657
 6023SOL     OW18967   0.402   1.997   2.097
 6023SOL    HW118968   0.432   1.916   2.047
 6023SOL    HW218969   0.400   2.076   2.035
 6024SOL     OW18970   6.096   5.729   2.964
 6024SOL    HW118971   5.999   5.747   2.951
 6024SOL    HW218972   6.145   5.815   2.974
 6025SOL     OW18973   4.382   2.242   2.584
 6025SOL    HW118974   4.436   2.173   2.633
 6025SOL    HW218975   4.363   2.210   2.491
 6026SOL     OW18976   0.800   4.597   5.680
 6026SOL    HW118977   0.722   4.583   5.619
 6026SOL    HW218978   0.882   4.557   5.641
 6027SOL     OW18979   4.282   4.139   0.512
 6027SOL    HW118980   4.356   4.075   0.531
 6027SOL    HW218981   4.218   4.098   0.448
 6028SOL     OW18982   0.574   4.246   6.725
 6028SOL    HW118983   0.620   4.331   6.753
 6028SOL    HW218984   0.562   4.245   6.626
 6029SOL     OW18985   1.146   5.426   1.537
 6029SOL    HW118986   1.198   5.446   1.621
 6029SOL    HW218987   1.056   5.470   1.543
 6030SOL     OW18988   1.779   6.490   2.149
 6030SOL    HW118989   1.843   6.565   2.161
 6030SOL    HW218990   1.804   6.437   2.068
 6031SOL     OW18991   4.986   0.933   4.069
 6031SOL    HW118992   4.990   0.872   4.147
 6031SOL    HW218993   4.973   0.880   3.985
 6032SOL     OW18994   1.209   2.439   2.449
 6032SOL    HW118995   1.159   2.367   2.495
 6032SOL    HW218996   1.303   2.409   2.431
 6033SOL     OW18997   0.081   6.734   4.350
 6033SOL    HW118998   0.004   6.672   4.365
 6033SOL    HW218999   0.101   6.783   4.434
 6034SOL     OW19000   2.433   4.463   4.691
 6034SOL    HW119001   2.483   4.452   4.777
 6034SOL    HW219002   2.341   4.498   4.711
 6035SOL     OW19003   4.843   6.964   3.896
 6035SOL    HW119004   4.790   6.879   3.899
 6035SOL    HW219005   4.789   0.013   3.853
 6036SOL     OW19006   5.933   0.385   4.747
 6036SOL    HW119007   6.024   0.374   4.706
 6036SOL    HW219008   5.914   0.308   4.807
 6037SOL     OW19009   0.569   5.976   4.660
 6037SOL    HW119010   0.639   5.959   4.729
 6037SOL    HW219011   0.547   5.891   4.613
 6038SOL     OW19012   0.398   4.201   6.937
 6038SOL    HW119013   0.432   4.238   6.851
 6038SOL    HW219014   0.299   4.185   6.930
 6039SOL     OW19015   3.574   3.453   4.031
 6039SOL    HW119016   3.502   3.451   3.961
 6039SOL    HW219017   3.548   3.395   4.108
 6040SOL     OW19018   1.175   0.644   0.708
 6040SOL    HW119019   1.252   0.650   0.644
 6040SOL    HW219020   1.128   0.732   0.711
 6041SOL     OW19021   0.727   3.135   0.106
 6041SOL    HW119022   0.778   3.161   0.188
 6041SOL    HW219023   0.710   3.037   0.106
 6042SOL     OW19024   5.107   5.632   4.927
 6042SOL    HW119025   5.035   5.675   4.873
 6042SOL    HW219026   5.126   5.688   5.008
 6043SOL     OW19027   0.308   4.416   3.970
 6043SOL    HW119028   0.245   4.487   3.939
 6043SOL    HW219029   0.388   4.413   3.909
 6044SOL     OW19030   1.633   0.694   1.185
 6044SOL    HW119031   1.658   0.618   1.244
 6044SOL    HW219032   1.701   0.705   1.112
 6045SOL     OW19033   6.451   4.570   6.834
 6045SOL    HW119034   6.353   4.592   6.829
 6045SOL    HW219035   6.469   4.519   6.919
 6046SOL     OW19036   1.371   3.651   6.778
 6046SOL    HW119037   1.430   3.570   6.773
 6046SOL    HW219038   1.275   3.623   6.773
 6047SOL     OW19039   1.242   5.515   5.020
 6047SOL    HW119040   1.187   5.551   4.945
 6047SOL    HW219041   1.199   5.432   5.057
 6048SOL     OW19042   4.716   5.817   4.098
 6048SOL    HW119043   4.643   5.754   4.123
 6048SOL    HW219044   4.762   5.849   4.180
 6049SOL     OW19045   6.562   5.392   7.016
 6049SOL    HW119046   6.622   5.313   7.001
 6049SOL    HW219047   6.599   5.471   6.968
 6050SOL     OW19048   5.944   4.582   5.529
 6050SOL    HW119049   5.992   4.501   5.495
 6050SOL    HW219050   5.915   4.566   5.623
 6051SOL     OW19051   3.209   2.178   3.917
 6051SOL    HW119052   3.183   2.241   3.843
 6051SOL    HW219053   3.152   2.196   3.997
 6052SOL     OW19054   0.305   1.908   6.770
 6052SOL    HW119055   0.330   1.928   6.675
 6052SOL    HW219056   0.272   1.814   6.775
 6053SOL     OW19057   1.156   0.136   6.154
 6053SOL    HW119058   1.213   0.207   6.113
 6053SOL    HW219059   1.127   0.072   6.083
 6054SOL     OW19060   0.661   4.440   5.884
 6054SOL    HW119061   0.631   4.362   5.829
 6054SOL    HW219062   0.731   4.492   5.835
 6055SOL     OW19063   5.319   6.984   2.742
 6055SOL    HW119064   5.306   0.047   2.791
 6055SOL    HW219065   5.321   6.907   2.807
 6056SOL     OW19066   5.444   3.014   6.235
 6056SOL    HW119067   5.362   3.066   6.260
 6056SOL    HW219068   5.494   3.063   6.164
 6057SOL     OW19069   4.082   0.881   6.517
 6057SOL    HW119070   4.118   0.929   6.597
 6057SOL    HW219071   3.982   0.885   6.518
 6058SOL     OW19072   5.131   1.961   5.216
 6058SOL    HW119073   5.170   1.950   5.125
 6058SOL    HW219074   5.166   2.044   5.258
 6059SOL     OW19075   0.131   6.361   6.860
 6059SOL    HW119076   0.217   6.397   6.897
 6059SOL    HW219077   0.107   6.411   6.777
 6060SOL     OW19078   3.170   5.789   6.347
 6060SOL    HW119079   3.199   5.868   6.400
 6060SOL    HW219080   3.207   5.795   6.254
 6061SOL     OW19081   1.859   1.549   0.199
 6061SOL    HW119082   1.802   1.505   0.130
 6061SOL    HW219083   1.944   1.581   0.156
 6062SOL     OW19084   1.553   0.227   3.901
 6062SOL    HW119085   1.601   0.314   3.911
 6062SOL    HW219086   1.543   0.205   3.804
 6063SOL     OW19087   6.009   5.924   6.867
 6063SOL    HW119088   6.071   5.873   6.927
 6063SOL    HW219089   6.032   5.906   6.772
 6064SOL     OW19090   1.021   5.130   2.439
 6064SOL    HW119091   1.083   5.074   2.495
 6064SOL    HW219092   0.943   5.073   2.411
 6065SOL     OW19093   5.354   6.784   1.853
 6065SOL    HW119094   5.259   6.801   1.878
 6065SOL    HW219095   5.414   6.839   1.911
 6066SOL     OW19096   4.087   1.945   5.773
 6066SOL    HW119097   4.117   1.966   5.866
 6066SOL    HW219098   4.113   1.851   5.751
 6067SOL     OW19099   4.681   1.990   6.747
 6067SOL    HW119100   4.765   1.990   6.801
 6067SOL    HW219101   4.659   2.085   6.722
 6068SOL     OW19102   5.099   0.517   5.610
 6068SOL    HW119103   5.067   0.479   5.523
 6068SOL    HW219104   5.021   0.533   5.670
 6069SOL     OW19105   6.749   5.281   3.574
 6069SOL    HW119106   6.655   5.314   3.563
 6069SOL    HW219107   6.752   5.182   3.558
 6070SOL     OW19108   5.088   3.758   0.826
 6070SOL    HW119109   5.029   3.745   0.746
 6070SOL    HW219110   5.095   3.672   0.877
 6071SOL     OW19111   5.155   6.942   5.415
 6071SOL    HW119112   5.222   7.010   5.386
 6071SOL    HW219113   5.070   6.988   5.442
 6072SOL     OW19114   6.148   1.727   1.626
 6072SOL    HW119115   6.200   1.812   1.619
 6072SOL    HW219116   6.194   1.655   1.573
 6073SOL     OW19117   6.149   0.772   1.270
 6073SOL    HW119118   6.050   0.758   1.270
 6073SOL    HW219119   6.169   0.865   1.300
 6074SOL     OW19120   0.701   0.690   5.877
 6074SOL    HW119121   0.681   0.656   5.785
 6074SOL    HW219122   0.652   0.633   5.944
 6075SOL     OW19123   5.281   3.635   5.767
 6075SOL    HW119124   5.373   3.615   5.800
 6075SOL    HW219125   5.253   3.566   5.700
 6076SOL     OW19126   2.632   0.752   4.093
 6076SOL    HW119127   2.645   0.678   4.158
 6076SOL    HW219128   2.579   0.720   4.015
 6077SOL     OW19129   4.832   4.872   3.259
 6077SOL    HW119130   4.931   4.867   3.273
 6077SOL    HW219131   4.798   4.783   3.229
 6078SOL     OW19132   1.921   4.510   4.393
 6078SOL    HW119133   2.008   4.467   4.417
 6078SOL    HW219134   1.923   4.607   4.417
 6079SOL     OW19135   3.132   1.946   1.170
 6079SOL    HW119136   3.163   2.008   1.097
 6079SOL    HW219137   3.142   1.992   1.258
 6080SOL     OW19138   5.765   3.285   3.472
 6080SOL    HW119139   5.770   3.369   3.527
 6080SOL    HW219140   5.678   3.238   3.492
 6081SOL     OW19141   0.474   4.359   1.795
 6081SOL    HW119142   0.438   4.313   1.877
 6081SOL    HW219143   0.423   4.327   1.715
 6082SOL     OW19144   4.328   1.842   5.253
 6082SOL    HW119145   4.263   1.852   5.177
 6082SOL    HW219146   4.419   1.824   5.216
 6083SOL     OW19147   1.873   6.723   6.882
 6083SOL    HW119148   1.961   6.728   6.835
 6083SOL    HW219149   1.881   6.763   6.973
 6084SOL     OW19150   0.038   5.651   5.889
 6084SOL    HW119151   0.012   5.743   5.859
 6084SOL    HW219152   7.005   5.624   5.967
 6085SOL     OW19153   5.143   5.168   1.730
 6085SOL    HW119154   5.100   5.201   1.814
 6085SOL    HW219155   5.204   5.092   1.752
 6086SOL     OW19156   3.255   1.751   2.571
 6086SOL    HW119157   3.231   1.847   2.564
 6086SOL    HW219158   3.344   1.742   2.617
 6087SOL     OW19159   3.688   0.614   0.342
 6087SOL    HW119160   3.743   0.598   0.424
 6087SOL    HW219161   3.696   0.536   0.280
 6088SOL     OW19162   6.981   0.624   5.024
 6088SOL    HW119163   6.923   0.683   5.080
 6088SOL    HW219164   6.969   0.529   5.052
 6089SOL     OW19165   6.505   3.945   1.069
 6089SOL    HW119166   6.530   3.906   1.157
 6089SOL    HW219167   6.408   3.930   1.051
 6090SOL     OW19168   6.735   5.777   4.398
 6090SOL    HW119169   6.780   5.786   4.309
 6090SOL    HW219170   6.651   5.724   4.388
 6091SOL     OW19171   6.652   2.520   1.804
 6091SOL    HW119172   6.648   2.420   1.815
 6091SOL    HW219173   6.701   2.560   1.881
 6092SOL     OW19174   1.180   3.679   0.835
 6092SOL    HW119175   1.237   3.637   0.764
 6092SOL    HW219176   1.086   3.686   0.802
 6093SOL     OW19177   0.979   4.925   0.639
 6093SOL    HW119178   0.883   4.948   0.622
 6093SOL    HW219179   0.985   4.874   0.725
 6094SOL     OW19180   0.235   1.270   0.971
 6094SOL    HW119181   0.282   1.357   0.985
 6094SOL    HW219182   0.246   1.213   1.052
 6095SOL     OW19183   6.662   3.944   5.137
 6095SOL    HW119184   6.612   3.944   5.050
 6095SOL    HW219185   6.643   3.860   5.187
 6096SOL     OW19186   5.261   1.781   2.777
 6096SOL    HW119187   5.238   1.849   2.847
 6096SOL    HW219188   5.345   1.733   2.802
 6097SOL     OW19189   3.609   1.835   2.948
 6097SOL    HW119190   3.519   1.815   2.985
 6097SOL    HW219191   3.679   1.791   3.004
 6098SOL     OW19192   0.489   0.703   6.642
 6098SOL    HW119193   0.412   0.753   6.682
 6098SOL    HW219194   0.492   0.610   6.679
 6099SOL     OW19195   5.945   4.214   4.917
 6099SOL    HW119196   6.037   4.183   4.944
 6099SOL    HW219197   5.936   4.208   4.818
 6100SOL     OW19198   0.175   2.976   0.770
 6100SOL    HW119199   0.170   2.960   0.869
 6100SOL    HW219200   0.148   2.892   0.722
 6101SOL     OW19201   6.141   6.377   3.580
 6101SOL    HW119202   6.203   6.386   3.502
 6101SOL    HW219203   6.098   6.287   3.578
 6102SOL     OW19204   3.397   6.618   4.863
 6102SOL    HW119205   3.414   6.682   4.938
 6102SOL    HW219206   3.365   6.531   4.901
 6103SOL     OW19207   5.623   1.877   5.225
 6103SOL    HW119208   5.660   1.858   5.316
 6103SOL    HW219209   5.653   1.805   5.162
 6104SOL     OW19210   1.923   2.712   0.854
 6104SOL    HW119211   1.867   2.718   0.936
 6104SOL    HW219212   1.875   2.658   0.784
 6105SOL     OW19213   3.216   4.928   4.449
 6105SOL    HW119214   3.170   4.916   4.538
 6105SOL    HW219215   3.312   4.901   4.457
 6106SOL     OW19216   2.226   5.102   4.038
 6106SOL    HW119217   2.262   5.099   4.131
 6106SOL    HW219218   2.127   5.114   4.040
 6107SOL     OW19219   2.327   5.145   5.899
 6107SOL    HW119220   2.245   5.202   5.889
 6107SOL    HW219221   2.311   5.055   5.860
 6108SOL     OW19222   5.195   1.920   4.953
 6108SOL    HW119223   5.185   1.965   4.864
 6108SOL    HW219224   5.290   1.893   4.965
 6109SOL     OW19225   6.900   4.166   1.528
 6109SOL    HW119226   6.948   4.220   1.597
 6109SOL    HW219227   6.930   4.071   1.533
 6110SOL     OW19228   3.575   2.167   3.472
 6110SOL    HW119229   3.615   2.257   3.485
 6110SOL    HW219230   3.475   2.174   3.468
 6111SOL     OW19231   0.497   4.348   3.721
 6111SOL    HW119232   0.453   4.265   3.686
 6111SOL    HW219233   0.467   4.427   3.668
 6112SOL     OW19234   1.367   1.736   1.307
 6112SOL    HW119235   1.290   1.764   1.365
 6112SOL    HW219236   1.453   1.766   1.348
 6113SOL     OW19237   1.416   4.831   5.254
 6113SOL    HW119238   1.357   4.778   5.193
 6113SOL    HW219239   1.397   4.807   5.349
 6114SOL     OW19240   3.942   4.329   0.978
 6114SOL    HW119241   3.865   4.265   0.984
 6114SOL    HW219242   4.009   4.308   1.049
 6115SOL     OW19243   6.896   4.934   2.348
 6115SOL    HW119244   6.833   4.988   2.405
 6115SOL    HW219245   6.974   4.905   2.404
 6116SOL     OW19246   4.010   2.348   1.348
 6116SOL    HW119247   4.018   2.266   1.405
 6116SOL    HW219248   3.941   2.409   1.386
 6117SOL     OW19249   5.450   5.617   4.104
 6117SOL    HW119250   5.364   5.645   4.061
 6117SOL    HW219251   5.469   5.522   4.080
 6118SOL     OW19252   6.621   0.111   3.285
 6118SOL    HW119253   6.636   0.137   3.380
 6118SOL    HW219254   6.708   0.109   3.237
 6119SOL     OW19255   5.943   5.358   4.280
 6119SOL    HW119256   5.989   5.428   4.334
 6119SOL    HW219257   5.945   5.271   4.330
 6120SOL     OW19258   2.424   1.593   3.320
 6120SOL    HW119259   2.484   1.605   3.241
 6120SOL    HW219260   2.366   1.674   3.331
 6121SOL     OW19261   6.982   2.114   3.757
 6121SOL    HW119262   6.894   2.067   3.771
 6121SOL    HW219263   0.027   2.049   3.722
 6122SOL     OW19264   3.947   5.755   3.962
 6122SOL    HW119265   4.046   5.743   3.968
 6122SOL    HW219266   3.922   5.846   3.996
 6123SOL     OW19267   5.817   1.696   2.795
 6123SOL    HW119268   5.780   1.641   2.870
 6123SOL    HW219269   5.840   1.787   2.829
 6124SOL     OW19270   3.153   0.337   4.942
 6124SOL    HW119271   3.112   0.351   5.032
 6124SOL    HW219272   3.194   0.246   4.938
 6125SOL     OW19273   1.116   4.288   2.231
 6125SOL    HW119274   1.055   4.352   2.184
 6125SOL    HW219275   1.169   4.337   2.300
 6126SOL     OW19276   3.579   6.330   3.144
 6126SOL    HW119277   3.656   6.388   3.119
 6126SOL    HW219278   3.496   6.364   3.100
 6127SOL     OW19279   2.135   5.346   1.555
 6127SOL    HW119280   2.156   5.406   1.632
 6127SOL    HW219281   2.092   5.398   1.482
 6128SOL     OW19282   5.596   4.309   1.325
 6128SOL    HW119283   5.522   4.246   1.301
 6128SOL    HW219284   5.564   4.403   1.316
 6129SOL     OW19285   6.378   3.732   3.673
 6129SOL    HW119286   6.284   3.766   3.676
 6129SOL    HW219287   6.435   3.797   3.623
 6130SOL     OW19288   5.314   3.584   2.898
 6130SOL    HW119289   5.295   3.530   2.816
 6130SOL    HW219290   5.331   3.679   2.873
 6131SOL     OW19291   6.535   0.948   5.470
 6131SOL    HW119292   6.515   1.013   5.544
 6131SOL    HW219293   6.450   0.915   5.431
 6132SOL     OW19294   0.124   2.633   0.393
 6132SOL    HW119295   0.036   2.661   0.354
 6132SOL    HW219296   0.157   2.551   0.345
 6133SOL     OW19297   1.442   5.178   0.254
 6133SOL    HW119298   1.413   5.082   0.246
 6133SOL    HW219299   1.363   5.238   0.244
 6134SOL     OW19300   4.995   3.751   6.714
 6134SOL    HW119301   4.944   3.679   6.666
 6134SOL    HW219302   5.093   3.737   6.699
 6135SOL     OW19303   5.867   6.595   2.601
 6135SOL    HW119304   5.927   6.639   2.534
 6135SOL    HW219305   5.864   6.650   2.685
 6136SOL     OW19306   1.397   1.737   2.546
 6136SOL    HW119307   1.413   1.821   2.493
 6136SOL    HW219308   1.477   1.677   2.537
 6137SOL     OW19309   3.582   6.615   6.400
 6137SOL    HW119310   3.623   6.680   6.336
 6137SOL    HW219311   3.655   6.574   6.455
 6138SOL     OW19312   4.790   0.701   3.275
 6138SOL    HW119313   4.806   0.763   3.199
 6138SOL    HW219314   4.730   0.744   3.342
 6139SOL     OW19315   2.576   6.369   3.920
 6139SOL    HW119316   2.667   6.409   3.905
 6139SOL    HW219317   2.509   6.419   3.865
 6140SOL     OW19318   2.495   5.542   1.210
 6140SOL    HW119319   2.593   5.535   1.191
 6140SOL    HW219320   2.482   5.586   1.299
 6141SOL     OW19321   0.906   5.763   4.960
 6141SOL    HW119322   0.986   5.710   4.931
 6141SOL    HW219323   0.898   5.759   5.060
 6142SOL     OW19324   0.023   3.738   3.776
 6142SOL    HW119325   6.965   3.788   3.806
 6142SOL    HW219326   0.017   3.642   3.805
 6143SOL     OW19327   6.081   5.551   6.483
 6143SOL    HW119328   6.091   5.498   6.399
 6143SOL    HW219329   6.122   5.642   6.470
 6144SOL     OW19330   0.283   5.738   4.217
 6144SOL    HW119331   0.378   5.731   4.186
 6144SOL    HW219332   0.277   5.801   4.294
 6145SOL     OW19333   6.054   5.069   3.432
 6145SOL    HW119334   5.991   5.030   3.498
 6145SOL    HW219335   6.071   5.165   3.454
 6146SOL     OW19336   6.099   1.971   3.517
 6146SOL    HW119337   6.015   1.917   3.503
 6146SOL    HW219338   6.152   1.973   3.433
 6147SOL     OW19339   1.252   3.687   3.863
 6147SOL    HW119340   1.327   3.750   3.880
 6147SOL    HW219341   1.173   3.713   3.918
 6148SOL     OW19342   5.950   6.156   3.113
 6148SOL    HW119343   5.978   6.201   3.198
 6148SOL    HW219344   5.929   6.060   3.131
 6149SOL     OW19345   1.061   5.874   4.432
 6149SOL    HW119346   0.981   5.840   4.480
 6149SOL    HW219347   1.124   5.916   4.497
 6150SOL     OW19348   4.552   6.780   6.407
 6150SOL    HW119349   4.499   6.864   6.420
 6150SOL    HW219350   4.551   6.755   6.310
 6151SOL     OW19351   4.479   0.399   4.944
 6151SOL    HW119352   4.576   0.423   4.949
 6151SOL    HW219353   4.424   0.477   4.974
 6152SOL     OW19354   6.466   3.986   6.192
 6152SOL    HW119355   6.564   3.979   6.173
 6152SOL    HW219356   6.415   3.929   6.127
 6153SOL     OW19357   3.818   5.579   5.635
 6153SOL    HW119358   3.845   5.666   5.676
 6153SOL    HW219359   3.776   5.520   5.704
 6154SOL     OW19360   5.145   3.097   3.188
 6154SOL    HW119361   5.193   3.153   3.120
 6154SOL    HW219362   5.140   3.003   3.155
 6155SOL     OW19363   2.597   4.707   4.611
 6155SOL    HW119364   2.554   4.625   4.652
 6155SOL    HW219365   2.603   4.695   4.512
 6156SOL     OW19366   5.577   0.546   4.510
 6156SOL    HW119367   5.597   0.448   4.500
 6156SOL    HW219368   5.657   0.599   4.482
 6157SOL     OW19369   1.067   1.545   4.637
 6157SOL    HW119370   0.973   1.520   4.614
 6157SOL    HW219371   1.092   1.628   4.587
 6158SOL     OW19372   5.161   0.052   6.987
 6158SOL    HW119373   5.137   0.148   6.969
 6158SOL    HW219374   5.261   0.044   6.990
 6159SOL     OW19375   5.395   3.578   6.039
 6159SOL    HW119376   5.342   3.660   6.059
 6159SOL    HW219377   5.342   3.497   6.066
 6160SOL     OW19378   6.311   5.440   6.895
 6160SOL    HW119379   6.396   5.416   6.942
 6160SOL    HW219380   6.264   5.512   6.945
 6161SOL     OW19381   5.551   0.263   6.202
 6161SOL    HW119382   5.566   0.271   6.103
 6161SOL    HW219383   5.464   0.216   6.219
 6162SOL     OW19384   5.923   5.156   3.942
 6162SOL    HW119385   5.851   5.208   3.895
 6162SOL    HW219386   5.993   5.219   3.975
 6163SOL     OW19387   6.646   3.605   2.906
 6163SOL    HW119388   6.627   3.543   2.982
 6163SOL    HW219389   6.650   3.699   2.940
 6164SOL     OW19390   4.728   2.874   1.317
 6164SOL    HW119391   4.789   2.854   1.240
 6164SOL    HW219392   4.759   2.825   1.398
 6165SOL     OW19393   4.014   0.202   0.832
 6165SOL    HW119394   4.095   0.179   0.778
 6165SOL    HW219395   4.043   0.233   0.923
 6166SOL     OW19396   3.048   0.445   6.944
 6166SOL    HW119397   3.128   0.483   6.990
 6166SOL    HW219398   3.001   0.382   7.005
 6167SOL     OW19399   6.834   5.207   3.257
 6167SOL    HW119400   6.836   5.155   3.171
 6167SOL    HW219401   6.793   5.151   3.329
 6168SOL     OW19402   0.372   2.765   1.563
 6168SOL    HW119403   0.466   2.743   1.537
 6168SOL    HW219404   0.356   2.736   1.658
 6169SOL     OW19405   1.231   4.103   1.135
 6169SOL    HW119406   1.224   4.033   1.064
 6169SOL    HW219407   1.260   4.189   1.094
 6170SOL     OW19408   6.807   2.171   3.533
 6170SOL    HW119409   6.770   2.264   3.526
 6170SOL    HW219410   6.754   2.118   3.598
 6171SOL     OW19411   5.717   2.020   6.532
 6171SOL    HW119412   5.769   1.950   6.482
 6171SOL    HW219413   5.778   2.095   6.557
 6172SOL     OW19414   0.541   4.858   3.867
 6172SOL    HW119415   0.576   4.775   3.822
 6172SOL    HW219416   0.482   4.908   3.803
 6173SOL     OW19417   5.276   6.163   3.023
 6173SOL    HW119418   5.297   6.089   3.087
 6173SOL    HW219419   5.281   6.251   3.070
 6174SOL     OW19420   0.018   2.127   3.401
 6174SOL    HW119421   6.950   2.135   3.444
 6174SOL    HW219422   0.084   2.096   3.470
 6175SOL     OW19423   4.197   2.427   6.499
 6175SOL    HW119424   4.235   2.369   6.427
 6175SOL    HW219425   4.178   2.517   6.462
 6176SOL     OW19426   2.985   5.186   5.885
 6176SOL    HW119427   2.908   5.200   5.822
 6176SOL    HW219428   3.042   5.268   5.886
 6177SOL     OW19429   5.941   5.490   1.479
 6177SOL    HW119430   5.944   5.589   1.497
 6177SOL    HW219431   5.849   5.456   1.496
 6178SOL     OW19432   4.423   4.877   2.050
 6178SOL    HW119433   4.467   4.837   2.130
 6178SOL    HW219434   4.393   4.804   1.988
 6179SOL     OW19435   4.759   5.218   5.006
 6179SOL    HW119436   4.736   5.176   5.094
 6179SOL    HW219437   4.710   5.305   4.997
 6180SOL     OW19438   2.229   3.691   6.974
 6180SOL    HW119439   2.244   3.787   7.000
 6180SOL    HW219440   2.130   3.672   6.973
 6181SOL     OW19441   0.168   6.345   0.268
 6181SOL    HW119442   0.263   6.375   0.274
 6181SOL    HW219443   0.156   6.288   0.187
 6182SOL     OW19444   3.157   2.689   6.180
 6182SOL    HW119445   3.196   2.613   6.128
 6182SOL    HW219446   3.224   2.762   6.189
 6183SOL     OW19447   0.271   0.526   0.413
 6183SOL    HW119448   0.311   0.454   0.469
 6183SOL    HW219449   0.213   0.584   0.469
 6184SOL     OW19450   3.614   6.452   5.458
 6184SOL    HW119451   3.587   6.356   5.458
 6184SOL    HW219452   3.714   6.458   5.455
 6185SOL     OW19453   3.209   3.040   3.959
 6185SOL    HW119454   3.199   2.992   3.872
 6185SOL    HW219455   3.305   3.063   3.973
 6186SOL     OW19456   1.064   1.624   2.596
 6186SOL    HW119457   1.131   1.550   2.601
 6186SOL    HW219458   1.072   1.670   2.507
 6187SOL     OW19459   3.838   1.807   5.760
 6187SOL    HW119460   3.833   1.906   5.750
 6187SOL    HW219461   3.865   1.784   5.854
 6188SOL     OW19462   1.739   1.565   6.008
 6188SOL    HW119463   1.804   1.617   6.062
 6188SOL    HW219464   1.652   1.615   6.003
 6189SOL     OW19465   6.665   5.693   0.611
 6189SOL    HW119466   6.748   5.672   0.663
 6189SOL    HW219467   6.690   5.736   0.524
 6190SOL     OW19468   0.642   2.950   3.841
 6190SOL    HW119469   0.730   2.995   3.827
 6190SOL    HW219470   0.646   2.892   3.923
 6191SOL     OW19471   3.235   4.383   7.007
 6191SOL    HW119472   3.273   4.352   0.071
 6191SOL    HW219473   3.135   4.393   7.016
 6192SOL     OW19474   2.987   1.985   1.424
 6192SOL    HW119475   2.913   2.031   1.473
 6192SOL    HW219476   3.001   1.893   1.461
 6193SOL     OW19477   4.798   5.576   6.924
 6193SOL    HW119478   4.896   5.558   6.913
 6193SOL    HW219479   4.754   5.579   6.834
 6194SOL     OW19480   5.463   0.082   5.783
 6194SOL    HW119481   5.480   0.172   5.823
 6194SOL    HW219482   5.550   0.036   5.767
 6195SOL     OW19483   4.689   5.650   5.831
 6195SOL    HW119484   4.686   5.555   5.800
 6195SOL    HW219485   4.676   5.654   5.930
 6196SOL     OW19486   7.022   3.667   3.321
 6196SOL    HW119487   6.969   3.637   3.241
 6196SOL    HW219488   0.013   3.589   3.382
 6197SOL     OW19489   0.593   5.593   0.503
 6197SOL    HW119490   0.685   5.607   0.541
 6197SOL    HW219491   0.565   5.674   0.453
 6198SOL     OW19492   6.392   1.547   6.124
 6198SOL    HW119493   6.338   1.593   6.054
 6198SOL    HW219494   6.386   1.448   6.111
 6199SOL     OW19495   2.542   6.984   6.454
 6199SOL    HW119496   2.476   0.029   6.487
 6199SOL    HW219497   2.629   6.999   6.500
 6200SOL     OW19498   1.661   6.897   6.888
 6200SOL    HW119499   1.696   6.808   6.860
 6200SOL    HW219500   1.623   6.890   6.980
 6201SOL     OW19501   0.660   4.531   3.979
 6201SOL    HW119502   0.661   4.433   3.996
 6201SOL    HW219503   0.646   4.548   3.881
 6202SOL     OW19504   6.056   0.749   1.573
 6202SOL    HW119505   5.981   0.724   1.512
 6202SOL    HW219506   6.059   0.849   1.582
 6203SOL     OW19507   0.236   1.346   1.887
 6203SOL    HW119508   0.296   1.320   1.962
 6203SOL    HW219509   0.174   1.419   1.917
 6204SOL     OW19510   1.225   6.176   4.650
 6204SOL    HW119511   1.171   6.260   4.656
 6204SOL    HW219512   1.227   6.130   4.739
 6205SOL     OW19513   6.839   4.010   3.503
 6205SOL    HW119514   6.895   4.063   3.566
 6205SOL    HW219515   6.871   4.024   3.409
 6206SOL     OW19516   5.275   2.370   3.675
 6206SOL    HW119517   5.216   2.420   3.611
 6206SOL    HW219518   5.218   2.324   3.743
 6207SOL     OW19519   1.503   5.697   3.619
 6207SOL    HW119520   1.458   5.679   3.531
 6207SOL    HW219521   1.572   5.768   3.607
 6208SOL     OW19522   3.763   4.300   6.685
 6208SOL    HW119523   3.761   4.398   6.702
 6208SOL    HW219524   3.839   4.277   6.624
 6209SOL     OW19525   3.537   0.867   2.764
 6209SOL    HW119526   3.462   0.934   2.771
 6209SOL    HW219527   3.591   0.869   2.848
 6210SOL     OW19528   5.639   0.572   4.033
 6210SOL    HW119529   5.609   0.646   3.974
 6210SOL    HW219530   5.577   0.494   4.024
 6211SOL     OW19531   4.957   2.656   4.944
 6211SOL    HW119532   4.935   2.751   4.968
 6211SOL    HW219533   4.956   2.600   5.027
 6212SOL     OW19534   5.415   3.724   4.764
 6212SOL    HW119535   5.324   3.742   4.725
 6212SOL    HW219536   5.405   3.698   4.860
 6213SOL     OW19537   5.317   5.842   0.911
 6213SOL    HW119538   5.413   5.862   0.893
 6213SOL    HW219539   5.283   5.777   0.843
 6214SOL     OW19540   6.730   6.510   6.367
 6214SOL    HW119541   6.631   6.527   6.363
 6214SOL    HW219542   6.746   6.419   6.404
 6215SOL     OW19543   5.596   2.654   5.077
 6215SOL    HW119544   5.643   2.723   5.133
 6215SOL    HW219545   5.628   2.563   5.102
 6216SOL     OW19546   5.054   2.347   5.776
 6216SOL    HW119547   4.998   2.429   5.759
 6216SOL    HW219548   5.021   2.302   5.859
 6217SOL     OW19549   0.006   4.337   2.219
 6217SOL    HW119550   0.024   4.271   2.291
 6217SOL    HW219551   0.087   4.394   2.204
 6218SOL     OW19552   4.791   6.503   1.414
 6218SOL    HW119553   4.842   6.579   1.375
 6218SOL    HW219554   4.714   6.537   1.468
 6219SOL     OW19555   2.422   0.973   0.366
 6219SOL    HW119556   2.468   0.945   0.451
 6219SOL    HW219557   2.461   0.923   0.289
 6220SOL     OW19558   3.186   0.600   2.324
 6220SOL    HW119559   3.204   0.583   2.421
 6220SOL    HW219560   3.227   0.528   2.268
 6221SOL     OW19561   4.590   4.772   5.284
 6221SOL    HW119562   4.491   4.758   5.282
 6221SOL    HW219563   4.636   4.686   5.258
 6222SOL     OW19564   6.634   0.960   1.985
 6222SOL    HW119565   6.568   1.033   1.971
 6222SOL    HW219566   6.717   0.978   1.932
 6223SOL     OW19567   6.739   5.090   4.066
 6223SOL    HW119568   6.659   5.100   4.126
 6223SOL    HW219569   6.822   5.084   4.121
 6224SOL     OW19570   3.885   0.025   0.018
 6224SOL    HW119571   3.848   0.036   0.110
 6224SOL    HW219572   3.971   6.997   0.024
 6225SOL     OW19573   5.214   5.843   6.586
 6225SOL    HW119574   5.168   5.865   6.672
 6225SOL    HW219575   5.163   5.883   6.509
 6226SOL     OW19576   0.920   1.229   4.386
 6226SOL    HW119577   0.952   1.155   4.326
 6226SOL    HW219578   0.963   1.315   4.359
 6227SOL     OW19579   2.125   4.268   6.118
 6227SOL    HW119580   2.172   4.246   6.204
 6227SOL    HW219581   2.119   4.368   6.109
 6228SOL     OW19582   0.435   2.931   4.166
 6228SOL    HW119583   0.352   2.957   4.215
 6228SOL    HW219584   0.410   2.888   4.079
 6229SOL     OW19585   0.344   4.480   5.141
 6229SOL    HW119586   0.361   4.568   5.186
 6229SOL    HW219587   0.308   4.496   5.050
 6230SOL     OW19588   0.832   0.685   1.086
 6230SOL    HW119589   0.875   0.754   1.027
 6230SOL    HW219590   0.868   0.594   1.063
 6231SOL     OW19591   2.302   5.542   5.754
 6231SOL    HW119592   2.296   5.554   5.853
 6231SOL    HW219593   2.398   5.543   5.726
 6232SOL     OW19594   4.058   0.557   6.653
 6232SOL    HW119595   4.106   0.470   6.648
 6232SOL    HW219596   4.012   0.575   6.567
 6233SOL     OW19597   6.940   4.300   0.894
 6233SOL    HW119598   6.963   4.301   0.992
 6233SOL    HW219599   6.863   4.237   0.879
 6234SOL     OW19600   4.554   5.481   2.971
 6234SOL    HW119601   4.515   5.535   2.896
 6234SOL    HW219602   4.533   5.384   2.957
 6235SOL     OW19603   0.266   0.644   1.794
 6235SOL    HW119604   0.203   0.720   1.781
 6235SOL    HW219605   0.328   0.638   1.715
 6236SOL     OW19606   6.677   5.858   1.527
 6236SOL    HW119607   6.656   5.949   1.561
 6236SOL    HW219608   6.705   5.863   1.431
 6237SOL     OW19609   4.235   1.422   2.598
 6237SOL    HW119610   4.266   1.327   2.606
 6237SOL    HW219611   4.172   1.442   2.673
 6238SOL     OW19612   2.325   0.273   4.031
 6238SOL    HW119613   2.281   0.245   4.116
 6238SOL    HW219614   2.372   0.194   3.990
 6239SOL     OW19615   4.051   1.463   4.363
 6239SOL    HW119616   4.118   1.438   4.434
 6239SOL    HW219617   4.058   1.561   4.344
 6240SOL     OW19618   3.854   3.483   3.880
 6240SOL    HW119619   3.767   3.534   3.880
 6240SOL    HW219620   3.847   3.406   3.943
 6241SOL     OW19621   4.125   0.052   3.495
 6241SOL    HW119622   4.083   0.143   3.501
 6241SOL    HW219623   4.099   7.021   3.576
 6242SOL     OW19624   3.325   2.108   4.532
 6242SOL    HW119625   3.342   2.142   4.625
 6242SOL    HW219626   3.229   2.124   4.508
 6243SOL     OW19627   3.157   0.886   0.056
 6243SOL    HW119628   3.223   0.907   7.007
 6243SOL    HW219629   3.174   0.944   0.135
 6244SOL     OW19630   4.653   2.415   1.701
 6244SOL    HW119631   4.611   2.486   1.757
 6244SOL    HW219632   4.752   2.431   1.695
 6245SOL     OW19633   6.903   4.741   1.847
 6245SOL    HW119634   6.876   4.652   1.882
 6245SOL    HW219635   6.827   4.805   1.857
 6246SOL     OW19636   0.717   5.628   4.846
 6246SOL    HW119637   0.791   5.684   4.883
 6246SOL    HW219638   0.706   5.545   4.901
 6247SOL     OW19639   5.622   5.280   2.612
 6247SOL    HW119640   5.630   5.348   2.539
 6247SOL    HW219641   5.642   5.189   2.575
 6248SOL     OW19642   4.410   2.942   6.068
 6248SOL    HW119643   4.422   2.972   6.162
 6248SOL    HW219644   4.318   2.904   6.056
 6249SOL     OW19645   5.673   2.588   3.180
 6249SOL    HW119646   5.695   2.673   3.228
 6249SOL    HW219647   5.578   2.590   3.149
 6250SOL     OW19648   5.499   6.858   5.424
 6250SOL    HW119649   5.456   6.949   5.419
 6250SOL    HW219650   5.522   6.828   5.331
 6251SOL     OW19651   2.479   1.039   4.089
 6251SOL    HW119652   2.579   1.041   4.085
 6251SOL    HW219653   2.451   0.976   4.161
 6252SOL     OW19654   2.909   5.261   0.458
 6252SOL    HW119655   2.876   5.168   0.475
 6252SOL    HW219656   2.879   5.321   0.532
 6253SOL     OW19657   4.949   5.956   3.161
 6253SOL    HW119658   4.938   6.047   3.201
 6253SOL    HW219659   5.043   5.924   3.175
 6254SOL     OW19660   6.994   6.880   2.190
 6254SOL    HW119661   6.993   6.799   2.249
 6254SOL    HW219662   0.027   6.952   2.233
 6255SOL     OW19663   2.160   0.944   0.698
 6255SOL    HW119664   2.218   0.878   0.746
 6255SOL    HW219665   2.067   0.908   0.691
 6256SOL     OW19666   6.784   4.466   2.288
 6256SOL    HW119667   6.831   4.405   2.224
 6256SOL    HW219668   6.776   4.557   2.247
 6257SOL     OW19669   3.998   3.914   0.617
 6257SOL    HW119670   4.035   3.947   0.530
 6257SOL    HW219671   4.029   3.974   0.691
 6258SOL     OW19672   3.856   4.914   4.311
 6258SOL    HW119673   3.801   4.831   4.322
 6258SOL    HW219674   3.912   4.927   4.393
 6259SOL     OW19675   4.815   0.337   4.473
 6259SOL    HW119676   4.742   0.269   4.473
 6259SOL    HW219677   4.898   0.296   4.436
 6260SOL     OW19678   3.705   2.351   0.093
 6260SOL    HW119679   3.665   2.318   0.007
 6260SOL    HW219680   3.783   2.294   0.117
 6261SOL     OW19681   4.368   6.425   1.344
 6261SOL    HW119682   4.391   6.392   1.436
 6261SOL    HW219683   4.308   6.505   1.352
 6262SOL     OW19684   6.109   1.403   3.443
 6262SOL    HW119685   6.188   1.366   3.393
 6262SOL    HW219686   6.033   1.417   3.380
 6263SOL     OW19687   6.311   6.248   5.993
 6263SOL    HW119688   6.256   6.304   5.932
 6263SOL    HW219689   6.386   6.206   5.941
 6264SOL     OW19690   1.289   6.407   1.110
 6264SOL    HW119691   1.240   6.320   1.099
 6264SOL    HW219692   1.291   6.431   1.207
 6265SOL     OW19693   4.021   6.506   6.895
 6265SOL    HW119694   4.118   6.526   6.911
 6265SOL    HW219695   4.014   6.440   6.820
 6266SOL     OW19696   2.724   5.484   3.400
 6266SOL    HW119697   2.714   5.414   3.330
 6266SOL    HW219698   2.658   5.558   3.383
 6267SOL     OW19699   0.708   6.328   4.239
 6267SOL    HW119700   0.714   6.382   4.155
 6267SOL    HW219701   0.628   6.269   4.235
 6268SOL     OW19702   2.989   1.243   1.596
 6268SOL    HW119703   2.900   1.210   1.564
 6268SOL    HW219704   2.995   1.342   1.581
 6269SOL     OW19705   6.958   6.052   0.547
 6269SOL    HW119706   6.969   6.082   0.642
 6269SOL    HW219707   6.957   6.131   0.486
 6270SOL     OW19708   1.921   6.146   0.954
 6270SOL    HW119709   2.010   6.103   0.940
 6270SOL    HW219710   1.870   6.146   0.868
 6271SOL     OW19711   6.931   3.623   5.997
 6271SOL    HW119712   7.004   3.615   5.928
 6271SOL    HW219713   6.960   3.578   6.081
 6272SOL     OW19714   0.056   1.045   0.482
 6272SOL    HW119715   0.068   0.949   0.458
 6272SOL    HW219716   0.140   1.080   0.524
 6273SOL     OW19717   0.547   6.047   3.072
 6273SOL    HW119718   0.502   6.122   3.120
 6273SOL    HW219719   0.537   5.963   3.125
 6274SOL     OW19720   3.367   5.961   4.133
 6274SOL    HW119721   3.360   5.879   4.077
 6274SOL    HW219722   3.363   5.936   4.229
 6275SOL     OW19723   3.081   5.507   1.322
 6275SOL    HW119724   3.074   5.578   1.253
 6275SOL    HW219725   3.010   5.438   1.308
 6276SOL     OW19726   1.400   4.607   2.114
 6276SOL    HW119727   1.348   4.685   2.150
 6276SOL    HW219728   1.401   4.534   2.182
 6277SOL     OW19729   5.345   2.281   1.275
 6277SOL    HW119730   5.266   2.287   1.215
 6277SOL    HW219731   5.333   2.345   1.352
 6278SOL     OW19732   3.615   2.859   0.307
 6278SOL    HW119733   3.683   2.865   0.233
 6278SOL    HW219734   3.527   2.830   0.270
 6279SOL     OW19735   1.217   6.759   2.301
 6279SOL    HW119736   1.248   6.664   2.295
 6279SOL    HW219737   1.250   6.810   2.222
 6280SOL     OW19738   4.882   1.071   6.898
 6280SOL    HW119739   4.802   1.101   6.949
 6280SOL    HW219740   4.921   0.990   6.941
 6281SOL     OW19741   5.806   3.823   6.222
 6281SOL    HW119742   5.769   3.870   6.142
 6281SOL    HW219743   5.905   3.815   6.213
 6282SOL     OW19744   0.260   3.936   5.809
 6282SOL    HW119745   0.316   3.892   5.739
 6282SOL    HW219746   0.313   3.947   5.893
 6283SOL     OW19747   2.222   0.178   4.563
 6283SOL    HW119748   2.214   0.207   4.468
 6283SOL    HW219749   2.246   0.257   4.620
 6284SOL     OW19750   1.723   3.830   6.383
 6284SOL    HW119751   1.655   3.808   6.453
 6284SOL    HW219752   1.815   3.818   6.420
 6285SOL     OW19753   1.761   4.476   3.572
 6285SOL    HW119754   1.731   4.380   3.569
 6285SOL    HW219755   1.784   4.506   3.479
 6286SOL     OW19756   1.019   3.143   6.785
 6286SOL    HW119757   0.962   3.078   6.734
 6286SOL    HW219758   1.035   3.224   6.728
 6287SOL     OW19759   4.243   5.399   5.319
 6287SOL    HW119760   4.181   5.433   5.390
 6287SOL    HW219761   4.278   5.309   5.345
 6288SOL     OW19762   3.456   4.010   5.698
 6288SOL    HW119763   3.533   3.948   5.709
 6288SOL    HW219764   3.488   4.104   5.707
 6289SOL     OW19765   2.375   4.831   5.455
 6289SOL    HW119766   2.433   4.913   5.459
 6289SOL    HW219767   2.404   4.767   5.526
 6290SOL     OW19768   6.678   0.149   2.806
 6290SOL    HW119769   6.583   0.167   2.832
 6290SOL    HW219770   6.699   0.053   2.825
 6291SOL     OW19771   3.087   3.125   2.400
 6291SOL    HW119772   3.056   3.074   2.320
 6291SOL    HW219773   3.158   3.072   2.447
 6292SOL     OW19774   1.189   4.231   5.053
 6292SOL    HW119775   1.240   4.313   5.030
 6292SOL    HW219776   1.250   4.152   5.051
 6293SOL     OW19777   2.582   1.162   0.563
 6293SOL    HW119778   2.493   1.138   0.525
 6293SOL    HW219779   2.654   1.122   0.507
 6294SOL     OW19780   1.807   0.458   2.029
 6294SOL    HW119781   1.877   0.490   2.093
 6294SOL    HW219782   1.731   0.523   2.028
 6295SOL     OW19783   4.454   2.211   5.611
 6295SOL    HW119784   4.397   2.293   5.604
 6295SOL    HW219785   4.443   2.171   5.702
 6296SOL     OW19786   6.845   2.157   0.280
 6296SOL    HW119787   6.767   2.111   0.239
 6296SOL    HW219788   6.814   2.237   0.331
 6297SOL     OW19789   0.141   1.420   4.342
 6297SOL    HW119790   0.051   1.443   4.307
 6297SOL    HW219791   0.175   1.495   4.400
 6298SOL     OW19792   6.573   0.669   6.574
 6298SOL    HW119793   6.565   0.575   6.607
 6298SOL    HW219794   6.545   0.732   6.647
 6299SOL     OW19795   3.125   1.714   3.714
 6299SOL    HW119796   3.111   1.626   3.759
 6299SOL    HW219797   3.216   1.749   3.737
 6300SOL     OW19798   2.768   2.180   1.493
 6300SOL    HW119799   2.825   2.194   1.574
 6300SOL    HW219800   2.690   2.242   1.496
 6301SOL     OW19801   3.908   6.824   1.031
 6301SOL    HW119802   3.944   6.826   0.938
 6301SOL    HW219803   3.865   6.735   1.048
 6302SOL     OW19804   1.480   3.575   0.182
 6302SOL    HW119805   1.434   3.561   0.094
 6302SOL    HW219806   1.467   3.670   0.212
 6303SOL     OW19807   6.532   4.622   5.043
 6303SOL    HW119808   6.560   4.717   5.059
 6303SOL    HW219809   6.600   4.560   5.082
 6304SOL     OW19810   2.086   2.357   4.343
 6304SOL    HW119811   2.155   2.341   4.273
 6304SOL    HW219812   2.033   2.439   4.319
 6305SOL     OW19813   1.326   5.823   4.966
 6305SOL    HW119814   1.410   5.840   5.017
 6305SOL    HW219815   1.294   5.730   4.983
 6306SOL     OW19816   1.009   4.259   3.889
 6306SOL    HW119817   0.998   4.186   3.956
 6306SOL    HW219818   0.920   4.284   3.852
 6307SOL     OW19819   3.215   3.328   3.157
 6307SOL    HW119820   3.117   3.314   3.144
 6307SOL    HW219821   3.263   3.241   3.150
 6308SOL     OW19822   0.972   1.044   1.263
 6308SOL    HW119823   1.072   1.048   1.256
 6308SOL    HW219824   0.943   1.088   1.348
 6309SOL     OW19825   1.836   6.091   5.106
 6309SOL    HW119826   1.769   6.139   5.163
 6309SOL    HW219827   1.828   5.993   5.121
 6310SOL     OW19828   0.950   6.653   3.299
 6310SOL    HW119829   0.884   6.583   3.271
 6310SOL    HW219830   0.915   6.701   3.380
 6311SOL     OW19831   6.018   1.549   6.316
 6311SOL    HW119832   6.008   1.612   6.239
 6311SOL    HW219833   6.092   1.581   6.376
 6312SOL     OW19834   3.641   5.481   1.427
 6312SOL    HW119835   3.739   5.491   1.447
 6312SOL    HW219836   3.625   5.506   1.331
 6313SOL     OW19837   5.329   4.910   2.607
 6313SOL    HW119838   5.280   4.996   2.592
 6313SOL    HW219839   5.415   4.928   2.655
 6314SOL     OW19840   1.934   6.467   3.074
 6314SOL    HW119841   2.004   6.539   3.079
 6314SOL    HW219842   1.973   6.386   3.030
 6315SOL     OW19843   2.170   2.638   3.076
 6315SOL    HW119844   2.126   2.560   3.120
 6315SOL    HW219845   2.105   2.714   3.070
 6316SOL     OW19846   4.605   0.510   4.542
 6316SOL    HW119847   4.669   0.438   4.515
 6316SOL    HW219848   4.655   0.583   4.589
 6317SOL     OW19849   4.857   3.805   3.312
 6317SOL    HW119850   4.832   3.835   3.220
 6317SOL    HW219851   4.874   3.885   3.370
 6318SOL     OW19852   5.558   0.096   0.152
 6318SOL    HW119853   5.542   0.046   0.067
 6318SOL    HW219854   5.554   0.033   0.230
 6319SOL     OW19855   4.652   2.686   4.225
 6319SOL    HW119856   4.581   2.624   4.191
 6319SOL    HW219857   4.654   2.682   4.325
 6320SOL     OW19858   5.930   2.202   6.443
 6320SOL    HW119859   6.006   2.247   6.397
 6320SOL    HW219860   5.855   2.189   6.378
 6321SOL     OW19861   0.894   4.069   0.424
 6321SOL    HW119862   0.898   4.071   0.524
 6321SOL    HW219863   0.857   4.156   0.390
 6322SOL     OW19864   2.312   1.534   2.686
 6322SOL    HW119865   2.339   1.605   2.623
 6322SOL    HW219866   2.392   1.482   2.715
 6323SOL     OW19867   2.176   6.027   0.910
 6323SOL    HW119868   2.255   6.089   0.907
 6323SOL    HW219869   2.208   5.934   0.925
 6324SOL     OW19870   5.167   3.986   1.245
 6324SOL    HW119871   5.100   4.060   1.252
 6324SOL    HW219872   5.153   3.922   1.320
 6325SOL     OW19873   1.159   3.458   4.198
 6325SOL    HW119874   1.254   3.486   4.203
 6325SOL    HW219875   1.152   3.359   4.212
 6326SOL     OW19876   5.035   5.388   5.021
 6326SOL    HW119877   5.072   5.469   4.977
 6326SOL    HW219878   4.958   5.414   5.079
 6327SOL     OW19879   0.820   0.995   2.866
 6327SOL    HW119880   0.834   0.900   2.838
 6327SOL    HW219881   0.743   1.034   2.815
 6328SOL     OW19882   4.054   3.285   4.810
 6328SOL    HW119883   4.044   3.197   4.762
 6328SOL    HW219884   4.147   3.292   4.847
 6329SOL     OW19885   0.432   3.202   4.754
 6329SOL    HW119886   0.457   3.106   4.744
 6329SOL    HW219887   0.424   3.224   4.851
 6330SOL     OW19888   4.395   2.005   3.331
 6330SOL    HW119889   4.367   1.910   3.347
 6330SOL    HW219890   4.415   2.049   3.419
 6331SOL     OW19891   1.653   3.367   3.497
 6331SOL    HW119892   1.676   3.326   3.409
 6331SOL    HW219893   1.728   3.352   3.562
 6332SOL     OW19894   4.559   2.282   0.287
 6332SOL    HW119895   4.593   2.336   0.210
 6332SOL    HW219896   4.633   2.224   0.321
 6333SOL     OW19897   5.864   1.363   0.212
 6333SOL    HW119898   5.904   1.371   0.303
 6333SOL    HW219899   5.899   1.436   0.154
 6334SOL     OW19900   2.185   1.128   1.599
 6334SOL    HW119901   2.184   1.153   1.696
 6334SOL    HW219902   2.145   1.202   1.545
 6335SOL     OW19903   5.791   2.816   5.277
 6335SOL    HW119904   5.822   2.838   5.370
 6335SOL    HW219905   5.721   2.882   5.249
 6336SOL     OW19906   0.731   5.468   6.043
 6336SOL    HW119907   0.770   5.536   5.980
 6336SOL    HW219908   0.711   5.384   5.994
 6337SOL     OW19909   6.145   0.481   5.714
 6337SOL    HW119910   6.196   0.426   5.780
 6337SOL    HW219911   6.098   0.421   5.649
 6338SOL     OW19912   0.793   0.732   2.709
 6338SOL    HW119913   0.798   0.645   2.757
 6338SOL    HW219914   0.859   0.733   2.634
 6339SOL     OW19915   6.828   3.733   3.504
 6339SOL    HW119916   6.807   3.831   3.508
 6339SOL    HW219917   6.915   3.719   3.457
 6340SOL     OW19918   2.240   5.422   6.363
 6340SOL    HW119919   2.179   5.344   6.347
 6340SOL    HW219920   2.329   5.388   6.392
 6341SOL     OW19921   0.878   4.358   2.694
 6341SOL    HW119922   0.903   4.264   2.674
 6341SOL    HW219923   0.956   4.418   2.678
 6342SOL     OW19924   2.459   0.042   1.314
 6342SOL    HW119925   2.540   0.013   1.262
 6342SOL    HW219926   2.449   7.008   1.395
 6343SOL     OW19927   1.659   5.006   6.825
 6343SOL    HW119928   1.714   5.026   6.744
 6343SOL    HW219929   1.597   4.930   6.806
 6344SOL     OW19930   1.494   1.218   4.188
 6344SOL    HW119931   1.445   1.257   4.266
 6344SOL    HW219932   1.497   1.285   4.114
 6345SOL     OW19933   0.564   3.304   3.325
 6345SOL    HW119934   0.553   3.309   3.425
 6345SOL    HW219935   0.630   3.232   3.303
 6346SOL     OW19936   0.761   4.292   3.696
 6346SOL    HW119937   0.664   4.313   3.690
 6346SOL    HW219938   0.775   4.193   3.698
 6347SOL     OW19939   2.048   1.701   2.673
 6347SOL    HW119940   2.087   1.727   2.585
 6347SOL    HW219941   2.065   1.604   2.690
 6348SOL     OW19942   1.572   2.919   0.193
 6348SOL    HW119943   1.566   2.895   0.096
 6348SOL    HW219944   1.663   2.897   0.228
 6349SOL     OW19945   6.356   1.414   0.874
 6349SOL    HW119946   6.404   1.395   0.960
 6349SOL    HW219947   6.266   1.453   0.894
 6350SOL     OW19948   0.252   6.986   1.363
 6350SOL    HW119949   0.323   6.916   1.372
 6350SOL    HW219950   0.223   7.017   1.453
 6351SOL     OW19951   6.234   2.634   2.339
 6351SOL    HW119952   6.238   2.634   2.239
 6351SOL    HW219953   6.294   2.706   2.374
 6352SOL     OW19954   4.041   0.859   4.970
 6352SOL    HW119955   4.061   0.762   4.980
 6352SOL    HW219956   4.097   0.911   5.035
 6353SOL     OW19957   3.958   6.067   5.893
 6353SOL    HW119958   3.898   6.124   5.837
 6353SOL    HW219959   4.011   6.125   5.954
 6354SOL     OW19960   5.534   4.822   2.353
 6354SOL    HW119961   5.598   4.844   2.280
 6354SOL    HW219962   5.478   4.744   2.326
 6355SOL     OW19963   4.765   6.177   6.773
 6355SOL    HW119964   4.755   6.120   6.854
 6355SOL    HW219965   4.862   6.190   6.753
 6356SOL     OW19966   0.743   6.895   6.132
 6356SOL    HW119967   0.724   6.945   6.047
 6356SOL    HW219968   0.810   6.944   6.186
 6357SOL     OW19969   4.873   1.730   2.827
 6357SOL    HW119970   4.867   1.664   2.753
 6357SOL    HW219971   4.792   1.723   2.886
 6358SOL     OW19972   1.420   1.271   4.813
 6358SOL    HW119973   1.480   1.241   4.739
 6358SOL    HW219974   1.335   1.307   4.775
 6359SOL     OW19975   6.649   4.369   0.760
 6359SOL    HW119976   6.562   4.336   0.797
 6359SOL    HW219977   6.649   4.469   0.760
 6360SOL     OW19978   2.986   2.944   0.562
 6360SOL    HW119979   2.921   2.975   0.631
 6360SOL    HW219980   2.966   2.850   0.535
 6361SOL     OW19981   0.228   2.575   2.602
 6361SOL    HW119982   0.293   2.650   2.595
 6361SOL    HW219983   0.198   2.564   2.697
 6362SOL     OW19984   2.182   5.526   0.439
 6362SOL    HW119985   2.244   5.598   0.409
 6362SOL    HW219986   2.172   5.458   0.366
 6363SOL     OW19987   1.120   2.599   1.623
 6363SOL    HW119988   1.188   2.643   1.681
 6363SOL    HW219989   1.163   2.525   1.572
 6364SOL     OW19990   2.636   1.972   4.173
 6364SOL    HW119991   2.686   2.013   4.249
 6364SOL    HW219992   2.588   2.043   4.122
 6365SOL     OW19993   6.515   6.693   2.281
 6365SOL    HW119994   6.556   6.601   2.286
 6365SOL    HW219995   6.511   6.722   2.185
 6366SOL     OW19996   5.687   1.216   5.060
 6366SOL    HW119997   5.722   1.295   5.009
 6366SOL    HW219998   5.718   1.131   5.016
 6367SOL     OW19999   1.512   3.104   4.701
 6367SOL    HW120000   1.471   3.114   4.610
 6367SOL    HW220001   1.517   3.007   4.725
 6368SOL     OW20002   5.371   3.241   5.183
 6368SOL    HW120003   5.334   3.303   5.252
 6368SOL    HW220004   5.311   3.240   5.103
 6369SOL     OW20005   3.528   4.768   0.398
 6369SOL    HW120006   3.515   4.713   0.481
 6369SOL    HW220007   3.526   4.708   0.318
 6370SOL     OW20008   6.247   3.589   4.884
 6370SOL    HW120009   6.229   3.630   4.794
 6370SOL    HW220010   6.322   3.638   4.928
 6371SOL     OW20011   6.358   4.601   0.919
 6371SOL    HW120012   6.307   4.559   0.995
 6371SOL    HW220013   6.455   4.603   0.941
 6372SOL     OW20014   6.250   1.539   1.450
 6372SOL    HW120015   6.280   1.462   1.506
 6372SOL    HW220016   6.328   1.579   1.402
 6373SOL     OW20017   5.763   1.654   1.347
 6373SOL    HW120018   5.799   1.745   1.369
 6373SOL    HW220019   5.770   1.595   1.427
 6374SOL     OW20020   3.605   3.147   6.452
 6374SOL    HW120021   3.621   3.093   6.370
 6374SOL    HW220022   3.680   3.213   6.464
 6375SOL     OW20023   5.784   0.991   1.791
 6375SOL    HW120024   5.754   0.941   1.873
 6375SOL    HW220025   5.742   0.950   1.710
 6376SOL     OW20026   2.955   6.801   0.153
 6376SOL    HW120027   2.977   6.704   0.161
 6376SOL    HW220028   3.034   6.850   0.113
 6377SOL     OW20029   6.940   1.154   0.176
 6377SOL    HW120030   6.970   1.243   0.210
 6377SOL    HW220031   7.017   1.090   0.176
 6378SOL     OW20032   5.632   4.120   3.176
 6378SOL    HW120033   5.631   4.026   3.212
 6378SOL    HW220034   5.721   4.161   3.192
 6379SOL     OW20035   2.619   5.287   6.651
 6379SOL    HW120036   2.704   5.235   6.657
 6379SOL    HW220037   2.564   5.271   6.732
 6380SOL     OW20038   1.955   2.852   4.361
 6380SOL    HW120039   1.902   2.877   4.279
 6380SOL    HW220040   1.944   2.923   4.430
 6381SOL     OW20041   3.261   4.643   0.965
 6381SOL    HW120042   3.325   4.659   1.041
 6381SOL    HW220043   3.208   4.560   0.983
 6382SOL     OW20044   1.523   1.155   0.739
 6382SOL    HW120045   1.570   1.192   0.820
 6382SOL    HW220046   1.588   1.146   0.664
 6383SOL     OW20047   2.838   1.729   2.358
 6383SOL    HW120048   2.854   1.713   2.455
 6383SOL    HW220049   2.926   1.735   2.310
 6384SOL     OW20050   0.255   1.579   2.076
 6384SOL    HW120051   0.190   1.559   2.003
 6384SOL    HW220052   0.236   1.521   2.155
 6385SOL     OW20053   0.144   3.867   1.290
 6385SOL    HW120054   0.056   3.888   1.248
 6385SOL    HW220055   0.216   3.917   1.242
 6386SOL     OW20056   2.876   4.352   0.380
 6386SOL    HW120057   2.818   4.433   0.377
 6386SOL    HW220058   2.826   4.274   0.342
 6387SOL     OW20059   6.179   1.178   5.503
 6387SOL    HW120060   6.254   1.232   5.465
 6387SOL    HW220061   6.216   1.095   5.544
 6388SOL     OW20062   6.143   5.066   1.925
 6388SOL    HW120063   6.145   4.968   1.947
 6388SOL    HW220064   6.205   5.115   1.986
 6389SOL     OW20065   6.605   6.568   0.942
 6389SOL    HW120066   6.650   6.498   0.997
 6389SOL    HW220067   6.588   6.649   0.998
 6390SOL     OW20068   4.704   6.239   0.164
 6390SOL    HW120069   4.716   6.332   0.129
 6390SOL    HW220070   4.641   6.240   0.241
 6391SOL     OW20071   1.197   1.969   5.188
 6391SOL    HW120072   1.109   1.969   5.140
 6391SOL    HW220073   1.244   1.882   5.172
 6392SOL     OW20074   4.744   6.321   3.502
 6392SOL    HW120075   4.727   6.390   3.432
 6392SOL    HW220076   4.656   6.286   3.536
 6393SOL     OW20077   2.487   4.747   6.898
 6393SOL    HW120078   2.415   4.688   6.935
 6393SOL    HW220079   2.497   4.828   6.956
 6394SOL     OW20080   1.538   5.647   1.970
 6394SOL    HW120081   1.542   5.627   2.067
 6394SOL    HW220082   1.624   5.687   1.939
 6395SOL     OW20083   1.094   3.975   5.383
 6395SOL    HW120084   1.184   3.936   5.366
 6395SOL    HW220085   1.068   4.036   5.308
 6396SOL     OW20086   0.929   3.361   4.494
 6396SOL    HW120087   0.976   3.436   4.541
 6396SOL    HW220088   0.990   3.282   4.488
 6397SOL     OW20089   0.293   3.596   4.674
 6397SOL    HW120090   0.389   3.601   4.649
 6397SOL    HW220091   0.237   3.596   4.591
 6398SOL     OW20092   0.777   0.097   2.716
 6398SOL    HW120093   0.733   0.016   2.676
 6398SOL    HW220094   0.866   0.111   2.673
 6399SOL     OW20095   2.735   6.773   6.953
 6399SOL    HW120096   2.801   6.813   7.017
 6399SOL    HW220097   2.649   6.823   6.959
 6400SOL     OW20098   0.774   6.082   2.920
 6400SOL    HW120099   0.707   6.095   2.993
 6400SOL    HW220100   0.762   6.154   2.851
 6401SOL     OW20101   4.178   4.775   1.567
 6401SOL    HW120102   4.120   4.844   1.525
 6401SOL    HW220103   4.136   4.744   1.653
 6402SOL     OW20104   3.374   3.534   6.173
 6402SOL    HW120105   3.342   3.472   6.101
 6402SOL    HW220106   3.370   3.487   6.261
 6403SOL     OW20107   3.833   5.328   5.422
 6403SOL    HW120108   3.790   5.411   5.455
 6403SOL    HW220109   3.925   5.320   5.460
 6404SOL     OW20110   5.245   6.160   6.032
 6404SOL    HW120111   5.195   6.086   6.076
 6404SOL    HW220112   5.317   6.122   5.974
 6405SOL     OW20113   4.599   0.833   3.435
 6405SOL    HW120114   4.508   0.801   3.409
 6405SOL    HW220115   4.604   0.932   3.425
 6406SOL     OW20116   0.313   3.532   2.133
 6406SOL    HW120117   0.299   3.508   2.230
 6406SOL    HW220118   0.228   3.518   2.083
 6407SOL     OW20119   0.334   0.103   2.576
 6407SOL    HW120120   0.292   0.120   2.487
 6407SOL    HW220121   0.313   0.010   2.606
 6408SOL     OW20122   6.874   1.292   1.823
 6408SOL    HW120123   6.873   1.360   1.896
 6408SOL    HW220124   6.907   1.334   1.739
 6409SOL     OW20125   6.300   4.436   4.115
 6409SOL    HW120126   6.362   4.358   4.103
 6409SOL    HW220127   6.270   4.440   4.210
 6410SOL     OW20128   1.537   0.703   6.737
 6410SOL    HW120129   1.446   0.724   6.773
 6410SOL    HW220130   1.543   0.737   6.643
 6411SOL     OW20131   1.165   2.397   4.191
 6411SOL    HW120132   1.163   2.396   4.291
 6411SOL    HW220133   1.259   2.389   4.159
 6412SOL     OW20134   4.221   0.279   0.144
 6412SOL    HW120135   4.213   0.369   0.102
 6412SOL    HW220136   4.310   0.239   0.120
 6413SOL     OW20137   4.484   5.897   3.344
 6413SOL    HW120138   4.499   5.838   3.264
 6413SOL    HW220139   4.465   5.840   3.424
 6414SOL     OW20140   3.497   0.377   0.385
 6414SOL    HW120141   3.505   0.475   0.371
 6414SOL    HW220142   3.496   0.330   0.296
 6415SOL     OW20143   7.015   1.899   3.249
 6415SOL    HW120144   6.989   1.994   3.261
 6415SOL    HW220145   0.075   1.880   3.303
 6416SOL     OW20146   2.755   4.498   0.158
 6416SOL    HW120147   2.668   4.458   0.186
 6416SOL    HW220148   2.739   4.590   0.122
 6417SOL     OW20149   4.594   3.529   6.253
 6417SOL    HW120150   4.600   3.444   6.200
 6417SOL    HW220151   4.645   3.601   6.206
 6418SOL     OW20152   5.272   5.323   0.476
 6418SOL    HW120153   5.251   5.250   0.411
 6418SOL    HW220154   5.277   5.410   0.427
 6419SOL     OW20155   1.486   6.959   6.368
 6419SOL    HW120156   1.536   6.978   6.452
 6419SOL    HW220157   1.552   6.940   6.295
 6420SOL     OW20158   1.955   4.957   3.307
 6420SOL    HW120159   1.898   4.968   3.389
 6420SOL    HW220160   2.051   4.947   3.335
 6421SOL     OW20161   4.943   6.612   1.780
 6421SOL    HW120162   4.947   6.532   1.839
 6421SOL    HW220163   4.988   6.689   1.825
 6422SOL     OW20164   1.066   1.088   5.146
 6422SOL    HW120165   1.162   1.106   5.166
 6422SOL    HW220166   1.030   1.161   5.087
 6423SOL     OW20167   1.270   3.840   4.149
 6423SOL    HW120168   1.340   3.768   4.148
 6423SOL    HW220169   1.295   3.909   4.216
 6424SOL     OW20170   6.496   4.324   5.612
 6424SOL    HW120171   6.588   4.356   5.635
 6424SOL    HW220172   6.498   4.278   5.523
 6425SOL     OW20173   0.899   0.073   5.094
 6425SOL    HW120174   0.954   7.013   5.083
 6425SOL    HW220175   0.841   0.064   5.175
 6426SOL     OW20176   3.448   5.170   3.761
 6426SOL    HW120177   3.548   5.169   3.770
 6426SOL    HW220178   3.414   5.076   3.768
 6427SOL     OW20179   3.221   3.263   3.434
 6427SOL    HW120180   3.204   3.323   3.355
 6427SOL    HW220181   3.188   3.171   3.414
 6428SOL     OW20182   6.597   2.855   0.011
 6428SOL    HW120183   6.503   2.885   0.024
 6428SOL    HW220184   6.625   2.873   6.939
 6429SOL     OW20185   2.722   1.872   4.587
 6429SOL    HW120186   2.732   1.870   4.687
 6429SOL    HW220187   2.639   1.823   4.561
 6430SOL     OW20188   6.487   1.606   4.588
 6430SOL    HW120189   6.420   1.680   4.587
 6430SOL    HW220190   6.571   1.638   4.633
 6431SOL     OW20191   3.143   4.929   3.216
 6431SOL    HW120192   3.241   4.916   3.198
 6431SOL    HW220193   3.132   4.979   3.302
 6432SOL     OW20194   4.426   3.352   6.710
 6432SOL    HW120195   4.392   3.425   6.650
 6432SOL    HW220196   4.526   3.354   6.710
 6433SOL     OW20197   4.014   5.089   6.124
 6433SOL    HW120198   4.095   5.147   6.126
 6433SOL    HW220199   3.951   5.122   6.055
 6434SOL     OW20200   6.632   4.735   6.244
 6434SOL    HW120201   6.690   4.682   6.183
 6434SOL    HW220202   6.600   4.818   6.196
 6435SOL     OW20203   4.652   1.136   0.897
 6435SOL    HW120204   4.569   1.108   0.848
 6435SOL    HW220205   4.636   1.225   0.940
 6436SOL     OW20206   0.948   1.905   4.203
 6436SOL    HW120207   1.036   1.858   4.191
 6436SOL    HW220208   0.954   1.967   4.281
 6437SOL     OW20209   1.278   2.883   6.655
 6437SOL    HW120210   1.369   2.853   6.627
 6437SOL    HW220211   1.214   2.871   6.579
 6438SOL     OW20212   0.663   5.861   1.094
 6438SOL    HW120213   0.661   5.788   1.162
 6438SOL    HW220214   0.588   5.848   1.029
 6439SOL     OW20215   4.349   6.399   2.833
 6439SOL    HW120216   4.259   6.405   2.875
 6439SOL    HW220217   4.363   6.306   2.798
 6440SOL     OW20218   2.378   2.183   5.645
 6440SOL    HW120219   2.353   2.241   5.568
 6440SOL    HW220220   2.422   2.099   5.611
 6441SOL     OW20221   1.440   1.845   1.071
 6441SOL    HW120222   1.472   1.787   0.997
 6441SOL    HW220223   1.426   1.790   1.153
 6442SOL     OW20224   3.112   1.599   4.476
 6442SOL    HW120225   3.083   1.680   4.424
 6442SOL    HW220226   3.208   1.611   4.503
 6443SOL     OW20227   2.759   2.295   5.831
 6443SOL    HW120228   2.747   2.198   5.809
 6443SOL    HW220229   2.816   2.338   5.761
 6444SOL     OW20230   0.041   4.292   5.465
 6444SOL    HW120231   0.039   4.213   5.526
 6444SOL    HW220232   6.998   4.278   5.390
 6445SOL     OW20233   3.393   2.835   3.683
 6445SOL    HW120234   3.296   2.814   3.670
 6445SOL    HW220235   3.407   2.934   3.680
 6446SOL     OW20236   1.202   0.388   1.797
 6446SOL    HW120237   1.155   0.446   1.864
 6446SOL    HW220238   1.186   0.292   1.819
 6447SOL     OW20239   6.518   3.850   1.318
 6447SOL    HW120240   6.432   3.804   1.342
 6447SOL    HW220241   6.520   3.940   1.361
 6448SOL     OW20242   3.979   4.228   1.599
 6448SOL    HW120243   4.014   4.144   1.559
 6448SOL    HW220244   3.884   4.242   1.571
 6449SOL     OW20245   4.618   5.665   0.291
 6449SOL    HW120246   4.645   5.578   0.333
 6449SOL    HW220247   4.593   5.730   0.363
 6450SOL     OW20248   4.577   3.388   0.734
 6450SOL    HW120249   4.588   3.290   0.752
 6450SOL    HW220250   4.480   3.408   0.721
 6451SOL     OW20251   4.527   3.066   1.255
 6451SOL    HW120252   4.622   3.050   1.226
 6451SOL    HW220253   4.506   3.006   1.332
 6452SOL     OW20254   4.403   1.804   4.579
 6452SOL    HW120255   4.364   1.896   4.580
 6452SOL    HW220256   4.488   1.804   4.630
 6453SOL     OW20257   2.981   0.965   3.277
 6453SOL    HW120258   3.064   0.943   3.328
 6453SOL    HW220259   2.926   0.883   3.265
 6454SOL     OW20260   4.928   3.554   5.614
 6454SOL    HW120261   5.025   3.532   5.627
 6454SOL    HW220262   4.909   3.562   5.516
 6455SOL     OW20263   0.234   2.919   5.343
 6455SOL    HW120264   0.289   2.837   5.329
 6455SOL    HW220265   0.291   2.991   5.384
 6456SOL     OW20266   6.295   2.009   2.936
 6456SOL    HW120267   6.327   2.067   2.861
 6456SOL    HW220268   6.284   2.065   3.019
 6457SOL     OW20269   1.436   5.995   3.428
 6457SOL    HW120270   1.520   6.030   3.471
 6457SOL    HW220271   1.359   6.052   3.456
 6458SOL     OW20272   1.130   0.339   5.220
 6458SOL    HW120273   1.163   0.254   5.260
 6458SOL    HW220274   1.074   0.388   5.287
 6459SOL     OW20275   0.686   3.589   3.195
 6459SOL    HW120276   0.781   3.559   3.188
 6459SOL    HW220277   0.638   3.533   3.263
 6460SOL     OW20278   1.538   5.274   5.677
 6460SOL    HW120279   1.514   5.331   5.756
 6460SOL    HW220280   1.493   5.185   5.685
 6461SOL     OW20281   0.405   6.850   2.376
 6461SOL    HW120282   0.354   6.921   2.328
 6461SOL    HW220283   0.344   6.802   2.439
 6462SOL     OW20284   2.501   4.369   5.410
 6462SOL    HW120285   2.588   4.320   5.403
 6462SOL    HW220286   2.431   4.322   5.355
 6463SOL     OW20287   4.728   3.166   1.646
 6463SOL    HW120288   4.677   3.128   1.723
 6463SOL    HW220289   4.825   3.146   1.657
 6464SOL     OW20290   1.017   3.403   3.662
 6464SOL    HW120291   0.933   3.352   3.676
 6464SOL    HW220292   1.073   3.398   3.744
 6465SOL     OW20293   2.569   1.445   2.818
 6465SOL    HW120294   2.643   1.483   2.873
 6465SOL    HW220295   2.519   1.377   2.870
 6466SOL     OW20296   6.497   5.733   6.528
 6466SOL    HW120297   6.451   5.659   6.479
 6466SOL    HW220298   6.595   5.719   6.526
 6467SOL     OW20299   2.786   3.343   5.805
 6467SOL    HW120300   2.736   3.350   5.719
 6467SOL    HW220301   2.841   3.425   5.818
 6468SOL     OW20302   0.857   0.813   0.595
 6468SOL    HW120303   0.848   0.860   0.507
 6468SOL    HW220304   0.948   0.832   0.634
 6469SOL     OW20305   2.632   1.040   0.823
 6469SOL    HW120306   2.596   1.098   0.750
 6469SOL    HW220307   2.556   0.992   0.868
 6470SOL     OW20308   5.737   0.986   6.739
 6470SOL    HW120309   5.725   0.894   6.702
 6470SOL    HW220310   5.765   0.979   6.835
 6471SOL     OW20311   1.205   6.312   5.289
 6471SOL    HW120312   1.149   6.240   5.248
 6471SOL    HW220313   1.224   6.382   5.221
 6472SOL     OW20314   0.817   6.342   1.399
 6472SOL    HW120315   0.765   6.400   1.462
 6472SOL    HW220316   0.831   6.390   1.312
 6473SOL     OW20317   2.805   2.007   3.973
 6473SOL    HW120318   2.738   1.998   4.046
 6473SOL    HW220319   2.878   1.940   3.987
 6474SOL     OW20320   3.890   0.008   4.256
 6474SOL    HW120321   3.828   6.975   4.313
 6474SOL    HW220322   3.946   6.970   4.199
 6475SOL     OW20323   5.244   5.814   3.603
 6475SOL    HW120324   5.335   5.816   3.562
 6475SOL    HW220325   5.210   5.720   3.604
 6476SOL     OW20326   5.351   3.914   5.348
 6476SOL    HW120327   5.352   3.956   5.257
 6476SOL    HW220328   5.347   3.986   5.418
 6477SOL     OW20329   1.250   6.653   0.922
 6477SOL    HW120330   1.266   6.587   0.995
 6477SOL    HW220331   1.171   6.624   0.868
 6478SOL     OW20332   1.989   6.020   6.786
 6478SOL    HW120333   2.022   5.946   6.728
 6478SOL    HW220334   1.937   5.981   6.863
 6479SOL     OW20335   4.709   5.383   4.243
 6479SOL    HW120336   4.657   5.463   4.273
 6479SOL    HW220337   4.645   5.315   4.206
 6480SOL     OW20338   3.106   1.128   5.035
 6480SOL    HW120339   3.078   1.188   4.960
 6480SOL    HW220340   3.035   1.060   5.051
 6481SOL     OW20341   3.944   3.517   1.873
 6481SOL    HW120342   3.942   3.511   1.973
 6481SOL    HW220343   3.922   3.610   1.845
 6482SOL     OW20344   5.293   2.993   3.680
 6482SOL    HW120345   5.261   3.057   3.611
 6482SOL    HW220346   5.248   2.904   3.667
 6483SOL     OW20347   2.018   6.355   5.621
 6483SOL    HW120348   2.079   6.328   5.547
 6483SOL    HW220349   1.994   6.275   5.676
 6484SOL     OW20350   4.081   0.371   3.256
 6484SOL    HW120351   4.054   0.446   3.316
 6484SOL    HW220352   4.007   0.352   3.191
 6485SOL     OW20353   1.716   5.017   4.810
 6485SOL    HW120354   1.796   4.962   4.831
 6485SOL    HW220355   1.689   5.069   4.891
 6486SOL     OW20356   6.970   3.902   2.299
 6486SOL    HW120357   0.016   3.866   2.363
 6486SOL    HW220358   6.915   3.972   2.346
 6487SOL     OW20359   6.260   5.310   4.292
 6487SOL    HW120360   6.252   5.407   4.319
 6487SOL    HW220361   6.211   5.254   4.359
 6488SOL     OW20362   3.094   5.168   3.431
 6488SOL    HW120363   3.135   5.102   3.494
 6488SOL    HW220364   3.152   5.249   3.425
 6489SOL     OW20365   6.031   3.348   5.791
 6489SOL    HW120366   6.015   3.275   5.725
 6489SOL    HW220367   5.957   3.350   5.858
 6490SOL     OW20368   1.973   3.554   6.915
 6490SOL    HW120369   1.900   3.490   6.889
 6490SOL    HW220370   1.950   3.646   6.883
 6491SOL     OW20371   1.355   0.436   2.333
 6491SOL    HW120372   1.373   0.384   2.416
 6491SOL    HW220373   1.374   0.379   2.253
 6492SOL     OW20374   3.911   3.064   3.221
 6492SOL    HW120375   3.923   3.142   3.282
 6492SOL    HW220376   3.970   3.075   3.140
 6493SOL     OW20377   1.590   5.142   4.334
 6493SOL    HW120378   1.563   5.048   4.314
 6493SOL    HW220379   1.511   5.202   4.329
 6494SOL     OW20380   6.663   0.945   1.606
 6494SOL    HW120381   6.672   1.045   1.603
 6494SOL    HW220382   6.572   0.921   1.640
 6495SOL     OW20383   5.963   6.347   2.708
 6495SOL    HW120384   6.011   6.292   2.639
 6495SOL    HW220385   5.925   6.429   2.665
 6496SOL     OW20386   2.767   2.908   1.488
 6496SOL    HW120387   2.696   2.974   1.513
 6496SOL    HW220388   2.736   2.815   1.508
 6497SOL     OW20389   0.109   2.705   0.708
 6497SOL    HW120390   0.052   2.669   0.634
 6497SOL    HW220391   0.159   2.630   0.751
 6498SOL     OW20392   2.482   4.974   4.609
 6498SOL    HW120393   2.495   4.875   4.614
 6498SOL    HW220394   2.509   5.016   4.695
 6499SOL     OW20395   5.545   2.368   2.943
 6499SOL    HW120396   5.587   2.411   2.863
 6499SOL    HW220397   5.478   2.300   2.914
 6500SOL     OW20398   1.828   3.990   2.558
 6500SOL    HW120399   1.813   3.922   2.486
 6500SOL    HW220400   1.789   4.077   2.531
 6501SOL     OW20401   6.771   1.458   2.479
 6501SOL    HW120402   6.772   1.549   2.520
 6501SOL    HW220403   6.677   1.425   2.472
 6502SOL     OW20404   0.961   2.905   2.740
 6502SOL    HW120405   0.945   2.832   2.673
 6502SOL    HW220406   0.891   2.976   2.729
 6503SOL     OW20407   0.530   2.369   5.322
 6503SOL    HW120408   0.601   2.351   5.391
 6503SOL    HW220409   0.562   2.441   5.260
 6504SOL     OW20410   3.847   5.877   6.316
 6504SOL    HW120411   3.821   5.905   6.408
 6504SOL    HW220412   3.767   5.841   6.268
 6505SOL     OW20413   0.554   6.934   6.923
 6505SOL    HW120414   0.627   6.996   6.897
 6505SOL    HW220415   0.517   6.962   7.012
 6506SOL     OW20416   0.248   4.529   1.844
 6506SOL    HW120417   0.213   4.575   1.763
 6506SOL    HW220418   0.289   4.442   1.819
 6507SOL     OW20419   5.262   5.620   0.753
 6507SOL    HW120420   5.196   5.597   0.824
 6507SOL    HW220421   5.314   5.539   0.728
 6508SOL     OW20422   6.974   0.808   4.079
 6508SOL    HW120423   7.020   0.758   4.153
 6508SOL    HW220424   7.001   0.904   4.082
 6509SOL     OW20425   2.462   1.619   6.996
 6509SOL    HW120426   2.403   1.556   6.947
 6509SOL    HW220427   2.418   1.708   7.002
 6510SOL     OW20428   3.529   5.063   4.065
 6510SOL    HW120429   3.432   5.061   4.089
 6510SOL    HW220430   3.582   5.093   4.144
 6511SOL     OW20431   3.547   2.949   6.912
 6511SOL    HW120432   3.517   2.932   6.818
 6511SOL    HW220433   3.572   3.045   6.923
 6512SOL     OW20434   4.943   1.349   1.973
 6512SOL    HW120435   5.039   1.357   1.947
 6512SOL    HW220436   4.935   1.287   2.051
 6513SOL     OW20437   3.456   5.002   2.067
 6513SOL    HW120438   3.510   4.919   2.056
 6513SOL    HW220439   3.474   5.064   1.991
 6514SOL     OW20440   4.968   5.792   5.810
 6514SOL    HW120441   4.918   5.776   5.725
 6514SOL    HW220442   4.938   5.878   5.851
 6515SOL     OW20443   0.801   4.983   2.355
 6515SOL    HW120444   0.771   4.892   2.385
 6515SOL    HW220445   0.735   5.020   2.289
 6516SOL     OW20446   5.879   1.040   3.447
 6516SOL    HW120447   5.977   1.018   3.448
 6516SOL    HW220448   5.845   1.045   3.541
 6517SOL     OW20449   6.643   4.357   0.441
 6517SOL    HW120450   6.663   4.362   0.539
 6517SOL    HW220451   6.577   4.284   0.424
 6518SOL     OW20452   0.977   1.614   2.034
 6518SOL    HW120453   0.907   1.588   1.967
 6518SOL    HW220454   1.067   1.588   1.999
 6519SOL     OW20455   1.370   1.908   3.916
 6519SOL    HW120456   1.325   1.979   3.971
 6519SOL    HW220457   1.301   1.851   3.872
 6520SOL     OW20458   5.919   6.528   7.008
 6520SOL    HW120459   6.005   6.499   6.967
 6520SOL    HW220460   5.850   6.457   6.994
 6521SOL     OW20461   1.516   4.594   4.427
 6521SOL    HW120462   1.550   4.571   4.336
 6521SOL    HW220463   1.562   4.538   4.495
 6522SOL     OW20464   2.303   2.924   5.352
 6522SOL    HW120465   2.300   3.011   5.400
 6522SOL    HW220466   2.363   2.932   5.273
 6523SOL     OW20467   5.112   6.780   0.434
 6523SOL    HW120468   5.078   6.727   0.356
 6523SOL    HW220469   5.160   6.720   0.497
 6524SOL     OW20470   3.542   2.306   1.046
 6524SOL    HW120471   3.637   2.304   1.015
 6524SOL    HW220472   3.482   2.333   0.971
 6525SOL     OW20473   2.787   4.815   3.375
 6525SOL    HW120474   2.781   4.772   3.284
 6525SOL    HW220475   2.724   4.768   3.437
 6526SOL     OW20476   6.383   6.460   0.629
 6526SOL    HW120477   6.455   6.529   0.633
 6526SOL    HW220478   6.315   6.478   0.699
 6527SOL     OW20479   5.399   2.234   0.371
 6527SOL    HW120480   5.328   2.288   0.415
 6527SOL    HW220481   5.439   2.288   0.296
 6528SOL     OW20482   4.762   0.075   0.239
 6528SOL    HW120483   4.669   0.105   0.258
 6528SOL    HW220484   4.765   0.028   0.151
 6529SOL     OW20485   3.988   6.648   1.746
 6529SOL    HW120486   3.914   6.656   1.812
 6529SOL    HW220487   4.068   6.700   1.777
 6530SOL     OW20488   0.036   2.329   4.218
 6530SOL    HW120489   0.098   2.406   4.202
 6530SOL    HW220490   6.981   2.335   4.155
 6531SOL     OW20491   2.959   3.882   4.047
 6531SOL    HW120492   2.999   3.836   3.968
 6531SOL    HW220493   2.930   3.814   4.114
 6532SOL     OW20494   1.070   5.965   0.050
 6532SOL    HW120495   1.008   5.984   0.127
 6532SOL    HW220496   1.150   6.024   0.057
 6533SOL     OW20497   5.265   4.711   1.284
 6533SOL    HW120498   5.250   4.757   1.197
 6533SOL    HW220499   5.229   4.618   1.280
 6534SOL     OW20500   6.475   3.436   4.328
 6534SOL    HW120501   6.387   3.405   4.294
 6534SOL    HW220502   6.548   3.385   4.283
 6535SOL     OW20503   5.497   3.550   0.031
 6535SOL    HW120504   5.590   3.514   0.032
 6535SOL    HW220505   5.448   3.513   6.975
 6536SOL     OW20506   0.039   5.157   5.295
 6536SOL    HW120507   0.048   5.155   5.395
 6536SOL    HW220508   7.018   5.242   5.267
 6537SOL     OW20509   6.775   5.466   4.432
 6537SOL    HW120510   6.756   5.491   4.337
 6537SOL    HW220511   6.849   5.522   4.468
 6538SOL     OW20512   1.293   3.674   3.414
 6538SOL    HW120513   1.386   3.696   3.387
 6538SOL    HW220514   1.251   3.615   3.345
 6539SOL     OW20515   5.610   6.725   5.228
 6539SOL    HW120516   5.635   6.656   5.296
 6539SOL    HW220517   5.545   6.685   5.163
 6540SOL     OW20518   1.080   2.309   5.467
 6540SOL    HW120519   1.080   2.396   5.417
 6540SOL    HW220520   1.155   2.252   5.433
 6541SOL     OW20521   3.748   1.429   5.338
 6541SOL    HW120522   3.755   1.493   5.414
 6541SOL    HW220523   3.656   1.389   5.335
 6542SOL     OW20524   1.962   4.665   2.181
 6542SOL    HW120525   1.892   4.713   2.234
 6542SOL    HW220526   2.020   4.731   2.134
 6543SOL     OW20527   3.805   1.763   4.224
 6543SOL    HW120528   3.763   1.744   4.135
 6543SOL    HW220529   3.747   1.725   4.296
 6544SOL     OW20530   1.303   0.688   1.509
 6544SOL    HW120531   1.214   0.733   1.513
 6544SOL    HW220532   1.366   0.744   1.454
 6545SOL     OW20533   6.008   4.951   0.996
 6545SOL    HW120534   6.066   5.033   0.990
 6545SOL    HW220535   6.064   4.869   0.983
 6546SOL     OW20536   4.046   5.432   4.268
 6546SOL    HW120537   4.004   5.445   4.358
 6546SOL    HW220538   4.011   5.349   4.226
 6547SOL     OW20539   0.666   6.804   5.210
 6547SOL    HW120540   0.746   6.855   5.242
 6547SOL    HW220541   0.687   6.706   5.207
 6548SOL     OW20542   1.074   1.405   5.691
 6548SOL    HW120543   1.148   1.338   5.697
 6548SOL    HW220544   1.103   1.482   5.635
 6549SOL     OW20545   3.155   1.420   2.785
 6549SOL    HW120546   3.155   1.364   2.867
 6549SOL    HW220547   3.089   1.384   2.719
 6550SOL     OW20548   5.756   6.855   2.040
 6550SOL    HW120549   5.778   6.761   2.013
 6550SOL    HW220550   5.691   6.853   2.117
 6551SOL     OW20551   2.512   5.236   1.176
 6551SOL    HW120552   2.545   5.194   1.260
 6551SOL    HW220553   2.504   5.335   1.190
 6552SOL     OW20554   2.452   3.577   0.065
 6552SOL    HW120555   2.532   3.615   0.016
 6552SOL    HW220556   2.369   3.601   0.016
 6553SOL     OW20557   0.189   1.511   3.333
 6553SOL    HW120558   0.132   1.436   3.369
 6553SOL    HW220559   0.165   1.527   3.237
 6554SOL     OW20560   2.009   1.883   3.936
 6554SOL    HW120561   1.932   1.946   3.932
 6554SOL    HW220562   1.985   1.797   3.890
 6555SOL     OW20563   2.146   3.741   1.986
 6555SOL    HW120564   2.158   3.647   2.020
 6555SOL    HW220565   2.156   3.805   2.062
 6556SOL     OW20566   4.843   3.148   3.549
 6556SOL    HW120567   4.775   3.221   3.543
 6556SOL    HW220568   4.857   3.108   3.458
 6557SOL     OW20569   1.897   6.649   2.519
 6557SOL    HW120570   1.975   6.711   2.508
 6557SOL    HW220571   1.924   6.557   2.491
 6558SOL     OW20572   5.613   5.140   1.173
 6558SOL    HW120573   5.663   5.224   1.152
 6558SOL    HW220574   5.557   5.154   1.255
 6559SOL     OW20575   0.002   1.726   6.067
 6559SOL    HW120576   7.007   1.638   6.110
 6559SOL    HW220577   0.025   1.794   6.137
 6560SOL     OW20578   6.779   4.556   6.065
 6560SOL    HW120579   6.813   4.545   5.971
 6560SOL    HW220580   6.856   4.548   6.129
 6561SOL     OW20581   2.809   5.392   6.924
 6561SOL    HW120582   2.857   5.340   6.852
 6561SOL    HW220583   2.864   5.390   7.008
 6562SOL     OW20584   4.741   2.459   0.975
 6562SOL    HW120585   4.685   2.468   0.893
 6562SOL    HW220586   4.799   2.378   0.967
 6563SOL     OW20587   6.014   4.886   5.565
 6563SOL    HW120588   6.112   4.866   5.564
 6563SOL    HW220589   5.965   4.807   5.603
 6564SOL     OW20590   5.653   4.065   1.696
 6564SOL    HW120591   5.682   4.043   1.789
 6564SOL    HW220592   5.627   3.981   1.648
 6565SOL     OW20593   5.415   5.594   2.014
 6565SOL    HW120594   5.459   5.509   1.985
 6565SOL    HW220595   5.320   5.594   1.982
 6566SOL     OW20596   5.461   5.363   4.066
 6566SOL    HW120597   5.545   5.332   4.109
 6566SOL    HW220598   5.442   5.307   3.985
 6567SOL     OW20599   2.833   0.688   2.536
 6567SOL    HW120600   2.878   0.637   2.464
 6567SOL    HW220601   2.821   0.783   2.507
 6568SOL     OW20602   5.101   1.644   0.287
 6568SOL    HW120603   5.065   1.551   0.283
 6568SOL    HW220604   5.197   1.641   0.318
 6569SOL     OW20605   1.571   3.941   3.294
 6569SOL    HW120606   1.576   3.950   3.394
 6569SOL    HW220607   1.591   3.846   3.268
 6570SOL     OW20608   4.311   0.302   2.916
 6570SOL    HW120609   4.278   0.215   2.953
 6570SOL    HW220610   4.405   0.317   2.945
 6571SOL     OW20611   2.561   6.523   3.053
 6571SOL    HW120612   2.494   6.506   3.125
 6571SOL    HW220613   2.625   6.447   3.048
 6572SOL     OW20614   1.272   6.685   3.725
 6572SOL    HW120615   1.212   6.607   3.711
 6572SOL    HW220616   1.247   6.758   3.661
 6573SOL     OW20617   0.902   2.599   3.602
 6573SOL    HW120618   0.849   2.683   3.587
 6573SOL    HW220619   0.905   2.579   3.700
 6574SOL     OW20620   1.074   5.161   1.573
 6574SOL    HW120621   1.092   5.258   1.587
 6574SOL    HW220622   1.152   5.119   1.528
 6575SOL     OW20623   6.581   1.230   4.128
 6575SOL    HW120624   6.661   1.290   4.122
 6575SOL    HW220625   6.539   1.239   4.219
 6576SOL     OW20626   4.040   0.444   2.329
 6576SOL    HW120627   3.993   0.507   2.390
 6576SOL    HW220628   4.068   0.363   2.380
 6577SOL     OW20629   3.140   0.814   5.477
 6577SOL    HW120630   3.094   0.873   5.411
 6577SOL    HW220631   3.075   0.746   5.511
 6578SOL     OW20632   0.682   5.822   6.957
 6578SOL    HW120633   0.629   5.899   6.920
 6578SOL    HW220634   0.629   5.776   0.005
 6579SOL     OW20635   2.019   1.779   3.282
 6579SOL    HW120636   2.097   1.727   3.246
 6579SOL    HW220637   2.052   1.846   3.350
 6580SOL     OW20638   3.478   2.684   6.947
 6580SOL    HW120639   3.507   2.644   6.860
 6580SOL    HW220640   3.518   2.775   6.957
 6581SOL     OW20641   0.445   2.433   2.120
 6581SOL    HW120642   0.368   2.390   2.167
 6581SOL    HW220643   0.518   2.452   2.186
 6582SOL     OW20644   3.963   6.736   3.022
 6582SOL    HW120645   3.912   6.813   3.060
 6582SOL    HW220646   3.936   6.651   3.068
 6583SOL     OW20647   2.503   4.034   1.210
 6583SOL    HW120648   2.518   3.992   1.300
 6583SOL    HW220649   2.565   3.992   1.143
 6584SOL     OW20650   4.605   3.329   5.824
 6584SOL    HW120651   4.575   3.235   5.845
 6584SOL    HW220652   4.574   3.354   5.733
 6585SOL     OW20653   5.079   6.828   1.940
 6585SOL    HW120654   5.053   6.922   1.918
 6585SOL    HW220655   5.067   6.813   2.038
 6586SOL     OW20656   6.659   1.873   6.974
 6586SOL    HW120657   6.674   1.963   7.015
 6586SOL    HW220658   6.646   1.805   0.023
 6587SOL     OW20659   2.503   4.608   5.572
 6587SOL    HW120660   2.499   4.554   5.488
 6587SOL    HW220661   2.417   4.597   5.623
 6588SOL     OW20662   0.817   2.443   0.643
 6588SOL    HW120663   0.833   2.345   0.654
 6588SOL    HW220664   0.904   2.492   0.642
 6589SOL     OW20665   5.717   0.138   1.000
 6589SOL    HW120666   5.628   0.092   1.000
 6589SOL    HW220667   5.772   0.104   1.076
 6590SOL     OW20668   1.275   6.603   4.498
 6590SOL    HW120669   1.253   6.534   4.429
 6590SOL    HW220670   1.372   6.598   4.522
 6591SOL     OW20671   6.497   3.462   3.515
 6591SOL    HW120672   6.398   3.454   3.503
 6591SOL    HW220673   6.532   3.531   3.451
 6592SOL     OW20674   0.041   0.644   4.297
 6592SOL    HW120675   0.001   0.702   4.368
 6592SOL    HW220676   0.141   0.654   4.299
 6593SOL     OW20677   1.117   0.668   3.226
 6593SOL    HW120678   1.117   0.576   3.266
 6593SOL    HW220679   1.066   0.667   3.139
 6594SOL     OW20680   5.100   0.201   6.423
 6594SOL    HW120681   5.053   0.289   6.426
 6594SOL    HW220682   5.075   0.147   6.503
 6595SOL     OW20683   0.772   0.665   5.162
 6595SOL    HW120684   0.675   0.650   5.144
 6595SOL    HW220685   0.826   0.625   5.088
 6596SOL     OW20686   5.335   0.619   2.940
 6596SOL    HW120687   5.292   0.594   3.027
 6596SOL    HW220688   5.315   0.548   2.872
 6597SOL     OW20689   1.234   5.449   1.273
 6597SOL    HW120690   1.221   5.456   1.372
 6597SOL    HW220691   1.153   5.410   1.231
 6598SOL     OW20692   1.579   5.186   1.644
 6598SOL    HW120693   1.625   5.149   1.724
 6598SOL    HW220694   1.484   5.155   1.643
 6599SOL     OW20695   0.504   6.319   6.335
 6599SOL    HW120696   0.441   6.320   6.413
 6599SOL    HW220697   0.589   6.274   6.362
 6600SOL     OW20698   4.793   6.978   4.549
 6600SOL    HW120699   4.735   0.012   4.491
 6600SOL    HW220700   4.889   6.991   4.524
 6601SOL     OW20701   0.731   2.620   3.012
 6601SOL    HW120702   0.699   2.708   2.976
 6601SOL    HW220703   0.738   2.625   3.112
 6602SOL     OW20704   5.938   6.409   0.537
 6602SOL    HW120705   5.880   6.409   0.618
 6602SOL    HW220706   5.990   6.324   0.533
 6603SOL     OW20707   6.954   4.561   2.476
 6603SOL    HW120708   6.901   4.515   2.405
 6603SOL    HW220709   6.918   4.653   2.490
 6604SOL     OW20710   1.927   5.074   2.182
 6604SOL    HW120711   1.966   5.147   2.238
 6604SOL    HW220712   1.981   5.066   2.097
 6605SOL     OW20713   6.843   5.699   1.277
 6605SOL    HW120714   6.762   5.756   1.263
 6605SOL    HW220715   6.865   5.652   1.191
 6606SOL     OW20716   1.280   4.970   2.840
 6606SOL    HW120717   1.303   4.994   2.934
 6606SOL    HW220718   1.340   4.897   2.809
 6607SOL     OW20719   6.895   3.110   4.490
 6607SOL    HW120720   6.869   3.131   4.396
 6607SOL    HW220721   6.889   3.192   4.546
 6608SOL     OW20722   1.644   0.887   5.442
 6608SOL    HW120723   1.581   0.942   5.387
 6608SOL    HW220724   1.733   0.933   5.446
 6609SOL     OW20725   2.728   2.001   0.308
 6609SOL    HW120726   2.649   1.988   0.368
 6609SOL    HW220727   2.706   2.070   0.239
 6610SOL     OW20728   3.352   5.797   1.240
 6610SOL    HW120729   3.371   5.700   1.228
 6610SOL    HW220730   3.258   5.808   1.274
 6611SOL     OW20731   3.324   1.547   4.917
 6611SOL    HW120732   3.276   1.633   4.901
 6611SOL    HW220733   3.278   1.474   4.866
 6612SOL     OW20734   6.443   0.693   0.210
 6612SOL    HW120735   6.531   0.647   0.191
 6612SOL    HW220736   6.422   0.686   0.307
 6613SOL     OW20737   4.705   0.094   1.045
 6613SOL    HW120738   4.656   0.034   1.107
 6613SOL    HW220739   4.753   0.040   0.976
 6614SOL     OW20740   4.456   4.680   0.729
 6614SOL    HW120741   4.503   4.654   0.813
 6614SOL    HW220742   4.361   4.651   0.734
 6615SOL     OW20743   3.534   5.788   6.043
 6615SOL    HW120744   3.625   5.750   6.058
 6615SOL    HW220745   3.536   5.848   5.963
 6616SOL     OW20746   4.130   2.139   6.272
 6616SOL    HW120747   4.218   2.135   6.321
 6616SOL    HW220748   4.105   2.234   6.256
 6617SOL     OW20749   3.545   1.661   4.312
 6617SOL    HW120750   3.515   1.660   4.216
 6617SOL    HW220751   3.508   1.740   4.359
 6618SOL     OW20752   6.729   2.861   3.631
 6618SOL    HW120753   6.710   2.808   3.549
 6618SOL    HW220754   6.815   2.831   3.671
 6619SOL     OW20755   4.184   4.732   3.994
 6619SOL    HW120756   4.216   4.695   4.081
 6619SOL    HW220757   4.217   4.674   3.919
 6620SOL     OW20758   1.157   2.708   3.548
 6620SOL    HW120759   1.072   2.654   3.544
 6620SOL    HW220760   1.134   2.805   3.549
 6621SOL     OW20761   3.368   3.538   3.261
 6621SOL    HW120762   3.306   3.479   3.209
 6621SOL    HW220763   3.419   3.597   3.198
 6622SOL     OW20764   6.726   4.742   2.239
 6622SOL    HW120765   6.804   4.794   2.275
 6622SOL    HW220766   6.655   4.806   2.209
 6623SOL     OW20767   3.658   3.170   3.885
 6623SOL    HW120768   3.692   3.257   3.920
 6623SOL    HW220769   3.733   3.105   3.878
 6624SOL     OW20770   2.411   2.291   2.508
 6624SOL    HW120771   2.444   2.360   2.443
 6624SOL    HW220772   2.394   2.335   2.597
 6625SOL     OW20773   0.710   4.878   5.508
 6625SOL    HW120774   0.794   4.835   5.542
 6625SOL    HW220775   0.636   4.862   5.574
 6626SOL     OW20776   3.627   5.696   5.436
 6626SOL    HW120777   3.636   5.795   5.450
 6626SOL    HW220778   3.685   5.648   5.502
 6627SOL     OW20779   2.914   6.923   4.691
 6627SOL    HW120780   2.949   6.963   4.775
 6627SOL    HW220781   2.829   6.969   4.665
 6628SOL     OW20782   3.820   6.523   3.392
 6628SOL    HW120783   3.878   6.564   3.462
 6628SOL    HW220784   3.740   6.481   3.435
 6629SOL     OW20785   4.721   5.974   5.454
 6629SOL    HW120786   4.660   5.934   5.523
 6629SOL    HW220787   4.779   6.043   5.498
 6630SOL     OW20788   2.148   0.003   0.596
 6630SOL    HW120789   2.241   0.025   0.565
 6630SOL    HW220790   2.084   0.011   0.520
 6631SOL     OW20791   1.654   1.771   6.414
 6631SOL    HW120792   1.668   1.700   6.483
 6631SOL    HW220793   1.642   1.728   6.324
 6632SOL     OW20794   1.292   0.342   6.039
 6632SOL    HW120795   1.311   0.438   6.017
 6632SOL    HW220796   1.375   0.298   6.071
 6633SOL     OW20797   4.726   6.546   6.042
 6633SOL    HW120798   4.666   6.492   5.983
 6633SOL    HW220799   4.671   6.609   6.097
 6634SOL     OW20800   2.849   2.274   4.211
 6634SOL    HW120801   2.903   2.290   4.129
 6634SOL    HW220802   2.806   2.360   4.240
 6635SOL     OW20803   4.795   5.415   6.033
 6635SOL    HW120804   4.865   5.462   5.979
 6635SOL    HW220805   4.777   5.467   6.116
 6636SOL     OW20806   4.325   1.691   1.313
 6636SOL    HW120807   4.382   1.619   1.352
 6636SOL    HW220808   4.239   1.651   1.280
 6637SOL     OW20809   0.317   3.028   6.767
 6637SOL    HW120810   0.238   3.086   6.749
 6637SOL    HW220811   0.380   3.075   6.829
 6638SOL     OW20812   2.963   3.887   4.371
 6638SOL    HW120813   2.928   3.844   4.454
 6638SOL    HW220814   3.034   3.953   4.395
 6639SOL     OW20815   5.063   3.060   1.697
 6639SOL    HW120816   5.139   3.120   1.721
 6639SOL    HW220817   5.083   3.013   1.611
 6640SOL     OW20818   0.794   3.775   4.392
 6640SOL    HW120819   0.861   3.742   4.326
 6640SOL    HW220820   0.702   3.766   4.354
 6641SOL     OW20821   5.193   2.326   6.633
 6641SOL    HW120822   5.178   2.228   6.645
 6641SOL    HW220823   5.109   2.376   6.655
 6642SOL     OW20824   1.002   4.985   6.167
 6642SOL    HW120825   1.032   5.026   6.254
 6642SOL    HW220826   0.910   5.017   6.146
 6643SOL     OW20827   4.764   5.725   6.091
 6643SOL    HW120828   4.728   5.743   6.183
 6643SOL    HW220829   4.805   5.808   6.054
 6644SOL     OW20830   1.633   6.717   3.123
 6644SOL    HW120831   1.607   6.748   3.215
 6644SOL    HW220832   1.605   6.622   3.112
 6645SOL     OW20833   4.911   2.605   5.204
 6645SOL    HW120834   4.996   2.562   5.233
 6645SOL    HW220835   4.842   2.596   5.277
 6646SOL     OW20836   4.701   0.100   5.781
 6646SOL    HW120837   4.712   0.071   5.876
 6646SOL    HW220838   4.613   0.069   5.746
 6647SOL     OW20839   3.934   4.990   0.627
 6647SOL    HW120840   3.886   5.052   0.690
 6647SOL    HW220841   3.877   4.973   0.547
 6648SOL     OW20842   3.404   5.698   5.065
 6648SOL    HW120843   3.437   5.634   5.134
 6648SOL    HW220844   3.461   5.780   5.065
 6649SOL     OW20845   5.506   2.932   5.203
 6649SOL    HW120846   5.515   3.029   5.183
 6649SOL    HW220847   5.452   2.888   5.132
 6650SOL     OW20848   2.787   0.861   4.990
 6650SOL    HW120849   2.750   0.919   5.062
 6650SOL    HW220850   2.856   0.800   5.029
 6651SOL     OW20851   6.469   1.010   3.606
 6651SOL    HW120852   6.371   1.006   3.587
 6651SOL    HW220853   6.498   1.106   3.614
 6652SOL     OW20854   6.963   5.572   6.673
 6652SOL    HW120855   6.964   5.472   6.671
 6652SOL    HW220856   6.978   5.603   6.767
 6653SOL     OW20857   5.663   3.851   6.935
 6653SOL    HW120858   5.595   3.789   6.896
 6653SOL    HW220859   5.755   3.814   6.920
 6654SOL     OW20860   6.887   1.656   3.162
 6654SOL    HW120861   6.874   1.646   3.064
 6654SOL    HW220862   6.950   1.732   3.180
 6655SOL     OW20863   0.260   5.617   1.469
 6655SOL    HW120864   0.188   5.681   1.496
 6655SOL    HW220865   0.220   5.545   1.412
 6656SOL     OW20866   5.253   0.697   2.142
 6656SOL    HW120867   5.280   0.721   2.048
 6656SOL    HW220868   5.317   0.740   2.206
 6657SOL     OW20869   4.560   1.816   4.298
 6657SOL    HW120870   4.553   1.915   4.295
 6657SOL    HW220871   4.472   1.777   4.327
 6658SOL     OW20872   6.099   5.895   4.431
 6658SOL    HW120873   6.155   5.898   4.514
 6658SOL    HW220874   6.002   5.894   4.457
 6659SOL     OW20875   0.866   6.711   1.014
 6659SOL    HW120876   0.794   6.699   0.945
 6659SOL    HW220877   0.942   6.763   0.974
 6660SOL     OW20878   1.137   0.579   4.107
 6660SOL    HW120879   1.098   0.489   4.125
 6660SOL    HW220880   1.072   0.633   4.053
 6661SOL     OW20881   3.569   6.604   3.706
 6661SOL    HW120882   3.608   6.523   3.661
 6661SOL    HW220883   3.508   6.576   3.779
 6662SOL     OW20884   3.730   6.933   1.853
 6662SOL    HW120885   3.751   7.019   1.899
 6662SOL    HW220886   3.631   6.924   1.843
 6663SOL     OW20887   1.680   3.934   5.335
 6663SOL    HW120888   1.600   3.991   5.322
 6663SOL    HW220889   1.759   3.991   5.358
 6664SOL     OW20890   3.268   0.175   1.868
 6664SOL    HW120891   3.196   0.216   1.812
 6664SOL    HW220892   3.229   0.140   1.953
 6665SOL     OW20893   2.539   0.284   6.822
 6665SOL    HW120894   2.583   0.212   6.767
 6665SOL    HW220895   2.598   0.308   6.898
 6666SOL     OW20896   2.802   6.642   5.732
 6666SOL    HW120897   2.787   6.741   5.740
 6666SOL    HW220898   2.875   6.625   5.666
 6667SOL     OW20899   1.895   5.889   7.012
 6667SOL    HW120900   1.941   5.862   0.074
 6667SOL    HW220901   1.802   5.920   0.011
 6668SOL     OW20902   0.442   3.771   6.020
 6668SOL    HW120903   0.432   3.694   5.957
 6668SOL    HW220904   0.491   3.742   6.102
 6669SOL     OW20905   0.758   3.216   4.094
 6669SOL    HW120906   0.666   3.248   4.072
 6669SOL    HW220907   0.808   3.288   4.141
 6670SOL     OW20908   2.264   4.262   0.617
 6670SOL    HW120909   2.314   4.202   0.679
 6670SOL    HW220910   2.214   4.331   0.669
 6671SOL     OW20911   4.861   5.171   0.430
 6671SOL    HW120912   4.952   5.211   0.438
 6671SOL    HW220913   4.835   5.128   0.517
 6672SOL     OW20914   2.229   2.560   1.045
 6672SOL    HW120915   2.134   2.562   1.015
 6672SOL    HW220916   2.238   2.502   1.127
 6673SOL     OW20917   5.888   3.856   4.706
 6673SOL    HW120918   5.918   3.833   4.799
 6673SOL    HW220919   5.819   3.791   4.676
 6674SOL     OW20920   6.482   1.088   0.370
 6674SOL    HW120921   6.387   1.084   0.339
 6674SOL    HW220922   6.530   1.007   0.338
 6675SOL     OW20923   4.936   1.412   0.287
 6675SOL    HW120924   4.944   1.328   0.340
 6675SOL    HW220925   4.907   1.391   0.194
 6676SOL     OW20926   1.103   3.369   5.399
 6676SOL    HW120927   1.187   3.413   5.430
 6676SOL    HW220928   1.026   3.432   5.411
 6677SOL     OW20929   0.385   2.284   6.853
 6677SOL    HW120930   0.339   2.229   6.923
 6677SOL    HW220931   0.349   2.258   6.763
 6678SOL     OW20932   3.399   3.999   6.500
 6678SOL    HW120933   3.363   3.927   6.440
 6678SOL    HW220934   3.402   3.965   6.594
 6679SOL     OW20935   1.650   0.476   3.928
 6679SOL    HW120936   1.696   0.539   3.865
 6679SOL    HW220937   1.587   0.527   3.986
 6680SOL     OW20938   6.480   5.947   2.068
 6680SOL    HW120939   6.460   5.941   2.166
 6680SOL    HW220940   6.427   6.022   2.028
 6681SOL     OW20941   3.529   5.851   0.933
 6681SOL    HW120942   3.431   5.833   0.927
 6681SOL    HW220943   3.558   5.845   1.028
 6682SOL     OW20944   2.319   4.747   6.425
 6682SOL    HW120945   2.286   4.654   6.439
 6682SOL    HW220946   2.284   4.807   6.497
 6683SOL     OW20947   0.038   6.464   6.605
 6683SOL    HW120948   0.017   6.489   6.510
 6683SOL    HW220949   7.020   6.374   6.625
 6684SOL     OW20950   2.874   6.947   6.023
 6684SOL    HW120951   2.881   0.011   6.072
 6684SOL    HW220952   2.811   6.887   6.071
 6685SOL     OW20953   3.730   2.937   1.121
 6685SOL    HW120954   3.752   2.956   1.217
 6685SOL    HW220955   3.631   2.932   1.110
 6686SOL     OW20956   4.520   4.181   5.436
 6686SOL    HW120957   4.434   4.156   5.479
 6686SOL    HW220958   4.589   4.111   5.456
 6687SOL     OW20959   6.924   2.622   0.902
 6687SOL    HW120960   7.018   2.657   0.893
 6687SOL    HW220961   6.915   2.537   0.850
 6688SOL     OW20962   5.664   5.238   0.220
 6688SOL    HW120963   5.628   5.168   0.282
 6688SOL    HW220964   5.669   5.325   0.268
 6689SOL     OW20965   3.167   4.927   6.178
 6689SOL    HW120966   3.169   5.026   6.185
 6689SOL    HW220967   3.085   4.898   6.128
 6690SOL     OW20968   1.110   0.272   0.028
 6690SOL    HW120969   1.182   0.267   6.981
 6690SOL    HW220970   1.113   0.191   0.086
 6691SOL     OW20971   2.263   1.723   1.932
 6691SOL    HW120972   2.209   1.774   1.865
 6691SOL    HW220973   2.225   1.630   1.942
 6692SOL     OW20974   3.912   6.488   2.167
 6692SOL    HW120975   3.831   6.430   2.159
 6692SOL    HW220976   3.900   6.569   2.108
 6693SOL     OW20977   2.674   1.154   5.781
 6693SOL    HW120978   2.722   1.079   5.828
 6693SOL    HW220979   2.653   1.226   5.847
 6694SOL     OW20980   4.371   4.076   1.640
 6694SOL    HW120981   4.378   4.136   1.719
 6694SOL    HW220982   4.417   4.116   1.562
 6695SOL     OW20983   3.156   2.451   0.023
 6695SOL    HW120984   3.133   2.417   6.954
 6695SOL    HW220985   3.222   2.390   0.066
 6696SOL     OW20986   3.393   3.015   5.273
 6696SOL    HW120987   3.453   3.086   5.236
 6696SOL    HW220988   3.308   3.012   5.221
 6697SOL     OW20989   5.324   1.290   2.728
 6697SOL    HW120990   5.324   1.255   2.821
 6697SOL    HW220991   5.341   1.215   2.664
 6698SOL     OW20992   2.959   3.698   1.504
 6698SOL    HW120993   2.892   3.660   1.442
 6698SOL    HW220994   2.922   3.781   1.547
 6699SOL     OW20995   1.767   3.423   6.796
 6699SOL    HW120996   1.769   3.323   6.797
 6699SOL    HW220997   1.684   3.453   6.748
 6700SOL     OW20998   5.086   0.164   1.376
 6700SOL    HW120999   5.010   0.217   1.415
 6700SOL    HW221000   5.171   0.215   1.386
 6701SOL     OW21001   6.046   6.767   1.732
 6701SOL    HW121002   5.986   6.703   1.685
 6701SOL    HW221003   6.137   6.763   1.691
 6702SOL     OW21004   5.190   2.634   0.853
 6702SOL    HW121005   5.256   2.614   0.781
 6702SOL    HW221006   5.098   2.607   0.822
 6703SOL     OW21007   0.140   1.571   0.519
 6703SOL    HW121008   0.081   1.503   0.562
 6703SOL    HW221009   0.108   1.588   0.426
 6704SOL     OW21010   2.695   6.235   6.129
 6704SOL    HW121011   2.768   6.186   6.177
 6704SOL    HW221012   2.614   6.177   6.124
 6705SOL     OW21013   0.747   4.165   2.490
 6705SOL    HW121014   0.736   4.207   2.400
 6705SOL    HW221015   0.840   4.129   2.499
 6706SOL     OW21016   0.461   6.146   0.865
 6706SOL    HW121017   0.405   6.158   0.783
 6706SOL    HW221018   0.438   6.058   0.908
 6707SOL     OW21019   5.239   0.858   2.849
 6707SOL    HW121020   5.270   0.772   2.890
 6707SOL    HW221021   5.293   0.876   2.767
 6708SOL     OW21022   0.752   3.528   0.962
 6708SOL    HW121023   0.806   3.468   0.903
 6708SOL    HW221024   0.709   3.473   1.034
 6709SOL     OW21025   1.910   4.201   2.034
 6709SOL    HW121026   1.901   4.301   2.036
 6709SOL    HW221027   1.885   4.167   1.943
 6710SOL     OW21028   4.535   1.937   1.739
 6710SOL    HW121029   4.452   1.911   1.788
 6710SOL    HW221030   4.532   2.035   1.717
 6711SOL     OW21031   4.566   5.455   6.362
 6711SOL    HW121032   4.496   5.496   6.304
 6711SOL    HW221033   4.588   5.518   6.437
 6712SOL     OW21034   5.622   3.733   1.030
 6712SOL    HW121035   5.718   3.746   1.052
 6712SOL    HW221036   5.612   3.717   0.932
 6713SOL     OW21037   2.057   4.776   4.074
 6713SOL    HW121038   2.045   4.860   4.021
 6713SOL    HW221039   2.122   4.716   4.028
 6714SOL     OW21040   6.149   1.411   2.473
 6714SOL    HW121041   6.111   1.478   2.536
 6714SOL    HW221042   6.091   1.330   2.470
 6715SOL     OW21043   1.242   6.810   5.718
 6715SOL    HW121044   1.227   6.902   5.756
 6715SOL    HW221045   1.324   6.770   5.759
 6716SOL     OW21046   1.386   4.403   1.914
 6716SOL    HW121047   1.407   4.307   1.931
 6716SOL    HW221048   1.400   4.456   1.998
 6717SOL     OW21049   6.233   2.223   5.434
 6717SOL    HW121050   6.293   2.247   5.357
 6717SOL    HW221051   6.224   2.124   5.439
 6718SOL     OW21052   4.455   2.171   0.889
 6718SOL    HW121053   4.397   2.247   0.919
 6718SOL    HW221054   4.540   2.207   0.851
 6719SOL     OW21055   1.346   0.912   0.495
 6719SOL    HW121056   1.286   0.889   0.419
 6719SOL    HW221057   1.420   0.971   0.462
 6720SOL     OW21058   1.747   1.637   4.356
 6720SOL    HW121059   1.701   1.612   4.441
 6720SOL    HW221060   1.780   1.554   4.310
 6721SOL     OW21061   6.170   6.772   0.448
 6721SOL    HW121062   6.114   6.855   0.442
 6721SOL    HW221063   6.148   6.711   0.373
 6722SOL     OW21064   6.248   4.272   1.272
 6722SOL    HW121065   6.335   4.231   1.296
 6722SOL    HW221066   6.200   4.299   1.355
 6723SOL     OW21067   1.809   3.234   4.449
 6723SOL    HW121068   1.850   3.325   4.440
 6723SOL    HW221069   1.781   3.220   4.544
 6724SOL     OW21070   2.083   3.151   5.457
 6724SOL    HW121071   2.046   3.242   5.473
 6724SOL    HW221072   2.117   3.144   5.363
 6725SOL     OW21073   4.731   2.810   3.650
 6725SOL    HW121074   4.649   2.813   3.707
 6725SOL    HW221075   4.804   2.863   3.695
 6726SOL     OW21076   6.716   1.491   0.391
 6726SOL    HW121077   6.712   1.420   0.321
 6726SOL    HW221078   6.783   1.465   0.461
 6727SOL     OW21079   1.084   5.557   5.614
 6727SOL    HW121080   0.995   5.547   5.657
 6727SOL    HW221081   1.141   5.478   5.637
 6728SOL     OW21082   3.834   1.784   5.010
 6728SOL    HW121083   3.769   1.855   4.983
 6728SOL    HW221084   3.817   1.757   5.104
 6729SOL     OW21085   4.586   1.146   2.771
 6729SOL    HW121086   4.500   1.150   2.823
 6729SOL    HW221087   4.577   1.080   2.697
 6730SOL     OW21088   0.644   1.907   1.590
 6730SOL    HW121089   0.576   1.840   1.560
 6730SOL    HW221090   0.670   1.888   1.684
 6731SOL     OW21091   4.119   0.058   6.065
 6731SOL    HW121092   4.193   0.115   6.101
 6731SOL    HW221093   4.052   0.115   6.018
 6732SOL     OW21094   6.102   5.106   6.062
 6732SOL    HW121095   6.088   5.168   5.985
 6732SOL    HW221096   6.018   5.056   6.081
 6733SOL     OW21097   5.254   5.119   5.478
 6733SOL    HW121098   5.238   5.024   5.508
 6733SOL    HW221099   5.221   5.182   5.549
 6734SOL     OW21100   5.620   2.187   5.590
 6734SOL    HW121101   5.549   2.135   5.543
 6734SOL    HW221102   5.695   2.126   5.615
 6735SOL     OW21103   5.669   2.966   4.400
 6735SOL    HW121104   5.581   3.012   4.388
 6735SOL    HW221105   5.656   2.867   4.400
 6736SOL     OW21106   3.795   3.431   0.625
 6736SOL    HW121107   3.724   3.362   0.638
 6736SOL    HW221108   3.801   3.488   0.706
 6737SOL     OW21109   6.184   3.394   1.178
 6737SOL    HW121110   6.221   3.331   1.110
 6737SOL    HW221111   6.108   3.351   1.227
 6738SOL     OW21112   2.209   6.966   4.314
 6738SOL    HW121113   2.129   6.945   4.258
 6738SOL    HW221114   2.286   6.909   4.285
 6739SOL     OW21115   0.357   0.291   5.850
 6739SOL    HW121116   0.288   0.266   5.782
 6739SOL    HW221117   0.405   0.374   5.820
 6740SOL     OW21118   0.917   6.866   1.927
 6740SOL    HW121119   0.872   6.791   1.974
 6740SOL    HW221120   0.882   6.953   1.961
 6741SOL     OW21121   3.104   2.264   0.401
 6741SOL    HW121122   3.118   2.343   0.460
 6741SOL    HW221123   3.038   2.286   0.330
 6742SOL     OW21124   6.565   4.961   2.214
 6742SOL    HW121125   6.479   4.932   2.173
 6742SOL    HW221126   6.547   5.019   2.293
 6743SOL     OW21127   3.723   3.962   6.627
 6743SOL    HW121128   3.687   4.005   6.544
 6743SOL    HW221129   3.648   3.922   6.679
 6744SOL     OW21130   6.798   6.164   5.773
 6744SOL    HW121131   6.852   6.221   5.835
 6744SOL    HW221132   6.844   6.158   5.684
 6745SOL     OW21133   5.518   3.184   5.526
 6745SOL    HW121134   5.437   3.211   5.474
 6745SOL    HW221135   5.505   3.205   5.623
 6746SOL     OW21136   1.411   2.041   2.952
 6746SOL    HW121137   1.395   2.088   3.039
 6746SOL    HW221138   1.381   2.099   2.876
 6747SOL     OW21139   1.182   6.076   5.534
 6747SOL    HW121140   1.118   6.145   5.501
 6747SOL    HW221141   1.165   6.057   5.630
 6748SOL     OW21142   1.508   2.214   4.539
 6748SOL    HW121143   1.541   2.207   4.445
 6748SOL    HW221144   1.432   2.152   4.553
 6749SOL     OW21145   3.998   4.844   2.532
 6749SOL    HW121146   4.039   4.789   2.459
 6749SOL    HW221147   4.002   4.941   2.507
 6750SOL     OW21148   4.216   0.483   5.879
 6750SOL    HW121149   4.264   0.419   5.819
 6750SOL    HW221150   4.261   0.572   5.876
 6751SOL     OW21151   3.999   0.943   4.432
 6751SOL    HW121152   4.052   0.940   4.517
 6751SOL    HW221153   3.980   1.039   4.408
 6752SOL     OW21154   2.225   4.842   3.389
 6752SOL    HW121155   2.219   4.755   3.439
 6752SOL    HW221156   2.320   4.858   3.361
 6753SOL     OW21157   3.529   4.275   0.341
 6753SOL    HW121158   3.591   4.240   0.271
 6753SOL    HW221159   3.435   4.247   0.320
 6754SOL     OW21160   5.959   0.841   0.564
 6754SOL    HW121161   5.971   0.745   0.590
 6754SOL    HW221162   6.025   0.865   0.493
 6755SOL     OW21163   4.223   5.761   5.647
 6755SOL    HW121164   4.149   5.724   5.591
 6755SOL    HW221165   4.301   5.699   5.646
 6756SOL     OW21166   4.264   3.332   5.917
 6756SOL    HW121167   4.211   3.304   5.997
 6756SOL    HW221168   4.214   3.305   5.834
 6757SOL     OW21169   4.155   6.707   2.113
 6757SOL    HW121170   4.233   6.712   2.176
 6757SOL    HW221171   4.186   6.727   2.020
 6758SOL     OW21172   4.876   2.772   3.126
 6758SOL    HW121173   4.837   2.693   3.078
 6758SOL    HW221174   4.853   2.766   3.223
 6759SOL     OW21175   1.428   2.737   2.196
 6759SOL    HW121176   1.474   2.771   2.278
 6759SOL    HW221177   1.344   2.690   2.223
 6760SOL     OW21178   5.217   1.934   6.018
 6760SOL    HW121179   5.138   1.878   6.041
 6760SOL    HW221180   5.187   2.012   5.963
 6761SOL     OW21181   2.832   0.449   4.599
 6761SOL    HW121182   2.890   0.376   4.635
 6761SOL    HW221183   2.865   0.537   4.633
 6762SOL     OW21184   5.496   4.869   4.514
 6762SOL    HW121185   5.516   4.778   4.477
 6762SOL    HW221186   5.400   4.892   4.494
 6763SOL     OW21187   5.674   5.679   3.585
 6763SOL    HW121188   5.647   5.610   3.652
 6763SOL    HW221189   5.762   5.718   3.611
 6764SOL     OW21190   0.932   4.599   1.814
 6764SOL    HW121191   0.976   4.651   1.741
 6764SOL    HW221192   0.989   4.520   1.839
 6765SOL     OW21193   6.787   4.021   3.217
 6765SOL    HW121194   6.742   4.103   3.253
 6765SOL    HW221195   6.877   4.046   3.180
 6766SOL     OW21196   6.085   6.978   1.485
 6766SOL    HW121197   6.160   7.021   1.435
 6766SOL    HW221198   6.079   6.881   1.461
 6767SOL     OW21199   3.318   0.271   1.371
 6767SOL    HW121200   3.332   0.333   1.448
 6767SOL    HW221201   3.322   0.323   1.286
 6768SOL     OW21202   1.571   7.005   6.661
 6768SOL    HW121203   1.534   0.060   6.714
 6768SOL    HW221204   1.610   6.938   6.724
 6769SOL     OW21205   5.291   2.923   1.068
 6769SOL    HW121206   5.227   2.938   0.993
 6769SOL    HW221207   5.252   2.959   1.153
 6770SOL     OW21208   0.320   1.612   1.685
 6770SOL    HW121209   0.288   1.524   1.649
 6770SOL    HW221210   0.254   1.646   1.751
 6771SOL     OW21211   4.513   1.376   3.670
 6771SOL    HW121212   4.543   1.335   3.756
 6771SOL    HW221213   4.578   1.447   3.642
 6772SOL     OW21214   3.497   1.379   5.035
 6772SOL    HW121215   3.501   1.321   4.954
 6772SOL    HW221216   3.438   1.458   5.017
 6773SOL     OW21217   0.176   3.704   1.755
 6773SOL    HW121218   0.132   3.733   1.670
 6773SOL    HW221219   0.207   3.785   1.805
 6774SOL     OW21220   1.521   1.952   6.210
 6774SOL    HW121221   1.547   2.010   6.287
 6774SOL    HW221222   1.459   2.002   6.150
 6775SOL     OW21223   0.480   3.607   0.662
 6775SOL    HW121224   0.471   3.635   0.757
 6775SOL    HW221225   0.515   3.513   0.659
 6776SOL     OW21226   6.262   6.178   6.653
 6776SOL    HW121227   6.313   6.096   6.628
 6776SOL    HW221228   6.306   6.258   6.611
 6777SOL     OW21229   4.389   4.671   0.150
 6777SOL    HW121230   4.352   4.716   0.068
 6777SOL    HW221231   4.431   4.584   0.124
 6778SOL     OW21232   6.005   5.566   3.413
 6778SOL    HW121233   6.027   5.501   3.341
 6778SOL    HW221234   5.958   5.645   3.373
 6779SOL     OW21235   5.590   3.287   6.597
 6779SOL    HW121236   5.544   3.365   6.553
 6779SOL    HW221237   5.612   3.219   6.527
 6780SOL     OW21238   1.085   3.268   1.219
 6780SOL    HW121239   1.029   3.191   1.187
 6780SOL    HW221240   1.181   3.251   1.196
 6781SOL     OW21241   5.199   4.874   5.596
 6781SOL    HW121242   5.236   4.868   5.688
 6781SOL    HW221243   5.111   4.923   5.598
 6782SOL     OW21244   6.080   1.652   3.508
 6782SOL    HW121245   6.102   1.556   3.490
 6782SOL    HW221246   5.994   1.658   3.558
 6783SOL     OW21247   1.318   5.989   6.546
 6783SOL    HW121248   1.222   6.011   6.528
 6783SOL    HW221249   1.348   5.919   6.482
 6784SOL     OW21250   4.049   3.395   0.068
 6784SOL    HW121251   3.951   3.412   0.060
 6784SOL    HW221252   4.098   3.482   0.070
 6785SOL     OW21253   5.783   5.664   2.101
 6785SOL    HW121254   5.695   5.628   2.070
 6785SOL    HW221255   5.838   5.588   2.137
 6786SOL     OW21256   1.553   3.487   5.325
 6786SOL    HW121257   1.634   3.508   5.379
 6786SOL    HW221258   1.565   3.521   5.231
 6787SOL     OW21259   0.954   4.045   1.552
 6787SOL    HW121260   1.020   4.054   1.477
 6787SOL    HW221261   1.001   4.020   1.636
 6788SOL     OW21262   2.733   3.824   1.135
 6788SOL    HW121263   2.759   3.759   1.207
 6788SOL    HW221264   2.804   3.826   1.065
 6789SOL     OW21265   1.512   4.403   3.014
 6789SOL    HW121266   1.543   4.480   2.958
 6789SOL    HW221267   1.547   4.318   2.976
 6790SOL     OW21268   1.227   2.945   0.484
 6790SOL    HW121269   1.252   2.994   0.568
 6790SOL    HW221270   1.213   3.011   0.410
 6791SOL     OW21271   3.849   3.953   5.976
 6791SOL    HW121272   3.924   3.905   6.021
 6791SOL    HW221273   3.780   3.979   6.044
 6792SOL     OW21274   0.306   5.164   0.861
 6792SOL    HW121275   0.265   5.101   0.926
 6792SOL    HW221276   0.246   5.173   0.781
 6793SOL     OW21277   5.318   1.016   0.964
 6793SOL    HW121278   5.260   1.083   0.918
 6793SOL    HW221279   5.381   1.062   1.026
 6794SOL     OW21280   3.565   1.576   4.739
 6794SOL    HW121281   3.633   1.600   4.808
 6794SOL    HW221282   3.475   1.568   4.781
 6795SOL     OW21283   3.496   5.778   6.702
 6795SOL    HW121284   3.530   5.756   6.611
 6795SOL    HW221285   3.490   5.877   6.712
 6796SOL     OW21286   4.311   2.064   2.332
 6796SOL    HW121287   4.298   1.969   2.361
 6796SOL    HW221288   4.221   2.104   2.313
 6797SOL     OW21289   6.569   2.378   2.578
 6797SOL    HW121290   6.504   2.369   2.502
 6797SOL    HW221291   6.637   2.305   2.573
 6798SOL     OW21292   6.419   7.020   2.558
 6798SOL    HW121293   6.483   0.043   2.496
 6798SOL    HW221294   6.469   6.987   2.639
 6799SOL     OW21295   5.295   5.910   2.277
 6799SOL    HW121296   5.283   5.977   2.203
 6799SOL    HW221297   5.283   5.955   2.365
 6800SOL     OW21298   3.289   4.067   6.189
 6800SOL    HW121299   3.245   4.155   6.205
 6800SOL    HW221300   3.230   3.993   6.221
 6801SOL     OW21301   0.962   3.571   3.192
 6801SOL    HW121302   1.025   3.582   3.115
 6801SOL    HW221303   1.012   3.536   3.271
 6802SOL     OW21304   3.038   4.884   2.689
 6802SOL    HW121305   3.024   4.839   2.778
 6802SOL    HW221306   2.969   4.851   2.624
 6803SOL     OW21307   4.101   2.145   0.661
 6803SOL    HW121308   4.197   2.118   0.674
 6803SOL    HW221309   4.050   2.129   0.745
 6804SOL     OW21310   1.149   5.980   3.592
 6804SOL    HW121311   1.091   6.017   3.520
 6804SOL    HW221312   1.209   6.052   3.627
 6805SOL     OW21313   5.499   1.296   5.582
 6805SOL    HW121314   5.471   1.200   5.583
 6805SOL    HW221315   5.437   1.350   5.640
 6806SOL     OW21316   5.107   6.442   5.022
 6806SOL    HW121317   5.205   6.422   5.011
 6806SOL    HW221318   5.070   6.476   4.936
 6807SOL     OW21319   3.795   3.450   0.010
 6807SOL    HW121320   3.752   3.362   7.012
 6807SOL    HW221321   3.749   3.522   6.980
 6808SOL     OW21322   2.121   4.090   4.341
 6808SOL    HW121323   2.199   4.113   4.399
 6808SOL    HW221324   2.108   4.162   4.273
 6809SOL     OW21325   1.554   3.833   7.015
 6809SOL    HW121326   1.481   3.901   0.001
 6809SOL    HW221327   1.541   3.781   6.931
 6810SOL     OW21328   5.795   1.063   3.701
 6810SOL    HW121329   5.705   1.053   3.744
 6810SOL    HW221330   5.864   1.022   3.761
 6811SOL     OW21331   5.238   6.093   2.075
 6811SOL    HW121332   5.322   6.126   2.032
 6811SOL    HW221333   5.168   6.078   2.005
 6812SOL     OW21334   3.438   2.993   2.778
 6812SOL    HW121335   3.525   3.025   2.817
 6812SOL    HW221336   3.377   2.965   2.851
 6813SOL     OW21337   5.315   3.861   1.036
 6813SOL    HW121338   5.265   3.917   1.102
 6813SOL    HW221339   5.258   3.845   0.955
 6814SOL     OW21340   2.383   2.613   0.492
 6814SOL    HW121341   2.369   2.526   0.538
 6814SOL    HW221342   2.413   2.682   0.558
 6815SOL     OW21343   1.604   0.351   0.515
 6815SOL    HW121344   1.669   0.278   0.494
 6815SOL    HW221345   1.564   0.336   0.605
 6816SOL     OW21346   4.936   4.685   1.673
 6816SOL    HW121347   4.918   4.597   1.716
 6816SOL    HW221348   5.029   4.686   1.636
 6817SOL     OW21349   1.134   2.774   5.914
 6817SOL    HW121350   1.042   2.744   5.938
 6817SOL    HW221351   1.128   2.842   5.841
 6818SOL     OW21352   3.837   5.300   1.163
 6818SOL    HW121353   3.854   5.383   1.216
 6818SOL    HW221354   3.885   5.222   1.205
 6819SOL     OW21355   2.200   1.828   3.681
 6819SOL    HW121356   2.173   1.733   3.669
 6819SOL    HW221357   2.236   1.842   3.773
 6820SOL     OW21358   1.744   5.323   4.650
 6820SOL    HW121359   1.831   5.371   4.657
 6820SOL    HW221360   1.761   5.225   4.637
 6821SOL     OW21361   2.056   3.104   3.959
 6821SOL    HW121362   2.106   3.022   3.988
 6821SOL    HW221363   2.033   3.159   4.039
 6822SOL     OW21364   5.072   1.631   6.057
 6822SOL    HW121365   5.154   1.608   6.004
 6822SOL    HW221366   5.033   1.717   6.024
 6823SOL     OW21367   4.063   3.457   2.132
 6823SOL    HW121368   4.083   3.379   2.073
 6823SOL    HW221369   4.120   3.453   2.214
 6824SOL     OW21370   0.621   5.387   4.992
 6824SOL    HW121371   0.648   5.292   5.006
 6824SOL    HW221372   0.523   5.397   5.008
 6825SOL     OW21373   5.523   0.099   4.234
 6825SOL    HW121374   5.599   0.157   4.206
 6825SOL    HW221375   5.462   0.150   4.295
 6826SOL     OW21376   1.172   3.015   3.162
 6826SOL    HW121377   1.226   3.069   3.227
 6826SOL    HW221378   1.202   3.035   3.069
 6827SOL     OW21379   4.381   5.203   5.408
 6827SOL    HW121380   4.446   5.250   5.468
 6827SOL    HW221381   4.423   5.119   5.374
 6828SOL     OW21382   2.355   1.649   1.043
 6828SOL    HW121383   2.382   1.744   1.053
 6828SOL    HW221384   2.255   1.643   1.046
 6829SOL     OW21385   5.863   4.992   3.616
 6829SOL    HW121386   5.827   5.008   3.708
 6829SOL    HW221387   5.807   4.923   3.570
 6830SOL     OW21388   5.117   1.750   3.681
 6830SOL    HW121389   5.069   1.662   3.676
 6830SOL    HW221390   5.161   1.768   3.593
 6831SOL     OW21391   0.277   1.806   5.704
 6831SOL    HW121392   0.265   1.783   5.607
 6831SOL    HW221393   0.295   1.723   5.756
 6832SOL     OW21394   3.438   4.712   1.151
 6832SOL    HW121395   3.534   4.691   1.134
 6832SOL    HW221396   3.416   4.694   1.247
 6833SOL     OW21397   4.151   6.035   0.509
 6833SOL    HW121398   4.071   5.986   0.475
 6833SOL    HW221399   4.152   6.128   0.471
 6834SOL     OW21400   2.416   5.196   2.688
 6834SOL    HW121401   2.318   5.200   2.705
 6834SOL    HW221402   2.466   5.225   2.769
 6835SOL     OW21403   3.879   0.022   4.682
 6835SOL    HW121404   3.789   7.011   4.654
 6835SOL    HW221405   3.942   0.015   4.604
 6836SOL     OW21406   4.108   5.832   0.064
 6836SOL    HW121407   4.147   5.802   6.999
 6836SOL    HW221408   4.018   5.791   0.076
 6837SOL     OW21409   0.531   3.196   2.908
 6837SOL    HW121410   0.596   3.248   2.852
 6837SOL    HW221411   0.575   3.112   2.939
 6838SOL     OW21412   2.699   1.725   1.052
 6838SOL    HW121413   2.655   1.655   1.108
 6838SOL    HW221414   2.722   1.804   1.109
 6839SOL     OW21415   3.700   0.932   1.857
 6839SOL    HW121416   3.701   0.867   1.932
 6839SOL    HW221417   3.606   0.947   1.827
 6840SOL     OW21418   1.102   1.222   6.006
 6840SOL    HW121419   1.085   1.162   5.927
 6840SOL    HW221420   1.031   1.207   6.075
 6841SOL     OW21421   0.272   3.194   5.669
 6841SOL    HW121422   0.185   3.176   5.714
 6841SOL    HW221423   0.297   3.116   5.610
 6842SOL     OW21424   2.775   4.855   2.504
 6842SOL    HW121425   2.713   4.786   2.542
 6842SOL    HW221426   2.811   4.823   2.417
 6843SOL     OW21427   4.467   0.280   1.241
 6843SOL    HW121428   4.506   0.314   1.155
 6843SOL    HW221429   4.382   0.329   1.261
 6844SOL     OW21430   5.661   0.354   5.275
 6844SOL    HW121431   5.671   0.255   5.287
 6844SOL    HW221432   5.677   0.400   5.363
 6845SOL     OW21433   5.604   1.773   2.604
 6845SOL    HW121434   5.690   1.735   2.638
 6845SOL    HW221435   5.528   1.719   2.640
 6846SOL     OW21436   2.043   3.513   0.159
 6846SOL    HW121437   2.098   3.455   0.099
 6846SOL    HW221438   1.951   3.521   0.121
 6847SOL     OW21439   6.842   2.387   4.030
 6847SOL    HW121440   6.875   2.416   3.940
 6847SOL    HW221441   6.751   2.348   4.021
 6848SOL     OW21442   6.647   4.746   4.119
 6848SOL    HW121443   6.616   4.669   4.175
 6848SOL    HW221444   6.745   4.761   4.135
 6849SOL     OW21445   2.717   4.210   5.428
 6849SOL    HW121446   2.693   4.123   5.386
 6849SOL    HW221447   2.811   4.234   5.404
 6850SOL     OW21448   5.061   0.298   4.399
 6850SOL    HW121449   5.150   0.329   4.431
 6850SOL    HW221450   5.071   0.211   4.351
 6851SOL     OW21451   1.650   4.205   2.865
 6851SOL    HW121452   1.735   4.254   2.887
 6851SOL    HW221453   1.671   4.111   2.838
 6852SOL     OW21454   4.303   3.364   0.320
 6852SOL    HW121455   4.384   3.422   0.314
 6852SOL    HW221456   4.231   3.413   0.369
 6853SOL     OW21457   4.095   4.839   6.115
 6853SOL    HW121458   4.059   4.932   6.112
 6853SOL    HW221459   4.019   4.774   6.114
 6854SOL     OW21460   5.114   6.123   5.477
 6854SOL    HW121461   5.185   6.062   5.441
 6854SOL    HW221462   5.158   6.201   5.521
 6855SOL     OW21463   3.506   5.250   3.116
 6855SOL    HW121464   3.539   5.341   3.092
 6855SOL    HW221465   3.445   5.257   3.195
 6856SOL     OW21466   6.592   2.381   0.769
 6856SOL    HW121467   6.540   2.464   0.789
 6856SOL    HW221468   6.561   2.344   0.682
 6857SOL     OW21469   1.577   4.689   5.838
 6857SOL    HW121470   1.512   4.615   5.819
 6857SOL    HW221471   1.571   4.714   5.935
 6858SOL     OW21472   1.167   3.620   1.570
 6858SOL    HW121473   1.252   3.569   1.560
 6858SOL    HW221474   1.097   3.581   1.511
 6859SOL     OW21475   2.485   2.313   0.796
 6859SOL    HW121476   2.426   2.240   0.830
 6859SOL    HW221477   2.485   2.389   0.862
 6860SOL     OW21478   0.430   6.644   0.231
 6860SOL    HW121479   0.507   6.647   0.167
 6860SOL    HW221480   0.344   6.657   0.181
 6861SOL     OW21481   6.603   3.133   6.857
 6861SOL    HW121482   6.561   3.224   6.858
 6861SOL    HW221483   6.688   3.135   6.910
 6862SOL     OW21484   0.528   4.083   3.522
 6862SOL    HW121485   0.569   4.149   3.459
 6862SOL    HW221486   0.599   4.050   3.585
 6863SOL     OW21487   5.151   0.979   5.532
 6863SOL    HW121488   5.182   0.982   5.437
 6863SOL    HW221489   5.078   1.046   5.545
 6864SOL     OW21490   2.019   3.486   6.479
 6864SOL    HW121491   1.982   3.578   6.472
 6864SOL    HW221492   2.118   3.490   6.495
 6865SOL     OW21493   1.888   0.519   3.706
 6865SOL    HW121494   1.807   0.530   3.649
 6865SOL    HW221495   1.937   0.607   3.712
 6866SOL     OW21496   2.105   4.866   0.058
 6866SOL    HW121497   2.016   4.912   0.054
 6866SOL    HW221498   2.176   4.934   0.079
 6867SOL     OW21499   2.037   2.663   6.089
 6867SOL    HW121500   2.044   2.717   6.172
 6867SOL    HW221501   2.055   2.722   6.010
 6868SOL     OW21502   3.605   4.899   3.114
 6868SOL    HW121503   3.592   4.842   3.195
 6868SOL    HW221504   3.518   4.907   3.065
 6869SOL     OW21505   1.258   0.596   5.453
 6869SOL    HW121506   1.231   0.564   5.362
 6869SOL    HW221507   1.354   0.624   5.451
 6870SOL     OW21508   5.294   2.941   6.659
 6870SOL    HW121509   5.345   2.864   6.620
 6870SOL    HW221510   5.303   2.940   6.759
 6871SOL     OW21511   6.217   2.345   2.799
 6871SOL    HW121512   6.226   2.336   2.898
 6871SOL    HW221513   6.270   2.423   2.767
 6872SOL     OW21514   1.747   4.695   0.850
 6872SOL    HW121515   1.651   4.723   0.857
 6872SOL    HW221516   1.788   4.692   0.941
 6873SOL     OW21517   0.398   3.995   2.665
 6873SOL    HW121518   0.371   3.982   2.570
 6873SOL    HW221519   0.462   3.923   2.692
 6874SOL     OW21520   3.965   5.861   1.563
 6874SOL    HW121521   3.979   5.927   1.488
 6874SOL    HW221522   3.879   5.880   1.609
 6875SOL     OW21523   2.842   1.186   6.474
 6875SOL    HW121524   2.792   1.226   6.551
 6875SOL    HW221525   2.938   1.215   6.478
 6876SOL     OW21526   5.660   5.086   3.307
 6876SOL    HW121527   5.574   5.084   3.256
 6876SOL    HW221528   5.685   4.993   3.335
 6877SOL     OW21529   0.511   4.419   1.359
 6877SOL    HW121530   0.565   4.476   1.421
 6877SOL    HW221531   0.481   4.473   1.281
 6878SOL     OW21532   2.005   0.740   4.187
 6878SOL    HW121533   2.039   0.700   4.101
 6878SOL    HW221534   1.921   0.792   4.168
 6879SOL     OW21535   1.123   1.364   1.473
 6879SOL    HW121536   1.160   1.389   1.563
 6879SOL    HW221537   1.084   1.272   1.478
 6880SOL     OW21538   1.950   6.377   0.667
 6880SOL    HW121539   1.966   6.278   0.664
 6880SOL    HW221540   1.874   6.400   0.607
 6881SOL     OW21541   6.917   3.802   0.582
 6881SOL    HW121542   6.926   3.730   0.651
 6881SOL    HW221543   6.985   3.788   0.510
 6882SOL     OW21544   2.785   6.824   0.376
 6882SOL    HW121545   2.699   6.786   0.342
 6882SOL    HW221546   2.857   6.810   0.308
 6883SOL     OW21547   4.534   6.652   1.255
 6883SOL    HW121548   4.623   6.653   1.210
 6883SOL    HW221549   4.504   6.557   1.269
 6884SOL     OW21550   1.371   5.042   3.108
 6884SOL    HW121551   1.294   5.067   3.166
 6884SOL    HW221552   1.423   4.968   3.151
 6885SOL     OW21553   5.645   4.844   4.807
 6885SOL    HW121554   5.603   4.908   4.743
 6885SOL    HW221555   5.585   4.764   4.818
 6886SOL     OW21556   5.326   4.152   0.703
 6886SOL    HW121557   5.391   4.173   0.775
 6886SOL    HW221558   5.336   4.217   0.628
 6887SOL     OW21559   5.452   6.770   5.901
 6887SOL    HW121560   5.525   6.833   5.874
 6887SOL    HW221561   5.390   6.756   5.824
 6888SOL     OW21562   6.344   4.334   0.238
 6888SOL    HW121563   6.368   4.274   0.314
 6888SOL    HW221564   6.309   4.421   0.274
 6889SOL     OW21565   0.149   2.569   5.489
 6889SOL    HW121566   0.208   2.608   5.419
 6889SOL    HW221567   0.205   2.519   5.555
 6890SOL     OW21568   4.748   4.753   4.160
 6890SOL    HW121569   4.804   4.783   4.083
 6890SOL    HW221570   4.769   4.810   4.240
 6891SOL     OW21571   2.057   2.068   0.851
 6891SOL    HW121572   2.056   2.125   0.769
 6891SOL    HW221573   1.997   1.989   0.839
 6892SOL     OW21574   1.656   0.928   4.914
 6892SOL    HW121575   1.617   0.955   5.002
 6892SOL    HW221576   1.750   0.964   4.906
 6893SOL     OW21577   5.902   3.150   0.343
 6893SOL    HW121578   5.927   3.138   0.247
 6893SOL    HW221579   5.972   3.206   0.388
 6894SOL     OW21580   5.576   5.172   6.983
 6894SOL    HW121581   5.647   5.186   0.030
 6894SOL    HW221582   5.501   5.118   0.000
 6895SOL     OW21583   1.456   5.531   2.217
 6895SOL    HW121584   1.460   5.550   2.315
 6895SOL    HW221585   1.364   5.550   2.183
 6896SOL     OW21586   5.521   0.967   6.330
 6896SOL    HW121587   5.445   0.937   6.272
 6896SOL    HW221588   5.599   0.906   6.317
 6897SOL     OW21589   4.292   2.330   4.816
 6897SOL    HW121590   4.364   2.397   4.795
 6897SOL    HW221591   4.237   2.363   4.893
 6898SOL     OW21592   1.837   6.861   1.338
 6898SOL    HW121593   1.787   6.926   1.282
 6898SOL    HW221594   1.834   6.890   1.434
 6899SOL     OW21595   5.311   5.276   2.264
 6899SOL    HW121596   5.254   5.353   2.291
 6899SOL    HW221597   5.292   5.252   2.169
 6900SOL     OW21598   0.106   4.269   4.633
 6900SOL    HW121599   0.082   4.172   4.643
 6900SOL    HW221600   0.199   4.284   4.666
 6901SOL     OW21601   4.969   4.565   6.223
 6901SOL    HW121602   4.982   4.639   6.289
 6901SOL    HW221603   4.898   4.591   6.157
 6902SOL     OW21604   0.292   6.004   5.720
 6902SOL    HW121605   0.222   6.074   5.703
 6902SOL    HW221606   0.357   6.003   5.645
 6903SOL     OW21607   1.683   6.513   5.277
 6903SOL    HW121608   1.610   6.534   5.213
 6903SOL    HW221609   1.771   6.542   5.239
 6904SOL     OW21610   0.847   0.680   6.359
 6904SOL    HW121611   0.757   0.716   6.334
 6904SOL    HW221612   0.906   0.681   6.278
 6905SOL     OW21613   4.367   6.137   5.723
 6905SOL    HW121614   4.421   6.219   5.705
 6905SOL    HW221615   4.356   6.086   5.638
 6906SOL     OW21616   3.133   1.828   3.472
 6906SOL    HW121617   3.120   1.898   3.543
 6906SOL    HW221618   3.095   1.741   3.504
 6907SOL     OW21619   5.958   2.870   0.233
 6907SOL    HW121620   5.933   2.965   0.216
 6907SOL    HW221621   5.940   2.816   0.151
 6908SOL     OW21622   3.823   6.136   0.585
 6908SOL    HW121623   3.791   6.050   0.548
 6908SOL    HW221624   3.853   6.196   0.511
 6909SOL     OW21625   5.715   4.207   2.401
 6909SOL    HW121626   5.648   4.269   2.443
 6909SOL    HW221627   5.751   4.248   2.317
 6910SOL     OW21628   1.754   2.578   1.993
 6910SOL    HW121629   1.792   2.489   1.967
 6910SOL    HW221630   1.725   2.576   2.088
 6911SOL     OW21631   2.745   6.751   5.044
 6911SOL    HW121632   2.683   6.680   5.013
 6911SOL    HW221633   2.714   6.840   5.011
 6912SOL     OW21634   3.133   4.163   6.548
 6912SOL    HW121635   3.218   4.111   6.542
 6912SOL    HW221636   3.057   4.101   6.567
 6913SOL     OW21637   4.371   5.567   6.206
 6913SOL    HW121638   4.392   5.602   6.114
 6913SOL    HW221639   4.367   5.644   6.270
 6914SOL     OW21640   0.444   2.292   2.388
 6914SOL    HW121641   0.485   2.354   2.455
 6914SOL    HW221642   0.515   2.253   2.329
 6915SOL     OW21643   0.166   3.107   4.486
 6915SOL    HW121644   0.069   3.112   4.463
 6915SOL    HW221645   0.220   3.129   4.405
 6916SOL     OW21646   4.599   6.391   5.832
 6916SOL    HW121647   4.592   6.417   5.736
 6916SOL    HW221648   4.682   6.337   5.846
 6917SOL     OW21649   3.902   5.994   2.257
 6917SOL    HW121650   3.934   6.043   2.338
 6917SOL    HW221651   3.802   5.993   2.256
 6918SOL     OW21652   1.939   3.741   0.326
 6918SOL    HW121653   1.994   3.676   0.274
 6918SOL    HW221654   1.872   3.783   0.266
 6919SOL     OW21655   6.109   6.016   3.365
 6919SOL    HW121656   6.048   5.940   3.342
 6919SOL    HW221657   6.055   6.094   3.396
 6920SOL     OW21658   0.424   2.721   5.333
 6920SOL    HW121659   0.469   2.701   5.246
 6920SOL    HW221660   0.464   2.666   5.405
 6921SOL     OW21661   3.399   0.381   4.619
 6921SOL    HW121662   3.345   0.447   4.673
 6921SOL    HW221663   3.363   0.289   4.635
 6922SOL     OW21664   3.130   4.898   6.557
 6922SOL    HW121665   3.148   4.977   6.499
 6922SOL    HW221666   3.032   4.894   6.579
 6923SOL     OW21667   5.164   6.798   3.186
 6923SOL    HW121668   5.070   6.764   3.190
 6923SOL    HW221669   5.168   6.890   3.226
 6924SOL     OW21670   2.872   4.895   1.983
 6924SOL    HW121671   2.970   4.913   1.975
 6924SOL    HW221672   2.854   4.798   1.968
 6925SOL     OW21673   6.651   6.334   4.422
 6925SOL    HW121674   6.607   6.275   4.489
 6925SOL    HW221675   6.631   6.430   4.444
 6926SOL     OW21676   2.948   2.679   0.510
 6926SOL    HW121677   3.046   2.666   0.494
 6926SOL    HW221678   2.903   2.590   0.512
 6927SOL     OW21679   3.311   7.000   5.901
 6927SOL    HW121680   3.386   6.987   5.836
 6927SOL    HW221681   3.246   6.925   5.891
 6928SOL     OW21682   4.290   6.015   0.745
 6928SOL    HW121683   4.237   5.974   0.819
 6928SOL    HW221684   4.235   6.019   0.662
 6929SOL     OW21685   4.456   5.243   2.914
 6929SOL    HW121686   4.429   5.196   2.829
 6929SOL    HW221687   4.383   5.231   2.982
 6930SOL     OW21688   1.161   6.188   1.790
 6930SOL    HW121689   1.153   6.128   1.869
 6930SOL    HW221690   1.155   6.134   1.706
 6931SOL     OW21691   3.372   3.130   0.951
 6931SOL    HW121692   3.402   3.044   0.992
 6931SOL    HW221693   3.278   3.121   0.917
 6932SOL     OW21694   4.074   0.790   6.827
 6932SOL    HW121695   4.041   0.710   6.778
 6932SOL    HW221696   4.007   0.816   6.898
 6933SOL     OW21697   3.689   6.146   5.750
 6933SOL    HW121698   3.667   6.081   5.678
 6933SOL    HW221699   3.607   6.162   5.806
 6934SOL     OW21700   4.771   5.031   0.207
 6934SOL    HW121701   4.778   5.074   0.297
 6934SOL    HW221702   4.701   4.960   0.209
 6935SOL     OW21703   4.186   5.637   2.367
 6935SOL    HW121704   4.094   5.598   2.371
 6935SOL    HW221705   4.203   5.672   2.275
 6936SOL     OW21706   0.873   1.825   6.894
 6936SOL    HW121707   0.775   1.826   6.875
 6936SOL    HW221708   0.923   1.839   6.808
 6937SOL     OW21709   5.628   4.670   0.718
 6937SOL    HW121710   5.684   4.744   0.755
 6937SOL    HW221711   5.677   4.624   0.644
 6938SOL     OW21712   3.088   0.266   5.220
 6938SOL    HW121713   3.020   0.193   5.211
 6938SOL    HW221714   3.136   0.257   5.307
 6939SOL     OW21715   5.851   2.944   3.530
 6939SOL    HW121716   5.791   3.003   3.476
 6939SOL    HW221717   5.798   2.897   3.600
 6940SOL     OW21718   1.752   6.376   1.891
 6940SOL    HW121719   1.819   6.354   1.820
 6940SOL    HW221720   1.692   6.448   1.858
 6941SOL     OW21721   3.545   3.188   2.486
 6941SOL    HW121722   3.601   3.107   2.468
 6941SOL    HW221723   3.559   3.219   2.580
 6942SOL     OW21724   6.701   4.780   2.910
 6942SOL    HW121725   6.687   4.686   2.941
 6942SOL    HW221726   6.618   4.811   2.862
 6943SOL     OW21727   3.165   5.428   5.243
 6943SOL    HW121728   3.214   5.413   5.329
 6943SOL    HW221729   3.072   5.460   5.263
 6944SOL     OW21730   0.827   4.909   5.097
 6944SOL    HW121731   0.757   4.844   5.128
 6944SOL    HW221732   0.874   4.872   5.017
 6945SOL     OW21733   4.250   1.496   0.770
 6945SOL    HW121734   4.189   1.498   0.691
 6945SOL    HW221735   4.345   1.489   0.739
 6946SOL     OW21736   5.119   5.762   3.011
 6946SOL    HW121737   5.177   5.706   2.953
 6946SOL    HW221738   5.174   5.834   3.053
 6947SOL     OW21739   6.299   4.084   5.224
 6947SOL    HW121740   6.245   4.066   5.306
 6947SOL    HW221741   6.329   4.179   5.224
 6948SOL     OW21742   0.138   4.788   6.775
 6948SOL    HW121743   0.236   4.766   6.775
 6948SOL    HW221744   0.122   4.871   6.827
 6949SOL     OW21745   2.372   1.336   3.268
 6949SOL    HW121746   2.439   1.286   3.324
 6949SOL    HW221747   2.385   1.434   3.281
 6950SOL     OW21748   2.118   1.356   4.345
 6950SOL    HW121749   2.064   1.343   4.262
 6950SOL    HW221750   2.113   1.274   4.402
 6951SOL     OW21751   1.183   4.075   6.899
 6951SOL    HW121752   1.223   4.166   6.902
 6951SOL    HW221753   1.222   4.019   6.973
 6952SOL     OW21754   4.263   4.925   3.247
 6952SOL    HW121755   4.245   4.832   3.214
 6952SOL    HW221756   4.351   4.926   3.296
 6953SOL     OW21757   0.483   0.703   1.976
 6953SOL    HW121758   0.388   0.690   1.950
 6953SOL    HW221759   0.500   0.801   1.992
 6954SOL     OW21760   6.501   5.170   6.147
 6954SOL    HW121761   6.477   5.164   6.244
 6954SOL    HW221762   6.498   5.079   6.106
 6955SOL     OW21763   4.065   5.885   2.530
 6955SOL    HW121764   4.104   5.838   2.609
 6955SOL    HW221765   4.138   5.919   2.471
 6956SOL     OW21766   5.752   5.029   2.017
 6956SOL    HW121767   5.746   5.068   1.925
 6956SOL    HW221768   5.726   4.932   2.014
 6957SOL     OW21769   5.956   4.086   5.254
 6957SOL    HW121770   6.006   4.142   5.187
 6957SOL    HW221771   5.961   4.129   5.344
 6958SOL     OW21772   3.405   3.764   1.935
 6958SOL    HW121773   3.383   3.755   2.032
 6958SOL    HW221774   3.490   3.715   1.915
 6959SOL     OW21775   1.251   3.392   2.529
 6959SOL    HW121776   1.156   3.372   2.501
 6959SOL    HW221777   1.299   3.306   2.545
 6960SOL     OW21778   5.479   4.759   1.667
 6960SOL    HW121779   5.576   4.736   1.659
 6960SOL    HW221780   5.436   4.698   1.734
 6961SOL     OW21781   5.367   2.252   4.827
 6961SOL    HW121782   5.367   2.340   4.781
 6961SOL    HW221783   5.352   2.266   4.925
 6962SOL     OW21784   2.270   6.276   0.734
 6962SOL    HW121785   2.172   6.292   0.745
 6962SOL    HW221786   2.292   6.267   0.637
 6963SOL     OW21787   0.659   6.598   0.055
 6963SOL    HW121788   0.689   6.520   0.000
 6963SOL    HW221789   0.734   6.664   0.062
 6964SOL     OW21790   2.190   1.347   5.010
 6964SOL    HW121791   2.241   1.262   5.023
 6964SOL    HW221792   2.250   1.424   5.031
 6965SOL     OW21793   1.579   1.279   6.856
 6965SOL    HW121794   1.538   1.195   6.893
 6965SOL    HW221795   1.584   1.272   6.757
 6966SOL     OW21796   1.659   6.545   0.886
 6966SOL    HW121797   1.651   6.527   0.984
 6966SOL    HW221798   1.635   6.640   0.868
 6967SOL     OW21799   3.890   0.003   6.495
 6967SOL    HW121800   3.795   0.013   6.466
 6967SOL    HW221801   3.945   6.991   6.418
 6968SOL     OW21802   3.932   0.450   2.059
 6968SOL    HW121803   4.001   0.438   2.131
 6968SOL    HW221804   3.962   0.404   1.976
 6969SOL     OW21805   1.493   3.340   2.793
 6969SOL    HW121806   1.590   3.324   2.778
 6969SOL    HW221807   1.480   3.429   2.837
 6970SOL     OW21808   3.834   5.848   5.724
 6970SOL    HW121809   3.866   5.892   5.808
 6970SOL    HW221810   3.855   5.907   5.645
 6971SOL     OW21811   6.841   3.892   6.990
 6971SOL    HW121812   6.933   3.909   6.955
 6971SOL    HW221813   6.838   3.800   0.007
 6972SOL     OW21814   5.706   4.020   1.965
 6972SOL    HW121815   5.617   4.058   1.992
 6972SOL    HW221816   5.708   3.922   1.986
 6973SOL     OW21817   1.244   1.422   3.249
 6973SOL    HW121818   1.311   1.494   3.231
 6973SOL    HW221819   1.286   1.332   3.231
 6974SOL     OW21820   4.158   3.344   3.061
 6974SOL    HW121821   4.230   3.324   3.128
 6974SOL    HW221822   4.069   3.322   3.099
 6975SOL     OW21823   3.163   5.253   4.771
 6975SOL    HW121824   3.195   5.166   4.808
 6975SOL    HW221825   3.210   5.328   4.818
 6976SOL     OW21826   4.852   5.049   6.147
 6976SOL    HW121827   4.816   5.138   6.179
 6976SOL    HW221828   4.952   5.049   6.156
 6977SOL     OW21829   4.088   4.745   2.291
 6977SOL    HW121830   4.027   4.693   2.231
 6977SOL    HW221831   4.168   4.690   2.313
 6978SOL     OW21832   1.242   3.781   1.295
 6978SOL    HW121833   1.201   3.869   1.318
 6978SOL    HW221834   1.179   3.707   1.320
 6979SOL     OW21835   1.354   4.055   2.849
 6979SOL    HW121836   1.345   3.991   2.925
 6979SOL    HW221837   1.315   4.144   2.874
 6980SOL     OW21838   2.122   4.645   3.162
 6980SOL    HW121839   2.203   4.590   3.143
 6980SOL    HW221840   2.147   4.742   3.167
 6981SOL     OW21841   4.121   2.271   6.698
 6981SOL    HW121842   4.202   2.235   6.744
 6981SOL    HW221843   4.149   2.319   6.614
 6982SOL     OW21844   6.375   6.949   1.810
 6982SOL    HW121845   6.310   7.008   1.761
 6982SOL    HW221846   6.468   6.983   1.795
 6983SOL     OW21847   6.939   0.524   4.024
 6983SOL    HW121848   6.955   0.622   4.013
 6983SOL    HW221849   6.903   0.506   4.116
 6984SOL     OW21850   1.969   4.212   3.440
 6984SOL    HW121851   2.055   4.192   3.392
 6984SOL    HW221852   1.921   4.127   3.460
 6985SOL     OW21853   5.396   3.543   0.951
 6985SOL    HW121854   5.386   3.447   0.975
 6985SOL    HW221855   5.398   3.552   0.851
 6986SOL     OW21856   3.640   5.852   5.001
 6986SOL    HW121857   3.608   5.801   4.921
 6986SOL    HW221858   3.733   5.823   5.024
 6987SOL     OW21859   6.866   1.278   6.909
 6987SOL    HW121860   6.811   1.234   6.980
 6987SOL    HW221861   6.809   1.342   6.857
 6988SOL     OW21862   1.841   0.390   6.056
 6988SOL    HW121863   1.848   0.458   5.982
 6988SOL    HW221864   1.925   0.337   6.061
 6989SOL     OW21865   0.827   3.474   2.100
 6989SOL    HW121866   0.757   3.406   2.121
 6989SOL    HW221867   0.815   3.505   2.006
 6990SOL     OW21868   3.818   4.548   6.792
 6990SOL    HW121869   3.911   4.531   6.760
 6990SOL    HW221870   3.809   4.516   6.886
 6991SOL     OW21871   5.023   4.306   3.232
 6991SOL    HW121872   4.961   4.364   3.284
 6991SOL    HW221873   5.104   4.359   3.205
 6992SOL     OW21874   1.842   5.310   5.968
 6992SOL    HW121875   1.756   5.311   6.019
 6992SOL    HW221876   1.839   5.383   5.899
 6993SOL     OW21877   4.362   2.214   1.451
 6993SOL    HW121878   4.305   2.140   1.413
 6993SOL    HW221879   4.316   2.301   1.437
 6994SOL     OW21880   2.684   0.958   2.807
 6994SOL    HW121881   2.713   1.016   2.884
 6994SOL    HW221882   2.693   1.009   2.722
 6995SOL     OW21883   6.847   5.060   0.730
 6995SOL    HW121884   6.920   4.997   0.703
 6995SOL    HW221885   6.769   5.048   0.669
 6996SOL     OW21886   0.616   1.789   6.334
 6996SOL    HW121887   0.521   1.797   6.304
 6996SOL    HW221888   0.664   1.726   6.273
 6997SOL     OW21889   5.960   5.888   5.877
 6997SOL    HW121890   5.957   5.801   5.927
 6997SOL    HW221891   5.903   5.956   5.924
 6998SOL     OW21892   0.571   1.053   6.955
 6998SOL    HW121893   0.476   1.041   6.924
 6998SOL    HW221894   0.632   1.011   6.888
 6999SOL     OW21895   0.369   2.864   0.172
 6999SOL    HW121896   0.361   2.839   0.269
 6999SOL    HW221897   0.284   2.842   0.125
 7000SOL     OW21898   0.671   4.664   3.242
 7000SOL    HW121899   0.578   4.646   3.212
 7000SOL    HW221900   0.687   4.762   3.246
 7001SOL     OW21901   0.811   1.431   4.573
 7001SOL    HW121902   0.722   1.471   4.555
 7001SOL    HW221903   0.826   1.354   4.511
 7002SOL     OW21904   1.272   4.462   2.748
 7002SOL    HW121905   1.193   4.502   2.702
 7002SOL    HW221906   1.242   4.407   2.825
 7003SOL     OW21907   0.536   5.337   6.200
 7003SOL    HW121908   0.612   5.382   6.152
 7003SOL    HW221909   0.573   5.269   6.264
 7004SOL     OW21910   1.228   0.985   6.762
 7004SOL    HW121911   1.321   1.002   6.794
 7004SOL    HW221912   1.171   0.951   6.837
 7005SOL     OW21913   1.899   5.283   0.048
 7005SOL    HW121914   1.938   5.237   6.991
 7005SOL    HW221915   1.961   5.273   0.126
 7006SOL     OW21916   0.733   0.391   3.784
 7006SOL    HW121917   0.671   0.441   3.723
 7006SOL    HW221918   0.679   0.342   3.853
 7007SOL     OW21919   2.083   0.131   6.608
 7007SOL    HW121920   2.006   0.118   6.671
 7007SOL    HW221921   2.060   0.202   6.541
 7008SOL     OW21922   5.438   3.083   2.201
 7008SOL    HW121923   5.426   3.061   2.104
 7008SOL    HW221924   5.494   3.012   2.244
 7009SOL     OW21925   5.210   5.667   2.592
 7009SOL    HW121926   5.136   5.723   2.555
 7009SOL    HW221927   5.178   5.620   2.674
 7010SOL     OW21928   5.080   3.218   2.457
 7010SOL    HW121929   5.123   3.175   2.378
 7010SOL    HW221930   5.022   3.293   2.426
 7011SOL     OW21931   2.080   6.065   6.433
 7011SOL    HW121932   2.147   6.119   6.383
 7011SOL    HW221933   1.995   6.059   6.380
 7012SOL     OW21934   0.012   4.171   0.503
 7012SOL    HW121935   6.998   4.256   0.542
 7012SOL    HW221936   0.080   4.193   0.433
 7013SOL     OW21937   2.912   2.549   6.977
 7013SOL    HW121938   2.866   2.571   0.041
 7013SOL    HW221939   3.008   2.528   6.995
 7014SOL     OW21940   6.681   3.355   0.537
 7014SOL    HW121941   6.758   3.308   0.581
 7014SOL    HW221942   6.617   3.386   0.607
 7015SOL     OW21943   5.722   6.252   1.555
 7015SOL    HW121944   5.804   6.214   1.597
 7015SOL    HW221945   5.747   6.322   1.488
 7016SOL     OW21946   3.495   5.262   0.803
 7016SOL    HW121947   3.402   5.229   0.822
 7016SOL    HW221948   3.535   5.298   0.887
 7017SOL     OW21949   6.121   4.481   6.344
 7017SOL    HW121950   6.114   4.475   6.443
 7017SOL    HW221951   6.209   4.445   6.314
 7018SOL     OW21952   5.935   3.002   4.578
 7018SOL    HW121953   5.846   2.970   4.544
 7018SOL    HW221954   5.932   3.102   4.589
 7019SOL     OW21955   3.334   5.667   2.238
 7019SOL    HW121956   3.408   5.699   2.180
 7019SOL    HW221957   3.368   5.595   2.299
 7020SOL     OW21958   6.823   1.348   0.777
 7020SOL    HW121959   6.730   1.362   0.743
 7020SOL    HW221960   6.839   1.408   0.856
 7021SOL     OW21961   0.627   2.479   4.643
 7021SOL    HW121962   0.717   2.438   4.651
 7021SOL    HW221963   0.563   2.433   4.705
 7022SOL     OW21964   2.000   3.917   0.726
 7022SOL    HW121965   1.998   3.975   0.644
 7022SOL    HW221966   1.934   3.952   0.793
 7023SOL     OW21967   6.846   1.961   1.444
 7023SOL    HW121968   6.837   2.029   1.517
 7023SOL    HW221969   6.860   2.008   1.357
 7024SOL     OW21970   3.897   4.060   5.741
 7024SOL    HW121971   3.891   4.016   5.830
 7024SOL    HW221972   3.873   4.156   5.750
 7025SOL     OW21973   2.758   0.856   1.069
 7025SOL    HW121974   2.807   0.869   0.982
 7025SOL    HW221975   2.775   0.763   1.102
 7026SOL     OW21976   2.581   2.372   1.427
 7026SOL    HW121977   2.658   2.436   1.423
 7026SOL    HW221978   2.593   2.301   1.358
 7027SOL     OW21979   2.864   4.560   0.864
 7027SOL    HW121980   2.831   4.588   0.773
 7027SOL    HW221981   2.786   4.526   0.918
 7028SOL     OW21982   3.347   0.439   2.852
 7028SOL    HW121983   3.439   0.477   2.851
 7028SOL    HW221984   3.285   0.503   2.899
 7029SOL     OW21985   3.372   4.018   3.769
 7029SOL    HW121986   3.459   4.062   3.789
 7029SOL    HW221987   3.388   3.928   3.730
 7030SOL     OW21988   6.249   6.505   4.945
 7030SOL    HW121989   6.347   6.520   4.933
 7030SOL    HW221990   6.234   6.430   5.009
 7031SOL     OW21991   5.700   5.487   0.311
 7031SOL    HW121992   5.612   5.532   0.325
 7031SOL    HW221993   5.768   5.525   0.373
 7032SOL     OW21994   3.958   4.903   4.046
 7032SOL    HW121995   4.044   4.853   4.053
 7032SOL    HW221996   3.896   4.873   4.119
 7033SOL     OW21997   2.235   1.918   5.438
 7033SOL    HW121998   2.160   1.909   5.503
 7033SOL    HW221999   2.322   1.924   5.488
 7034SOL     OW22000   6.769   2.293   2.103
 7034SOL    HW122001   6.826   2.347   2.040
 7034SOL    HW222002   6.673   2.303   2.075
 7035SOL     OW22003   2.827   2.290   1.070
 7035SOL    HW122004   2.876   2.351   1.134
 7035SOL    HW222005   2.879   2.284   0.985
 7036SOL     OW22006   6.790   1.813   1.937
 7036SOL    HW122007   6.884   1.846   1.949
 7036SOL    HW222008   6.760   1.767   2.021
 7037SOL     OW22009   0.905   0.970   6.207
 7037SOL    HW122010   0.966   1.023   6.266
 7037SOL    HW222011   0.844   0.914   6.263
 7038SOL     OW22012   0.624   4.475   0.192
 7038SOL    HW122013   0.615   4.523   0.104
 7038SOL    HW222014   0.577   4.528   0.263
 7039SOL     OW22015   6.874   0.144   1.546
 7039SOL    HW122016   6.786   0.167   1.587
 7039SOL    HW222017   6.882   0.044   1.539
 7040SOL     OW22018   4.767   3.029   4.703
 7040SOL    HW122019   4.715   2.960   4.754
 7040SOL    HW222020   4.822   3.082   4.767
 7041SOL     OW22021   0.824   0.035   3.577
 7041SOL    HW122022   0.917   0.069   3.588
 7041SOL    HW222023   0.779   0.082   3.501
 7042SOL     OW22024   5.560   5.631   5.306
 7042SOL    HW122025   5.527   5.670   5.220
 7042SOL    HW222026   5.659   5.620   5.302
 7043SOL     OW22027   1.997   5.862   0.261
 7043SOL    HW122028   2.023   5.944   0.311
 7043SOL    HW222029   2.028   5.781   0.309
 7044SOL     OW22030   4.067   6.220   4.783
 7044SOL    HW122031   4.017   6.183   4.861
 7044SOL    HW222032   4.164   6.225   4.806
 7045SOL     OW22033   5.302   6.480   1.862
 7045SOL    HW122034   5.280   6.462   1.958
 7045SOL    HW222035   5.323   6.577   1.850
 7046SOL     OW22036   2.733   1.108   2.599
 7046SOL    HW122037   2.772   1.062   2.519
 7046SOL    HW222038   2.755   1.205   2.595
 7047SOL     OW22039   1.754   0.171   0.743
 7047SOL    HW122040   1.772   0.073   0.733
 7047SOL    HW222041   1.813   0.222   0.680
 7048SOL     OW22042   0.536   5.729   4.118
 7048SOL    HW122043   0.548   5.663   4.044
 7048SOL    HW222044   0.536   5.821   4.081
 7049SOL     OW22045   3.223   1.319   4.768
 7049SOL    HW122046   3.179   1.291   4.683
 7049SOL    HW222047   3.154   1.337   4.838
 7050SOL     OW22048   4.181   4.568   0.738
 7050SOL    HW122049   4.088   4.581   0.703
 7050SOL    HW222050   4.177   4.540   0.833
 7051SOL     OW22051   1.801   1.113   1.841
 7051SOL    HW122052   1.770   1.190   1.897
 7051SOL    HW222053   1.780   1.132   1.745
 7052SOL     OW22054   4.918   2.484   2.772
 7052SOL    HW122055   4.831   2.533   2.770
 7052SOL    HW222056   4.979   2.521   2.703
 7053SOL     OW22057   0.979   4.386   3.579
 7053SOL    HW122058   0.894   4.371   3.630
 7053SOL    HW222059   1.018   4.298   3.553
 7054SOL     OW22060   5.426   0.159   0.460
 7054SOL    HW122061   5.351   0.096   0.445
 7054SOL    HW222062   5.430   0.225   0.385
 7055SOL     OW22063   1.922   0.375   0.033
 7055SOL    HW122064   1.919   0.422   6.968
 7055SOL    HW222065   1.873   0.288   0.025
 7056SOL     OW22066   6.893   5.566   1.034
 7056SOL    HW122067   6.974   5.514   1.007
 7056SOL    HW222068   6.828   5.569   0.957
 7057SOL     OW22069   3.094   5.539   4.661
 7057SOL    HW122070   3.123   5.444   4.671
 7057SOL    HW222071   3.000   5.549   4.692
 7058SOL     OW22072   5.860   2.270   6.001
 7058SOL    HW122073   5.919   2.230   5.931
 7058SOL    HW222074   5.808   2.346   5.962
 7059SOL     OW22075   1.286   1.013   4.750
 7059SOL    HW122076   1.231   1.060   4.682
 7059SOL    HW222077   1.380   1.048   4.747
 7060SOL     OW22078   2.914   2.240   1.710
 7060SOL    HW122079   3.006   2.208   1.688
 7060SOL    HW222080   2.918   2.305   1.785
 7061SOL     OW22081   1.874   0.650   1.025
 7061SOL    HW122082   1.929   0.606   1.096
 7061SOL    HW222083   1.892   0.605   0.937
 7062SOL     OW22084   3.420   0.920   5.063
 7062SOL    HW122085   3.424   0.861   5.143
 7062SOL    HW222086   3.488   0.993   5.071
 7063SOL     OW22087   0.392   1.172   1.489
 7063SOL    HW122088   0.325   1.102   1.511
 7063SOL    HW222089   0.367   1.258   1.533
 7064SOL     OW22090   3.037   1.407   5.233
 7064SOL    HW122091   2.947   1.366   5.249
 7064SOL    HW222092   3.032   1.506   5.250
 7065SOL     OW22093   3.332   6.901   4.244
 7065SOL    HW122094   3.232   6.907   4.243
 7065SOL    HW222095   3.365   6.911   4.338
 7066SOL     OW22096   3.793   0.682   0.984
 7066SOL    HW122097   3.811   0.759   1.045
 7066SOL    HW222098   3.857   0.608   1.004
 7067SOL     OW22099   2.662   4.174   6.406
 7067SOL    HW122100   2.572   4.145   6.373
 7067SOL    HW222101   2.656   4.264   6.449
 7068SOL     OW22102   4.847   4.681   2.699
 7068SOL    HW122103   4.908   4.739   2.753
 7068SOL    HW222104   4.790   4.738   2.640
 7069SOL     OW22105   4.317   1.111   4.991
 7069SOL    HW122106   4.232   1.132   4.942
 7069SOL    HW222107   4.385   1.075   4.927
 7070SOL     OW22108   6.879   1.117   5.682
 7070SOL    HW122109   6.837   1.151   5.598
 7070SOL    HW222110   6.979   1.119   5.672
 7071SOL     OW22111   4.521   5.616   6.605
 7071SOL    HW122112   4.429   5.581   6.625
 7071SOL    HW222113   4.531   5.708   6.644
 7072SOL     OW22114   1.208   3.831   6.433
 7072SOL    HW122115   1.231   3.734   6.421
 7072SOL    HW222116   1.237   3.860   6.525
 7073SOL     OW22117   4.036   1.174   4.277
 7073SOL    HW122118   4.003   1.186   4.183
 7073SOL    HW222119   4.035   1.262   4.324
 7074SOL     OW22120   5.806   3.498   2.253
 7074SOL    HW122121   5.883   3.457   2.300
 7074SOL    HW222122   5.748   3.547   2.319
 7075SOL     OW22123   2.041   4.936   2.619
 7075SOL    HW122124   2.115   4.875   2.649
 7075SOL    HW222125   2.016   4.914   2.525
 7076SOL     OW22126   6.428   2.601   0.780
 7076SOL    HW122127   6.355   2.600   0.713
 7076SOL    HW222128   6.397   2.648   0.863
 7077SOL     OW22129   3.681   5.860   1.705
 7077SOL    HW122130   3.622   5.792   1.660
 7077SOL    HW222131   3.650   5.952   1.680
 7078SOL     OW22132   0.059   2.038   6.877
 7078SOL    HW122133   0.147   2.000   6.848
 7078SOL    HW222134   0.060   2.054   6.976
 7079SOL     OW22135   2.873   5.495   5.770
 7079SOL    HW122136   2.821   5.417   5.805
 7079SOL    HW222137   2.827   5.580   5.796
 7080SOL     OW22138   3.985   1.762   6.466
 7080SOL    HW122139   4.058   1.733   6.403
 7080SOL    HW222140   3.919   1.819   6.417
 7081SOL     OW22141   2.654   6.086   0.129
 7081SOL    HW122142   2.748   6.103   0.100
 7081SOL    HW222143   2.636   6.138   0.213
 7082SOL     OW22144   1.624   4.912   2.473
 7082SOL    HW122145   1.534   4.870   2.469
 7082SOL    HW222146   1.615   5.011   2.474
 7083SOL     OW22147   5.518   3.234   2.810
 7083SOL    HW122148   5.453   3.302   2.775
 7083SOL    HW222149   5.587   3.215   2.740
 7084SOL     OW22150   1.295   5.573   0.170
 7084SOL    HW122151   1.291   5.474   0.183
 7084SOL    HW222152   1.244   5.598   0.088
 7085SOL     OW22153   0.000   3.636   2.223
 7085SOL    HW122154   7.011   3.736   2.222
 7085SOL    HW222155   0.027   3.605   2.132
 7086SOL     OW22156   4.243   0.980   3.767
 7086SOL    HW122157   4.293   0.899   3.799
 7086SOL    HW222158   4.273   1.003   3.675
 7087SOL     OW22159   5.595   2.851   3.336
 7087SOL    HW122160   5.521   2.790   3.365
 7087SOL    HW222161   5.562   2.945   3.332
 7088SOL     OW22162   5.957   1.942   5.510
 7088SOL    HW122163   5.950   1.982   5.419
 7088SOL    HW222164   5.897   1.861   5.515
 7089SOL     OW22165   2.904   5.961   1.033
 7089SOL    HW122166   2.980   5.939   1.094
 7089SOL    HW222167   2.875   6.056   1.050
 7090SOL     OW22168   5.135   3.769   1.401
 7090SOL    HW122169   5.162   3.721   1.318
 7090SOL    HW222170   5.143   3.707   1.479
 7091SOL     OW22171   6.004   0.329   6.997
 7091SOL    HW122172   5.906   0.346   6.984
 7091SOL    HW222173   6.019   0.296   0.068
 7092SOL     OW22174   4.194   6.509   6.348
 7092SOL    HW122175   4.112   6.560   6.376
 7092SOL    HW222176   4.243   6.560   6.277
 7093SOL     OW22177   4.188   3.035   0.650
 7093SOL    HW122178   4.141   2.994   0.728
 7093SOL    HW222179   4.120   3.065   0.583
 7094SOL     OW22180   4.539   0.736   4.897
 7094SOL    HW122181   4.498   0.803   4.959
 7094SOL    HW222182   4.624   0.773   4.860
 7095SOL     OW22183   2.348   4.623   3.728
 7095SOL    HW122184   2.436   4.658   3.760
 7095SOL    HW222185   2.279   4.696   3.734
 7096SOL     OW22186   6.798   5.651   0.018
 7096SOL    HW122187   6.761   5.689   0.103
 7096SOL    HW222188   6.888   5.613   0.035
 7097SOL     OW22189   4.967   2.004   2.836
 7097SOL    HW122190   4.936   1.910   2.822
 7097SOL    HW222191   4.895   2.057   2.880
 7098SOL     OW22192   0.819   1.283   2.770
 7098SOL    HW122193   0.807   1.285   2.869
 7098SOL    HW222194   0.768   1.206   2.731
 7099SOL     OW22195   3.417   1.917   4.882
 7099SOL    HW122196   3.435   1.865   4.966
 7099SOL    HW222197   3.339   1.876   4.834
 7100SOL     OW22198   0.362   4.264   1.548
 7100SOL    HW122199   0.413   4.334   1.499
 7100SOL    HW222200   0.278   4.243   1.499
 7101SOL     OW22201   3.324   5.920   4.383
 7101SOL    HW122202   3.341   5.862   4.463
 7101SOL    HW222203   3.251   5.984   4.403
 7102SOL     OW22204   5.629   1.350   2.789
 7102SOL    HW122205   5.587   1.300   2.714
 7102SOL    HW222206   5.722   1.317   2.803
 7103SOL     OW22207   6.781   3.638   4.556
 7103SOL    HW122208   6.848   3.710   4.536
 7103SOL    HW222209   6.696   3.680   4.588
 7104SOL     OW22210   4.502   2.481   4.049
 7104SOL    HW122211   4.409   2.449   4.030
 7104SOL    HW222212   4.553   2.486   3.963
 7105SOL     OW22213   3.214   3.821   2.321
 7105SOL    HW122214   3.198   3.863   2.231
 7105SOL    HW222215   3.194   3.888   2.393
 7106SOL     OW22216   2.879   2.010   2.508
 7106SOL    HW122217   2.872   2.093   2.453
 7106SOL    HW222218   2.843   1.932   2.456
 7107SOL     OW22219   4.247   0.388   0.565
 7107SOL    HW122220   4.278   0.357   0.655
 7107SOL    HW222221   4.149   0.371   0.555
 7108SOL     OW22222   3.034   6.867   1.784
 7108SOL    HW122223   2.975   6.943   1.761
 7108SOL    HW222224   2.979   6.785   1.801
 7109SOL     OW22225   2.390   4.887   5.794
 7109SOL    HW122226   2.471   4.830   5.779
 7109SOL    HW222227   2.329   4.842   5.859
 7110SOL     OW22228   2.846   5.713   5.499
 7110SOL    HW122229   2.780   5.689   5.570
 7110SOL    HW222230   2.797   5.749   5.419
 7111SOL     OW22231   6.257   1.478   4.776
 7111SOL    HW122232   6.204   1.433   4.705
 7111SOL    HW222233   6.345   1.508   4.738
 7112SOL     OW22234   6.461   5.189   4.860
 7112SOL    HW122235   6.543   5.137   4.886
 7112SOL    HW222236   6.440   5.172   4.764
 7113SOL     OW22237   3.301   0.102   4.962
 7113SOL    HW122238   3.317   0.052   4.877
 7113SOL    HW222239   3.383   0.100   5.018
 7114SOL     OW22240   5.612   4.271   0.145
 7114SOL    HW122241   5.574   4.245   0.234
 7114SOL    HW222242   5.675   4.348   0.157
 7115SOL     OW22243   5.120   2.711   5.809
 7115SOL    HW122244   5.122   2.748   5.902
 7115SOL    HW222245   5.178   2.766   5.750
 7116SOL     OW22246   6.154   5.180   4.518
 7116SOL    HW122247   6.250   5.156   4.534
 7116SOL    HW222248   6.130   5.259   4.573
 7117SOL     OW22249   3.662   0.286   2.813
 7117SOL    HW122250   3.671   0.191   2.785
 7117SOL    HW222251   3.569   0.303   2.845
 7118SOL     OW22252   4.730   4.294   5.615
 7118SOL    HW122253   4.704   4.217   5.672
 7118SOL    HW222254   4.674   4.294   5.531
 7119SOL     OW22255   2.623   6.572   4.448
 7119SOL    HW122256   2.669   6.657   4.423
 7119SOL    HW222257   2.562   6.589   4.526
 7120SOL     OW22258   4.625   1.532   2.082
 7120SOL    HW122259   4.598   1.528   1.986
 7120SOL    HW222260   4.549   1.567   2.137
 7121SOL     OW22261   1.240   6.023   2.058
 7121SOL    HW122262   1.291   6.001   2.141
 7121SOL    HW222263   1.253   5.951   1.991
 7122SOL     OW22264   3.051   2.055   6.403
 7122SOL    HW122265   3.048   1.976   6.463
 7122SOL    HW222266   3.056   2.139   6.458
 7123SOL     OW22267   5.366   4.609   6.733
 7123SOL    HW122268   5.270   4.635   6.742
 7123SOL    HW222269   5.373   4.513   6.704
 7124SOL     OW22270   3.036   2.801   6.414
 7124SOL    HW122271   3.090   2.871   6.461
 7124SOL    HW222272   3.092   2.759   6.343
 7125SOL     OW22273   1.324   6.269   1.414
 7125SOL    HW122274   1.409   6.243   1.458
 7125SOL    HW222275   1.247   6.234   1.467
 7126SOL     OW22276   3.995   4.821   0.941
 7126SOL    HW122277   3.982   4.729   0.905
 7126SOL    HW222278   3.912   4.875   0.926
 7127SOL     OW22279   2.998   6.990   4.956
 7127SOL    HW122280   3.081   0.021   4.942
 7127SOL    HW222281   2.959   7.011   5.045
 7128SOL     OW22282   3.838   4.051   0.306
 7128SOL    HW122283   3.798   4.117   0.242
 7128SOL    HW222284   3.768   3.985   0.334
 7129SOL     OW22285   0.046   2.052   0.147
 7129SOL    HW122286   0.036   1.960   0.185
 7129SOL    HW222287   6.990   2.107   0.174
 7130SOL     OW22288   3.650   0.312   4.139
 7130SOL    HW122289   3.559   0.278   4.160
 7130SOL    HW222290   3.673   0.388   4.200
 7131SOL     OW22291   2.106   2.025   3.076
 7131SOL    HW122292   2.116   2.110   3.024
 7131SOL    HW222293   2.073   2.046   3.168
 7132SOL     OW22294   5.657   4.779   2.053
 7132SOL    HW122295   5.727   4.709   2.060
 7132SOL    HW222296   5.570   4.737   2.028
 7133SOL     OW22297   3.155   5.831   2.601
 7133SOL    HW122298   3.062   5.868   2.595
 7133SOL    HW222299   3.221   5.906   2.611
 7134SOL     OW22300   5.317   5.292   6.366
 7134SOL    HW122301   5.339   5.279   6.463
 7134SOL    HW222302   5.401   5.312   6.316
 7135SOL     OW22303   2.202   4.676   0.814
 7135SOL    HW122304   2.292   4.672   0.771
 7135SOL    HW222305   2.167   4.770   0.808
 7136SOL     OW22306   1.434   2.804   2.661
 7136SOL    HW122307   1.465   2.833   2.571
 7136SOL    HW222308   1.405   2.884   2.714
 7137SOL     OW22309   1.767   0.005   2.243
 7137SOL    HW122310   1.709   6.994   2.168
 7137SOL    HW222311   1.775   6.956   2.312
 7138SOL     OW22312   6.605   3.929   0.452
 7138SOL    HW122313   6.591   3.830   0.452
 7138SOL    HW222314   6.700   3.949   0.427
 7139SOL     OW22315   5.594   6.015   0.996
 7139SOL    HW122316   5.691   6.035   0.984
 7139SOL    HW222317   5.574   5.925   0.957
 7140SOL     OW22318   6.914   4.721   0.299
 7140SOL    HW122319   6.975   4.761   0.367
 7140SOL    HW222320   6.917   4.621   0.307
 7141SOL     OW22321   3.004   1.936   0.794
 7141SOL    HW122322   3.010   1.914   0.697
 7141SOL    HW222323   2.921   1.895   0.832
 7142SOL     OW22324   4.628   6.763   5.619
 7142SOL    HW122325   4.679   6.769   5.705
 7142SOL    HW222326   4.691   6.767   5.542
 7143SOL     OW22327   3.295   2.957   5.758
 7143SOL    HW122328   3.346   2.998   5.683
 7143SOL    HW222329   3.278   2.860   5.738
 7144SOL     OW22330   6.129   1.494   5.633
 7144SOL    HW122331   6.116   1.507   5.535
 7144SOL    HW222332   6.055   1.438   5.670
 7145SOL     OW22333   0.283   3.189   0.059
 7145SOL    HW122334   0.270   3.274   0.110
 7145SOL    HW222335   0.200   3.134   0.063
 7146SOL     OW22336   6.784   1.753   4.389
 7146SOL    HW122337   6.761   1.844   4.421
 7146SOL    HW222338   6.790   1.753   4.289
 7147SOL     OW22339   6.781   6.924   0.486
 7147SOL    HW122340   6.807   6.841   0.536
 7147SOL    HW222341   6.776   6.904   0.388
 7148SOL     OW22342   5.449   6.466   1.027
 7148SOL    HW122343   5.445   6.566   1.030
 7148SOL    HW222344   5.479   6.432   1.116
 7149SOL     OW22345   6.633   3.891   6.750
 7149SOL    HW122346   6.668   3.809   6.795
 7149SOL    HW222347   6.707   3.957   6.737
 7150SOL     OW22348   2.959   2.243   0.170
 7150SOL    HW122349   3.014   2.206   0.095
 7150SOL    HW222350   2.863   2.222   0.155
 7151SOL     OW22351   5.426   2.368   6.748
 7151SOL    HW122352   5.342   2.361   6.695
 7151SOL    HW222353   5.504   2.339   6.692
 7152SOL     OW22354   5.414   0.187   5.137
 7152SOL    HW122355   5.477   0.219   5.209
 7152SOL    HW222356   5.431   0.091   5.118
 7153SOL     OW22357   5.405   5.725   0.531
 7153SOL    HW122358   5.359   5.659   0.471
 7153SOL    HW222359   5.351   5.737   0.614
 7154SOL     OW22360   4.943   0.212   2.086
 7154SOL    HW122361   4.942   0.175   1.993
 7154SOL    HW222362   4.899   0.148   2.148
 7155SOL     OW22363   1.722   0.253   1.338
 7155SOL    HW122364   1.752   0.292   1.425
 7155SOL    HW222365   1.801   0.244   1.277
 7156SOL     OW22366   6.361   3.117   5.351
 7156SOL    HW122367   6.327   3.034   5.397
 7156SOL    HW222368   6.404   3.092   5.264
 7157SOL     OW22369   0.151   3.422   5.396
 7157SOL    HW122370   0.057   3.422   5.364
 7157SOL    HW222371   0.201   3.498   5.355
 7158SOL     OW22372   5.058   7.021   4.396
 7158SOL    HW122373   5.003   6.973   4.327
 7158SOL    HW222374   5.150   6.983   4.397
 7159SOL     OW22375   0.370   6.570   3.345
 7159SOL    HW122376   0.349   6.506   3.271
 7159SOL    HW222377   0.302   6.561   3.418
 7160SOL     OW22378   5.599   6.520   2.632
 7160SOL    HW122379   5.696   6.501   2.622
 7160SOL    HW222380   5.574   6.600   2.578
 7161SOL     OW22381   3.813   3.175   2.010
 7161SOL    HW122382   3.775   3.244   1.949
 7161SOL    HW222383   3.797   3.084   1.971
 7162SOL     OW22384   0.874   6.084   0.696
 7162SOL    HW122385   0.808   6.144   0.741
 7162SOL    HW222386   0.849   6.074   0.600
 7163SOL     OW22387   6.935   6.267   0.346
 7163SOL    HW122388   6.883   6.323   0.410
 7163SOL    HW222389   0.003   6.308   0.333
 7164SOL     OW22390   1.067   6.404   6.996
 7164SOL    HW122391   1.147   6.366   6.949
 7164SOL    HW222392   0.985   6.388   6.940
 7165SOL     OW22393   4.111   2.405   6.210
 7165SOL    HW122394   4.164   2.489   6.220
 7165SOL    HW222395   4.020   2.419   6.249
 7166SOL     OW22396   6.764   6.230   4.769
 7166SOL    HW122397   6.805   6.148   4.728
 7166SOL    HW222398   6.836   6.285   4.811
 7167SOL     OW22399   0.955   3.443   5.081
 7167SOL    HW122400   0.876   3.405   5.130
 7167SOL    HW222401   0.925   3.479   4.992
 7168SOL     OW22402   0.903   6.851   2.690
 7168SOL    HW122403   0.896   6.770   2.748
 7168SOL    HW222404   0.913   6.823   2.595
 7169SOL     OW22405   1.432   5.000   5.726
 7169SOL    HW122406   1.412   4.973   5.821
 7169SOL    HW222407   1.481   4.925   5.680
 7170SOL     OW22408   4.267   1.913   1.808
 7170SOL    HW122409   4.234   1.920   1.714
 7170SOL    HW222410   4.264   2.003   1.851
 7171SOL     OW22411   0.635   5.243   1.698
 7171SOL    HW122412   0.705   5.173   1.691
 7171SOL    HW222413   0.601   5.267   1.607
 7172SOL     OW22414   1.414   2.628   3.635
 7172SOL    HW122415   1.412   2.590   3.728
 7172SOL    HW222416   1.321   2.645   3.604
 7173SOL     OW22417   3.523   5.511   4.376
 7173SOL    HW122418   3.504   5.421   4.416
 7173SOL    HW222419   3.479   5.582   4.431
 7174SOL     OW22420   6.772   3.547   2.269
 7174SOL    HW122421   6.778   3.548   2.369
 7174SOL    HW222422   6.844   3.605   2.231
 7175SOL     OW22423   6.097   3.066   6.266
 7175SOL    HW122424   6.139   3.020   6.188
 7175SOL    HW222425   6.135   3.158   6.274
 7176SOL     OW22426   6.467   1.835   6.536
 7176SOL    HW122427   6.476   1.750   6.484
 7176SOL    HW222428   6.466   1.814   6.634
 7177SOL     OW22429   0.972   5.915   3.790
 7177SOL    HW122430   0.988   5.983   3.862
 7177SOL    HW222431   1.047   5.920   3.723
 7178SOL     OW22432   1.273   6.477   5.671
 7178SOL    HW122433   1.249   6.546   5.602
 7178SOL    HW222434   1.214   6.489   5.751
 7179SOL     OW22435   4.916   4.189   5.959
 7179SOL    HW122436   4.820   4.196   5.933
 7179SOL    HW222437   4.967   4.144   5.886
 7180SOL     OW22438   0.253   2.699   2.109
 7180SOL    HW122439   0.227   2.636   2.183
 7180SOL    HW222440   0.262   2.791   2.146
 7181SOL     OW22441   3.469   0.251   0.012
 7181SOL    HW122442   3.512   0.198   0.086
 7181SOL    HW222443   3.532   0.323   7.005
 7182SOL     OW22444   2.146   1.251   2.618
 7182SOL    HW122445   2.216   1.321   2.604
 7182SOL    HW222446   2.140   1.193   2.537
 7183SOL     OW22447   1.924   0.180   0.961
 7183SOL    HW122448   1.863   0.180   0.881
 7183SOL    HW222449   1.870   0.171   1.044
 7184SOL     OW22450   6.998   1.385   3.128
 7184SOL    HW122451   6.957   1.465   3.173
 7184SOL    HW222452   6.943   1.304   3.148
 7185SOL     OW22453   3.807   0.170   3.655
 7185SOL    HW122454   3.759   0.201   3.737
 7185SOL    HW222455   3.880   0.235   3.634
 7186SOL     OW22456   6.395   2.101   6.422
 7186SOL    HW122457   6.393   2.006   6.452
 7186SOL    HW222458   6.468   2.149   6.472
 7187SOL     OW22459   3.729   3.707   4.148
 7187SOL    HW122460   3.786   3.648   4.205
 7187SOL    HW222461   3.663   3.651   4.097
 7188SOL     OW22462   5.162   4.819   0.050
 7188SOL    HW122463   5.066   4.815   0.077
 7188SOL    HW222464   5.199   4.727   0.043
 7189SOL     OW22465   6.941   2.054   6.002
 7189SOL    HW122466   6.998   2.135   5.985
 7189SOL    HW222467   6.873   2.046   5.929
 7190SOL     OW22468   5.567   5.799   0.809
 7190SOL    HW122469   5.636   5.820   0.739
 7190SOL    HW222470   5.577   5.703   0.837
 7191SOL     OW22471   0.319   4.880   2.978
 7191SOL    HW122472   0.235   4.934   2.976
 7191SOL    HW222473   0.297   4.784   2.959
 7192SOL     OW22474   3.667   3.833   5.784
 7192SOL    HW122475   3.731   3.886   5.840
 7192SOL    HW222476   3.707   3.815   5.695
 7193SOL     OW22477   3.813   1.214   3.710
 7193SOL    HW122478   3.863   1.128   3.699
 7193SOL    HW222479   3.757   1.210   3.792
 7194SOL     OW22480   3.371   2.329   5.412
 7194SOL    HW122481   3.468   2.317   5.390
 7194SOL    HW222482   3.318   2.259   5.365
 7195SOL     OW22483   0.380   4.333   5.376
 7195SOL    HW122484   0.325   4.370   5.451
 7195SOL    HW222485   0.351   4.376   5.290
 7196SOL     OW22486   3.156   4.153   1.845
 7196SOL    HW122487   3.231   4.148   1.779
 7196SOL    HW222488   3.184   4.112   1.931
 7197SOL     OW22489   3.536   4.512   6.154
 7197SOL    HW122490   3.538   4.512   6.254
 7197SOL    HW222491   3.516   4.419   6.122
 7198SOL     OW22492   1.057   0.139   2.481
 7198SOL    HW122493   0.973   0.096   2.449
 7198SOL    HW222494   1.123   0.144   2.406
 7199SOL     OW22495   6.106   1.020   3.231
 7199SOL    HW122496   6.145   1.009   3.139
 7199SOL    HW222497   6.011   1.048   3.224
 7200SOL     OW22498   0.815   3.985   6.343
 7200SOL    HW122499   0.836   3.910   6.281
 7200SOL    HW222500   0.724   4.021   6.323
 7201SOL     OW22501   5.559   5.838   4.470
 7201SOL    HW122502   5.497   5.782   4.415
 7201SOL    HW222503   5.514   5.925   4.491
 7202SOL     OW22504   4.860   0.576   5.737
 7202SOL    HW122505   4.864   0.527   5.824
 7202SOL    HW222506   4.855   0.674   5.755
 7203SOL     OW22507   1.089   1.517   0.701
 7203SOL    HW122508   1.003   1.523   0.651
 7203SOL    HW222509   1.165   1.524   0.637
 7204SOL     OW22510   5.636   0.923   3.013
 7204SOL    HW122511   5.622   1.022   3.022
 7204SOL    HW222512   5.614   0.894   2.920
 7205SOL     OW22513   2.899   1.650   4.103
 7205SOL    HW122514   2.817   1.617   4.055
 7205SOL    HW222515   2.952   1.572   4.136
 7206SOL     OW22516   2.361   2.586   6.570
 7206SOL    HW122517   2.409   2.664   6.531
 7206SOL    HW222518   2.263   2.594   6.551
 7207SOL     OW22519   1.942   2.259   3.059
 7207SOL    HW122520   1.949   2.270   3.158
 7207SOL    HW222521   1.850   2.226   3.036
 7208SOL     OW22522   3.180   0.113   3.669
 7208SOL    HW122523   3.146   0.188   3.726
 7208SOL    HW222524   3.280   0.119   3.663
 7209SOL     OW22525   4.592   1.161   1.872
 7209SOL    HW122526   4.500   1.123   1.884
 7209SOL    HW222527   4.630   1.184   1.961
 7210SOL     OW22528   3.445   1.185   4.838
 7210SOL    HW122529   3.446   1.086   4.832
 7210SOL    HW222530   3.358   1.220   4.802
 7211SOL     OW22531   4.666   6.028   6.124
 7211SOL    HW122532   4.684   6.022   6.222
 7211SOL    HW222533   4.630   6.119   6.102
 7212SOL     OW22534   0.512   5.982   4.006
 7212SOL    HW122535   0.519   6.038   4.088
 7212SOL    HW222536   0.439   6.018   3.947
 7213SOL     OW22537   4.889   2.629   6.916
 7213SOL    HW122538   4.792   2.653   6.908
 7213SOL    HW222539   4.945   2.702   6.878
 7214SOL     OW22540   6.762   1.146   5.921
 7214SOL    HW122541   6.820   1.137   5.840
 7214SOL    HW222542   6.758   1.058   5.968
 7215SOL     OW22543   6.486   1.387   2.472
 7215SOL    HW122544   6.397   1.364   2.434
 7215SOL    HW222545   6.475   1.452   2.548
 7216SOL     OW22546   5.657   6.343   4.111
 7216SOL    HW122547   5.609   6.270   4.160
 7216SOL    HW222548   5.750   6.350   4.145
 7217SOL     OW22549   1.110   3.417   3.390
 7217SOL    HW122550   1.147   3.333   3.349
 7217SOL    HW222551   1.061   3.394   3.473
 7218SOL     OW22552   6.762   2.958   5.316
 7218SOL    HW122553   6.813   2.872   5.304
 7218SOL    HW222554   6.719   2.959   5.406
 7219SOL     OW22555   3.360   5.501   1.295
 7219SOL    HW122556   3.400   5.478   1.384
 7219SOL    HW222557   3.261   5.508   1.304
 7220SOL     OW22558   0.009   3.485   3.900
 7220SOL    HW122559   6.988   3.482   3.990
 7220SOL    HW222560   7.019   3.397   3.855
 7221SOL     OW22561   4.644   4.750   3.639
 7221SOL    HW122562   4.621   4.768   3.543
 7221SOL    HW222563   4.598   4.817   3.697
 7222SOL     OW22564   6.485   5.925   3.817
 7222SOL    HW122565   6.472   5.984   3.738
 7222SOL    HW222566   6.397   5.905   3.859
 7223SOL     OW22567   6.604   5.627   1.641
 7223SOL    HW122568   6.643   5.710   1.601
 7223SOL    HW222569   6.522   5.651   1.694
 7224SOL     OW22570   5.433   2.725   2.462
 7224SOL    HW122571   5.391   2.668   2.533
 7224SOL    HW222572   5.434   2.675   2.376
 7225SOL     OW22573   0.888   5.750   0.441
 7225SOL    HW122574   0.860   5.708   0.355
 7225SOL    HW222575   0.980   5.719   0.466
 7226SOL     OW22576   6.301   6.495   0.313
 7226SOL    HW122577   6.329   6.473   0.407
 7226SOL    HW222578   6.341   6.428   0.250
 7227SOL     OW22579   1.881   0.940   2.028
 7227SOL    HW122580   1.916   0.988   2.108
 7227SOL    HW222581   1.858   1.006   1.957
 7228SOL     OW22582   6.103   3.267   3.114
 7228SOL    HW122583   6.065   3.216   3.037
 7228SOL    HW222584   6.030   3.321   3.156
 7229SOL     OW22585   6.400   0.387   5.136
 7229SOL    HW122586   6.360   0.347   5.220
 7229SOL    HW222587   6.498   0.398   5.148
 7230SOL     OW22588   2.075   4.730   5.050
 7230SOL    HW122589   2.118   4.641   5.066
 7230SOL    HW222590   2.134   4.802   5.087
 7231SOL     OW22591   3.787   3.344   6.504
 7231SOL    HW122592   3.729   3.390   6.572
 7231SOL    HW222593   3.864   3.301   6.551
 7232SOL     OW22594   4.442   6.153   3.303
 7232SOL    HW122595   4.454   6.057   3.326
 7232SOL    HW222596   4.465   6.209   3.382
 7233SOL     OW22597   0.343   1.898   6.245
 7233SOL    HW122598   0.395   1.972   6.201
 7233SOL    HW222599   0.310   1.835   6.175
 7234SOL     OW22600   5.795   4.902   2.984
 7234SOL    HW122601   5.829   4.924   2.892
 7234SOL    HW222602   5.865   4.923   3.052
 7235SOL     OW22603   6.696   0.268   1.089
 7235SOL    HW122604   6.728   0.359   1.064
 7235SOL    HW222605   6.601   0.274   1.121
 7236SOL     OW22606   0.553   3.779   2.747
 7236SOL    HW122607   0.509   3.741   2.829
 7236SOL    HW222608   0.609   3.708   2.704
 7237SOL     OW22609   5.207   1.142   0.187
 7237SOL    HW122610   5.126   1.115   0.239
 7237SOL    HW222611   5.289   1.132   0.243
 7238SOL     OW22612   4.435   3.162   0.226
 7238SOL    HW122613   4.384   3.231   0.277
 7238SOL    HW222614   4.471   3.203   0.142
 7239SOL     OW22615   5.560   3.108   1.641
 7239SOL    HW122616   5.609   3.162   1.572
 7239SOL    HW222617   5.626   3.054   1.693
 7240SOL     OW22618   0.112   1.921   0.468
 7240SOL    HW122619   0.071   1.864   0.397
 7240SOL    HW222620   0.201   1.955   0.437
 7241SOL     OW22621   2.010   0.545   2.685
 7241SOL    HW122622   1.991   0.484   2.762
 7241SOL    HW222623   1.936   0.611   2.674
 7242SOL     OW22624   6.230   3.841   5.747
 7242SOL    HW122625   6.142   3.806   5.781
 7242SOL    HW222626   6.293   3.765   5.735
 7243SOL     OW22627   5.960   4.717   5.834
 7243SOL    HW122628   5.863   4.717   5.812
 7243SOL    HW222629   5.978   4.655   5.909
 7244SOL     OW22630   6.948   6.232   6.609
 7244SOL    HW122631   6.922   6.170   6.683
 7244SOL    HW222632   6.868   6.252   6.553
 7245SOL     OW22633   1.682   2.294   6.930
 7245SOL    HW122634   1.777   2.288   6.959
 7245SOL    HW222635   1.672   2.253   6.839
 7246SOL     OW22636   4.342   6.556   4.299
 7246SOL    HW122637   4.435   6.520   4.309
 7246SOL    HW222638   4.290   6.536   4.381
 7247SOL     OW22639   3.090   3.973   4.981
 7247SOL    HW122640   3.077   4.048   5.047
 7247SOL    HW222641   3.114   3.890   5.030
 7248SOL     OW22642   2.270   1.622   5.093
 7248SOL    HW122643   2.221   1.684   5.032
 7248SOL    HW222644   2.301   1.672   5.173
 7249SOL     OW22645   2.872   5.764   2.545
 7249SOL    HW122646   2.910   5.855   2.527
 7249SOL    HW222647   2.774   5.772   2.563
 7250SOL     OW22648   4.870   5.755   5.537
 7250SOL    HW122649   4.806   5.812   5.484
 7250SOL    HW222650   4.960   5.758   5.494
 7251SOL     OW22651   0.890   6.053   4.036
 7251SOL    HW122652   0.804   6.078   4.080
 7251SOL    HW222653   0.944   5.997   4.099
 7252SOL     OW22654   4.057   3.741   2.058
 7252SOL    HW122655   4.095   3.648   2.061
 7252SOL    HW222656   3.965   3.740   2.097
 7253SOL     OW22657   1.838   5.290   5.173
 7253SOL    HW122658   1.814   5.385   5.191
 7253SOL    HW222659   1.911   5.261   5.235
 7254SOL     OW22660   6.870   3.391   4.134
 7254SOL    HW122661   6.830   3.430   4.217
 7254SOL    HW222662   6.815   3.313   4.104
 7255SOL     OW22663   4.530   3.895   0.388
 7255SOL    HW122664   4.457   3.864   0.450
 7255SOL    HW222665   4.610   3.837   0.400
 7256SOL     OW22666   3.069   6.888   4.255
 7256SOL    HW122667   3.036   6.875   4.349
 7256SOL    HW222668   3.022   6.824   4.194
 7257SOL     OW22669   0.521   1.172   5.326
 7257SOL    HW122670   0.603   1.223   5.352
 7257SOL    HW222671   0.497   1.109   5.400
 7258SOL     OW22672   6.257   2.590   2.661
 7258SOL    HW122673   6.303   2.602   2.749
 7258SOL    HW222674   6.301   2.649   2.593
 7259SOL     OW22675   1.030   4.059   2.438
 7259SOL    HW122676   1.069   4.132   2.382
 7259SOL    HW222677   1.094   3.982   2.443
 7260SOL     OW22678   6.138   3.025   1.150
 7260SOL    HW122679   6.079   3.049   1.227
 7260SOL    HW222680   6.227   2.994   1.185
 7261SOL     OW22681   0.123   4.080   0.024
 7261SOL    HW122682   0.179   4.044   0.098
 7261SOL    HW222683   0.104   4.007   6.981
 7262SOL     OW22684   3.719   0.439   5.023
 7262SOL    HW122685   3.623   0.423   5.000
 7262SOL    HW222686   3.726   0.521   5.080
 7263SOL     OW22687   6.081   5.632   5.037
 7263SOL    HW122688   6.126   5.715   5.069
 7263SOL    HW222689   6.123   5.601   4.952
 7264SOL     OW22690   5.413   1.171   1.572
 7264SOL    HW122691   5.335   1.138   1.626
 7264SOL    HW222692   5.421   1.270   1.581
 7265SOL     OW22693   3.779   0.151   5.632
 7265SOL    HW122694   3.753   0.210   5.708
 7265SOL    HW222695   3.787   0.056   5.665
 7266SOL     OW22696   6.688   0.869   3.143
 7266SOL    HW122697   6.777   0.827   3.157
 7266SOL    HW222698   6.628   0.849   3.221
 7267SOL     OW22699   6.917   3.851   5.288
 7267SOL    HW122700   6.867   3.851   5.374
 7267SOL    HW222701   6.899   3.936   5.239
 7268SOL     OW22702   5.553   5.847   3.963
 7268SOL    HW122703   5.625   5.858   4.032
 7268SOL    HW222704   5.496   5.768   3.987
 7269SOL     OW22705   2.891   5.368   4.157
 7269SOL    HW122706   2.957   5.399   4.089
 7269SOL    HW222707   2.799   5.372   4.119
 7270SOL     OW22708   0.358   0.561   4.643
 7270SOL    HW122709   0.432   0.558   4.710
 7270SOL    HW222710   0.272   0.581   4.689
 7271SOL     OW22711   0.824   4.604   3.003
 7271SOL    HW122712   0.764   4.632   3.078
 7271SOL    HW222713   0.787   4.639   2.916
 7272SOL     OW22714   6.102   4.341   1.496
 7272SOL    HW122715   6.086   4.337   1.595
 7272SOL    HW222716   6.015   4.332   1.448
 7273SOL     OW22717   0.098   1.392   4.959
 7273SOL    HW122718   0.115   1.364   5.053
 7273SOL    HW222719   0.170   1.355   4.900
 7274SOL     OW22720   0.338   5.546   6.107
 7274SOL    HW122721   0.377   5.621   6.052
 7274SOL    HW222722   0.407   5.475   6.119
 7275SOL     OW22723   0.948   4.913   3.061
 7275SOL    HW122724   0.945   5.000   3.012
 7275SOL    HW222725   0.884   4.916   3.138
 7276SOL     OW22726   5.203   6.257   3.555
 7276SOL    HW122727   5.237   6.349   3.536
 7276SOL    HW222728   5.131   6.262   3.623
 7277SOL     OW22729   5.156   0.782   0.481
 7277SOL    HW122730   5.159   0.690   0.518
 7277SOL    HW222731   5.245   0.806   0.441
 7278SOL     OW22732   3.716   2.970   2.421
 7278SOL    HW122733   3.805   3.001   2.454
 7278SOL    HW222734   3.727   2.922   2.334
 7279SOL     OW22735   3.533   6.553   5.987
 7279SOL    HW122736   3.603   6.484   6.004
 7279SOL    HW222737   3.458   6.513   5.934
 7280SOL     OW22738   4.651   1.104   6.160
 7280SOL    HW122739   4.666   1.177   6.093
 7280SOL    HW222740   4.553   1.090   6.172
 7281SOL     OW22741   5.582   1.124   6.050
 7281SOL    HW122742   5.661   1.067   6.074
 7281SOL    HW222743   5.507   1.065   6.019
 7282SOL     OW22744   5.960   5.902   2.597
 7282SOL    HW122745   5.883   5.894   2.660
 7282SOL    HW222746   6.036   5.846   2.630
 7283SOL     OW22747   1.948   1.639   3.820
 7283SOL    HW122748   2.032   1.617   3.770
 7283SOL    HW222749   1.878   1.669   3.755
 7284SOL     OW22750   1.321   1.665   4.934
 7284SOL    HW122751   1.390   1.662   5.007
 7284SOL    HW222752   1.275   1.576   4.929
 7285SOL     OW22753   6.152   5.711   1.909
 7285SOL    HW122754   6.227   5.684   1.849
 7285SOL    HW222755   6.101   5.629   1.937
 7286SOL     OW22756   1.752   4.009   0.596
 7286SOL    HW122757   1.759   4.015   0.696
 7286SOL    HW222758   1.837   4.041   0.554
 7287SOL     OW22759   6.317   1.569   5.824
 7287SOL    HW122760   6.244   1.568   5.755
 7287SOL    HW222761   6.364   1.657   5.820
 7288SOL     OW22762   2.722   0.416   6.999
 7288SOL    HW122763   2.771   0.422   0.063
 7288SOL    HW222764   2.669   0.500   6.985
 7289SOL     OW22765   4.447   2.102   3.908
 7289SOL    HW122766   4.439   2.066   4.001
 7289SOL    HW222767   4.392   2.185   3.900
 7290SOL     OW22768   2.783   5.683   4.282
 7290SOL    HW122769   2.877   5.680   4.246
 7290SOL    HW222770   2.724   5.627   4.224
 7291SOL     OW22771   3.609   5.013   1.099
 7291SOL    HW122772   3.636   5.029   1.194
 7291SOL    HW222773   3.577   4.919   1.090
 7292SOL     OW22774   3.634   0.083   4.529
 7292SOL    HW122775   3.676   0.169   4.557
 7292SOL    HW222776   3.695   0.035   4.465
 7293SOL     OW22777   2.356   1.213   6.477
 7293SOL    HW122778   2.288   1.142   6.464
 7293SOL    HW222779   2.426   1.181   6.540
 7294SOL     OW22780   5.786   5.489   6.774
 7294SOL    HW122781   5.763   5.500   6.871
 7294SOL    HW222782   5.762   5.397   6.744
 7295SOL     OW22783   4.728   0.043   1.470
 7295SOL    HW122784   4.765   0.125   1.426
 7295SOL    HW222785   4.742   6.986   1.411
 7296SOL     OW22786   4.183   5.030   0.879
 7296SOL    HW122787   4.157   4.952   0.935
 7296SOL    HW222788   4.104   5.090   0.865
 7297SOL     OW22789   4.641   6.732   2.091
 7297SOL    HW122790   4.717   6.706   2.151
 7297SOL    HW222791   4.589   6.806   2.133
 7298SOL     OW22792   6.677   3.232   4.273
 7298SOL    HW122793   6.636   3.142   4.256
 7298SOL    HW222794   6.668   3.256   4.369
 7299SOL     OW22795   6.032   3.139   6.863
 7299SOL    HW122796   5.968   3.146   6.787
 7299SOL    HW222797   6.118   3.182   6.838
 7300SOL     OW22798   4.844   5.642   1.474
 7300SOL    HW122799   4.843   5.547   1.442
 7300SOL    HW222800   4.938   5.674   1.478
 7301SOL     OW22801   6.794   1.290   6.422
 7301SOL    HW122802   6.765   1.309   6.328
 7301SOL    HW222803   6.893   1.276   6.424
 7302SOL     OW22804   6.108   0.800   6.300
 7302SOL    HW122805   6.152   0.755   6.378
 7302SOL    HW222806   6.067   0.886   6.330
 7303SOL     OW22807   4.266   0.781   0.820
 7303SOL    HW122808   4.306   0.868   0.848
 7303SOL    HW222809   4.313   0.706   0.868
 7304SOL     OW22810   3.799   3.016   4.758
 7304SOL    HW122811   3.727   2.948   4.741
 7304SOL    HW222812   3.817   3.020   4.856
 7305SOL     OW22813   5.537   2.123   6.882
 7305SOL    HW122814   5.517   2.221   6.879
 7305SOL    HW222815   5.636   2.109   6.880
 7306SOL     OW22816   4.949   4.935   2.030
 7306SOL    HW122817   4.981   4.969   1.941
 7306SOL    HW222818   4.996   4.849   2.051
 7307SOL     OW22819   4.184   6.345   2.111
 7307SOL    HW122820   4.223   6.327   2.201
 7307SOL    HW222821   4.103   6.404   2.121
 7308SOL     OW22822   5.596   0.757   4.269
 7308SOL    HW122823   5.503   0.723   4.257
 7308SOL    HW222824   5.661   0.690   4.232
 7309SOL     OW22825   4.584   4.982   1.457
 7309SOL    HW122826   4.604   5.042   1.380
 7309SOL    HW222827   4.653   4.909   1.460
 7310SOL     OW22828   2.260   5.974   1.626
 7310SOL    HW122829   2.324   6.050   1.616
 7310SOL    HW222830   2.212   5.959   1.540
 7311SOL     OW22831   2.857   1.714   1.853
 7311SOL    HW122832   2.917   1.766   1.913
 7311SOL    HW222833   2.796   1.777   1.804
 7312SOL     OW22834   6.831   2.397   6.280
 7312SOL    HW122835   6.847   2.303   6.311
 7312SOL    HW222836   6.894   2.418   6.206
 7313SOL     OW22837   3.305   2.078   6.337
 7313SOL    HW122838   3.357   2.151   6.382
 7313SOL    HW222839   3.207   2.095   6.351
 7314SOL     OW22840   1.232   2.490   4.556
 7314SOL    HW122841   1.247   2.503   4.654
 7314SOL    HW222842   1.146   2.534   4.530
 7315SOL     OW22843   0.008   0.895   5.954
 7315SOL    HW122844   6.945   0.879   6.004
 7315SOL    HW222845   7.009   0.917   5.859
 7316SOL     OW22846   3.991   3.091   4.555
 7316SOL    HW122847   3.998   3.018   4.488
 7316SOL    HW222848   3.917   3.071   4.619
 7317SOL     OW22849   2.814   0.942   4.033
 7317SOL    HW122850   2.750   0.872   4.063
 7317SOL    HW222851   2.849   0.992   4.112
 7318SOL     OW22852   1.314   1.443   1.298
 7318SOL    HW122853   1.240   1.408   1.356
 7318SOL    HW222854   1.316   1.543   1.305
 7319SOL     OW22855   0.262   4.239   6.168
 7319SOL    HW122856   0.230   4.186   6.246
 7319SOL    HW222857   0.262   4.337   6.191
 7320SOL     OW22858   0.741   1.908   2.211
 7320SOL    HW122859   0.662   1.859   2.247
 7320SOL    HW222860   0.725   2.007   2.217
 7321SOL     OW22861   2.880   1.380   3.986
 7321SOL    HW122862   2.921   1.357   4.074
 7321SOL    HW222863   2.840   1.298   3.946
 7322SOL     OW22864   0.953   3.323   1.677
 7322SOL    HW122865   0.942   3.296   1.581
 7322SOL    HW222866   1.045   3.300   1.708
 7323SOL     OW22867   2.106   4.244   3.065
 7323SOL    HW122868   2.007   4.244   3.076
 7323SOL    HW222869   2.132   4.185   2.988
 7324SOL     OW22870   5.102   5.027   3.383
 7324SOL    HW122871   5.154   5.102   3.342
 7324SOL    HW222872   5.145   5.000   3.469
 7325SOL     OW22873   2.990   5.952   0.441
 7325SOL    HW122874   3.076   5.929   0.394
 7325SOL    HW222875   3.002   5.940   0.539
 7326SOL     OW22876   2.319   0.667   4.430
 7326SOL    HW122877   2.346   0.674   4.334
 7326SOL    HW222878   2.220   0.680   4.438
 7327SOL     OW22879   1.528   3.103   5.600
 7327SOL    HW122880   1.548   3.020   5.652
 7327SOL    HW222881   1.436   3.097   5.562
 7328SOL     OW22882   2.094   6.855   6.790
 7328SOL    HW122883   2.037   6.936   6.780
 7328SOL    HW222884   2.145   6.840   6.705
 7329SOL     OW22885   4.722   3.599   1.701
 7329SOL    HW122886   4.702   3.695   1.684
 7329SOL    HW222887   4.637   3.546   1.699
 7330SOL     OW22888   4.074   2.077   1.085
 7330SOL    HW122889   4.063   2.175   1.101
 7330SOL    HW222890   4.171   2.054   1.085
 7331SOL     OW22891   5.009   1.716   1.518
 7331SOL    HW122892   5.051   1.626   1.536
 7331SOL    HW222893   5.055   1.759   1.440
 7332SOL     OW22894   3.545   6.321   0.325
 7332SOL    HW122895   3.510   6.268   0.247
 7332SOL    HW222896   3.476   6.387   0.354
 7333SOL     OW22897   0.297   4.778   2.641
 7333SOL    HW122898   0.330   4.769   2.735
 7333SOL    HW222899   0.373   4.798   2.580
 7334SOL     OW22900   2.939   0.526   4.335
 7334SOL    HW122901   3.039   0.517   4.332
 7334SOL    HW222902   2.907   0.509   4.428
 7335SOL     OW22903   2.187   3.071   2.901
 7335SOL    HW122904   2.192   2.989   2.844
 7335SOL    HW222905   2.179   3.152   2.843
 7336SOL     OW22906   2.161   6.320   3.937
 7336SOL    HW122907   2.170   6.230   3.980
 7336SOL    HW222908   2.066   6.351   3.943
 7337SOL     OW22909   4.931   2.487   1.698
 7337SOL    HW122910   4.965   2.476   1.605
 7337SOL    HW222911   4.948   2.403   1.750
 7338SOL     OW22912   0.020   3.475   0.429
 7338SOL    HW122913   0.092   3.482   0.497
 7338SOL    HW222914   0.022   3.556   0.370
 7339SOL     OW22915   1.475   6.099   4.504
 7339SOL    HW122916   1.535   6.060   4.574
 7339SOL    HW222917   1.398   6.145   4.549
 7340SOL     OW22918   2.815   6.506   6.942
 7340SOL    HW122919   2.807   6.606   6.943
 7340SOL    HW222920   2.755   6.467   7.011
 7341SOL     OW22921   6.339   2.018   0.861
 7341SOL    HW122922   6.317   2.093   0.923
 7341SOL    HW222923   6.254   1.978   0.826
 7342SOL     OW22924   0.720   6.310   2.077
 7342SOL    HW122925   0.704   6.327   2.175
 7342SOL    HW222926   0.636   6.276   2.035
 7343SOL     OW22927   6.417   2.958   0.337
 7343SOL    HW122928   6.470   2.883   0.376
 7343SOL    HW222929   6.461   3.045   0.360
 7344SOL     OW22930   2.595   6.747   6.009
 7344SOL    HW122931   2.575   6.768   6.105
 7344SOL    HW222932   2.551   6.816   5.951
 7345SOL     OW22933   3.978   5.625   5.914
 7345SOL    HW122934   4.048   5.695   5.898
 7345SOL    HW222935   3.948   5.629   6.009
 7346SOL     OW22936   4.093   5.219   2.174
 7346SOL    HW122937   4.009   5.270   2.153
 7346SOL    HW222938   4.075   5.152   2.245
 7347SOL     OW22939   5.869   1.537   7.019
 7347SOL    HW122940   5.904   1.484   6.943
 7347SOL    HW222941   5.897   1.633   7.009
 7348SOL     OW22942   6.967   5.136   0.183
 7348SOL    HW122943   6.897   5.206   0.171
 7348SOL    HW222944   6.981   5.119   0.281
 7349SOL     OW22945   3.993   1.587   1.686
 7349SOL    HW122946   4.065   1.519   1.693
 7349SOL    HW222947   4.010   1.661   1.752
 7350SOL     OW22948   3.780   1.051   4.649
 7350SOL    HW122949   3.795   1.028   4.745
 7350SOL    HW222950   3.683   1.065   4.632
 7351SOL     OW22951   2.360   4.632   4.177
 7351SOL    HW122952   2.375   4.603   4.272
 7351SOL    HW222953   2.268   4.670   4.168
 7352SOL     OW22954   5.856   3.121   4.279
 7352SOL    HW122955   5.780   3.056   4.276
 7352SOL    HW222956   5.868   3.155   4.372
 7353SOL     OW22957   6.384   1.224   5.274
 7353SOL    HW122958   6.435   1.145   5.240
 7353SOL    HW222959   6.360   1.283   5.196
 7354SOL     OW22960   1.012   1.859   2.794
 7354SOL    HW122961   1.065   1.908   2.725
 7354SOL    HW222962   1.010   1.762   2.773
 7355SOL     OW22963   3.232   1.796   0.835
 7355SOL    HW122964   3.150   1.845   0.806
 7355SOL    HW222965   3.206   1.720   0.895
 7356SOL     OW22966   4.263   4.092   6.239
 7356SOL    HW122967   4.343   4.147   6.260
 7356SOL    HW222968   4.199   4.146   6.184
 7357SOL     OW22969   4.109   6.406   1.846
 7357SOL    HW122970   4.067   6.497   1.844
 7357SOL    HW222971   4.098   6.366   1.937
 7358SOL     OW22972   4.457   6.763   3.353
 7358SOL    HW122973   4.501   6.810   3.277
 7358SOL    HW222974   4.382   6.818   3.388
 7359SOL     OW22975   3.885   0.092   2.104
 7359SOL    HW122976   3.824   0.171   2.097
 7359SOL    HW222977   3.854   0.033   2.178
 7360SOL     OW22978   2.789   3.609   5.666
 7360SOL    HW122979   2.813   3.527   5.615
 7360SOL    HW222980   2.794   3.689   5.606
 7361SOL     OW22981   6.563   0.435   3.220
 7361SOL    HW122982   6.603   0.397   3.137
 7361SOL    HW222983   6.565   0.366   3.293
 7362SOL     OW22984   3.514   5.726   0.290
 7362SOL    HW122985   3.580   5.674   0.344
 7362SOL    HW222986   3.428   5.677   0.286
 7363SOL     OW22987   4.471   0.852   1.059
 7363SOL    HW122988   4.552   0.879   1.006
 7363SOL    HW222989   4.398   0.919   1.045
 7364SOL     OW22990   6.031   6.211   1.926
 7364SOL    HW122991   6.044   6.309   1.932
 7364SOL    HW222992   6.102   6.164   1.978
 7365SOL     OW22993   4.956   3.361   2.691
 7365SOL    HW122994   4.975   3.380   2.787
 7365SOL    HW222995   5.004   3.278   2.663
 7366SOL     OW22996   2.585   0.300   3.677
 7366SOL    HW122997   2.626   0.307   3.768
 7366SOL    HW222998   2.602   0.384   3.626
 7367SOL     OW22999   4.471   1.073   6.810
 7367SOL    HW123000   4.415   1.055   6.891
 7367SOL    HW223001   4.490   1.171   6.804
 7368SOL     OW23002   2.909   3.548   3.383
 7368SOL    HW123003   2.905   3.575   3.479
 7368SOL    HW223004   2.992   3.587   3.342
 7369SOL     OW23005   5.921   3.772   6.901
 7369SOL    HW123006   5.979   3.698   6.934
 7369SOL    HW223007   5.976   3.855   6.890
 7370SOL     OW23008   1.763   1.294   4.296
 7370SOL    HW123009   1.682   1.260   4.248
 7370SOL    HW223010   1.841   1.291   4.235
 7371SOL     OW23011   4.016   0.705   3.704
 7371SOL    HW123012   3.998   0.719   3.801
 7371SOL    HW223013   3.986   0.613   3.677
 7372SOL     OW23014   5.017   1.194   5.636
 7372SOL    HW123015   5.015   1.286   5.676
 7372SOL    HW223016   4.939   1.183   5.574
 7373SOL     OW23017   6.192   3.091   4.260
 7373SOL    HW123018   6.116   3.068   4.321
 7373SOL    HW223019   6.202   3.018   4.192
 7374SOL     OW23020   0.663   2.578   6.372
 7374SOL    HW123021   0.566   2.552   6.371
 7374SOL    HW223022   0.673   2.671   6.406
 7375SOL     OW23023   2.051   2.913   0.338
 7375SOL    HW123024   2.031   2.937   0.243
 7375SOL    HW223025   2.131   2.965   0.369
 7376SOL     OW23026   6.662   5.040   0.552
 7376SOL    HW123027   6.643   5.061   0.456
 7376SOL    HW223028   6.576   5.030   0.602
 7377SOL     OW23029   2.639   5.785   0.693
 7377SOL    HW123030   2.678   5.756   0.780
 7377SOL    HW223031   2.602   5.878   0.703
 7378SOL     OW23032   2.008   5.153   5.384
 7378SOL    HW123033   1.936   5.171   5.451
 7378SOL    HW223034   1.997   5.060   5.348
 7379SOL     OW23035   5.245   2.081   2.385
 7379SOL    HW123036   5.146   2.068   2.383
 7379SOL    HW223037   5.289   1.993   2.399
 7380SOL     OW23038   5.218   3.637   1.828
 7380SOL    HW123039   5.219   3.571   1.903
 7380SOL    HW223040   5.124   3.650   1.796
 7381SOL     OW23041   3.790   6.819   1.575
 7381SOL    HW123042   3.776   6.854   1.668
 7381SOL    HW223043   3.843   6.734   1.578
 7382SOL     OW23044   0.380   2.540   6.257
 7382SOL    HW123045   0.384   2.587   6.345
 7382SOL    HW223046   0.288   2.501   6.245
 7383SOL     OW23047   2.234   6.781   0.996
 7383SOL    HW123048   2.185   6.809   1.079
 7383SOL    HW223049   2.311   6.843   0.981
 7384SOL     OW23050   6.541   6.715   0.172
 7384SOL    HW123051   6.627   6.672   0.198
 7384SOL    HW223052   6.482   6.722   0.253
 7385SOL     OW23053   6.134   4.721   3.109
 7385SOL    HW123054   6.103   4.810   3.141
 7385SOL    HW223055   6.081   4.649   3.155
 7386SOL     OW23056   6.112   4.269   0.056
 7386SOL    HW123057   6.128   4.187   0.000
 7386SOL    HW223058   6.185   4.278   0.124
 7387SOL     OW23059   6.628   5.475   4.181
 7387SOL    HW123060   6.588   5.391   4.218
 7387SOL    HW223061   6.643   5.464   4.083
 7388SOL     OW23062   2.550   4.732   2.634
 7388SOL    HW123063   2.497   4.737   2.549
 7388SOL    HW223064   2.506   4.667   2.696
 7389SOL     OW23065   6.742   2.686   0.722
 7389SOL    HW123066   6.810   2.687   0.796
 7389SOL    HW223067   6.672   2.617   0.742
 7390SOL     OW23068   3.450   2.081   3.799
 7390SOL    HW123069   3.387   2.142   3.847
 7390SOL    HW223070   3.544   2.100   3.828
 7391SOL     OW23071   3.702   4.103   2.987
 7391SOL    HW123072   3.788   4.089   2.938
 7391SOL    HW223073   3.722   4.125   3.082
 7392SOL     OW23074   3.312   6.430   0.905
 7392SOL    HW123075   3.262   6.355   0.949
 7392SOL    HW223076   3.265   6.517   0.924
 7393SOL     OW23077   4.978   5.543   3.166
 7393SOL    HW123078   5.032   5.602   3.106
 7393SOL    HW223079   4.938   5.469   3.111
 7394SOL     OW23080   1.983   2.237   6.222
 7394SOL    HW123081   2.040   2.243   6.305
 7394SOL    HW223082   2.030   2.283   6.146
 7395SOL     OW23083   2.792   6.265   1.378
 7395SOL    HW123084   2.795   6.166   1.395
 7395SOL    HW223085   2.810   6.314   1.463
 7396SOL     OW23086   1.405   5.248   2.100
 7396SOL    HW123087   1.492   5.201   2.117
 7396SOL    HW223088   1.414   5.345   2.125
 7397SOL     OW23089   5.848   4.490   4.103
 7397SOL    HW123090   5.876   4.529   4.015
 7397SOL    HW223091   5.814   4.397   4.089
 7398SOL     OW23092   2.930   5.144   2.338
 7398SOL    HW123093   2.944   5.049   2.310
 7398SOL    HW223094   2.895   5.146   2.431
 7399SOL     OW23095   6.017   1.742   5.195
 7399SOL    HW123096   5.934   1.733   5.141
 7399SOL    HW223097   6.095   1.709   5.142
 7400SOL     OW23098   4.008   3.534   5.322
 7400SOL    HW123099   3.933   3.468   5.330
 7400SOL    HW223100   4.092   3.486   5.297
 7401SOL     OW23101   1.687   2.510   3.721
 7401SOL    HW123102   1.616   2.441   3.731
 7401SOL    HW223103   1.674   2.559   3.634
 7402SOL     OW23104   3.565   5.532   4.094
 7402SOL    HW123105   3.547   5.529   4.192
 7402SOL    HW223106   3.663   5.541   4.078
 7403SOL     OW23107   1.791   4.672   4.172
 7403SOL    HW123108   1.854   4.719   4.111
 7403SOL    HW223109   1.843   4.613   4.235
 7404SOL     OW23110   2.229   3.784   0.832
 7404SOL    HW123111   2.275   3.721   0.770
 7404SOL    HW223112   2.160   3.835   0.782
 7405SOL     OW23113   3.824   6.609   5.764
 7405SOL    HW123114   3.729   6.628   5.742
 7405SOL    HW223115   3.883   6.672   5.713
 7406SOL     OW23116   0.412   2.714   4.337
 7406SOL    HW123117   0.485   2.678   4.394
 7406SOL    HW223118   0.449   2.782   4.274
 7407SOL     OW23119   0.947   6.380   5.100
 7407SOL    HW123120   0.982   6.292   5.133
 7407SOL    HW223121   0.877   6.414   5.163
 7408SOL     OW23122   4.311   5.448   5.769
 7408SOL    HW123123   4.330   5.470   5.673
 7408SOL    HW223124   4.398   5.433   5.817
 7409SOL     OW23125   6.540   5.132   1.739
 7409SOL    HW123126   6.562   5.091   1.827
 7409SOL    HW223127   6.498   5.063   1.680
 7410SOL     OW23128   6.521   0.814   1.213
 7410SOL    HW123129   6.609   0.819   1.164
 7410SOL    HW223130   6.538   0.813   1.311
 7411SOL     OW23131   3.906   1.859   5.484
 7411SOL    HW123132   3.947   1.768   5.486
 7411SOL    HW223133   3.918   1.903   5.573
 7412SOL     OW23134   4.313   6.883   6.922
 7412SOL    HW123135   4.399   6.853   6.962
 7412SOL    HW223136   4.287   6.822   6.847
 7413SOL     OW23137   5.294   0.820   3.844
 7413SOL    HW123138   5.288   0.872   3.759
 7413SOL    HW223139   5.295   0.883   3.921
 7414SOL     OW23140   2.735   1.185   3.881
 7414SOL    HW123141   2.651   1.153   3.838
 7414SOL    HW223142   2.783   1.107   3.924
 7415SOL     OW23143   3.882   0.626   6.452
 7415SOL    HW123144   3.831   0.712   6.450
 7415SOL    HW223145   3.822   0.551   6.424
 7416SOL     OW23146   1.138   0.144   1.851
 7416SOL    HW123147   1.111   0.147   1.948
 7416SOL    HW223148   1.058   0.124   1.795
 7417SOL     OW23149   0.659   0.664   2.233
 7417SOL    HW123150   0.584   0.668   2.166
 7417SOL    HW223151   0.623   0.640   2.323
 7418SOL     OW23152   1.447   3.556   6.133
 7418SOL    HW123153   1.520   3.616   6.100
 7418SOL    HW223154   1.358   3.595   6.110
 7419SOL     OW23155   6.500   3.020   4.511
 7419SOL    HW123156   6.529   2.942   4.566
 7419SOL    HW223157   6.443   2.987   4.435
 7420SOL     OW23158   6.835   6.807   0.952
 7420SOL    HW123159   6.847   6.721   1.002
 7420SOL    HW223160   6.863   6.884   1.009
 7421SOL     OW23161   6.287   3.732   1.377
 7421SOL    HW123162   6.286   3.632   1.373
 7421SOL    HW223163   6.207   3.767   1.328
 7422SOL     OW23164   5.378   3.237   1.348
 7422SOL    HW123165   5.293   3.271   1.388
 7422SOL    HW223166   5.378   3.137   1.348
 7423SOL     OW23167   4.560   2.570   6.007
 7423SOL    HW123168   4.475   2.589   5.960
 7423SOL    HW223169   4.541   2.519   6.091
 7424SOL     OW23170   0.287   2.052   3.989
 7424SOL    HW123171   0.299   2.151   3.999
 7424SOL    HW223172   0.246   2.015   4.073
 7425SOL     OW23173   5.526   0.297   1.354
 7425SOL    HW123174   5.481   0.358   1.419
 7425SOL    HW223175   5.584   0.233   1.403
 7426SOL     OW23176   3.504   3.495   5.155
 7426SOL    HW123177   3.575   3.559   5.184
 7426SOL    HW223178   3.481   3.511   5.059
 7427SOL     OW23179   2.493   0.272   2.337
 7427SOL    HW123180   2.417   0.334   2.357
 7427SOL    HW223181   2.579   0.320   2.353
 7428SOL     OW23182   2.188   6.883   5.261
 7428SOL    HW123183   2.209   6.973   5.223
 7428SOL    HW223184   2.169   6.891   5.359
 7429SOL     OW23185   1.005   1.069   2.509
 7429SOL    HW123186   0.971   0.981   2.477
 7429SOL    HW223187   0.940   1.141   2.485
 7430SOL     OW23188   6.908   4.145   2.914
 7430SOL    HW123189   6.978   4.146   2.985
 7430SOL    HW223190   6.856   4.059   2.920
 7431SOL     OW23191   0.883   2.402   4.707
 7431SOL    HW123192   0.874   2.304   4.691
 7431SOL    HW223193   0.906   2.418   4.803
 7432SOL     OW23194   1.699   1.217   2.894
 7432SOL    HW123195   1.612   1.204   2.846
 7432SOL    HW223196   1.773   1.226   2.828
 7433SOL     OW23197   3.397   6.844   6.499
 7433SOL    HW123198   3.434   6.755   6.473
 7433SOL    HW223199   3.395   6.852   6.598
 7434SOL     OW23200   4.039   0.303   3.599
 7434SOL    HW123201   4.103   0.305   3.676
 7434SOL    HW223202   4.035   0.394   3.557
 7435SOL     OW23203   5.172   4.402   2.800
 7435SOL    HW123204   5.213   4.483   2.757
 7435SOL    HW223205   5.093   4.430   2.855
 7436SOL     OW23206   4.745   2.825   5.659
 7436SOL    HW123207   4.719   2.739   5.614
 7436SOL    HW223208   4.728   2.817   5.757
 7437SOL     OW23209   3.268   0.759   1.640
 7437SOL    HW123210   3.361   0.771   1.604
 7437SOL    HW223211   3.213   0.839   1.617
 7438SOL     OW23212   1.754   0.326   6.690
 7438SOL    HW123213   1.727   0.377   6.608
 7438SOL    HW223214   1.725   0.376   6.772
 7439SOL     OW23215   1.843   4.639   6.142
 7439SOL    HW123216   1.758   4.611   6.187
 7439SOL    HW223217   1.843   4.606   6.047
 7440SOL     OW23218   5.594   3.184   3.918
 7440SOL    HW123219   5.603   3.251   3.843
 7440SOL    HW223220   5.600   3.092   3.880
 7441SOL     OW23221   4.342   6.358   0.637
 7441SOL    HW123222   4.408   6.284   0.652
 7441SOL    HW223223   4.298   6.383   0.723
 7442SOL     OW23224   6.160   0.932   5.952
 7442SOL    HW123225   6.134   1.012   6.006
 7442SOL    HW223226   6.118   0.936   5.862
 7443SOL     OW23227   0.379   7.011   1.098
 7443SOL    HW123228   0.340   7.001   1.190
 7443SOL    HW223229   0.394   6.920   1.059
 7444SOL     OW23230   1.397   6.154   6.739
 7444SOL    HW123231   1.368   6.096   6.662
 7444SOL    HW223232   1.496   6.148   6.748
 7445SOL     OW23233   3.145   5.841   2.315
 7445SOL    HW123234   3.154   5.798   2.405
 7445SOL    HW223235   3.196   5.787   2.248
 7446SOL     OW23236   6.599   5.070   0.285
 7446SOL    HW123237   6.563   4.978   0.270
 7446SOL    HW223238   6.535   5.138   0.251
 7447SOL     OW23239   0.759   5.760   0.727
 7447SOL    HW123240   0.756   5.860   0.728
 7447SOL    HW223241   0.854   5.729   0.720
 7448SOL     OW23242   4.445   4.703   6.703
 7448SOL    HW123243   4.405   4.794   6.688
 7448SOL    HW223244   4.532   4.713   6.753
 7449SOL     OW23245   6.820   4.082   6.763
 7449SOL    HW123246   6.827   4.138   6.845
 7449SOL    HW223247   6.911   4.054   6.733
 7450SOL     OW23248   5.610   3.025   0.364
 7450SOL    HW123249   5.706   3.007   0.343
 7450SOL    HW223250   5.602   3.114   0.409
 7451SOL     OW23251   4.559   4.893   2.884
 7451SOL    HW123252   4.466   4.925   2.866
 7451SOL    HW223253   4.560   4.842   2.970
 7452SOL     OW23254   6.574   5.905   6.105
 7452SOL    HW123255   6.589   5.816   6.146
 7452SOL    HW223256   6.546   5.894   6.009
 7453SOL     OW23257   4.272   5.543   6.623
 7453SOL    HW123258   4.200   5.500   6.678
 7453SOL    HW223259   4.317   5.474   6.567
 7454SOL     OW23260   3.883   2.076   0.839
 7454SOL    HW123261   3.846   1.984   0.825
 7454SOL    HW223262   3.906   2.088   0.936
 7455SOL     OW23263   6.341   0.128   3.306
 7455SOL    HW123264   6.439   0.114   3.318
 7455SOL    HW223265   6.320   0.136   3.208
 7456SOL     OW23266   3.079   1.331   5.802
 7456SOL    HW123267   3.046   1.408   5.856
 7456SOL    HW223268   3.069   1.352   5.705
 7457SOL     OW23269   1.251   1.434   2.585
 7457SOL    HW123270   1.315   1.486   2.641
 7457SOL    HW223271   1.234   1.345   2.627
 7458SOL     OW23272   0.358   5.405   5.079
 7458SOL    HW123273   0.277   5.454   5.047
 7458SOL    HW223274   0.383   5.439   5.170
 7459SOL     OW23275   5.672   6.972   3.046
 7459SOL    HW123276   5.650   6.957   3.143
 7459SOL    HW223277   5.639   6.894   2.992
 7460SOL     OW23278   0.854   0.366   1.339
 7460SOL    HW123279   0.933   0.428   1.336
 7460SOL    HW223280   0.869   0.298   1.411
 7461SOL     OW23281   1.898   4.292   4.691
 7461SOL    HW123282   1.972   4.351   4.658
 7461SOL    HW223283   1.913   4.198   4.659
 7462SOL     OW23284   1.840   4.952   0.012
 7462SOL    HW123285   1.767   4.980   6.971
 7462SOL    HW223286   1.807   4.958   0.106
 7463SOL     OW23287   4.911   5.139   1.551
 7463SOL    HW123288   4.887   5.044   1.572
 7463SOL    HW223289   5.008   5.154   1.573
 7464SOL     OW23290   5.179   5.203   5.170
 7464SOL    HW123291   5.237   5.258   5.229
 7464SOL    HW223292   5.112   5.261   5.125
 7465SOL     OW23293   1.621   4.188   6.684
 7465SOL    HW123294   1.548   4.158   6.623
 7465SOL    HW223295   1.586   4.258   6.746
 7466SOL     OW23296   0.454   0.465   5.204
 7466SOL    HW123297   0.463   0.537   5.135
 7466SOL    HW223298   0.501   0.383   5.173
 7467SOL     OW23299   0.971   3.649   4.220
 7467SOL    HW123300   1.044   3.584   4.201
 7467SOL    HW223301   0.968   3.718   4.147
 7468SOL     OW23302   5.327   2.935   4.980
 7468SOL    HW123303   5.300   3.030   4.966
 7468SOL    HW223304   5.386   2.906   4.904
 7469SOL     OW23305   0.159   2.384   0.221
 7469SOL    HW123306   0.126   2.312   0.282
 7469SOL    HW223307   0.101   2.389   0.140
 7470SOL     OW23308   5.131   2.683   4.029
 7470SOL    HW123309   5.058   2.665   3.963
 7470SOL    HW223310   5.162   2.778   4.019
 7471SOL     OW23311   3.368   6.479   6.511
 7471SOL    HW123312   3.440   6.512   6.451
 7471SOL    HW223313   3.292   6.445   6.456
 7472SOL     OW23314   0.417   0.564   5.757
 7472SOL    HW123315   0.364   0.588   5.676
 7472SOL    HW223316   0.514   0.566   5.736
 7473SOL     OW23317   4.220   6.110   3.554
 7473SOL    HW123318   4.194   6.098   3.650
 7473SOL    HW223319   4.202   6.026   3.504
 7474SOL     OW23320   6.191   2.387   0.295
 7474SOL    HW123321   6.281   2.424   0.316
 7474SOL    HW223322   6.154   2.341   0.375
 7475SOL     OW23323   4.917   2.635   0.753
 7475SOL    HW123324   4.836   2.648   0.810
 7475SOL    HW223325   4.894   2.656   0.658
 7476SOL     OW23326   2.755   1.415   2.606
 7476SOL    HW123327   2.716   1.445   2.519
 7476SOL    HW223328   2.682   1.410   2.674
 7477SOL     OW23329   2.625   3.621   5.893
 7477SOL    HW123330   2.665   3.576   5.813
 7477SOL    HW223331   2.626   3.720   5.878
 7478SOL     OW23332   0.250   2.183   6.211
 7478SOL    HW123333   0.204   2.096   6.229
 7478SOL    HW223334   0.210   2.254   6.268
 7479SOL     OW23335   5.120   3.010   1.256
 7479SOL    HW123336   5.023   3.031   1.239
 7479SOL    HW223337   5.130   2.968   1.346
 7480SOL     OW23338   3.444   6.266   2.731
 7480SOL    HW123339   3.453   6.196   2.660
 7480SOL    HW223340   3.535   6.297   2.759
 7481SOL     OW23341   0.121   3.611   6.664
 7481SOL    HW123342   0.061   3.688   6.646
 7481SOL    HW223343   0.214   3.643   6.681
 7482SOL     OW23344   4.548   2.086   4.574
 7482SOL    HW123345   4.628   2.050   4.623
 7482SOL    HW223346   4.566   2.085   4.476
 7483SOL     OW23347   5.188   1.720   6.342
 7483SOL    HW123348   5.216   1.624   6.346
 7483SOL    HW223349   5.096   1.726   6.302
 7484SOL     OW23350   2.331   0.767   4.675
 7484SOL    HW123351   2.418   0.800   4.713
 7484SOL    HW223352   2.347   0.728   4.585
 7485SOL     OW23353   4.061   0.169   6.651
 7485SOL    HW123354   4.032   0.096   6.589
 7485SOL    HW223355   4.006   0.166   6.734
 7486SOL     OW23356   4.235   6.666   1.101
 7486SOL    HW123357   4.310   6.681   1.165
 7486SOL    HW223358   4.233   6.740   1.034
 7487SOL     OW23359   3.146   6.337   4.461
 7487SOL    HW123360   3.155   6.414   4.398
 7487SOL    HW223361   3.138   6.371   4.554
 7488SOL     OW23362   1.678   6.215   3.914
 7488SOL    HW123363   1.671   6.310   3.943
 7488SOL    HW223364   1.586   6.178   3.901
 7489SOL     OW23365   5.059   3.378   6.405
 7489SOL    HW123366   5.039   3.283   6.428
 7489SOL    HW223367   5.006   3.405   6.324
 7490SOL     OW23368   1.863   2.671   1.460
 7490SOL    HW123369   1.861   2.768   1.486
 7490SOL    HW223370   1.939   2.655   1.397
 7491SOL     OW23371   4.675   3.890   6.348
 7491SOL    HW123372   4.686   3.906   6.446
 7491SOL    HW223373   4.730   3.957   6.297
 7492SOL     OW23374   1.638   0.740   3.771
 7492SOL    HW123375   1.565   0.684   3.731
 7492SOL    HW223376   1.598   0.815   3.822
 7493SOL     OW23377   6.508   4.860   4.508
 7493SOL    HW123378   6.421   4.842   4.463
 7493SOL    HW223379   6.551   4.773   4.533
 7494SOL     OW23380   6.199   1.169   2.267
 7494SOL    HW123381   6.161   1.261   2.278
 7494SOL    HW223382   6.193   1.142   2.171
 7495SOL     OW23383   1.257   3.282   4.469
 7495SOL    HW123384   1.302   3.371   4.474
 7495SOL    HW223385   1.220   3.268   4.378
 7496SOL     OW23386   5.859   3.381   3.221
 7496SOL    HW123387   5.823   3.289   3.238
 7496SOL    HW223388   5.884   3.423   3.308
 7497SOL     OW23389   6.600   6.958   1.547
 7497SOL    HW123390   6.548   0.010   1.504
 7497SOL    HW223391   6.570   6.870   1.509
 7498SOL     OW23392   2.427   6.727   3.816
 7498SOL    HW123393   2.457   6.730   3.911
 7498SOL    HW223394   2.504   6.702   3.758
 7499SOL     OW23395   2.885   1.583   3.539
 7499SOL    HW123396   2.793   1.543   3.543
 7499SOL    HW223397   2.908   1.623   3.628
 7500SOL     OW23398   3.869   1.568   4.644
 7500SOL    HW123399   3.799   1.546   4.577
 7500SOL    HW223400   3.909   1.657   4.624
 7501SOL     OW23401   6.197   2.091   3.742
 7501SOL    HW123402   6.156   2.032   3.673
 7501SOL    HW223403   6.148   2.080   3.829
 7502SOL     OW23404   3.971   0.985   3.668
 7502SOL    HW123405   4.062   1.007   3.703
 7502SOL    HW223406   3.961   0.885   3.663
 7503SOL     OW23407   1.690   5.917   1.013
 7503SOL    HW123408   1.767   5.894   1.072
 7503SOL    HW223409   1.650   5.833   0.975
 7504SOL     OW23410   5.452   6.107   4.530
 7504SOL    HW123411   5.370   6.058   4.561
 7504SOL    HW223412   5.426   6.200   4.502
 7505SOL     OW23413   0.759   6.524   5.956
 7505SOL    HW123414   0.838   6.467   5.975
 7505SOL    HW223415   0.788   6.617   5.936
 7506SOL     OW23416   3.405   2.141   4.277
 7506SOL    HW123417   3.389   2.129   4.375
 7506SOL    HW223418   3.503   2.140   4.259
 7507SOL     OW23419   6.935   3.899   6.312
 7507SOL    HW123420   6.948   3.919   6.215
 7507SOL    HW223421   6.857   3.951   6.346
 7508SOL     OW23422   2.929   6.279   0.378
 7508SOL    HW123423   2.939   6.225   0.294
 7508SOL    HW223424   2.951   6.223   0.457
 7509SOL     OW23425   6.099   4.518   2.529
 7509SOL    HW123426   6.041   4.561   2.599
 7509SOL    HW223427   6.111   4.421   2.552
 7510SOL     OW23428   3.057   4.297   1.322
 7510SOL    HW123429   3.126   4.240   1.278
 7510SOL    HW223430   3.102   4.366   1.379
 7511SOL     OW23431   4.788   5.967   3.895
 7511SOL    HW123432   4.746   5.905   3.962
 7511SOL    HW223433   4.773   5.931   3.803
 7512SOL     OW23434   4.261   6.944   1.009
 7512SOL    HW123435   4.349   6.985   1.031
 7512SOL    HW223436   4.198   6.959   1.086
 7513SOL     OW23437   0.868   0.453   2.323
 7513SOL    HW123438   0.808   0.511   2.267
 7513SOL    HW223439   0.815   0.378   2.361
 7514SOL     OW23440   0.011   0.318   0.638
 7514SOL    HW123441   6.979   0.286   0.716
 7514SOL    HW223442   0.107   0.326   0.665
 7515SOL     OW23443   0.020   4.978   5.068
 7515SOL    HW123444   0.103   4.932   5.035
 7515SOL    HW223445   0.039   5.024   5.155
 7516SOL     OW23446   2.016   6.267   5.234
 7516SOL    HW123447   2.079   6.228   5.301
 7516SOL    HW223448   1.945   6.200   5.212
 7517SOL     OW23449   0.608   2.355   6.572
 7517SOL    HW123450   0.691   2.356   6.628
 7517SOL    HW223451   0.577   2.449   6.558
 7518SOL     OW23452   4.005   2.173   4.275
 7518SOL    HW123453   4.032   2.109   4.202
 7518SOL    HW223454   4.014   2.127   4.364
 7519SOL     OW23455   3.454   6.761   5.091
 7519SOL    HW123456   3.367   6.790   5.130
 7519SOL    HW223457   3.513   6.725   5.163
 7520SOL     OW23458   1.792   1.247   0.637
 7520SOL    HW123459   1.821   1.188   0.561
 7520SOL    HW223460   1.866   1.254   0.704
 7521SOL     OW23461   4.194   1.522   5.385
 7521SOL    HW123462   4.187   1.617   5.416
 7521SOL    HW223463   4.200   1.462   5.465
 7522SOL     OW23464   1.971   6.880   4.145
 7522SOL    HW123465   1.922   6.826   4.077
 7522SOL    HW223466   1.961   6.978   4.123
 7523SOL     OW23467   5.662   1.797   6.998
 7523SOL    HW123468   5.645   1.880   0.029
 7523SOL    HW223469   5.736   1.814   6.933
 7524SOL     OW23470   0.330   3.999   5.132
 7524SOL    HW123471   0.349   3.961   5.222
 7524SOL    HW223472   0.340   3.927   5.063
 7525SOL     OW23473   1.761   4.700   5.654
 7525SOL    HW123474   1.691   4.703   5.726
 7525SOL    HW223475   1.753   4.615   5.603
 7526SOL     OW23476   1.569   4.185   0.947
 7526SOL    HW123477   1.517   4.268   0.931
 7526SOL    HW223478   1.653   4.207   0.997
 7527SOL     OW23479   2.579   5.360   2.430
 7527SOL    HW123480   2.644   5.422   2.474
 7527SOL    HW223481   2.605   5.265   2.450
 7528SOL     OW23482   6.008   2.604   6.496
 7528SOL    HW123483   6.018   2.662   6.577
 7528SOL    HW223484   6.024   2.659   6.414
 7529SOL     OW23485   5.726   3.457   4.715
 7529SOL    HW123486   5.771   3.408   4.790
 7529SOL    HW223487   5.651   3.401   4.679
 7530SOL     OW23488   1.055   2.832   3.330
 7530SOL    HW123489   1.057   2.734   3.306
 7530SOL    HW223490   1.136   2.877   3.293
 7531SOL     OW23491   4.054   1.767   3.935
 7531SOL    HW123492   3.982   1.703   3.909
 7531SOL    HW223493   4.109   1.726   4.008
 7532SOL     OW23494   4.746   5.269   6.298
 7532SOL    HW123495   4.686   5.344   6.328
 7532SOL    HW223496   4.833   5.274   6.347
 7533SOL     OW23497   4.196   4.657   1.942
 7533SOL    HW123498   4.292   4.630   1.954
 7533SOL    HW223499   4.140   4.575   1.931
 7534SOL     OW23500   4.360   5.762   5.323
 7534SOL    HW123501   4.360   5.668   5.357
 7534SOL    HW223502   4.388   5.824   5.397
 7535SOL     OW23503   0.293   6.675   4.138
 7535SOL    HW123504   0.340   6.752   4.181
 7535SOL    HW223505   0.200   6.667   4.176
 7536SOL     OW23506   6.473   6.513   2.943
 7536SOL    HW123507   6.450   6.461   3.025
 7536SOL    HW223508   6.403   6.584   2.928
 7537SOL     OW23509   1.695   0.194   2.449
 7537SOL    HW123510   1.713   0.281   2.403
 7537SOL    HW223511   1.675   0.123   2.381
 7538SOL     OW23512   0.290   4.885   0.087
 7538SOL    HW123513   0.331   4.878   7.018
 7538SOL    HW223514   0.289   4.795   0.130
 7539SOL     OW23515   6.461   0.469   4.396
 7539SOL    HW123516   6.376   0.503   4.355
 7539SOL    HW223517   6.471   0.508   4.488
 7540SOL     OW23518   4.752   4.127   3.145
 7540SOL    HW123519   4.792   4.091   3.229
 7540SOL    HW223520   4.721   4.221   3.160
 7541SOL     OW23521   2.266   4.148   6.844
 7541SOL    HW123522   2.232   4.073   6.787
 7541SOL    HW223523   2.329   4.205   6.791
 7542SOL     OW23524   5.892   5.721   4.764
 7542SOL    HW123525   5.908   5.652   4.835
 7542SOL    HW223526   5.799   5.756   4.772
 7543SOL     OW23527   2.262   1.382   0.764
 7543SOL    HW123528   2.218   1.420   0.846
 7543SOL    HW223529   2.339   1.439   0.738
 7544SOL     OW23530   5.892   1.187   4.577
 7544SOL    HW123531   5.956   1.157   4.647
 7544SOL    HW223532   5.846   1.108   4.537
 7545SOL     OW23533   1.848   5.827   5.130
 7545SOL    HW123534   1.830   5.761   5.203
 7545SOL    HW223535   1.887   5.779   5.051
 7546SOL     OW23536   2.345   2.722   2.075
 7546SOL    HW123537   2.295   2.808   2.081
 7546SOL    HW223538   2.443   2.742   2.063
 7547SOL     OW23539   4.391   0.538   2.411
 7547SOL    HW123540   4.327   0.499   2.477
 7547SOL    HW223541   4.357   0.627   2.379
 7548SOL     OW23542   2.823   2.362   6.343
 7548SOL    HW123543   2.730   2.371   6.377
 7548SOL    HW223544   2.822   2.343   6.245
 7549SOL     OW23545   5.312   0.692   4.170
 7549SOL    HW123546   5.316   0.607   4.223
 7549SOL    HW223547   5.264   0.675   4.084
 7550SOL     OW23548   2.246   6.064   4.882
 7550SOL    HW123549   2.170   6.087   4.820
 7550SOL    HW223550   2.213   6.066   4.976
 7551SOL     OW23551   5.952   3.513   6.570
 7551SOL    HW123552   5.866   3.521   6.518
 7551SOL    HW223553   6.007   3.595   6.556
 7552SOL     OW23554   2.843   6.333   4.790
 7552SOL    HW123555   2.899   6.251   4.782
 7552SOL    HW223556   2.787   6.328   4.873
 7553SOL     OW23557   6.128   6.794   5.856
 7553SOL    HW123558   6.100   6.824   5.764
 7553SOL    HW223559   6.196   6.721   5.848
 7554SOL     OW23560   5.107   1.827   1.294
 7554SOL    HW123561   5.137   1.749   1.238
 7554SOL    HW223562   5.023   1.865   1.256
 7555SOL     OW23563   4.465   5.247   4.168
 7555SOL    HW123564   4.478   5.210   4.076
 7555SOL    HW223565   4.479   5.175   4.235
 7556SOL     OW23566   1.330   5.880   0.920
 7556SOL    HW123567   1.261   5.813   0.893
 7556SOL    HW223568   1.381   5.910   0.840
 7557SOL     OW23569   4.402   6.363   1.041
 7557SOL    HW123570   4.383   6.390   1.136
 7557SOL    HW223571   4.338   6.409   0.980
 7558SOL     OW23572   0.786   1.671   3.693
 7558SOL    HW123573   0.836   1.640   3.773
 7558SOL    HW223574   0.689   1.684   3.716
 7559SOL     OW23575   2.356   0.099   5.182
 7559SOL    HW123576   2.310   0.160   5.248
 7559SOL    HW223577   2.358   0.143   5.092
 7560SOL     OW23578   1.207   0.904   5.578
 7560SOL    HW123579   1.175   0.891   5.484
 7560SOL    HW223580   1.202   0.817   5.628
 7561SOL     OW23581   5.298   0.995   5.040
 7561SOL    HW123582   5.248   0.937   5.105
 7561SOL    HW223583   5.354   1.060   5.090
 7562SOL     OW23584   1.979   5.392   3.406
 7562SOL    HW123585   2.037   5.468   3.377
 7562SOL    HW223586   1.899   5.386   3.345
 7563SOL     OW23587   2.434   6.450   3.329
 7563SOL    HW123588   2.449   6.437   3.427
 7563SOL    HW223589   2.410   6.362   3.287
 7564SOL     OW23590   4.918   2.554   5.669
 7564SOL    HW123591   4.902   2.580   5.574
 7564SOL    HW223592   4.957   2.631   5.719
 7565SOL     OW23593   6.706   3.186   5.555
 7565SOL    HW123594   6.618   3.226   5.530
 7565SOL    HW223595   6.763   3.177   5.473
 7566SOL     OW23596   4.678   4.347   1.200
 7566SOL    HW123597   4.628   4.309   1.279
 7566SOL    HW223598   4.613   4.364   1.126
 7567SOL     OW23599   1.668   0.442   3.576
 7567SOL    HW123600   1.580   0.489   3.579
 7567SOL    HW223601   1.654   0.346   3.552
 7568SOL     OW23602   6.688   4.097   0.919
 7568SOL    HW123603   6.622   4.172   0.914
 7568SOL    HW223604   6.645   4.017   0.959
 7569SOL     OW23605   4.301   3.446   1.231
 7569SOL    HW123606   4.265   3.417   1.320
 7569SOL    HW223607   4.395   3.478   1.243
 7570SOL     OW23608   0.973   2.972   2.146
 7570SOL    HW123609   0.989   3.022   2.231
 7570SOL    HW223610   1.059   2.934   2.113
 7571SOL     OW23611   4.885   1.398   2.847
 7571SOL    HW123612   4.952   1.452   2.898
 7571SOL    HW223613   4.931   1.351   2.772
 7572SOL     OW23614   4.433   6.487   3.430
 7572SOL    HW123615   4.490   6.434   3.367
 7572SOL    HW223616   4.428   6.582   3.398
 7573SOL     OW23617   4.361   6.608   6.529
 7573SOL    HW123618   4.282   6.566   6.484
 7573SOL    HW223619   4.420   6.650   6.460
 7574SOL     OW23620   0.705   2.986   4.224
 7574SOL    HW123621   0.606   2.968   4.219
 7574SOL    HW223622   0.727   3.066   4.169
 7575SOL     OW23623   0.143   6.794   0.818
 7575SOL    HW123624   0.047   6.812   0.840
 7575SOL    HW223625   0.193   6.880   0.812
 7576SOL     OW23626   4.209   2.661   0.092
 7576SOL    HW123627   4.169   2.627   0.178
 7576SOL    HW223628   4.243   2.754   0.106
 7577SOL     OW23629   0.056   0.492   6.544
 7577SOL    HW123630   7.003   0.473   6.607
 7577SOL    HW223631   0.084   0.587   6.553
 7578SOL     OW23632   6.081   5.456   2.830
 7578SOL    HW123633   6.068   5.520   2.906
 7578SOL    HW223634   6.049   5.498   2.745
 7579SOL     OW23635   1.281   1.678   6.746
 7579SOL    HW123636   1.307   1.716   6.657
 7579SOL    HW223637   1.361   1.674   6.805
 7580SOL     OW23638   1.732   4.830   2.917
 7580SOL    HW123639   1.719   4.820   2.819
 7580SOL    HW223640   1.782   4.752   2.953
 7581SOL     OW23641   0.324   6.988   0.774
 7581SOL    HW123642   0.343   6.998   0.677
 7581SOL    HW223643   0.383   0.028   0.826
 7582SOL     OW23644   2.177   1.025   6.408
 7582SOL    HW123645   2.081   1.034   6.436
 7582SOL    HW223646   2.182   1.021   6.308
 7583SOL     OW23647   5.501   3.757   2.175
 7583SOL    HW123648   5.412   3.728   2.212
 7583SOL    HW223649   5.519   3.707   2.091
 7584SOL     OW23650   6.939   0.785   3.153
 7584SOL    HW123651   6.991   0.867   3.175
 7584SOL    HW223652   6.975   0.707   3.205
 7585SOL     OW23653   1.294   1.185   5.638
 7585SOL    HW123654   1.389   1.176   5.610
 7585SOL    HW223655   1.252   1.094   5.643
 7586SOL     OW23656   1.696   6.729   3.776
 7586SOL    HW123657   1.601   6.759   3.783
 7586SOL    HW223658   1.700   6.645   3.722
 7587SOL     OW23659   4.778   0.052   2.227
 7587SOL    HW123660   4.753   6.977   2.227
 7587SOL    HW223661   4.803   0.080   2.320
 7588SOL     OW23662   2.001   3.260   4.965
 7588SOL    HW123663   1.949   3.240   4.882
 7588SOL    HW223664   2.011   3.359   4.976
 7589SOL     OW23665   6.601   0.070   2.314
 7589SOL    HW123666   6.547   0.022   2.245
 7589SOL    HW223667   6.647   0.003   2.373
 7590SOL     OW23668   6.002   1.319   0.468
 7590SOL    HW123669   5.963   1.268   0.545
 7590SOL    HW223670   6.048   1.401   0.501
 7591SOL     OW23671   2.892   3.799   4.890
 7591SOL    HW123672   2.794   3.815   4.880
 7591SOL    HW223673   2.932   3.870   4.947
 7592SOL     OW23674   0.812   6.565   3.739
 7592SOL    HW123675   0.857   6.650   3.769
 7592SOL    HW223676   0.715   6.582   3.725
 7593SOL     OW23677   6.760   1.306   6.166
 7593SOL    HW123678   6.761   1.238   6.093
 7593SOL    HW223679   6.697   1.380   6.143
 7594SOL     OW23680   6.748   3.726   5.845
 7594SOL    HW123681   6.806   3.779   5.782
 7594SOL    HW223682   6.806   3.677   5.911
 7595SOL     OW23683   0.506   3.133   6.960
 7595SOL    HW123684   0.583   3.121   0.000
 7595SOL    HW223685   0.424   3.156   7.012
 7596SOL     OW23686   3.009   1.695   0.381
 7596SOL    HW123687   3.084   1.682   0.317
 7596SOL    HW223688   2.943   1.620   0.371
 7597SOL     OW23689   2.495   4.662   0.713
 7597SOL    HW123690   2.552   4.743   0.719
 7597SOL    HW223691   2.543   4.591   0.662
 7598SOL     OW23692   4.991   0.675   2.162
 7598SOL    HW123693   4.976   0.595   2.105
 7598SOL    HW223694   5.088   0.695   2.169
 7599SOL     OW23695   3.302   3.462   0.029
 7599SOL    HW123696   3.364   3.524   0.078
 7599SOL    HW223697   3.218   3.452   0.081
 7600SOL     OW23698   1.020   0.235   3.627
 7600SOL    HW123699   0.928   0.267   3.605
 7600SOL    HW223700   1.072   0.309   3.671
 7601SOL     OW23701   2.905   6.273   1.131
 7601SOL    HW123702   2.871   6.285   1.225
 7601SOL    HW223703   2.834   6.300   1.066
 7602SOL     OW23704   0.757   1.407   0.764
 7602SOL    HW123705   0.755   1.336   0.693
 7602SOL    HW223706   0.782   1.495   0.722
 7603SOL     OW23707   4.381   0.926   6.507
 7603SOL    HW123708   4.342   0.973   6.586
 7603SOL    HW223709   4.375   0.827   6.521
 7604SOL     OW23710   2.255   2.599   5.356
 7604SOL    HW123711   2.278   2.650   5.272
 7604SOL    HW223712   2.321   2.525   5.369
 7605SOL     OW23713   2.859   5.677   0.259
 7605SOL    HW123714   2.802   5.744   0.308
 7605SOL    HW223715   2.942   5.722   0.227
 7606SOL     OW23716   6.403   0.624   3.099
 7606SOL    HW123717   6.351   0.663   3.175
 7606SOL    HW223718   6.455   0.545   3.132
 7607SOL     OW23719   1.932   5.513   5.753
 7607SOL    HW123720   1.893   5.486   5.666
 7607SOL    HW223721   2.031   5.498   5.752
 7608SOL     OW23722   0.174   2.469   6.074
 7608SOL    HW123723   0.173   2.382   6.024
 7608SOL    HW223724   0.081   2.505   6.079
 7609SOL     OW23725   3.447   0.396   5.020
 7609SOL    HW123726   3.449   0.494   5.000
 7609SOL    HW223727   3.352   0.364   5.019
 7610SOL     OW23728   4.039   4.924   4.523
 7610SOL    HW123729   4.018   4.910   4.619
 7610SOL    HW223730   4.128   4.883   4.502
 7611SOL     OW23731   4.562   1.948   0.088
 7611SOL    HW123732   4.555   1.900   0.175
 7611SOL    HW223733   4.553   1.883   0.013
 7612SOL     OW23734   4.588   1.798   2.526
 7612SOL    HW123735   4.591   1.723   2.593
 7612SOL    HW223736   4.678   1.840   2.518
 7613SOL     OW23737   0.132   0.751   6.575
 7613SOL    HW123738   0.151   0.772   6.479
 7613SOL    HW223739   0.199   0.798   6.633
 7614SOL     OW23740   5.900   4.703   6.693
 7614SOL    HW123741   5.940   4.791   6.668
 7614SOL    HW223742   5.885   4.648   6.610
 7615SOL     OW23743   5.105   2.835   6.321
 7615SOL    HW123744   5.152   2.898   6.383
 7615SOL    HW223745   5.123   2.741   6.350
 7616SOL     OW23746   6.829   6.464   2.345
 7616SOL    HW123747   6.739   6.476   2.387
 7616SOL    HW223748   6.820   6.468   2.246
 7617SOL     OW23749   5.796   4.304   2.902
 7617SOL    HW123750   5.727   4.232   2.891
 7617SOL    HW223751   5.761   4.390   2.865
 7618SOL     OW23752   2.740   1.886   6.661
 7618SOL    HW123753   2.814   1.935   6.707
 7618SOL    HW223754   2.653   1.930   6.681
 7619SOL     OW23755   0.653   0.798   5.401
 7619SOL    HW123756   0.649   0.892   5.369
 7619SOL    HW223757   0.677   0.738   5.325
 7620SOL     OW23758   3.046   3.847   0.187
 7620SOL    HW123759   2.994   3.847   0.272
 7620SOL    HW223760   3.143   3.864   0.207
 7621SOL     OW23761   6.313   5.094   0.462
 7621SOL    HW123762   6.259   5.158   0.408
 7621SOL    HW223763   6.399   5.075   0.414
 7622SOL     OW23764   3.189   3.983   1.548
 7622SOL    HW123765   3.108   4.011   1.598
 7622SOL    HW223766   3.260   4.054   1.557
 7623SOL     OW23767   5.402   4.619   2.286
 7623SOL    HW123768   5.416   4.576   2.197
 7623SOL    HW223769   5.326   4.574   2.333
 7624SOL     OW23770   0.285   3.040   3.026
 7624SOL    HW123771   0.325   3.130   3.039
 7624SOL    HW223772   0.357   2.972   3.016
 7625SOL     OW23773   5.213   0.249   1.896
 7625SOL    HW123774   5.182   0.336   1.857
 7625SOL    HW223775   5.304   0.228   1.862
 7626SOL     OW23776   4.807   6.606   0.313
 7626SOL    HW123777   4.784   6.552   0.232
 7626SOL    HW223778   4.905   6.625   0.314
 7627SOL     OW23779   4.286   2.562   5.918
 7627SOL    HW123780   4.262   2.634   5.983
 7627SOL    HW223781   4.207   2.501   5.906
 7628SOL     OW23782   3.265   2.932   0.584
 7628SOL    HW123783   3.174   2.972   0.580
 7628SOL    HW223784   3.329   2.987   0.530
 7629SOL     OW23785   5.439   2.607   3.660
 7629SOL    HW123786   5.424   2.522   3.710
 7629SOL    HW223787   5.492   2.670   3.717
 7630SOL     OW23788   1.461   6.435   3.635
 7630SOL    HW123789   1.558   6.446   3.654
 7630SOL    HW223790   1.408   6.493   3.697
 7631SOL     OW23791   1.620   1.238   5.854
 7631SOL    HW123792   1.700   1.190   5.892
 7631SOL    HW223793   1.631   1.336   5.868
 7632SOL     OW23794   4.267   5.560   0.710
 7632SOL    HW123795   4.342   5.606   0.662
 7632SOL    HW223796   4.183   5.613   0.700
 7633SOL     OW23797   5.293   0.754   1.687
 7633SOL    HW123798   5.325   0.738   1.593
 7633SOL    HW223799   5.225   0.685   1.711
 7634SOL     OW23800   0.350   2.245   6.564
 7634SOL    HW123801   0.357   2.149   6.540
 7634SOL    HW223802   0.442   2.285   6.570
 7635SOL     OW23803   1.399   3.523   5.759
 7635SOL    HW123804   1.491   3.550   5.790
 7635SOL    HW223805   1.341   3.605   5.752
 7636SOL     OW23806   6.728   3.277   3.447
 7636SOL    HW123807   6.650   3.338   3.463
 7636SOL    HW223808   6.695   3.185   3.429
 7637SOL     OW23809   1.151   4.045   5.659
 7637SOL    HW123810   1.103   4.117   5.708
 7637SOL    HW223811   1.142   4.060   5.560
 7638SOL     OW23812   0.526   6.307   1.325
 7638SOL    HW123813   0.606   6.336   1.378
 7638SOL    HW223814   0.557   6.249   1.249
 7639SOL     OW23815   2.587   6.163   0.392
 7639SOL    HW123816   2.491   6.178   0.415
 7639SOL    HW223817   2.643   6.170   0.474
 7640SOL     OW23818   2.879   0.667   0.897
 7640SOL    HW123819   2.954   0.641   0.958
 7640SOL    HW223820   2.844   0.585   0.852
 7641SOL     OW23821   6.707   5.038   4.951
 7641SOL    HW123822   6.775   5.093   4.903
 7641SOL    HW223823   6.724   5.042   5.049
 7642SOL     OW23824   5.855   0.779   4.018
 7642SOL    HW123825   5.864   0.830   3.933
 7642SOL    HW223826   5.769   0.729   4.018
 7643SOL     OW23827   5.289   2.488   4.696
 7643SOL    HW123828   5.310   2.585   4.691
 7643SOL    HW223829   5.191   2.475   4.715
 7644SOL     OW23830   5.335   3.971   0.445
 7644SOL    HW123831   5.401   3.935   0.511
 7644SOL    HW223832   5.342   4.070   0.442
 7645SOL     OW23833   4.769   5.079   6.636
 7645SOL    HW123834   4.796   5.175   6.628
 7645SOL    HW223835   4.683   5.064   6.586
 7646SOL     OW23836   0.036   1.887   1.948
 7646SOL    HW123837   0.070   1.875   2.041
 7646SOL    HW223838   0.063   1.978   1.915
 7647SOL     OW23839   6.792   1.965   3.876
 7647SOL    HW123840   6.888   1.952   3.901
 7647SOL    HW223841   6.746   2.018   3.948
 7648SOL     OW23842   1.812   2.407   1.150
 7648SOL    HW123843   1.733   2.345   1.149
 7648SOL    HW223844   1.833   2.433   1.244
 7649SOL     OW23845   4.003   0.574   0.084
 7649SOL    HW123846   3.998   0.671   0.108
 7649SOL    HW223847   4.098   0.550   0.064
 7650SOL     OW23848   3.403   2.483   0.495
 7650SOL    HW123849   3.411   2.555   0.425
 7650SOL    HW223850   3.492   2.470   0.539
 7651SOL     OW23851   3.562   5.495   6.567
 7651SOL    HW123852   3.489   5.487   6.499
 7651SOL    HW223853   3.645   5.530   6.523
 7652SOL     OW23854   6.769   0.822   5.358
 7652SOL    HW123855   6.848   0.883   5.361
 7652SOL    HW223856   6.689   0.871   5.392
 7653SOL     OW23857   1.694   6.618   6.702
 7653SOL    HW123858   1.689   6.671   6.617
 7653SOL    HW223859   1.762   6.659   6.763
 7654SOL     OW23860   6.734   2.326   5.479
 7654SOL    HW123861   6.760   2.422   5.463
 7654SOL    HW223862   6.753   2.273   5.396
 7655SOL     OW23863   3.264   1.642   5.213
 7655SOL    HW123864   3.253   1.574   5.286
 7655SOL    HW223865   3.241   1.600   5.125
 7656SOL     OW23866   6.154   3.990   6.928
 7656SOL    HW123867   6.086   4.015   6.859
 7656SOL    HW223868   6.221   3.928   6.887
 7657SOL     OW23869   1.312   3.919   4.683
 7657SOL    HW123870   1.366   3.862   4.621
 7657SOL    HW223871   1.226   3.944   4.640
 7658SOL     OW23872   2.704   0.568   1.159
 7658SOL    HW123873   2.733   0.475   1.137
 7658SOL    HW223874   2.611   0.582   1.125
 7659SOL     OW23875   5.396   4.417   5.767
 7659SOL    HW123876   5.357   4.508   5.781
 7659SOL    HW223877   5.429   4.408   5.673
 7660SOL     OW23878   6.935   6.562   5.672
 7660SOL    HW123879   6.835   6.554   5.679
 7660SOL    HW223880   6.958   6.646   5.624
 7661SOL     OW23881   1.966   0.567   5.392
 7661SOL    HW123882   1.971   0.476   5.352
 7661SOL    HW223883   1.968   0.560   5.492
 7662SOL     OW23884   0.216   6.294   1.356
 7662SOL    HW123885   0.217   6.381   1.405
 7662SOL    HW223886   0.306   6.251   1.361
 7663SOL     OW23887   1.792   6.118   4.486
 7663SOL    HW123888   1.747   6.119   4.397
 7663SOL    HW223889   1.744   6.054   4.547
 7664SOL     OW23890   5.719   2.147   2.453
 7664SOL    HW123891   5.815   2.119   2.459
 7664SOL    HW223892   5.708   2.239   2.490
 7665SOL     OW23893   2.786   0.663   5.485
 7665SOL    HW123894   2.839   0.597   5.433
 7665SOL    HW223895   2.762   0.624   5.574
 7666SOL     OW23896   6.107   5.359   4.042
 7666SOL    HW123897   6.045   5.358   4.121
 7666SOL    HW223898   6.201   5.363   4.074
 7667SOL     OW23899   4.422   5.310   1.531
 7667SOL    HW123900   4.508   5.274   1.566
 7667SOL    HW223901   4.408   5.402   1.568
 7668SOL     OW23902   1.888   5.610   0.175
 7668SOL    HW123903   1.856   5.568   0.260
 7668SOL    HW223904   1.927   5.700   0.194
 7669SOL     OW23905   3.006   1.908   6.788
 7669SOL    HW123906   3.062   1.846   6.843
 7669SOL    HW223907   3.032   1.901   6.692
 7670SOL     OW23908   0.552   0.416   0.783
 7670SOL    HW123909   0.567   0.392   0.878
 7670SOL    HW223910   0.602   0.500   0.761
 7671SOL     OW23911   3.830   0.374   1.432
 7671SOL    HW123912   3.838   0.414   1.341
 7671SOL    HW223913   3.734   0.368   1.457
 7672SOL     OW23914   5.418   3.356   2.229
 7672SOL    HW123915   5.420   3.257   2.245
 7672SOL    HW223916   5.501   3.383   2.180
 7673SOL     OW23917   2.138   6.516   5.321
 7673SOL    HW123918   2.106   6.423   5.305
 7673SOL    HW223919   2.188   6.549   5.241
 7674SOL     OW23920   3.510   5.754   3.698
 7674SOL    HW123921   3.574   5.677   3.705
 7674SOL    HW223922   3.465   5.752   3.609
 7675SOL     OW23923   3.766   6.169   3.627
 7675SOL    HW123924   3.722   6.250   3.588
 7675SOL    HW223925   3.817   6.195   3.710
 7676SOL     OW23926   2.921   3.334   4.770
 7676SOL    HW123927   2.930   3.283   4.685
 7676SOL    HW223928   2.856   3.287   4.830
 7677SOL     OW23929   0.618   6.193   6.869
 7677SOL    HW123930   0.530   6.148   6.860
 7677SOL    HW223931   0.621   6.273   6.809
 7678SOL     OW23932   3.509   1.059   5.446
 7678SOL    HW123933   3.472   0.968   5.425
 7678SOL    HW223934   3.527   1.108   5.361
 7679SOL     OW23935   2.564   5.051   4.375
 7679SOL    HW123936   2.541   5.018   4.467
 7679SOL    HW223937   2.657   5.023   4.353
 7680SOL     OW23938   1.910   6.436   3.986
 7680SOL    HW123939   1.887   6.524   3.945
 7680SOL    HW223940   1.862   6.426   4.073
 7681SOL     OW23941   2.178   1.902   5.831
 7681SOL    HW123942   2.081   1.919   5.811
 7681SOL    HW223943   2.205   1.815   5.789
 7682SOL     OW23944   3.598   0.613   1.848
 7682SOL    HW123945   3.608   0.657   1.937
 7682SOL    HW223946   3.554   0.524   1.859
 7683SOL     OW23947   0.658   4.390   4.596
 7683SOL    HW123948   0.698   4.456   4.660
 7683SOL    HW223949   0.632   4.437   4.512
 7684SOL     OW23950   4.849   3.371   1.794
 7684SOL    HW123951   4.815   3.463   1.773
 7684SOL    HW223952   4.778   3.304   1.771
 7685SOL     OW23953   2.222   6.933   7.000
 7685SOL    HW123954   2.200   6.877   0.057
 7685SOL    HW223955   2.197   6.884   6.917
 7686SOL     OW23956   6.333   0.505   3.974
 7686SOL    HW123957   6.407   0.510   4.040
 7686SOL    HW223958   6.371   0.507   3.881
 7687SOL     OW23959   5.429   3.299   5.846
 7687SOL    HW123960   5.351   3.280   5.786
 7687SOL    HW223961   5.465   3.390   5.827
 7688SOL     OW23962   6.483   3.206   0.419
 7688SOL    HW123963   6.554   3.241   0.480
 7688SOL    HW223964   6.453   3.278   0.357
 7689SOL     OW23965   5.678   0.240   2.656
 7689SOL    HW123966   5.775   0.264   2.657
 7689SOL    HW223967   5.625   0.317   2.622
 7690SOL     OW23968   6.281   4.815   2.427
 7690SOL    HW123969   6.210   4.863   2.376
 7690SOL    HW223970   6.241   4.766   2.504
 7691SOL     OW23971   5.253   3.194   3.885
 7691SOL    HW123972   5.253   3.162   3.790
 7691SOL    HW223973   5.243   3.293   3.887
 7692SOL     OW23974   1.974   6.687   2.156
 7692SOL    HW123975   2.068   6.653   2.151
 7692SOL    HW223976   1.973   6.776   2.202
 7693SOL     OW23977   2.623   2.184   1.213
 7693SOL    HW123978   2.572   2.158   1.131
 7693SOL    HW223979   2.721   2.173   1.196
 7694SOL     OW23980   4.357   2.425   1.004
 7694SOL    HW123981   4.417   2.459   0.931
 7694SOL    HW223982   4.331   2.500   1.064
 7695SOL     OW23983   5.229   6.543   4.137
 7695SOL    HW123984   5.203   6.542   4.233
 7695SOL    HW223985   5.327   6.524   4.128
 7696SOL     OW23986   3.025   1.676   5.653
 7696SOL    HW123987   2.949   1.667   5.589
 7696SOL    HW223988   2.995   1.649   5.744
 7697SOL     OW23989   5.563   6.743   2.925
 7697SOL    HW123990   5.608   6.657   2.905
 7697SOL    HW223991   5.465   6.735   2.903
 7698SOL     OW23992   6.073   2.690   1.526
 7698SOL    HW123993   6.048   2.668   1.432
 7698SOL    HW223994   5.990   2.696   1.582
 7699SOL     OW23995   3.808   5.645   6.148
 7699SOL    HW123996   3.729   5.588   6.170
 7699SOL    HW223997   3.863   5.660   6.230
 7700SOL     OW23998   6.804   5.371   1.960
 7700SOL    HW123999   6.766   5.379   1.867
 7700SOL    HW224000   6.897   5.336   1.954
 7701SOL     OW24001   3.352   1.279   6.563
 7701SOL    HW124002   3.392   1.301   6.652
 7701SOL    HW224003   3.366   1.356   6.500
 7702SOL     OW24004   6.310   6.050   5.543
 7702SOL    HW124005   6.274   6.023   5.454
 7702SOL    HW224006   6.261   6.001   5.615
 7703SOL     OW24007   0.009   6.492   6.341
 7703SOL    HW124008   6.973   6.573   6.340
 7703SOL    HW224009   0.093   6.511   6.291
 7704SOL     OW24010   1.990   2.027   4.660
 7704SOL    HW124011   1.996   2.124   4.638
 7704SOL    HW224012   1.899   2.005   4.693
 7705SOL     OW24013   0.905   4.419   0.492
 7705SOL    HW124014   0.954   4.393   0.575
 7705SOL    HW224015   0.904   4.518   0.484
 7706SOL     OW24016   3.140   3.989   2.543
 7706SOL    HW124017   3.218   4.015   2.600
 7706SOL    HW224018   3.058   3.986   2.599
 7707SOL     OW24019   0.300   5.192   6.159
 7707SOL    HW124020   0.222   5.255   6.155
 7707SOL    HW224021   0.382   5.241   6.190
 7708SOL     OW24022   0.429   0.228   4.303
 7708SOL    HW124023   0.478   0.242   4.389
 7708SOL    HW224024   0.382   0.313   4.277
 7709SOL     OW24025   6.649   4.657   0.962
 7709SOL    HW124026   6.642   4.634   0.865
 7709SOL    HW224027   6.655   4.756   0.973
 7710SOL     OW24028   6.673   3.181   2.537
 7710SOL    HW124029   6.713   3.251   2.596
 7710SOL    HW224030   6.732   3.167   2.457
 7711SOL     OW24031   0.819   4.028   3.347
 7711SOL    HW124032   0.837   3.936   3.384
 7711SOL    HW224033   0.897   4.057   3.292
 7712SOL     OW24034   0.973   4.584   4.287
 7712SOL    HW124035   1.072   4.568   4.292
 7712SOL    HW224036   0.928   4.505   4.245
 7713SOL     OW24037   1.119   5.694   0.568
 7713SOL    HW124038   1.099   5.761   0.640
 7713SOL    HW224039   1.113   5.601   0.606
 7714SOL     OW24040   5.550   1.490   5.107
 7714SOL    HW124041   5.497   1.477   5.191
 7714SOL    HW224042   5.494   1.463   5.029
 7715SOL     OW24043   4.001   3.724   6.819
 7715SOL    HW124044   3.995   3.780   6.736
 7715SOL    HW224045   4.038   3.635   6.795
 7716SOL     OW24046   1.253   1.253   6.496
 7716SOL    HW124047   1.310   1.171   6.483
 7716SOL    HW224048   1.262   1.285   6.590
 7717SOL     OW24049   0.892   1.387   6.166
 7717SOL    HW124050   0.934   1.407   6.255
 7717SOL    HW224051   0.947   1.430   6.094
 7718SOL     OW24052   0.307   3.641   3.610
 7718SOL    HW124053   0.219   3.690   3.614
 7718SOL    HW224054   0.356   3.668   3.526
 7719SOL     OW24055   2.116   6.413   4.757
 7719SOL    HW124056   2.027   6.393   4.798
 7719SOL    HW224057   2.188   6.394   4.823
 7720SOL     OW24058   4.748   1.546   6.788
 7720SOL    HW124059   4.738   1.577   6.693
 7720SOL    HW224060   4.842   1.562   6.819
 7721SOL     OW24061   5.904   5.561   2.640
 7721SOL    HW124062   5.957   5.590   2.561
 7721SOL    HW224063   5.821   5.514   2.610
 7722SOL     OW24064   0.130   6.071   4.669
 7722SOL    HW124065   0.032   6.059   4.654
 7722SOL    HW224066   0.160   6.010   4.743
 7723SOL     OW24067   4.214   4.385   6.994
 7723SOL    HW124068   4.131   4.350   0.015
 7723SOL    HW224069   4.280   4.410   0.042
 7724SOL     OW24070   1.214   4.795   0.439
 7724SOL    HW124071   1.311   4.795   0.463
 7724SOL    HW224072   1.163   4.741   0.505
 7725SOL     OW24073   5.209   3.233   4.961
 7725SOL    HW124074   5.117   3.273   4.950
 7725SOL    HW224075   5.267   3.263   4.885
 7726SOL     OW24076   2.080   3.202   0.213
 7726SOL    HW124077   2.086   3.222   0.311
 7726SOL    HW224078   1.988   3.224   0.181
 7727SOL     OW24079   5.843   0.409   3.046
 7727SOL    HW124080   5.776   0.337   3.031
 7727SOL    HW224081   5.803   0.497   3.021
 7728SOL     OW24082   2.224   3.412   5.253
 7728SOL    HW124083   2.308   3.383   5.298
 7728SOL    HW224084   2.185   3.334   5.203
 7729SOL     OW24085   6.975   1.095   2.559
 7729SOL    HW124086   6.906   1.148   2.509
 7729SOL    HW224087   6.973   1.121   2.655
 7730SOL     OW24088   6.067   3.896   6.137
 7730SOL    HW124089   6.075   3.796   6.139
 7730SOL    HW224090   6.114   3.931   6.056
 7731SOL     OW24091   6.809   0.730   6.427
 7731SOL    HW124092   6.721   0.725   6.475
 7731SOL    HW224093   6.828   0.825   6.403
 7732SOL     OW24094   4.248   1.215   6.956
 7732SOL    HW124095   4.160   1.261   6.947
 7732SOL    HW224096   4.241   1.142   0.002
 7733SOL     OW24097   6.291   6.222   1.225
 7733SOL    HW124098   6.252   6.136   1.191
 7733SOL    HW224099   6.229   6.261   1.293
 7734SOL     OW24100   4.025   3.767   3.586
 7734SOL    HW124101   4.002   3.842   3.648
 7734SOL    HW224102   4.043   3.685   3.640
 7735SOL     OW24103   1.052   5.860   0.805
 7735SOL    HW124104   1.013   5.819   0.887
 7735SOL    HW224105   1.029   5.957   0.802
 7736SOL     OW24106   1.536   1.508   0.996
 7736SOL    HW124107   1.600   1.440   0.960
 7736SOL    HW224108   1.451   1.505   0.945
 7737SOL     OW24109   4.653   4.674   6.323
 7737SOL    HW124110   4.666   4.583   6.362
 7737SOL    HW224111   4.688   4.676   6.230
 7738SOL     OW24112   1.565   1.178   5.544
 7738SOL    HW124113   1.608   1.233   5.615
 7738SOL    HW224114   1.623   1.100   5.523
 7739SOL     OW24115   0.819   2.986   6.658
 7739SOL    HW124116   0.759   3.053   6.700
 7739SOL    HW224117   0.783   2.894   6.674
 7740SOL     OW24118   2.363   1.266   4.246
 7740SOL    HW124119   2.376   1.168   4.230
 7740SOL    HW224120   2.269   1.283   4.276
 7741SOL     OW24121   6.785   4.163   6.146
 7741SOL    HW124122   6.698   4.182   6.099
 7741SOL    HW224123   6.778   4.191   6.241
 7742SOL     OW24124   4.700   1.990   3.916
 7742SOL    HW124125   4.607   2.022   3.900
 7742SOL    HW224126   4.697   1.895   3.948
 7743SOL     OW24127   3.421   0.774   6.354
 7743SOL    HW124128   3.473   0.781   6.268
 7743SOL    HW224129   3.388   0.865   6.380
 7744SOL     OW24130   0.448   6.788   4.789
 7744SOL    HW124131   0.417   6.743   4.704
 7744SOL    HW224132   0.543   6.762   4.807
 7745SOL     OW24133   2.777   0.071   0.263
 7745SOL    HW124134   2.768   7.007   0.313
 7745SOL    HW224135   2.813   0.141   0.325
 7746SOL     OW24136   0.125   6.343   0.750
 7746SOL    HW124137   0.068   6.422   0.727
 7746SOL    HW224138   0.204   6.373   0.803
 7747SOL     OW24139   0.167   5.918   1.601
 7747SOL    HW124140   0.077   5.878   1.616
 7747SOL    HW224141   0.162   5.983   1.525
 7748SOL     OW24142   4.399   1.090   6.255
 7748SOL    HW124143   4.400   1.024   6.329
 7748SOL    HW224144   4.398   1.183   6.292
 7749SOL     OW24145   3.031   3.838   2.760
 7749SOL    HW124146   3.100   3.772   2.788
 7749SOL    HW224147   2.992   3.882   2.841
 7750SOL     OW24148   5.333   4.596   6.032
 7750SOL    HW124149   5.279   4.630   6.109
 7750SOL    HW224150   5.429   4.619   6.046
 7751SOL     OW24151   0.377   1.425   5.247
 7751SOL    HW124152   0.279   1.431   5.267
 7751SOL    HW224153   0.407   1.330   5.259
 7752SOL     OW24154   6.149   4.087   5.962
 7752SOL    HW124155   6.181   4.142   6.040
 7752SOL    HW224156   6.196   4.116   5.879
 7753SOL     OW24157   3.160   0.813   4.958
 7753SOL    HW124158   3.116   0.862   4.882
 7753SOL    HW224159   3.235   0.869   4.994
 7754SOL     OW24160   6.369   0.904   0.976
 7754SOL    HW124161   6.324   0.860   0.898
 7754SOL    HW224162   6.372   0.839   1.053
 7755SOL     OW24163   1.683   6.230   5.267
 7755SOL    HW124164   1.688   6.329   5.282
 7755SOL    HW224165   1.602   6.194   5.314
 7756SOL     OW24166   3.659   6.024   2.989
 7756SOL    HW124167   3.687   5.936   2.951
 7756SOL    HW224168   3.718   6.048   3.067
 7757SOL     OW24169   3.444   0.539   5.805
 7757SOL    HW124170   3.479   0.530   5.898
 7757SOL    HW224171   3.518   0.566   5.743
 7758SOL     OW24172   2.382   2.129   6.273
 7758SOL    HW124173   2.340   2.206   6.321
 7758SOL    HW224174   2.416   2.161   6.184
 7759SOL     OW24175   2.153   0.615   4.839
 7759SOL    HW124176   2.099   0.559   4.776
 7759SOL    HW224177   2.198   0.688   4.788
 7760SOL     OW24178   5.272   2.218   3.293
 7760SOL    HW124179   5.246   2.121   3.289
 7760SOL    HW224180   5.248   2.262   3.206
 7761SOL     OW24181   4.522   1.338   6.777
 7761SOL    HW124182   4.431   1.378   6.786
 7761SOL    HW224183   4.591   1.410   6.782
 7762SOL     OW24184   1.113   2.477   0.804
 7762SOL    HW124185   1.170   2.461   0.723
 7762SOL    HW224186   1.139   2.413   0.876
 7763SOL     OW24187   2.757   2.608   0.776
 7763SOL    HW124188   2.825   2.673   0.809
 7763SOL    HW224189   2.724   2.552   0.852
 7764SOL     OW24190   3.326   3.131   2.050
 7764SOL    HW124191   3.245   3.080   2.020
 7764SOL    HW224192   3.369   3.083   2.126
 7765SOL     OW24193   6.831   1.494   2.073
 7765SOL    HW124194   6.842   1.442   2.157
 7765SOL    HW224195   6.778   1.577   2.091
 7766SOL     OW24196   0.135   2.859   6.465
 7766SOL    HW124197   0.089   2.778   6.427
 7766SOL    HW224198   0.223   2.832   6.503
 7767SOL     OW24199   5.709   3.977   5.285
 7767SOL    HW124200   5.783   4.030   5.242
 7767SOL    HW224201   5.669   3.915   5.218
 7768SOL     OW24202   3.705   5.042   1.348
 7768SOL    HW124203   3.724   4.947   1.373
 7768SOL    HW224204   3.664   5.089   1.427
 7769SOL     OW24205   5.576   2.053   2.668
 7769SOL    HW124206   5.610   2.108   2.592
 7769SOL    HW224207   5.585   1.956   2.645
 7770SOL     OW24208   3.527   6.428   1.086
 7770SOL    HW124209   3.455   6.428   1.015
 7770SOL    HW224210   3.568   6.337   1.092
 7771SOL     OW24211   1.745   1.206   4.551
 7771SOL    HW124212   1.750   1.270   4.627
 7771SOL    HW224213   1.773   1.252   4.467
 7772SOL     OW24214   5.409   0.407   5.450
 7772SOL    HW124215   5.339   0.477   5.460
 7772SOL    HW224216   5.499   0.449   5.464
 7773SOL     OW24217   4.052   4.691   5.816
 7773SOL    HW124218   4.038   4.789   5.830
 7773SOL    HW224219   3.971   4.650   5.775
 7774SOL     OW24220   4.980   1.697   6.847
 7774SOL    HW124221   5.022   1.743   6.925
 7774SOL    HW224222   5.032   1.719   6.764
 7775SOL     OW24223   1.725   6.876   2.470
 7775SOL    HW124224   1.653   6.891   2.538
 7775SOL    HW224225   1.758   6.782   2.478
 7776SOL     OW24226   3.596   4.613   0.693
 7776SOL    HW124227   3.667   4.599   0.624
 7776SOL    HW224228   3.581   4.711   0.706
 7777SOL     OW24229   0.422   0.670   6.353
 7777SOL    HW124230   0.408   0.572   6.342
 7777SOL    HW224231   0.446   0.689   6.449
 7778SOL     OW24232   4.747   1.932   2.134
 7778SOL    HW124233   4.802   1.850   2.117
 7778SOL    HW224234   4.652   1.915   2.109
 7779SOL     OW24235   4.020   3.087   0.419
 7779SOL    HW124236   3.924   3.114   0.416
 7779SOL    HW224237   4.062   3.103   0.329
 7780SOL     OW24238   0.804   0.329   4.380
 7780SOL    HW124239   0.749   0.271   4.319
 7780SOL    HW224240   0.893   0.287   4.396
 7781SOL     OW24241   1.880   4.067   5.818
 7781SOL    HW124242   1.889   4.128   5.739
 7781SOL    HW224243   1.803   4.005   5.803
 7782SOL     OW24244   4.718   4.601   0.297
 7782SOL    HW124245   4.705   4.696   0.269
 7782SOL    HW224246   4.666   4.583   0.380
 7783SOL     OW24247   3.232   6.017   6.873
 7783SOL    HW124248   3.227   5.957   6.953
 7783SOL    HW224249   3.328   6.043   6.857
 7784SOL     OW24250   6.214   3.652   0.479
 7784SOL    HW124251   6.283   3.629   0.410
 7784SOL    HW224252   6.149   3.718   0.441
 7785SOL     OW24253   1.386   6.337   6.126
 7785SOL    HW124254   1.400   6.283   6.208
 7785SOL    HW224255   1.331   6.418   6.148
 7786SOL     OW24256   3.806   4.266   5.336
 7786SOL    HW124257   3.857   4.266   5.250
 7786SOL    HW224258   3.859   4.311   5.407
 7787SOL     OW24259   3.140   2.111   5.629
 7787SOL    HW124260   3.077   2.088   5.555
 7787SOL    HW224261   3.231   2.073   5.608
 7788SOL     OW24262   6.920   2.265   1.087
 7788SOL    HW124263   6.868   2.315   1.156
 7788SOL    HW224264   6.877   2.275   0.998
 7789SOL     OW24265   1.736   0.143   1.762
 7789SOL    HW124266   1.728   0.130   1.861
 7789SOL    HW224267   1.651   0.180   1.726
 7790SOL     OW24268   0.160   3.454   2.704
 7790SOL    HW124269   0.150   3.361   2.669
 7790SOL    HW224270   0.134   3.519   2.632
 7791SOL     OW24271   0.195   5.446   5.567
 7791SOL    HW124272   0.196   5.546   5.554
 7791SOL    HW224273   0.278   5.407   5.529
 7792SOL     OW24274   1.677   5.897   6.337
 7792SOL    HW124275   1.669   5.817   6.277
 7792SOL    HW224276   1.756   5.951   6.310
 7793SOL     OW24277   2.218   0.697   6.449
 7793SOL    HW124278   2.213   0.794   6.473
 7793SOL    HW224279   2.297   0.655   6.494
 7794SOL     OW24280   5.342   5.219   2.603
 7794SOL    HW124281   5.435   5.253   2.619
 7794SOL    HW224282   5.316   5.237   2.508
 7795SOL     OW24283   1.141   4.260   6.370
 7795SOL    HW124284   1.057   4.245   6.423
 7795SOL    HW224285   1.120   4.257   6.272
 7796SOL     OW24286   3.947   3.267   5.065
 7796SOL    HW124287   3.965   3.268   4.967
 7796SOL    HW224288   4.028   3.301   5.114
 7797SOL     OW24289   1.358   6.573   3.406
 7797SOL    HW124290   1.400   6.520   3.480
 7797SOL    HW224291   1.419   6.649   3.381
 7798SOL     OW24292   4.074   5.546   6.315
 7798SOL    HW124293   4.172   5.548   6.292
 7798SOL    HW224294   4.053   5.463   6.367
 7799SOL     OW24295   6.159   5.995   2.043
 7799SOL    HW124296   6.217   5.916   2.023
 7799SOL    HW224297   6.063   5.966   2.051
 7800SOL     OW24298   0.846   6.188   1.641
 7800SOL    HW124299   0.855   6.235   1.553
 7800SOL    HW224300   0.810   6.251   1.709
 7801SOL     OW24301   4.336   2.114   5.384
 7801SOL    HW124302   4.399   2.111   5.461
 7801SOL    HW224303   4.335   2.026   5.336
 7802SOL     OW24304   5.619   2.654   6.744
 7802SOL    HW124305   5.542   2.660   6.681
 7802SOL    HW224306   5.682   2.583   6.712
 7803SOL     OW24307   3.525   3.763   6.077
 7803SOL    HW124308   3.578   3.775   5.993
 7803SOL    HW224309   3.499   3.666   6.086
 7804SOL     OW24310   5.121   0.929   6.251
 7804SOL    HW124311   5.146   1.002   6.316
 7804SOL    HW224312   5.026   0.903   6.265
 7805SOL     OW24313   5.433   2.970   1.370
 7805SOL    HW124314   5.437   2.976   1.470
 7805SOL    HW224315   5.388   2.885   1.343
 7806SOL     OW24316   4.956   2.766   0.474
 7806SOL    HW124317   5.041   2.776   0.423
 7806SOL    HW224318   4.940   2.847   0.530
 7807SOL     OW24319   0.546   3.945   6.939
 7807SOL    HW124320   0.590   3.933   0.005
 7807SOL    HW224321   0.524   4.041   6.926
 7808SOL     OW24322   0.097   1.411   5.299
 7808SOL    HW124323   0.011   1.447   5.337
 7808SOL    HW224324   0.084   1.315   5.273
 7809SOL     OW24325   1.411   5.683   5.416
 7809SOL    HW124326   1.383   5.709   5.509
 7809SOL    HW224327   1.468   5.601   5.420
 7810SOL     OW24328   3.071   1.392   6.994
 7810SOL    HW124329   2.987   1.374   0.023
 7810SOL    HW224330   3.078   1.329   6.917
 7811SOL     OW24331   6.534   4.890   5.074
 7811SOL    HW124332   6.438   4.915   5.060
 7811SOL    HW224333   6.592   4.952   5.021
 7812SOL     OW24334   0.208   1.773   3.425
 7812SOL    HW124335   0.291   1.755   3.478
 7812SOL    HW224336   0.196   1.700   3.357
 7813SOL     OW24337   6.122   1.771   0.974
 7813SOL    HW124338   6.178   1.772   0.891
 7813SOL    HW224339   6.032   1.734   0.952
 7814SOL     OW24340   1.980   2.940   4.696
 7814SOL    HW124341   2.015   3.013   4.754
 7814SOL    HW224342   2.049   2.918   4.626
 7815SOL     OW24343   6.921   2.060   5.544
 7815SOL    HW124344   6.884   2.045   5.636
 7815SOL    HW224345   6.847   2.060   5.477
 7816SOL     OW24346   0.287   4.899   5.090
 7816SOL    HW124347   0.307   4.996   5.075
 7816SOL    HW224348   0.344   4.865   5.164
 7817SOL     OW24349   5.763   2.974   5.510
 7817SOL    HW124350   5.694   3.015   5.449
 7817SOL    HW224351   5.840   3.037   5.520
 7818SOL     OW24352   5.551   3.379   3.725
 7818SOL    HW124353   5.480   3.442   3.757
 7818SOL    HW224354   5.586   3.411   3.637
 7819SOL     OW24355   0.850   1.103   0.959
 7819SOL    HW124356   0.929   1.157   0.928
 7819SOL    HW224357   0.856   1.089   1.058
 7820SOL     OW24358   2.859   6.741   6.212
 7820SOL    HW124359   2.860   6.647   6.178
 7820SOL    HW224360   2.938   6.755   6.273
 7821SOL     OW24361   2.943   5.874   0.707
 7821SOL    HW124362   2.946   5.778   0.736
 7821SOL    HW224363   2.957   5.933   0.787
 7822SOL     OW24364   1.419   6.574   5.114
 7822SOL    HW124365   1.427   6.671   5.137
 7822SOL    HW224366   1.328   6.555   5.078
 7823SOL     OW24367   1.860   3.334   5.511
 7823SOL    HW124368   1.946   3.381   5.532
 7823SOL    HW224369   1.818   3.301   5.595
 7824SOL     OW24370   1.080   3.117   5.300
 7824SOL    HW124371   1.048   3.207   5.331
 7824SOL    HW224372   1.160   3.090   5.353
 7825SOL     OW24373   2.496   0.822   0.150
 7825SOL    HW124374   2.426   0.755   0.177
 7825SOL    HW224375   2.454   0.891   0.091
 7826SOL     OW24376   0.728   4.128   5.886
 7826SOL    HW124377   0.680   4.171   5.962
 7826SOL    HW224378   0.797   4.064   5.920
 7827SOL     OW24379   6.057   4.881   4.173
 7827SOL    HW124380   6.107   4.835   4.100
 7827SOL    HW224381   6.117   4.945   4.220
 7828SOL     OW24382   1.246   5.972   5.961
 7828SOL    HW124383   1.335   6.008   5.933
 7828SOL    HW224384   1.174   6.011   5.902
 7829SOL     OW24385   4.821   5.000   0.666
 7829SOL    HW124386   4.727   4.975   0.688
 7829SOL    HW224387   4.874   4.917   0.650
 7830SOL     OW24388   2.014   5.501   4.244
 7830SOL    HW124389   2.057   5.578   4.197
 7830SOL    HW224390   1.929   5.530   4.286
 7831SOL     OW24391   1.942   0.287   6.396
 7831SOL    HW124392   1.852   0.260   6.431
 7831SOL    HW224393   1.957   0.384   6.413
 7832SOL     OW24394   6.730   1.165   5.427
 7832SOL    HW124395   6.731   1.223   5.346
 7832SOL    HW224396   6.642   1.119   5.434
 7833SOL     OW24397   0.947   0.271   3.008
 7833SOL    HW124398   0.931   0.355   2.956
 7833SOL    HW224399   0.981   0.294   3.099
 7834SOL     OW24400   6.876   3.632   5.117
 7834SOL    HW124401   6.802   3.645   5.050
 7834SOL    HW224402   6.870   3.704   5.187
 7835SOL     OW24403   3.334   2.444   5.647
 7835SOL    HW124404   3.384   2.385   5.710
 7835SOL    HW224405   3.335   2.405   5.555
 7836SOL     OW24406   2.985   3.552   4.916
 7836SOL    HW124407   2.948   3.643   4.896
 7836SOL    HW224408   2.961   3.490   4.841
 7837SOL     OW24409   0.953   5.622   6.682
 7837SOL    HW124410   0.858   5.590   6.677
 7837SOL    HW224411   0.958   5.704   6.740
 7838SOL     OW24412   4.394   4.949   1.655
 7838SOL    HW124413   4.326   4.880   1.630
 7838SOL    HW224414   4.471   4.945   1.592
 7839SOL     OW24415   6.548   3.919   4.874
 7839SOL    HW124416   6.460   3.917   4.826
 7839SOL    HW224417   6.580   4.014   4.880
 7840SOL     OW24418   2.068   2.473   3.284
 7840SOL    HW124419   2.020   2.547   3.333
 7840SOL    HW224420   2.052   2.387   3.331
 7841SOL     OW24421   4.806   1.657   5.807
 7841SOL    HW124422   4.840   1.732   5.751
 7841SOL    HW224423   4.773   1.693   5.894
 7842SOL     OW24424   0.874   0.424   1.031
 7842SOL    HW124425   0.884   0.410   0.933
 7842SOL    HW224426   0.895   0.338   1.079
 7843SOL     OW24427   6.550   6.532   2.018
 7843SOL    HW124428   6.568   6.547   1.920
 7843SOL    HW224429   6.526   6.436   2.033
 7844SOL     OW24430   4.252   0.415   2.623
 7844SOL    HW124431   4.169   0.369   2.593
 7844SOL    HW224432   4.288   0.370   2.705
 7845SOL     OW24433   6.536   2.952   1.690
 7845SOL    HW124434   6.451   3.001   1.676
 7845SOL    HW224435   6.612   3.003   1.649
 7846SOL     OW24436   0.644   1.679   0.430
 7846SOL    HW124437   0.684   1.755   0.380
 7846SOL    HW224438   0.558   1.708   0.473
 7847SOL     OW24439   5.712   4.002   6.014
 7847SOL    HW124440   5.721   4.043   5.923
 7847SOL    HW224441   5.756   4.060   6.082
 7848SOL     OW24442   4.558   4.934   0.719
 7848SOL    HW124443   4.505   5.000   0.666
 7848SOL    HW224444   4.518   4.843   0.709
 7849SOL     OW24445   4.519   4.991   6.831
 7849SOL    HW124446   4.451   4.971   6.903
 7849SOL    HW224447   4.475   4.981   6.741
 7850SOL     OW24448   6.581   0.813   3.448
 7850SOL    HW124449   6.670   0.811   3.494
 7850SOL    HW224450   6.516   0.866   3.503
 7851SOL     OW24451   0.388   4.781   0.628
 7851SOL    HW124452   0.404   4.807   0.723
 7851SOL    HW224453   0.340   4.856   0.581
 7852SOL     OW24454   1.123   3.421   6.221
 7852SOL    HW124455   1.142   3.351   6.152
 7852SOL    HW224456   1.035   3.464   6.201
 7853SOL     OW24457   4.372   3.105   1.612
 7853SOL    HW124458   4.431   3.101   1.693
 7853SOL    HW224459   4.382   3.021   1.559
 7854SOL     OW24460   4.026   1.146   0.965
 7854SOL    HW124461   4.051   1.242   0.978
 7854SOL    HW224462   3.980   1.135   0.877
 7855SOL     OW24463   5.068   6.178   3.964
 7855SOL    HW124464   5.091   6.091   3.919
 7855SOL    HW224465   5.128   6.250   3.929
 7856SOL     OW24466   2.211   6.339   6.340
 7856SOL    HW124467   2.260   6.288   6.410
 7856SOL    HW224468   2.274   6.368   6.268
 7857SOL     OW24469   6.786   5.351   0.491
 7857SOL    HW124470   6.688   5.367   0.501
 7857SOL    HW224471   6.831   5.369   0.579
 7858SOL     OW24472   0.554   3.983   6.279
 7858SOL    HW124473   0.534   3.885   6.286
 7858SOL    HW224474   0.560   4.008   6.182
 7859SOL     OW24475   4.708   2.030   1.309
 7859SOL    HW124476   4.675   1.974   1.386
 7859SOL    HW224477   4.631   2.077   1.266
 7860SOL     OW24478   2.302   1.837   3.379
 7860SOL    HW124479   2.333   1.883   3.297
 7860SOL    HW224480   2.369   1.851   3.453
 7861SOL     OW24481   1.891   5.741   0.772
 7861SOL    HW124482   1.962   5.709   0.709
 7861SOL    HW224483   1.931   5.758   0.862
 7862SOL     OW24484   1.225   6.701   0.272
 7862SOL    HW124485   1.224   6.610   0.315
 7862SOL    HW224486   1.131   6.733   0.259
 7863SOL     OW24487   0.088   3.872   3.521
 7863SOL    HW124488   0.050   3.833   3.605
 7863SOL    HW224489   0.071   3.970   3.519
 7864SOL     OW24490   3.272   5.474   4.957
 7864SOL    HW124491   3.322   5.557   4.981
 7864SOL    HW224492   3.248   5.424   5.040
 7865SOL     OW24493   6.254   5.193   3.774
 7865SOL    HW124494   6.194   5.117   3.801
 7865SOL    HW224495   6.328   5.158   3.717
 7866SOL     OW24496   0.865   0.886   5.576
 7866SOL    HW124497   0.783   0.855   5.528
 7866SOL    HW224498   0.913   0.954   5.521
 7867SOL     OW24499   3.741   5.144   2.818
 7867SOL    HW124500   3.812   5.160   2.887
 7867SOL    HW224501   3.726   5.046   2.808
 7868SOL     OW24502   3.727   6.066   1.359
 7868SOL    HW124503   3.678   5.980   1.369
 7868SOL    HW224504   3.721   6.118   1.444
 7869SOL     OW24505   5.707   5.029   6.556
 7869SOL    HW124506   5.657   4.943   6.570
 7869SOL    HW224507   5.803   5.015   6.581
 7870SOL     OW24508   6.812   7.016   3.557
 7870SOL    HW124509   6.883   6.984   3.495
 7870SOL    HW224510   6.854   0.045   3.632
 7871SOL     OW24511   4.411   1.098   0.735
 7871SOL    HW124512   4.318   1.118   0.704
 7871SOL    HW224513   4.461   1.051   0.663
 7872SOL     OW24514   6.901   4.547   4.117
 7872SOL    HW124515   6.862   4.532   4.026
 7872SOL    HW224516   6.970   4.477   4.136
 7873SOL     OW24517   4.363   2.606   6.836
 7873SOL    HW124518   4.298   2.600   6.912
 7873SOL    HW224519   4.375   2.516   6.795
 7874SOL     OW24520   6.497   2.427   6.935
 7874SOL    HW124521   6.485   2.477   6.849
 7874SOL    HW224522   6.408   2.411   6.977
 7875SOL     OW24523   6.821   4.716   0.049
 7875SOL    HW124524   6.857   4.725   0.142
 7875SOL    HW224525   6.881   4.655   7.019
 7876SOL     OW24526   0.984   6.414   3.048
 7876SOL    HW124527   0.960   6.480   2.976
 7876SOL    HW224528   1.011   6.327   3.006
 7877SOL     OW24529   0.790   2.811   1.871
 7877SOL    HW124530   0.874   2.865   1.865
 7877SOL    HW224531   0.713   2.865   1.838
 7878SOL     OW24532   3.847   0.632   2.434
 7878SOL    HW124533   3.798   0.698   2.490
 7878SOL    HW224534   3.784   0.588   2.371
 7879SOL     OW24535   2.516   5.644   1.901
 7879SOL    HW124536   2.452   5.680   1.968
 7879SOL    HW224537   2.538   5.549   1.923
 7880SOL     OW24538   0.953   4.515   2.119
 7880SOL    HW124539   1.001   4.492   2.034
 7880SOL    HW224540   0.855   4.522   2.101
 7881SOL     OW24541   5.108   2.731   3.357
 7881SOL    HW124542   5.141   2.781   3.277
 7881SOL    HW224543   5.183   2.679   3.397
 7882SOL     OW24544   0.075   2.690   6.710
 7882SOL    HW124545   0.010   2.741   6.654
 7882SOL    HW224546   0.090   2.599   6.670
 7883SOL     OW24547   0.396   6.688   4.537
 7883SOL    HW124548   0.310   6.729   4.506
 7883SOL    HW224549   0.469   6.712   4.473
 7884SOL     OW24550   1.432   2.785   4.096
 7884SOL    HW124551   1.342   2.813   4.062
 7884SOL    HW224552   1.458   2.842   4.174
 7885SOL     OW24553   7.018   5.973   6.988
 7885SOL    HW124554   0.075   5.949   6.932
 7885SOL    HW224555   6.939   5.987   6.928
 7886SOL     OW24556   4.793   3.871   0.238
 7886SOL    HW124557   4.880   3.918   0.253
 7886SOL    HW224558   4.738   3.922   0.173
 7887SOL     OW24559   4.670   1.998   6.456
 7887SOL    HW124560   4.680   2.000   6.556
 7887SOL    HW224561   4.588   1.946   6.432
 7888SOL     OW24562   4.214   5.662   4.370
 7888SOL    HW124563   4.144   5.730   4.347
 7888SOL    HW224564   4.182   5.571   4.345
 7889SOL     OW24565   6.439   4.872   3.754
 7889SOL    HW124566   6.353   4.884   3.705
 7889SOL    HW224567   6.421   4.867   3.852
 7890SOL     OW24568   2.072   3.923   2.650
 7890SOL    HW124569   1.976   3.950   2.642
 7890SOL    HW224570   2.102   3.883   2.563
 7891SOL     OW24571   0.205   4.276   3.063
 7891SOL    HW124572   0.251   4.208   3.007
 7891SOL    HW224573   0.272   4.324   3.119
 7892SOL     OW24574   2.375   2.229   4.906
 7892SOL    HW124575   2.464   2.210   4.947
 7892SOL    HW224576   2.388   2.287   4.825
 7893SOL     OW24577   5.211   6.427   1.259
 7893SOL    HW124578   5.301   6.428   1.217
 7893SOL    HW224579   5.203   6.504   1.322
 7894SOL     OW24580   3.063   0.335   1.209
 7894SOL    HW124581   3.045   0.280   1.127
 7894SOL    HW224582   3.125   0.409   1.186
 7895SOL     OW24583   0.582   1.532   4.455
 7895SOL    HW124584   0.578   1.616   4.400
 7895SOL    HW224585   0.548   1.455   4.400
 7896SOL     OW24586   3.903   2.518   6.365
 7896SOL    HW124587   3.849   2.434   6.372
 7896SOL    HW224588   3.897   2.569   6.451
 7897SOL     OW24589   2.898   3.623   0.123
 7897SOL    HW124590   2.948   3.710   0.120
 7897SOL    HW224591   2.963   3.547   0.128
 7898SOL     OW24592   5.193   1.367   4.233
 7898SOL    HW124593   5.158   1.293   4.174
 7898SOL    HW224594   5.117   1.409   4.281
 7899SOL     OW24595   4.558   0.846   1.326
 7899SOL    HW124596   4.568   0.879   1.232
 7899SOL    HW224597   4.506   0.913   1.379
 7900SOL     OW24598   0.542   6.188   1.591
 7900SOL    HW124599   0.512   6.120   1.524
 7900SOL    HW224600   0.630   6.161   1.630
 7901SOL     OW24601   6.095   4.855   1.258
 7901SOL    HW124602   6.041   4.895   1.331
 7901SOL    HW224603   6.044   4.859   1.172
 7902SOL     OW24604   4.725   4.658   6.071
 7902SOL    HW124605   4.682   4.747   6.053
 7902SOL    HW224606   4.678   4.587   6.018
 7903SOL     OW24607   0.485   2.908   1.875
 7903SOL    HW124608   0.459   2.986   1.818
 7903SOL    HW224609   0.411   2.841   1.875
 7904SOL     OW24610   5.924   2.513   3.591
 7904SOL    HW124611   5.863   2.461   3.532
 7904SOL    HW224612   5.871   2.569   3.654
 7905SOL     OW24613   1.969   1.653   1.895
 7905SOL    HW124614   1.928   1.594   1.964
 7905SOL    HW224615   1.988   1.743   1.936
 7906SOL     OW24616   1.306   4.916   6.892
 7906SOL    HW124617   1.211   4.892   6.871
 7906SOL    HW224618   1.363   4.899   6.812
 7907SOL     OW24619   0.581   2.759   2.567
 7907SOL    HW124620   0.589   2.659   2.567
 7907SOL    HW224621   0.504   2.786   2.625
 7908SOL     OW24622   0.729   1.641   2.903
 7908SOL    HW124623   0.640   1.673   2.871
 7908SOL    HW224624   0.778   1.599   2.826
 7909SOL     OW24625   4.477   6.424   4.986
 7909SOL    HW124626   4.542   6.500   4.991
 7909SOL    HW224627   4.479   6.372   5.071
 7910SOL     OW24628   6.240   2.979   6.062
 7910SOL    HW124629   6.269   2.885   6.080
 7910SOL    HW224630   6.320   3.039   6.061
 7911SOL     OW24631   0.117   5.873   6.102
 7911SOL    HW124632   0.061   5.865   6.184
 7911SOL    HW224633   0.059   5.893   6.023
 7912SOL     OW24634   0.233   5.545   4.736
 7912SOL    HW124635   0.285   5.589   4.662
 7912SOL    HW224636   0.226   5.447   4.718
 7913SOL     OW24637   1.761   6.357   6.554
 7913SOL    HW124638   1.738   6.433   6.616
 7913SOL    HW224639   1.843   6.381   6.501
 7914SOL     OW24640   6.082   4.711   0.605
 7914SOL    HW124641   6.141   4.744   0.531
 7914SOL    HW224642   6.087   4.611   0.609
 7915SOL     OW24643   2.974   1.086   3.020
 7915SOL    HW124644   2.897   1.149   3.013
 7915SOL    HW224645   2.968   1.036   3.106
 7916SOL     OW24646   4.371   3.582   5.322
 7916SOL    HW124647   4.452   3.527   5.342
 7916SOL    HW224648   4.386   3.675   5.354
 7917SOL     OW24649   3.635   4.188   4.051
 7917SOL    HW124650   3.645   4.155   4.145
 7917SOL    HW224651   3.539   4.206   4.031
 7918SOL     OW24652   5.348   1.951   1.960
 7918SOL    HW124653   5.447   1.949   1.970
 7918SOL    HW224654   5.316   2.046   1.965
 7919SOL     OW24655   5.261   3.979   2.410
 7919SOL    HW124656   5.350   3.933   2.414
 7919SOL    HW224657   5.212   3.963   2.496
 7920SOL     OW24658   6.863   6.533   1.069
 7920SOL    HW124659   6.935   6.465   1.057
 7920SOL    HW224660   6.828   6.530   1.163
 7921SOL     OW24661   3.424   5.089   2.336
 7921SOL    HW124662   3.366   5.012   2.363
 7921SOL    HW224663   3.463   5.070   2.246
 7922SOL     OW24664   0.994   4.491   4.773
 7922SOL    HW124665   1.011   4.582   4.737
 7922SOL    HW224666   0.898   4.483   4.800
 7923SOL     OW24667   1.098   2.333   3.505
 7923SOL    HW124668   1.198   2.330   3.518
 7923SOL    HW224669   1.075   2.403   3.438
 7924SOL     OW24670   2.734   1.258   3.592
 7924SOL    HW124671   2.750   1.223   3.684
 7924SOL    HW224672   2.667   1.331   3.594
 7925SOL     OW24673   1.042   1.112   0.168
 7925SOL    HW124674   1.026   1.170   0.248
 7925SOL    HW224675   0.987   1.145   0.091
 7926SOL     OW24676   3.093   0.544   1.655
 7926SOL    HW124677   3.160   0.605   1.612
 7926SOL    HW224678   3.086   0.566   1.752
 7927SOL     OW24679   4.519   5.343   4.864
 7927SOL    HW124680   4.475   5.429   4.888
 7927SOL    HW224681   4.451   5.270   4.864
 7928SOL     OW24682   0.316   4.027   0.245
 7928SOL    HW124683   0.404   4.074   0.247
 7928SOL    HW224684   0.331   3.929   0.261
 7929SOL     OW24685   3.434   4.143   5.114
 7929SOL    HW124686   3.427   4.205   5.192
 7929SOL    HW224687   3.366   4.070   5.122
 7930SOL     OW24688   4.072   6.994   2.659
 7930SOL    HW124689   3.977   6.968   2.644
 7930SOL    HW224690   4.130   6.949   2.590
 7931SOL     OW24691   3.072   3.151   5.737
 7931SOL    HW124692   3.098   3.204   5.656
 7931SOL    HW224693   3.134   3.073   5.746
 7932SOL     OW24694   3.051   1.082   0.617
 7932SOL    HW124695   2.955   1.054   0.626
 7932SOL    HW224696   3.082   1.121   0.704
 7933SOL     OW24697   2.314   1.342   6.042
 7933SOL    HW124698   2.342   1.259   6.090
 7933SOL    HW224699   2.258   1.399   6.103
 7934SOL     OW24700   4.167   1.987   6.036
 7934SOL    HW124701   4.147   2.055   6.107
 7934SOL    HW224702   4.226   1.915   6.074
 7935SOL     OW24703   4.910   5.685   1.783
 7935SOL    HW124704   4.842   5.611   1.776
 7935SOL    HW224705   4.961   5.692   1.697
 7936SOL     OW24706   3.817   6.261   1.815
 7936SOL    HW124707   3.759   6.321   1.871
 7936SOL    HW224708   3.897   6.233   1.869
 7937SOL     OW24709   6.012   1.773   6.152
 7937SOL    HW124710   6.050   1.859   6.185
 7937SOL    HW224711   6.031   1.763   6.055
 7938SOL     OW24712   6.554   4.541   4.292
 7938SOL    HW124713   6.558   4.528   4.391
 7938SOL    HW224714   6.495   4.471   4.251
 7939SOL     OW24715   6.903   6.183   3.345
 7939SOL    HW124716   6.882   6.086   3.355
 7939SOL    HW224717   6.868   6.233   3.425
 7940SOL     OW24718   1.998   6.107   0.658
 7940SOL    HW124719   1.926   6.041   0.640
 7940SOL    HW224720   2.065   6.067   0.720
 7941SOL     OW24721   0.671   0.663   0.722
 7941SOL    HW124722   0.578   0.698   0.728
 7941SOL    HW224723   0.733   0.736   0.692
 7942SOL     OW24724   1.258   0.028   1.608
 7942SOL    HW124725   1.171   7.003   1.589
 7942SOL    HW224726   1.246   0.089   1.686
 7943SOL     OW24727   5.770   1.968   6.829
 7943SOL    HW124728   5.865   1.997   6.836
 7943SOL    HW224729   5.744   1.963   6.733
 7944SOL     OW24730   6.895   4.253   1.973
 7944SOL    HW124731   6.849   4.165   1.987
 7944SOL    HW224732   6.939   4.281   2.058
 7945SOL     OW24733   5.254   0.014   1.028
 7945SOL    HW124734   5.217   6.973   1.095
 7945SOL    HW224735   5.322   0.073   1.071
 7946SOL     OW24736   2.271   1.553   5.530
 7946SOL    HW124737   2.343   1.585   5.469
 7946SOL    HW224738   2.185   1.599   5.506
 7947SOL     OW24739   4.403   5.281   6.504
 7947SOL    HW124740   4.444   5.192   6.524
 7947SOL    HW224741   4.471   5.341   6.462
 7948SOL     OW24742   0.971   5.140   5.171
 7948SOL    HW124743   0.903   5.212   5.163
 7948SOL    HW224744   0.930   5.052   5.148
 7949SOL     OW24745   6.789   2.873   4.552
 7949SOL    HW124746   6.786   2.968   4.521
 7949SOL    HW224747   6.868   2.861   4.613
 7950SOL     OW24748   2.939   5.444   3.888
 7950SOL    HW124749   3.002   5.514   3.854
 7950SOL    HW224750   2.860   5.438   3.826
 7951SOL     OW24751   2.250   3.517   0.343
 7951SOL    HW124752   2.163   3.494   0.300
 7951SOL    HW224753   2.311   3.558   0.275
 7952SOL     OW24754   5.887   4.251   0.695
 7952SOL    HW124755   5.803   4.199   0.681
 7952SOL    HW224756   5.961   4.189   0.720
 7953SOL     OW24757   2.001   4.316   1.379
 7953SOL    HW124758   2.058   4.281   1.454
 7953SOL    HW224759   2.059   4.343   1.303
 7954SOL     OW24760   6.080   4.936   3.881
 7954SOL    HW124761   6.021   5.015   3.898
 7954SOL    HW224762   6.028   4.852   3.894
 7955SOL     OW24763   1.750   6.736   6.464
 7955SOL    HW124764   1.761   6.828   6.428
 7955SOL    HW224765   1.689   6.684   6.405
 7956SOL     OW24766   5.332   5.593   2.920
 7956SOL    HW124767   5.386   5.609   2.838
 7956SOL    HW224768   5.315   5.495   2.930
 7957SOL     OW24769   2.130   2.504   0.722
 7957SOL    HW124770   2.191   2.458   0.658
 7957SOL    HW224771   2.119   2.448   0.804
 7958SOL     OW24772   2.075   5.516   3.660
 7958SOL    HW124773   2.061   5.445   3.592
 7958SOL    HW224774   1.991   5.527   3.714
 7959SOL     OW24775   4.716   5.493   1.828
 7959SOL    HW124776   4.722   5.462   1.923
 7959SOL    HW224777   4.670   5.424   1.773
 7960SOL     OW24778   1.709   2.315   1.466
 7960SOL    HW124779   1.636   2.373   1.430
 7960SOL    HW224780   1.797   2.362   1.457
 7961SOL     OW24781   0.859   6.023   0.442
 7961SOL    HW124782   0.898   5.931   0.442
 7961SOL    HW224783   0.800   6.035   0.362
 7962SOL     OW24784   1.846   0.069   2.669
 7962SOL    HW124785   1.800   0.132   2.608
 7962SOL    HW224786   1.839   6.999   2.633
 7963SOL     OW24787   0.166   6.141   6.159
 7963SOL    HW124788   0.122   6.058   6.125
 7963SOL    HW224789   0.226   6.178   6.088
 7964SOL     OW24790   5.987   5.430   3.172
 7964SOL    HW124791   6.031   5.415   3.083
 7964SOL    HW224792   5.925   5.354   3.192
 7965SOL     OW24793   4.012   1.444   0.599
 7965SOL    HW124794   4.016   1.518   0.532
 7965SOL    HW224795   3.925   1.395   0.589
 7966SOL     OW24796   0.235   1.212   4.587
 7966SOL    HW124797   0.295   1.240   4.512
 7966SOL    HW224798   0.145   1.254   4.574
 7967SOL     OW24799   2.898   0.806   3.806
 7967SOL    HW124800   2.923   0.822   3.901
 7967SOL    HW224801   2.827   0.871   3.778
 7968SOL     OW24802   2.233   1.318   0.493
 7968SOL    HW124803   2.244   1.335   0.591
 7968SOL    HW224804   2.193   1.227   0.480
 7969SOL     OW24805   3.722   1.733   3.644
 7969SOL    HW124806   3.739   1.635   3.629
 7969SOL    HW224807   3.687   1.746   3.737
 7970SOL     OW24808   0.424   4.431   3.175
 7970SOL    HW124809   0.400   4.527   3.160
 7970SOL    HW224810   0.491   4.403   3.106
 7971SOL     OW24811   3.141   2.012   2.591
 7971SOL    HW124812   3.170   2.073   2.517
 7971SOL    HW224813   3.044   1.990   2.579
 7972SOL     OW24814   5.457   6.172   1.931
 7972SOL    HW124815   5.441   6.199   1.836
 7972SOL    HW224816   5.553   6.148   1.943
 7973SOL     OW24817   5.345   1.956   3.100
 7973SOL    HW124818   5.369   2.010   3.019
 7973SOL    HW224819   5.415   1.967   3.170
 7974SOL     OW24820   5.023   6.146   4.810
 7974SOL    HW124821   5.043   6.116   4.717
 7974SOL    HW224822   5.093   6.211   4.840
 7975SOL     OW24823   1.788   1.594   2.120
 7975SOL    HW124824   1.820   1.531   2.191
 7975SOL    HW224825   1.738   1.669   2.163
 7976SOL     OW24826   0.975   0.136   6.683
 7976SOL    HW124827   0.938   0.043   6.692
 7976SOL    HW224828   0.949   0.190   6.763
 7977SOL     OW24829   5.161   6.138   1.361
 7977SOL    HW124830   5.115   6.085   1.290
 7977SOL    HW224831   5.215   6.211   1.318
 7978SOL     OW24832   2.950   1.640   6.166
 7978SOL    HW124833   2.900   1.558   6.193
 7978SOL    HW224834   2.886   1.716   6.155
 7979SOL     OW24835   4.919   5.545   4.316
 7979SOL    HW124836   4.863   5.492   4.253
 7979SOL    HW224837   4.898   5.518   4.410
 7980SOL     OW24838   2.596   0.673   2.030
 7980SOL    HW124839   2.692   0.697   2.045
 7980SOL    HW224840   2.566   0.611   2.103
 7981SOL     OW24841   0.623   6.373   2.361
 7981SOL    HW124842   0.543   6.340   2.412
 7981SOL    HW224843   0.683   6.424   2.423
 7982SOL     OW24844   0.170   2.914   1.020
 7982SOL    HW124845   0.251   2.927   1.077
 7982SOL    HW224846   0.090   2.903   1.078
 7983SOL     OW24847   5.578   2.391   0.676
 7983SOL    HW124848   5.555   2.294   0.666
 7983SOL    HW224849   5.494   2.445   0.674
 7984SOL     OW24850   6.151   0.370   0.744
 7984SOL    HW124851   6.109   0.460   0.736
 7984SOL    HW224852   6.174   0.336   0.653
 7985SOL     OW24853   0.969   1.137   0.643
 7985SOL    HW124854   0.873   1.109   0.636
 7985SOL    HW224855   0.974   1.232   0.673
 7986SOL     OW24856   4.842   3.757   0.710
 7986SOL    HW124857   4.850   3.712   0.622
 7986SOL    HW224858   4.776   3.832   0.704
 7987SOL     OW24859   0.593   3.573   4.941
 7987SOL    HW124860   0.598   3.507   4.866
 7987SOL    HW224861   0.497   3.599   4.955
 7988SOL     OW24862   2.815   1.264   5.287
 7988SOL    HW124863   2.806   1.242   5.384
 7988SOL    HW224864   2.800   1.182   5.233
 7989SOL     OW24865   3.645   3.548   6.681
 7989SOL    HW124866   3.569   3.529   6.743
 7989SOL    HW224867   3.611   3.551   6.587
 7990SOL     OW24868   2.305   2.810   4.475
 7990SOL    HW124869   2.277   2.771   4.387
 7990SOL    HW224870   2.268   2.902   4.484
 7991SOL     OW24871   2.357   3.095   5.876
 7991SOL    HW124872   2.330   3.151   5.954
 7991SOL    HW224873   2.456   3.080   5.878
 7992SOL     OW24874   2.946   1.623   0.739
 7992SOL    HW124875   3.014   1.607   0.668
 7992SOL    HW224876   2.934   1.539   0.792
 7993SOL     OW24877   2.634   5.583   6.313
 7993SOL    HW124878   2.718   5.638   6.315
 7993SOL    HW224879   2.611   5.554   6.406
 7994SOL     OW24880   5.734   0.122   4.918
 7994SOL    HW124881   5.813   0.094   4.864
 7994SOL    HW224882   5.671   0.174   4.861
 7995SOL     OW24883   4.138   5.237   2.546
 7995SOL    HW124884   4.102   5.167   2.484
 7995SOL    HW224885   4.102   5.326   2.520
 7996SOL     OW24886   4.342   1.762   5.528
 7996SOL    HW124887   4.389   1.822   5.592
 7996SOL    HW224888   4.333   1.808   5.440
 7997SOL     OW24889   5.323   3.167   0.853
 7997SOL    HW124890   5.404   3.109   0.842
 7997SOL    HW224891   5.313   3.191   0.950
 7998SOL     OW24892   6.713   5.339   6.100
 7998SOL    HW124893   6.756   5.318   6.187
 7998SOL    HW224894   6.626   5.290   6.093
 7999SOL     OW24895   2.590   2.640   5.531
 7999SOL    HW124896   2.590   2.684   5.441
 7999SOL    HW224897   2.496   2.616   5.556
 8000SOL     OW24898   4.757   0.299   5.607
 8000SOL    HW124899   4.732   0.233   5.678
 8000SOL    HW224900   4.773   0.388   5.649
 8001SOL     OW24901   2.619   4.750   0.207
 8001SOL    HW124902   2.683   4.828   0.211
 8001SOL    HW224903   2.527   4.784   0.190
 8002SOL     OW24904   4.538   2.108   5.927
 8002SOL    HW124905   4.578   2.103   6.018
 8002SOL    HW224906   4.458   2.168   5.928
 8003SOL     OW24907   4.635   5.329   3.317
 8003SOL    HW124908   4.732   5.309   3.331
 8003SOL    HW224909   4.605   5.293   3.229
 8004SOL     OW24910   1.087   4.020   3.178
 8004SOL    HW124911   1.171   4.059   3.216
 8004SOL    HW224912   1.109   3.961   3.100
 8005SOL     OW24913   1.846   0.950   2.489
 8005SOL    HW124914   1.843   0.856   2.525
 8005SOL    HW224915   1.856   1.014   2.565
 8006SOL     OW24916   4.163   5.771   2.108
 8006SOL    HW124917   4.085   5.723   2.067
 8006SOL    HW224918   4.237   5.778   2.041
 8007SOL     OW24919   0.245   1.488   4.087
 8007SOL    HW124920   0.194   1.472   4.002
 8007SOL    HW224921   0.180   1.499   4.162
 8008SOL     OW24922   5.648   5.395   1.376
 8008SOL    HW124923   5.637   5.300   1.405
 8008SOL    HW224924   5.670   5.397   1.278
 8009SOL     OW24925   6.673   6.706   3.049
 8009SOL    HW124926   6.622   6.645   2.989
 8009SOL    HW224927   6.724   6.772   2.994
 8010SOL     OW24928   1.967   2.132   6.877
 8010SOL    HW124929   2.046   2.186   6.907
 8010SOL    HW224930   1.995   2.038   6.859
 8011SOL     OW24931   2.433   3.141   6.884
 8011SOL    HW124932   2.402   3.135   6.979
 8011SOL    HW224933   2.470   3.053   6.855
 8012SOL     OW24934   2.091   6.259   3.364
 8012SOL    HW124935   2.166   6.203   3.402
 8012SOL    HW224936   2.111   6.355   3.380
 8013SOL     OW24937   6.394   5.465   5.022
 8013SOL    HW124938   6.469   5.475   5.087
 8013SOL    HW224939   6.428   5.421   4.939
 8014SOL     OW24940   2.729   0.124   6.679
 8014SOL    HW124941   2.782   0.156   6.600
 8014SOL    HW224942   2.789   0.076   6.742
 8015SOL     OW24943   1.007   2.213   0.376
 8015SOL    HW124944   0.955   2.180   0.297
 8015SOL    HW224945   0.965   2.178   0.460
 8016SOL     OW24946   3.987   6.075   1.996
 8016SOL    HW124947   4.072   6.058   1.946
 8016SOL    HW224948   3.984   6.016   2.077
 8017SOL     OW24949   6.598   3.829   5.561
 8017SOL    HW124950   6.572   3.760   5.629
 8017SOL    HW224951   6.666   3.891   5.600
 8018SOL     OW24952   4.898   3.225   3.816
 8018SOL    HW124953   4.864   3.148   3.762
 8018SOL    HW224954   4.968   3.274   3.764
 8019SOL     OW24955   3.246   5.231   0.925
 8019SOL    HW124956   3.263   5.328   0.943
 8019SOL    HW224957   3.261   5.179   1.009
 8020SOL     OW24958   5.490   0.343   6.475
 8020SOL    HW124959   5.525   0.310   6.388
 8020SOL    HW224960   5.470   0.441   6.467
 8021SOL     OW24961   6.453   1.183   1.373
 8021SOL    HW124962   6.438   1.226   1.462
 8021SOL    HW224963   6.547   1.149   1.368
 8022SOL     OW24964   5.154   5.009   3.881
 8022SOL    HW124965   5.169   4.916   3.915
 8022SOL    HW224966   5.201   5.074   3.940
 8023SOL     OW24967   0.415   5.539   3.520
 8023SOL    HW124968   0.406   5.562   3.617
 8023SOL    HW224969   0.368   5.452   3.502
 8024SOL     OW24970   4.278   5.467   4.127
 8024SOL    HW124971   4.193   5.455   4.177
 8024SOL    HW224972   4.346   5.401   4.161
 8025SOL     OW24973   3.293   5.941   0.423
 8025SOL    HW124974   3.270   5.973   0.515
 8025SOL    HW224975   3.389   5.959   0.405
 8026SOL     OW24976   2.145   1.993   6.391
 8026SOL    HW124977   2.183   2.083   6.414
 8026SOL    HW224978   2.189   1.958   6.308
 8027SOL     OW24979   4.528   3.075   5.379
 8027SOL    HW124980   4.430   3.093   5.380
 8027SOL    HW224981   4.576   3.144   5.434
 8028SOL     OW24982   6.189   5.074   0.692
 8028SOL    HW124983   6.238   5.090   0.607
 8028SOL    HW224984   6.103   5.026   0.673
 8029SOL     OW24985   3.173   4.219   5.937
 8029SOL    HW124986   3.073   4.220   5.929
 8029SOL    HW224987   3.198   4.236   6.033
 8030SOL     OW24988   6.934   3.294   1.058
 8030SOL    HW124989   7.011   3.293   1.121
 8030SOL    HW224990   6.883   3.379   1.070
 8031SOL     OW24991   3.926   6.595   0.831
 8031SOL    HW124992   3.891   6.524   0.769
 8031SOL    HW224993   3.853   6.626   0.891
 8032SOL     OW24994   4.676   3.708   5.581
 8032SOL    HW124995   4.585   3.683   5.615
 8032SOL    HW224996   4.744   3.649   5.623
 8033SOL     OW24997   6.331   1.477   1.825
 8033SOL    HW124998   6.281   1.559   1.851
 8033SOL    HW224999   6.429   1.493   1.834
 8034SOL     OW25000   6.618   1.794   5.694
 8034SOL    HW125001   6.658   1.783   5.786
 8034SOL    HW225002   6.525   1.830   5.702
 8035SOL     OW25003   5.471   6.050   5.894
 8035SOL    HW125004   5.518   6.138   5.892
 8035SOL    HW225005   5.529   5.982   5.938
 8036SOL     OW25006   1.535   4.571   1.546
 8036SOL    HW125007   1.598   4.581   1.623
 8036SOL    HW225008   1.494   4.480   1.548
 8037SOL     OW25009   2.311   3.220   1.683
 8037SOL    HW125010   2.260   3.273   1.751
 8037SOL    HW225011   2.407   3.245   1.687
 8038SOL     OW25012   5.718   1.068   4.051
 8038SOL    HW125013   5.636   1.036   4.004
 8038SOL    HW225014   5.763   0.991   4.097
 8039SOL     OW25015   2.240   5.775   3.526
 8039SOL    HW125016   2.264   5.767   3.429
 8039SOL    HW225017   2.277   5.696   3.576
 8040SOL     OW25018   6.000   6.236   6.675
 8040SOL    HW125019   5.951   6.150   6.659
 8040SOL    HW225020   6.098   6.219   6.668
 8041SOL     OW25021   3.054   2.456   1.237
 8041SOL    HW125022   3.103   2.384   1.286
 8041SOL    HW225023   3.070   2.544   1.281
 8042SOL     OW25024   2.183   5.159   6.526
 8042SOL    HW125025   2.200   5.082   6.588
 8042SOL    HW225026   2.175   5.243   6.580
 8043SOL     OW25027   3.117   0.592   1.084
 8043SOL    HW125028   3.178   0.668   1.060
 8043SOL    HW225029   3.086   0.602   1.178
 8044SOL     OW25030   3.132   2.979   1.961
 8044SOL    HW125031   3.115   2.951   2.055
 8044SOL    HW225032   3.050   3.024   1.924
 8045SOL     OW25033   6.323   2.785   3.647
 8045SOL    HW125034   6.324   2.850   3.571
 8045SOL    HW225035   6.384   2.817   3.719
 8046SOL     OW25036   6.827   5.500   5.294
 8046SOL    HW125037   6.867   5.535   5.378
 8046SOL    HW225038   6.783   5.574   5.244
 8047SOL     OW25039   2.541   0.241   4.371
 8047SOL    HW125040   2.541   0.186   4.455
 8047SOL    HW225041   2.448   0.267   4.348
 8048SOL     OW25042   5.364   0.117   5.440
 8048SOL    HW125043   5.371   0.212   5.409
 8048SOL    HW225044   5.342   0.115   5.538
 8049SOL     OW25045   1.766   0.167   0.004
 8049SOL    HW125046   1.677   0.187   6.986
 8049SOL    HW225047   1.795   0.076   6.997
 8050SOL     OW25048   0.177   3.220   1.928
 8050SOL    HW125049   0.276   3.233   1.932
 8050SOL    HW225050   0.141   3.258   1.842
 8051SOL     OW25051   2.512   1.727   4.240
 8051SOL    HW125052   2.546   1.819   4.223
 8051SOL    HW225053   2.531   1.669   4.162
 8052SOL     OW25054   4.006   1.723   2.885
 8052SOL    HW125055   4.001   1.803   2.825
 8052SOL    HW225056   4.040   1.752   2.975
 8053SOL     OW25057   4.476   3.470   1.672
 8053SOL    HW125058   4.474   3.408   1.593
 8053SOL    HW225059   4.393   3.458   1.725
 8054SOL     OW25060   4.961   5.917   4.558
 8054SOL    HW125061   4.868   5.955   4.566
 8054SOL    HW225062   4.970   5.870   4.471
 8055SOL     OW25063   1.544   0.111   5.340
 8055SOL    HW125064   1.527   0.031   5.282
 8055SOL    HW225065   1.546   0.193   5.283
 8056SOL     OW25066   4.521   1.167   2.298
 8056SOL    HW125067   4.558   1.236   2.361
 8056SOL    HW225068   4.422   1.175   2.295
 8057SOL     OW25069   3.515   6.976   3.955
 8057SOL    HW125070   3.606   6.938   3.971
 8057SOL    HW225071   3.455   6.905   3.916
 8058SOL     OW25072   1.656   0.318   3.032
 8058SOL    HW125073   1.654   0.273   3.122
 8058SOL    HW225074   1.591   0.393   3.032
 8059SOL     OW25075   1.520   1.399   3.980
 8059SOL    HW125076   1.426   1.432   3.984
 8059SOL    HW225077   1.577   1.467   3.933
 8060SOL     OW25078   0.624   2.572   5.147
 8060SOL    HW125079   0.682   2.618   5.215
 8060SOL    HW225080   0.680   2.544   5.069
 8061SOL     OW25081   5.734   6.493   3.379
 8061SOL    HW125082   5.756   6.466   3.473
 8061SOL    HW225083   5.683   6.419   3.334
 8062SOL     OW25084   1.344   2.814   1.731
 8062SOL    HW125085   1.394   2.849   1.652
 8062SOL    HW225086   1.398   2.830   1.814
 8063SOL     OW25087   2.352   2.786   5.910
 8063SOL    HW125088   2.254   2.794   5.926
 8063SOL    HW225089   2.373   2.812   5.816
 8064SOL     OW25090   6.021   2.471   5.414
 8064SOL    HW125091   6.045   2.375   5.399
 8064SOL    HW225092   5.923   2.479   5.430
 8065SOL     OW25093   4.476   0.124   6.343
 8065SOL    HW125094   4.426   0.084   6.419
 8065SOL    HW225095   4.560   0.167   6.377
 8066SOL     OW25096   1.828   0.372   1.582
 8066SOL    HW125097   1.925   0.396   1.580
 8066SOL    HW225098   1.809   0.314   1.662
 8067SOL     OW25099   4.903   2.266   2.618
 8067SOL    HW125100   4.938   2.307   2.702
 8067SOL    HW225101   4.816   2.309   2.595
 8068SOL     OW25102   6.831   4.604   4.428
 8068SOL    HW125103   6.818   4.596   4.329
 8068SOL    HW225104   6.925   4.577   4.452
 8069SOL     OW25105   0.730   6.670   2.001
 8069SOL    HW125106   0.678   6.629   1.927
 8069SOL    HW225107   0.677   6.665   2.086
 8070SOL     OW25108   3.521   0.566   2.301
 8070SOL    HW125109   3.433   0.555   2.256
 8070SOL    HW225110   3.516   0.527   2.393
 8071SOL     OW25111   5.370   4.710   0.281
 8071SOL    HW125112   5.375   4.623   0.231
 8071SOL    HW225113   5.417   4.781   0.229
 8072SOL     OW25114   3.979   0.531   3.446
 8072SOL    HW125115   4.001   0.627   3.428
 8072SOL    HW225116   3.891   0.525   3.491
 8073SOL     OW25117   4.906   0.203   6.182
 8073SOL    HW125118   4.855   0.116   6.180
 8073SOL    HW225119   4.968   0.204   6.260
 8074SOL     OW25120   3.110   4.065   0.041
 8074SOL    HW125121   3.074   3.978   0.075
 8074SOL    HW225122   3.039   4.135   0.046
 8075SOL     OW25123   6.305   1.391   4.094
 8075SOL    HW125124   6.323   1.368   4.190
 8075SOL    HW225125   6.207   1.395   4.078
 8076SOL     OW25126   4.894   3.163   6.710
 8076SOL    HW125127   4.859   3.106   6.785
 8076SOL    HW225128   4.946   3.107   6.646
 8077SOL     OW25129   1.006   0.817   0.013
 8077SOL    HW125130   1.088   0.760   0.023
 8077SOL    HW225131   0.931   0.776   0.065
 8078SOL     OW25132   5.756   3.451   1.269
 8078SOL    HW125133   5.682   3.517   1.277
 8078SOL    HW225134   5.784   3.443   1.173
 8079SOL     OW25135   1.472   2.517   0.922
 8079SOL    HW125136   1.455   2.602   0.972
 8079SOL    HW225137   1.522   2.538   0.838
 8080SOL     OW25138   4.255   4.811   6.986
 8080SOL    HW125139   4.208   4.894   7.016
 8080SOL    HW225140   4.192   4.753   6.935
 8081SOL     OW25141   5.595   2.424   4.524
 8081SOL    HW125142   5.546   2.499   4.570
 8081SOL    HW225143   5.538   2.389   4.449
 8082SOL     OW25144   6.681   3.663   4.948
 8082SOL    HW125145   6.644   3.578   4.911
 8082SOL    HW225146   6.635   3.741   4.906
 8083SOL     OW25147   5.474   1.827   4.904
 8083SOL    HW125148   5.536   1.861   4.974
 8083SOL    HW225149   5.481   1.883   4.822
 8084SOL     OW25150   6.036   0.261   0.232
 8084SOL    HW125151   5.956   0.214   0.269
 8084SOL    HW225152   6.119   0.216   0.265
 8085SOL     OW25153   4.914   2.243   0.969
 8085SOL    HW125154   4.977   2.170   0.994
 8085SOL    HW225155   4.925   2.264   0.872
 8086SOL     OW25156   2.595   5.226   5.952
 8086SOL    HW125157   2.506   5.210   5.909
 8086SOL    HW225158   2.616   5.150   6.014
 8087SOL     OW25159   2.554   3.486   0.736
 8087SOL    HW125160   2.480   3.517   0.676
 8087SOL    HW225161   2.580   3.393   0.711
 8088SOL     OW25162   4.569   0.203   3.628
 8088SOL    HW125163   4.508   0.278   3.604
 8088SOL    HW225164   4.528   0.116   3.598
 8089SOL     OW25165   6.852   2.753   0.486
 8089SOL    HW125166   6.819   2.725   0.576
 8089SOL    HW225167   6.884   2.847   0.490
 8090SOL     OW25168   4.789   1.549   5.244
 8090SOL    HW125169   4.708   1.607   5.227
 8090SOL    HW225170   4.770   1.456   5.214
 8091SOL     OW25171   1.697   3.663   5.459
 8091SOL    HW125172   1.677   3.751   5.416
 8091SOL    HW225173   1.648   3.657   5.546
 8092SOL     OW25174   6.345   1.830   4.068
 8092SOL    HW125175   6.410   1.781   4.010
 8092SOL    HW225176   6.391   1.859   4.151
 8093SOL     OW25177   5.919   5.279   0.721
 8093SOL    HW125178   5.900   5.346   0.793
 8093SOL    HW225179   5.838   5.222   0.707
 8094SOL     OW25180   0.323   3.160   3.954
 8094SOL    HW125181   0.373   3.236   3.996
 8094SOL    HW225182   0.366   3.136   3.867
 8095SOL     OW25183   6.649   3.332   5.127
 8095SOL    HW125184   6.621   3.394   5.053
 8095SOL    HW225185   6.652   3.238   5.092
 8096SOL     OW25186   4.487   0.363   0.463
 8096SOL    HW125187   4.553   0.369   0.538
 8096SOL    HW225188   4.394   0.366   0.499
 8097SOL     OW25189   4.692   1.767   4.062
 8097SOL    HW125190   4.623   1.725   4.002
 8097SOL    HW225191   4.655   1.775   4.154
 8098SOL     OW25192   2.246   2.212   4.016
 8098SOL    HW125193   2.266   2.150   3.940
 8098SOL    HW225194   2.147   2.214   4.033
 8099SOL     OW25195   3.722   6.874   4.382
 8099SOL    HW125196   3.719   6.833   4.474
 8099SOL    HW225197   3.720   6.801   4.314
 8100SOL     OW25198   6.525   6.196   1.695
 8100SOL    HW125199   6.590   6.240   1.757
 8100SOL    HW225200   6.436   6.241   1.702
 8101SOL     OW25201   0.711   4.627   2.023
 8101SOL    HW125202   0.732   4.633   1.925
 8101SOL    HW225203   0.724   4.717   2.065
 8102SOL     OW25204   6.871   6.800   5.512
 8102SOL    HW125205   6.914   6.847   5.590
 8102SOL    HW225206   6.773   6.817   5.513
 8103SOL     OW25207   2.556   2.479   2.362
 8103SOL    HW125208   2.631   2.446   2.418
 8103SOL    HW225209   2.572   2.453   2.266
 8104SOL     OW25210   2.475   6.986   5.911
 8104SOL    HW125211   2.517   0.028   5.848
 8104SOL    HW225212   2.438   0.013   5.990
 8105SOL     OW25213   2.316   2.392   3.061
 8105SOL    HW125214   2.282   2.486   3.058
 8105SOL    HW225215   2.287   2.343   2.979
 8106SOL     OW25216   0.706   3.757   5.624
 8106SOL    HW125217   0.719   3.802   5.535
 8106SOL    HW225218   0.683   3.661   5.609
 8107SOL     OW25219   0.953   5.418   6.977
 8107SOL    HW125220   0.967   5.482   6.902
 8107SOL    HW225221   1.027   5.351   6.979
 8108SOL     OW25222   2.452   2.677   6.224
 8108SOL    HW125223   2.536   2.691   6.277
 8108SOL    HW225224   2.425   2.763   6.182
 8109SOL     OW25225   0.477   5.701   5.140
 8109SOL    HW125226   0.471   5.673   5.044
 8109SOL    HW225227   0.544   5.643   5.187
 8110SOL     OW25228   1.414   5.325   0.593
 8110SOL    HW125229   1.338   5.268   0.622
 8110SOL    HW225230   1.483   5.268   0.547
 8111SOL     OW25231   3.137   6.184   4.250
 8111SOL    HW125232   3.196   6.184   4.169
 8111SOL    HW225233   3.188   6.219   4.328
 8112SOL     OW25234   3.816   1.398   4.232
 8112SOL    HW125235   3.750   1.399   4.307
 8112SOL    HW225236   3.902   1.440   4.262
 8113SOL     OW25237   2.963   2.376   5.677
 8113SOL    HW125238   2.989   2.424   5.593
 8113SOL    HW225239   3.028   2.303   5.695
 8114SOL     OW25240   3.216   3.791   1.317
 8114SOL    HW125241   3.263   3.828   1.397
 8114SOL    HW225242   3.138   3.737   1.347
 8115SOL     OW25243   4.142   2.874   1.323
 8115SOL    HW125244   4.103   2.794   1.277
 8115SOL    HW225245   4.122   2.956   1.270
 8116SOL     OW25246   5.309   1.507   5.644
 8116SOL    HW125247   5.341   1.569   5.572
 8116SOL    HW225248   5.211   1.519   5.656
 8117SOL     OW25249   2.806   2.763   5.652
 8117SOL    HW125250   2.716   2.732   5.621
 8117SOL    HW225251   2.841   2.699   5.720
 8118SOL     OW25252   0.840   1.619   4.155
 8118SOL    HW125253   0.851   1.718   4.157
 8118SOL    HW225254   0.860   1.585   4.063
 8119SOL     OW25255   1.321   0.047   2.578
 8119SOL    HW125256   1.252   7.022   2.632
 8119SOL    HW225257   1.285   0.065   2.486
 8120SOL     OW25258   4.783   4.107   2.392
 8120SOL    HW125259   4.784   4.145   2.485
 8120SOL    HW225260   4.690   4.080   2.369
 8121SOL     OW25261   6.704   5.663   3.498
 8121SOL    HW125262   6.626   5.622   3.453
 8121SOL    HW225263   6.787   5.647   3.445
 8122SOL     OW25264   0.004   5.219   1.897
 8122SOL    HW125265   0.090   5.190   1.939
 8122SOL    HW225266   0.022   5.254   1.805
 8123SOL     OW25267   1.191   5.380   6.415
 8123SOL    HW125268   1.213   5.447   6.486
 8123SOL    HW225269   1.103   5.338   6.434
 8124SOL     OW25270   1.631   5.856   2.613
 8124SOL    HW125271   1.532   5.854   2.625
 8124SOL    HW225272   1.675   5.815   2.693
 8125SOL     OW25273   4.932   5.334   3.332
 8125SOL    HW125274   4.994   5.275   3.279
 8125SOL    HW225275   4.955   5.430   3.315
 8126SOL     OW25276   0.303   4.741   1.612
 8126SOL    HW125277   0.350   4.733   1.524
 8126SOL    HW225278   0.212   4.700   1.606
 8127SOL     OW25279   4.440   5.187   0.883
 8127SOL    HW125280   4.373   5.204   0.955
 8127SOL    HW225281   4.401   5.127   0.814
 8128SOL     OW25282   3.940   2.086   5.296
 8128SOL    HW125283   3.942   2.007   5.358
 8128SOL    HW225284   3.853   2.086   5.245
 8129SOL     OW25285   4.579   5.879   6.711
 8129SOL    HW125286   4.674   5.885   6.743
 8129SOL    HW225287   4.564   5.948   6.641
 8130SOL     OW25288   0.369   0.399   6.203
 8130SOL    HW125289   0.271   0.401   6.221
 8130SOL    HW225290   0.418   0.375   6.286
 8131SOL     OW25291   2.498   1.669   1.736
 8131SOL    HW125292   2.462   1.594   1.680
 8131SOL    HW225293   2.423   1.714   1.784
 8132SOL     OW25294   5.784   4.549   3.433
 8132SOL    HW125295   5.688   4.554   3.406
 8132SOL    HW225296   5.810   4.454   3.445
 8133SOL     OW25297   0.339   5.636   2.435
 8133SOL    HW125298   0.402   5.581   2.380
 8133SOL    HW225299   0.382   5.660   2.522
 8134SOL     OW25300   2.851   3.417   1.491
 8134SOL    HW125301   2.773   3.392   1.550
 8134SOL    HW225302   2.898   3.333   1.463
 8135SOL     OW25303   3.849   6.616   2.404
 8135SOL    HW125304   3.887   6.583   2.318
 8135SOL    HW225305   3.823   6.539   2.461
 8136SOL     OW25306   2.628   5.773   1.681
 8136SOL    HW125307   2.580   5.729   1.757
 8136SOL    HW225308   2.694   5.710   1.641
 8137SOL     OW25309   3.203   3.761   5.571
 8137SOL    HW125310   3.291   3.725   5.599
 8137SOL    HW225311   3.165   3.819   5.643
 8138SOL     OW25312   4.309   0.994   3.501
 8138SOL    HW125313   4.331   0.917   3.441
 8138SOL    HW225314   4.345   1.078   3.461
 8139SOL     OW25315   1.939   3.097   5.768
 8139SOL    HW125316   1.856   3.153   5.764
 8139SOL    HW225317   1.925   3.014   5.713
 8140SOL     OW25318   5.529   1.783   1.191
 8140SOL    HW125319   5.575   1.713   1.247
 8140SOL    HW225320   5.519   1.749   1.098
 8141SOL     OW25321   5.783   0.810   5.373
 8141SOL    HW125322   5.847   0.878   5.339
 8141SOL    HW225323   5.694   0.823   5.330
 8142SOL     OW25324   3.900   5.908   0.420
 8142SOL    HW125325   3.878   5.811   0.435
 8142SOL    HW225326   3.872   5.935   0.328
 8143SOL     OW25327   5.643   5.252   6.725
 8143SOL    HW125328   5.624   5.217   6.817
 8143SOL    HW225329   5.672   5.176   6.666
 8144SOL     OW25330   1.623   5.576   6.330
 8144SOL    HW125331   1.596   5.617   6.417
 8144SOL    HW225332   1.723   5.572   6.325
 8145SOL     OW25333   5.012   5.685   5.318
 8145SOL    HW125334   5.106   5.690   5.284
 8145SOL    HW225335   4.965   5.608   5.275
 8146SOL     OW25336   0.010   6.061   4.995
 8146SOL    HW125337   6.989   6.151   4.993
 8146SOL    HW225338   0.108   6.072   4.981
 8147SOL     OW25339   2.337   6.714   4.590
 8147SOL    HW125340   2.323   6.668   4.502
 8147SOL    HW225341   2.270   6.678   4.656
 8148SOL     OW25342   5.506   4.509   0.498
 8148SOL    HW125343   5.533   4.576   0.430
 8148SOL    HW225344   5.479   4.556   0.583
 8149SOL     OW25345   1.635   6.860   4.940
 8149SOL    HW125346   1.650   6.768   4.903
 8149SOL    HW225347   1.580   6.853   5.024
 8150SOL     OW25348   0.170   4.192   0.903
 8150SOL    HW125349   0.072   4.177   0.891
 8150SOL    HW225350   0.210   4.222   0.816
 8151SOL     OW25351   6.174   3.912   2.008
 8151SOL    HW125352   6.263   3.954   2.023
 8151SOL    HW225353   6.185   3.829   1.952
 8152SOL     OW25354   5.000   2.035   4.025
 8152SOL    HW125355   4.905   2.007   4.042
 8152SOL    HW225356   5.061   1.960   4.050
 8153SOL     OW25357   0.563   1.742   0.955
 8153SOL    HW125358   0.603   1.796   0.881
 8153SOL    HW225359   0.491   1.795   1.001
 8154SOL     OW25360   0.309   0.727   3.686
 8154SOL    HW125361   0.277   0.778   3.606
 8154SOL    HW225362   0.345   0.791   3.754
 8155SOL     OW25363   1.011   5.017   4.429
 8155SOL    HW125364   0.970   4.956   4.361
 8155SOL    HW225365   1.107   5.034   4.406
 8156SOL     OW25366   1.165   4.140   0.319
 8156SOL    HW125367   1.213   4.062   0.360
 8156SOL    HW225368   1.068   4.134   0.341
 8157SOL     OW25369   6.306   4.469   4.983
 8157SOL    HW125370   6.212   4.476   4.951
 8157SOL    HW225371   6.350   4.559   4.977
 8158SOL     OW25372   6.170   5.080   6.348
 8158SOL    HW125373   6.210   5.059   6.259
 8158SOL    HW225374   6.072   5.097   6.337
 8159SOL     OW25375   1.913   6.682   5.406
 8159SOL    HW125376   1.867   6.608   5.454
 8159SOL    HW225377   1.997   6.647   5.363
 8160SOL     OW25378   5.201   2.852   3.102
 8160SOL    HW125379   5.133   2.814   3.038
 8160SOL    HW225380   5.292   2.823   3.074
 8161SOL     OW25381   0.551   2.202   1.175
 8161SOL    HW125382   0.528   2.174   1.268
 8161SOL    HW225383   0.648   2.187   1.158
 8162SOL     OW25384   0.272   5.871   4.928
 8162SOL    HW125385   0.263   5.893   5.025
 8162SOL    HW225386   0.314   5.781   4.918
 8163SOL     OW25387   3.168   5.103   5.681
 8163SOL    HW125388   3.112   5.149   5.750
 8163SOL    HW225389   3.131   5.012   5.664
 8164SOL     OW25390   5.274   2.072   0.203
 8164SOL    HW125391   5.204   2.012   0.241
 8164SOL    HW225392   5.299   2.141   0.271
 8165SOL     OW25393   0.804   2.850   6.188
 8165SOL    HW125394   0.846   2.788   6.122
 8165SOL    HW225395   0.728   2.899   6.144
 8166SOL     OW25396   3.000   2.145   4.406
 8166SOL    HW125397   2.978   2.172   4.500
 8166SOL    HW225398   2.924   2.172   4.346
 8167SOL     OW25399   1.866   2.544   2.851
 8167SOL    HW125400   1.791   2.604   2.824
 8167SOL    HW225401   1.948   2.599   2.866
 8168SOL     OW25402   1.154   6.179   2.918
 8168SOL    HW125403   1.154   6.168   2.819
 8168SOL    HW225404   1.229   6.126   2.957
 8169SOL     OW25405   5.216   5.074   6.804
 8169SOL    HW125406   5.142   5.104   6.864
 8169SOL    HW225407   5.279   5.015   6.855
 8170SOL     OW25408   6.915   4.466   3.600
 8170SOL    HW125409   6.861   4.478   3.683
 8170SOL    HW225410   6.857   4.434   3.526
 8171SOL     OW25411   1.829   1.748   1.651
 8171SOL    HW125412   1.873   1.688   1.717
 8171SOL    HW225413   1.897   1.807   1.609
 8172SOL     OW25414   1.738   5.152   0.544
 8172SOL    HW125415   1.773   5.058   0.542
 8172SOL    HW225416   1.729   5.182   0.639
 8173SOL     OW25417   5.774   6.610   1.877
 8173SOL    HW125418   5.722   6.527   1.897
 8173SOL    HW225419   5.752   6.642   1.785
 8174SOL     OW25420   2.581   6.775   4.068
 8174SOL    HW125421   2.652   6.710   4.096
 8174SOL    HW225422   2.519   6.791   4.145
 8175SOL     OW25423   0.710   2.273   5.969
 8175SOL    HW125424   0.687   2.363   6.004
 8175SOL    HW225425   0.646   2.205   6.005
 8176SOL     OW25426   2.901   4.709   6.662
 8176SOL    HW125427   2.928   4.718   6.566
 8176SOL    HW225428   2.977   4.670   6.714
 8177SOL     OW25429   3.724   0.873   2.549
 8177SOL    HW125430   3.692   0.909   2.461
 8177SOL    HW225431   3.652   0.884   2.617
 8178SOL     OW25432   2.387   6.151   1.067
 8178SOL    HW125433   2.391   6.052   1.054
 8178SOL    HW225434   2.426   6.174   1.156
 8179SOL     OW25435   6.522   0.141   3.668
 8179SOL    HW125436   6.446   0.083   3.637
 8179SOL    HW225437   6.579   0.090   3.733
 8180SOL     OW25438   5.065   5.295   0.965
 8180SOL    HW125439   5.023   5.211   0.931
 8180SOL    HW225440   5.069   5.292   1.065
 8181SOL     OW25441   6.282   0.751   6.502
 8181SOL    HW125442   6.346   0.674   6.499
 8181SOL    HW225443   6.237   0.754   6.591
 8182SOL     OW25444   3.718   3.780   2.850
 8182SOL    HW125445   3.777   3.860   2.843
 8182SOL    HW225446   3.649   3.795   2.921
 8183SOL     OW25447   0.550   0.218   5.094
 8183SOL    HW125448   0.645   0.236   5.121
 8183SOL    HW225449   0.526   0.124   5.117
 8184SOL     OW25450   0.064   5.789   4.678
 8184SOL    HW125451   0.096   5.744   4.761
 8184SOL    HW225452   6.995   5.825   4.692
 8185SOL     OW25453   0.312   6.257   4.772
 8185SOL    HW125454   0.257   6.185   4.731
 8185SOL    HW225455   0.346   6.317   4.700
 8186SOL     OW25456   1.413   5.864   0.080
 8186SOL    HW125457   1.427   5.898   0.173
 8186SOL    HW225458   1.323   5.822   0.073
 8187SOL     OW25459   1.352   6.480   4.781
 8187SOL    HW125460   1.406   6.415   4.834
 8187SOL    HW225461   1.397   6.569   4.781
 8188SOL     OW25462   1.649   2.712   2.786
 8188SOL    HW125463   1.571   2.732   2.725
 8188SOL    HW225464   1.615   2.690   2.877
 8189SOL     OW25465   0.008   5.423   3.967
 8189SOL    HW125466   0.022   5.390   4.060
 8189SOL    HW225467   6.985   5.512   3.970
 8190SOL     OW25468   5.658   4.067   2.922
 8190SOL    HW125469   5.658   4.090   3.019
 8190SOL    HW225470   5.574   4.018   2.898
 8191SOL     OW25471   5.197   5.005   1.102
 8191SOL    HW125472   5.170   5.030   1.009
 8191SOL    HW225473   5.268   5.067   1.134
 8192SOL     OW25474   0.002   5.490   3.014
 8192SOL    HW125475   0.016   5.583   2.980
 8192SOL    HW225476   6.943   5.488   3.072
 8193SOL     OW25477   0.664   4.979   4.379
 8193SOL    HW125478   0.752   4.944   4.345
 8193SOL    HW225479   0.598   4.983   4.304
 8194SOL     OW25480   5.168   0.233   2.461
 8194SOL    HW125481   5.156   0.321   2.507
 8194SOL    HW225482   5.262   0.202   2.473
 8195SOL     OW25483   6.741   6.584   3.286
 8195SOL    HW125484   6.666   6.563   3.349
 8195SOL    HW225485   6.704   6.631   3.205
 8196SOL     OW25486   4.833   6.919   2.881
 8196SOL    HW125487   4.858   7.015   2.894
 8196SOL    HW225488   4.901   6.875   2.823
 8197SOL     OW25489   4.076   1.171   3.485
 8197SOL    HW125490   4.153   1.113   3.460
 8197SOL    HW225491   4.017   1.122   3.549
 8198SOL     OW25492   1.983   5.188   0.338
 8198SOL    HW125493   2.064   5.237   0.308
 8198SOL    HW225494   1.937   5.240   0.411
 8199SOL     OW25495   6.401   2.517   0.391
 8199SOL    HW125496   6.481   2.553   0.343
 8199SOL    HW225497   6.356   2.591   0.441
 8200SOL     OW25498   5.772   4.744   6.988
 8200SOL    HW125499   5.751   4.726   6.892
 8200SOL    HW225500   5.864   4.782   6.996
 8201SOL     OW25501   5.301   0.773   5.383
 8201SOL    HW125502   5.304   0.755   5.482
 8201SOL    HW225503   5.219   0.733   5.344
 8202SOL     OW25504   0.432   5.623   1.883
 8202SOL    HW125505   0.390   5.652   1.969
 8202SOL    HW225506   0.409   5.688   1.811
 8203SOL     OW25507   1.530   3.246   0.193
 8203SOL    HW125508   1.562   3.153   0.210
 8203SOL    HW225509   1.506   3.290   0.279
 8204SOL     OW25510   1.643   3.582   0.695
 8204SOL    HW125511   1.734   3.593   0.654
 8204SOL    HW225512   1.638   3.635   0.780
 8205SOL     OW25513   0.135   4.118   6.385
 8205SOL    HW125514   0.184   4.041   6.425
 8205SOL    HW225515   0.047   4.087   6.348
 8206SOL     OW25516   3.232   0.756   1.344
 8206SOL    HW125517   3.177   0.833   1.311
 8206SOL    HW225518   3.319   0.755   1.295
 8207SOL     OW25519   3.988   3.573   4.372
 8207SOL    HW125520   4.071   3.563   4.427
 8207SOL    HW225521   3.910   3.589   4.431
 8208SOL     OW25522   3.148   0.185   6.196
 8208SOL    HW125523   3.098   0.268   6.221
 8208SOL    HW225524   3.102   0.105   6.234
 8209SOL     OW25525   6.095   2.422   3.960
 8209SOL    HW125526   6.088   2.486   3.884
 8209SOL    HW225527   6.150   2.463   4.033
 8210SOL     OW25528   1.917   2.581   6.315
 8210SOL    HW125529   1.822   2.551   6.311
 8210SOL    HW225530   1.959   2.574   6.225
 8211SOL     OW25531   4.095   4.823   1.193
 8211SOL    HW125532   4.058   4.821   1.100
 8211SOL    HW225533   4.063   4.742   1.242
 8212SOL     OW25534   1.797   3.412   2.796
 8212SOL    HW125535   1.821   3.374   2.707
 8212SOL    HW225536   1.880   3.425   2.850
 8213SOL     OW25537   6.466   4.763   0.565
 8213SOL    HW125538   6.444   4.853   0.604
 8213SOL    HW225539   6.407   4.746   0.486
 8214SOL     OW25540   5.077   3.429   3.662
 8214SOL    HW125541   5.051   3.461   3.571
 8214SOL    HW225542   5.091   3.507   3.722
 8215SOL     OW25543   3.758   4.969   1.677
 8215SOL    HW125544   3.790   4.875   1.685
 8215SOL    HW225545   3.810   5.028   1.739
 8216SOL     OW25546   5.530   3.425   4.059
 8216SOL    HW125547   5.546   3.338   4.011
 8216SOL    HW225548   5.536   3.501   3.994
 8217SOL     OW25549   2.478   5.646   6.919
 8217SOL    HW125550   2.562   5.637   6.972
 8217SOL    HW225551   2.463   5.742   6.896
 8218SOL     OW25552   4.685   2.272   6.765
 8218SOL    HW125553   4.653   2.303   6.854
 8218SOL    HW225554   4.782   2.295   6.754
 8219SOL     OW25555   5.216   2.461   0.031
 8219SOL    HW125556   5.158   2.381   0.014
 8219SOL    HW225557   5.172   2.521   0.097
 8220SOL     OW25558   3.957   3.617   1.555
 8220SOL    HW125559   3.900   3.560   1.496
 8220SOL    HW225560   3.901   3.657   1.627
 8221SOL     OW25561   5.732   4.232   3.479
 8221SOL    HW125562   5.710   4.135   3.468
 8221SOL    HW225563   5.800   4.242   3.553
 8222SOL     OW25564   5.917   0.963   2.868
 8222SOL    HW125565   5.962   0.881   2.835
 8222SOL    HW225566   5.859   0.940   2.946
 8223SOL     OW25567   0.614   4.904   0.062
 8223SOL    HW125568   0.559   4.886   7.004
 8223SOL    HW225569   0.661   4.820   0.090
 8224SOL     OW25570   0.570   3.944   2.422
 8224SOL    HW125571   0.648   3.916   2.366
 8224SOL    HW225572   0.599   4.015   2.486
 8225SOL     OW25573   5.153   0.835   1.355
 8225SOL    HW125574   5.145   0.823   1.256
 8225SOL    HW225575   5.065   0.864   1.393
 8226SOL     OW25576   3.706   0.762   6.765
 8226SOL    HW125577   3.660   0.734   6.681
 8226SOL    HW225578   3.769   0.690   6.793
 8227SOL     OW25579   6.176   4.188   3.189
 8227SOL    HW125580   6.138   4.121   3.252
 8227SOL    HW225581   6.167   4.155   3.095
 8228SOL     OW25582   0.135   1.494   3.841
 8228SOL    HW125583   0.072   1.569   3.859
 8228SOL    HW225584   0.090   1.425   3.785
 8229SOL     OW25585   5.470   5.613   0.084
 8229SOL    HW125586   5.417   5.604   7.022
 8229SOL    HW225587   5.567   5.609   0.063
 8230SOL     OW25588   5.143   0.247   3.140
 8230SOL    HW125589   5.098   0.232   3.228
 8230SOL    HW225590   5.233   0.202   3.141
 8231SOL     OW25591   4.080   5.778   1.190
 8231SOL    HW125592   4.044   5.845   1.255
 8231SOL    HW225593   4.173   5.752   1.217
 8232SOL     OW25594   2.597   1.519   0.226
 8232SOL    HW125595   2.579   1.572   0.144
 8232SOL    HW225596   2.515   1.515   0.282
 8233SOL     OW25597   0.900   5.798   5.996
 8233SOL    HW125598   0.871   5.826   6.088
 8233SOL    HW225599   0.997   5.775   5.997
 8234SOL     OW25600   2.409   3.417   6.501
 8234SOL    HW125601   2.495   3.408   6.451
 8234SOL    HW225602   2.374   3.326   6.524
 8235SOL     OW25603   4.606   2.389   6.483
 8235SOL    HW125604   4.569   2.482   6.490
 8235SOL    HW225605   4.620   2.352   6.574
 8236SOL     OW25606   6.178   2.438   1.704
 8236SOL    HW125607   6.135   2.453   1.615
 8236SOL    HW225608   6.223   2.521   1.734
 8237SOL     OW25609   3.607   6.023   5.509
 8237SOL    HW125610   3.629   6.014   5.412
 8237SOL    HW225611   3.508   6.030   5.521
 8238SOL     OW25612   1.087   1.088   6.363
 8238SOL    HW125613   1.070   1.022   6.436
 8238SOL    HW225614   1.132   1.169   6.400
 8239SOL     OW25615   5.818   1.233   6.976
 8239SOL    HW125616   5.739   1.172   6.967
 8239SOL    HW225617   5.806   1.290   0.034
 8240SOL     OW25618   3.767   3.330   3.063
 8240SOL    HW125619   3.828   3.325   3.142
 8240SOL    HW225620   3.813   3.290   2.984
 8241SOL     OW25621   4.795   6.054   1.217
 8241SOL    HW125622   4.700   6.084   1.223
 8241SOL    HW225623   4.816   6.032   1.121
 8242SOL     OW25624   1.534   4.198   5.304
 8242SOL    HW125625   1.608   4.254   5.268
 8242SOL    HW225626   1.461   4.257   5.339
 8243SOL     OW25627   0.452   3.248   5.013
 8243SOL    HW125628   0.538   3.209   5.047
 8243SOL    HW225629   0.382   3.240   5.084
 8244SOL     OW25630   2.799   5.406   5.051
 8244SOL    HW125631   2.843   5.337   4.995
 8244SOL    HW225632   2.705   5.379   5.071
 8245SOL     OW25633   4.467   3.656   1.080
 8245SOL    HW125634   4.527   3.598   1.137
 8245SOL    HW225635   4.404   3.707   1.139
 8246SOL     OW25636   5.370   3.350   4.782
 8246SOL    HW125637   5.436   3.313   4.717
 8246SOL    HW225638   5.417   3.409   4.848
 8247SOL     OW25639   1.255   6.375   6.781
 8247SOL    HW125640   1.312   6.452   6.752
 8247SOL    HW225641   1.306   6.290   6.770
 8248SOL     OW25642   0.322   3.955   3.376
 8248SOL    HW125643   0.259   3.917   3.444
 8248SOL    HW225644   0.396   4.004   3.423
 8249SOL     OW25645   1.098   5.341   3.022
 8249SOL    HW125646   1.031   5.329   3.095
 8249SOL    HW225647   1.052   5.343   2.934
 8250SOL     OW25648   2.959   3.257   2.678
 8250SOL    HW125649   2.935   3.349   2.649
 8250SOL    HW225650   2.959   3.195   2.599
 8251SOL     OW25651   5.549   0.582   4.792
 8251SOL    HW125652   5.543   0.574   4.693
 8251SOL    HW225653   5.497   0.662   4.822
 8252SOL     OW25654   1.015   3.836   4.036
 8252SOL    HW125655   0.991   3.933   4.031
 8252SOL    HW225656   1.100   3.825   4.087
 8253SOL     OW25657   3.270   3.418   5.938
 8253SOL    HW125658   3.308   3.384   5.852
 8253SOL    HW225659   3.183   3.463   5.920
 8254SOL     OW25660   4.819   5.495   2.913
 8254SOL    HW125661   4.829   5.593   2.931
 8254SOL    HW225662   4.723   5.470   2.923
 8255SOL     OW25663   3.750   5.053   3.416
 8255SOL    HW125664   3.694   5.126   3.454
 8255SOL    HW225665   3.692   4.974   3.395
 8256SOL     OW25666   5.391   2.528   3.149
 8256SOL    HW125667   5.447   2.486   3.078
 8256SOL    HW225668   5.296   2.533   3.118
 8257SOL     OW25669   6.360   4.134   4.467
 8257SOL    HW125670   6.392   4.195   4.395
 8257SOL    HW225671   6.388   4.171   4.556
 8258SOL     OW25672   5.177   2.060   6.691
 8258SOL    HW125673   5.220   1.993   6.630
 8258SOL    HW225674   5.201   2.039   6.785
 8259SOL     OW25675   4.915   0.611   0.989
 8259SOL    HW125676   4.974   0.635   0.912
 8259SOL    HW225677   4.828   0.576   0.953
 8260SOL     OW25678   3.494   5.695   6.374
 8260SOL    HW125679   3.397   5.708   6.393
 8260SOL    HW225680   3.533   5.780   6.336
 8261SOL     OW25681   5.106   1.457   1.554
 8261SOL    HW125682   5.038   1.389   1.528
 8261SOL    HW225683   5.113   1.460   1.654
 8262SOL     OW25684   6.693   2.556   1.508
 8262SOL    HW125685   6.632   2.570   1.586
 8262SOL    HW225686   6.780   2.603   1.525
 8263SOL     OW25687   5.814   1.635   0.564
 8263SOL    HW125688   5.872   1.708   0.599
 8263SOL    HW225689   5.804   1.645   0.465
 8264SOL     OW25690   1.383   4.363   1.530
 8264SOL    HW125691   1.394   4.325   1.438
 8264SOL    HW225692   1.392   4.289   1.597
 8265SOL     OW25693   1.797   0.715   2.660
 8265SOL    HW125694   1.716   0.670   2.621
 8265SOL    HW225695   1.770   0.767   2.741
 8266SOL     OW25696   3.192   0.728   2.786
 8266SOL    HW125697   3.236   0.757   2.871
 8266SOL    HW225698   3.115   0.788   2.766
 8267SOL     OW25699   0.186   3.855   0.769
 8267SOL    HW125700   0.183   3.848   0.669
 8267SOL    HW225701   0.112   3.915   0.800
 8268SOL     OW25702   2.912   5.215   6.715
 8268SOL    HW125703   2.900   5.118   6.697
 8268SOL    HW225704   3.009   5.235   6.731
 8269SOL     OW25705   5.961   1.975   0.060
 8269SOL    HW125706   5.921   2.058   0.100
 8269SOL    HW225707   6.049   1.998   0.017
 8270SOL     OW25708   2.653   6.164   4.554
 8270SOL    HW125709   2.580   6.101   4.581
 8270SOL    HW225710   2.693   6.135   4.468
 8271SOL     OW25711   0.420   2.193   3.136
 8271SOL    HW125712   0.453   2.216   3.045
 8271SOL    HW225713   0.328   2.230   3.150
 8272SOL     OW25714   3.304   1.481   3.893
 8272SOL    HW125715   3.226   1.446   3.842
 8272SOL    HW225716   3.388   1.462   3.842
 8273SOL     OW25717   1.656   6.286   2.292
 8273SOL    HW125718   1.698   6.372   2.262
 8273SOL    HW225719   1.624   6.296   2.386
 8274SOL     OW25720   5.233   4.083   3.583
 8274SOL    HW125721   5.148   4.134   3.590
 8274SOL    HW225722   5.255   4.067   3.486
 8275SOL     OW25723   5.669   2.464   7.001
 8275SOL    HW125724   5.743   2.523   0.011
 8275SOL    HW225725   5.625   2.507   6.922
 8276SOL     OW25726   0.644   1.760   2.544
 8276SOL    HW125727   0.573   1.744   2.476
 8276SOL    HW225728   0.685   1.673   2.571
 8277SOL     OW25729   0.154   1.567   0.232
 8277SOL    HW125730   0.218   1.502   0.273
 8277SOL    HW225731   0.127   1.533   0.141
 8278SOL     OW25732   1.617   2.549   0.675
 8278SOL    HW125733   1.713   2.521   0.662
 8278SOL    HW225734   1.557   2.487   0.625
 8279SOL     OW25735   0.072   5.970   3.550
 8279SOL    HW125736   0.011   5.966   3.629
 8279SOL    HW225737   0.131   6.051   3.557
 8280SOL     OW25738   3.442   2.525   6.178
 8280SOL    HW125739   3.520   2.567   6.132
 8280SOL    HW225740   3.367   2.513   6.113
 8281SOL     OW25741   4.341   5.360   2.336
 8281SOL    HW125742   4.337   5.303   2.419
 8281SOL    HW225743   4.281   5.439   2.348
 8282SOL     OW25744   6.492   2.709   6.294
 8282SOL    HW125745   6.449   2.780   6.349
 8282SOL    HW225746   6.439   2.694   6.211
 8283SOL     OW25747   2.072   2.866   5.912
 8283SOL    HW125748   2.019   2.951   5.910
 8283SOL    HW225749   2.061   2.818   5.825
 8284SOL     OW25750   6.353   4.478   2.004
 8284SOL    HW125751   6.422   4.550   2.014
 8284SOL    HW225752   6.371   4.425   1.921
 8285SOL     OW25753   3.977   3.162   3.582
 8285SOL    HW125754   4.023   3.216   3.652
 8285SOL    HW225755   3.878   3.177   3.588
 8286SOL     OW25756   0.489   2.688   6.919
 8286SOL    HW125757   0.393   2.718   6.920
 8286SOL    HW225758   0.513   2.651   7.009
 8287SOL     OW25759   1.566   0.143   4.164
 8287SOL    HW125760   1.587   0.193   4.080
 8287SOL    HW225761   1.560   0.045   4.144
 8288SOL     OW25762   3.001   1.595   3.117
 8288SOL    HW125763   3.017   1.541   3.200
 8288SOL    HW225764   3.063   1.673   3.116
 8289SOL     OW25765   0.357   6.404   7.005
 8289SOL    HW125766   0.371   6.372   0.076
 8289SOL    HW225767   0.444   6.407   6.957
 8290SOL     OW25768   6.269   2.260   1.015
 8290SOL    HW125769   6.179   2.294   1.041
 8290SOL    HW225770   6.338   2.299   1.075
 8291SOL     OW25771   4.003   0.806   0.717
 8291SOL    HW125772   3.964   0.898   0.719
 8291SOL    HW225773   4.102   0.811   0.728
 8292SOL     OW25774   3.056   0.556   5.961
 8292SOL    HW125775   3.083   0.631   5.900
 8292SOL    HW225776   3.047   0.472   5.907
 8293SOL     OW25777   6.222   5.374   5.223
 8293SOL    HW125778   6.190   5.281   5.201
 8293SOL    HW225779   6.280   5.408   5.149
 8294SOL     OW25780   6.318   2.912   0.062
 8294SOL    HW125781   6.279   2.869   0.144
 8294SOL    HW225782   6.357   3.001   0.087
 8295SOL     OW25783   5.031   2.888   6.684
 8295SOL    HW125784   5.021   2.792   6.659
 8295SOL    HW225785   5.125   2.918   6.666
 8296SOL     OW25786   0.641   5.173   5.545
 8296SOL    HW125787   0.698   5.202   5.468
 8296SOL    HW225788   0.678   5.089   5.585
 8297SOL     OW25789   1.192   2.881   3.991
 8297SOL    HW125790   1.211   2.966   3.942
 8297SOL    HW225791   1.119   2.895   4.057
 8298SOL     OW25792   4.795   1.768   1.754
 8298SOL    HW125793   4.725   1.840   1.753
 8298SOL    HW225794   4.862   1.785   1.683
 8299SOL     OW25795   5.980   2.314   1.871
 8299SOL    HW125796   6.045   2.388   1.885
 8299SOL    HW225797   6.007   2.262   1.790
 8300SOL     OW25798   1.809   5.289   3.058
 8300SOL    HW125799   1.793   5.313   2.962
 8300SOL    HW225800   1.826   5.191   3.065
 8301SOL     OW25801   2.670   1.623   6.036
 8301SOL    HW125802   2.599   1.603   6.103
 8301SOL    HW225803   2.707   1.715   6.055
 8302SOL     OW25804   6.084   5.893   5.657
 8302SOL    HW125805   6.040   5.951   5.588
 8302SOL    HW225806   6.036   5.902   5.744
 8303SOL     OW25807   6.952   0.118   6.759
 8303SOL    HW125808   0.028   0.109   6.750
 8303SOL    HW225809   6.907   0.067   6.686
 8304SOL     OW25810   0.106   3.203   0.623
 8304SOL    HW125811   0.176   3.265   0.588
 8304SOL    HW225812   0.149   3.132   0.678
 8305SOL     OW25813   3.126   5.268   2.876
 8305SOL    HW125814   3.212   5.311   2.905
 8305SOL    HW225815   3.063   5.265   2.954
 8306SOL     OW25816   1.823   3.025   3.816
 8306SOL    HW125817   1.780   2.940   3.847
 8306SOL    HW225818   1.913   3.036   3.859
 8307SOL     OW25819   3.988   6.172   1.036
 8307SOL    HW125820   3.904   6.191   0.984
 8307SOL    HW225821   3.975   6.201   1.131
 8308SOL     OW25822   2.992   0.502   2.050
 8308SOL    HW125823   3.087   0.524   2.029
 8308SOL    HW225824   2.949   0.581   2.093
 8309SOL     OW25825   5.948   6.487   2.187
 8309SOL    HW125826   5.853   6.455   2.180
 8309SOL    HW225827   5.953   6.562   2.253
 8310SOL     OW25828   6.174   4.830   6.662
 8310SOL    HW125829   6.111   4.896   6.621
 8310SOL    HW225830   6.244   4.805   6.595
 8311SOL     OW25831   6.452   0.193   6.169
 8311SOL    HW125832   6.370   0.208   6.224
 8311SOL    HW225833   6.490   0.281   6.140
 8312SOL     OW25834   4.884   6.242   1.406
 8312SOL    HW125835   4.836   6.180   1.343
 8312SOL    HW225836   4.854   6.336   1.388
 8313SOL     OW25837   4.128   1.474   2.884
 8313SOL    HW125838   4.065   1.401   2.909
 8313SOL    HW225839   4.082   1.563   2.892
 8314SOL     OW25840   0.305   6.858   3.245
 8314SOL    HW125841   0.335   6.785   3.307
 8314SOL    HW225842   0.381   6.922   3.230
 8315SOL     OW25843   5.022   4.573   6.561
 8315SOL    HW125844   4.968   4.645   6.516
 8315SOL    HW225845   5.034   4.596   6.657
 8316SOL     OW25846   2.836   5.518   6.661
 8316SOL    HW125847   2.855   5.469   6.746
 8316SOL    HW225848   2.739   5.506   6.637
 8317SOL     OW25849   2.607   4.567   1.324
 8317SOL    HW125850   2.515   4.594   1.351
 8317SOL    HW225851   2.609   4.468   1.306
 8318SOL     OW25852   3.007   1.267   5.544
 8318SOL    HW125853   3.014   1.311   5.455
 8318SOL    HW225854   2.950   1.185   5.536
 8319SOL     OW25855   2.535   0.614   5.631
 8319SOL    HW125856   2.529   0.655   5.540
 8319SOL    HW225857   2.530   0.686   5.701
 8320SOL     OW25858   4.059   5.131   1.206
 8320SOL    HW125859   4.117   5.181   1.141
 8320SOL    HW225860   4.069   5.033   1.191
 8321SOL     OW25861   6.805   0.755   1.127
 8321SOL    HW125862   6.843   0.664   1.113
 8321SOL    HW225863   6.791   0.770   1.225
 8322SOL     OW25864   5.259   6.989   0.351
 8322SOL    HW125865   5.349   6.947   0.335
 8322SOL    HW225866   5.197   6.919   0.386
 8323SOL     OW25867   1.924   0.680   1.886
 8323SOL    HW125868   1.886   0.758   1.937
 8323SOL    HW225869   1.851   0.614   1.868
 8324SOL     OW25870   6.940   0.937   2.162
 8324SOL    HW125871   6.996   0.964   2.240
 8324SOL    HW225872   6.893   0.851   2.182
 8325SOL     OW25873   4.026   3.785   4.664
 8325SOL    HW125874   4.023   3.839   4.749
 8325SOL    HW225875   3.987   3.695   4.682
 8326SOL     OW25876   4.168   2.912   6.360
 8326SOL    HW125877   4.076   2.953   6.359
 8326SOL    HW225878   4.234   2.979   6.395
 8327SOL     OW25879   5.335   2.540   6.116
 8327SOL    HW125880   5.415   2.562   6.059
 8327SOL    HW225881   5.366   2.518   6.209
 8328SOL     OW25882   2.188   2.716   3.838
 8328SOL    HW125883   2.217   2.620   3.835
 8328SOL    HW225884   2.175   2.744   3.933
 8329SOL     OW25885   0.804   2.663   4.845
 8329SOL    HW125886   0.742   2.679   4.768
 8329SOL    HW225887   0.898   2.682   4.817
 8330SOL     OW25888   2.414   6.812   0.465
 8330SOL    HW125889   2.389   6.909   0.474
 8330SOL    HW225890   2.484   6.803   0.394
 8331SOL     OW25891   2.839   0.106   1.034
 8331SOL    HW125892   2.938   0.114   1.046
 8331SOL    HW225893   2.818   0.079   0.940
 8332SOL     OW25894   4.475   6.222   3.605
 8332SOL    HW125895   4.461   6.278   3.687
 8332SOL    HW225896   4.390   6.176   3.582
 8333SOL     OW25897   1.782   5.185   5.565
 8333SOL    HW125898   1.854   5.161   5.630
 8333SOL    HW225899   1.697   5.204   5.613
 8334SOL     OW25900   6.597   6.636   4.019
 8334SOL    HW125901   6.612   6.552   3.967
 8334SOL    HW225902   6.685   6.677   4.042
 8335SOL     OW25903   6.492   6.317   5.271
 8335SOL    HW125904   6.561   6.374   5.315
 8335SOL    HW225905   6.519   6.221   5.279
 8336SOL     OW25906   1.212   1.941   2.609
 8336SOL    HW125907   1.229   1.844   2.596
 8336SOL    HW225908   1.285   1.980   2.666
 8337SOL     OW25909   0.198   6.431   2.314
 8337SOL    HW125910   0.179   6.440   2.216
 8337SOL    HW225911   0.238   6.342   2.332
 8338SOL     OW25912   2.268   4.969   0.695
 8338SOL    HW125913   2.301   4.971   0.790
 8338SOL    HW225914   2.177   4.928   0.692
 8339SOL     OW25915   5.678   0.808   3.259
 8339SOL    HW125916   5.602   0.841   3.315
 8339SOL    HW225917   5.669   0.843   3.166
 8340SOL     OW25918   4.636   3.863   1.578
 8340SOL    HW125919   4.544   3.897   1.596
 8340SOL    HW225920   4.637   3.815   1.490
 8341SOL     OW25921   2.391   0.078   0.479
 8341SOL    HW125922   2.342   0.137   0.415
 8341SOL    HW225923   2.481   0.117   0.498
 8342SOL     OW25924   5.194   6.644   1.447
 8342SOL    HW125925   5.102   6.675   1.470
 8342SOL    HW225926   5.260   6.716   1.469
 8343SOL     OW25927   0.376   4.715   5.302
 8343SOL    HW125928   0.473   4.708   5.326
 8343SOL    HW225929   0.320   4.696   5.382
 8344SOL     OW25930   3.910   6.822   4.845
 8344SOL    HW125931   3.929   6.906   4.793
 8344SOL    HW225932   3.857   6.845   4.926
 8345SOL     OW25933   6.377   1.438   3.107
 8345SOL    HW125934   6.430   1.516   3.139
 8345SOL    HW225935   6.361   1.375   3.183
 8346SOL     OW25936   3.951   5.076   2.359
 8346SOL    HW125937   3.865   5.125   2.376
 8346SOL    HW225938   3.935   5.005   2.290
 8347SOL     OW25939   3.164   5.218   4.475
 8347SOL    HW125940   3.145   5.181   4.566
 8347SOL    HW225941   3.149   5.146   4.407
 8348SOL     OW25942   1.907   0.585   0.768
 8348SOL    HW125943   1.877   0.670   0.725
 8348SOL    HW225944   1.830   0.521   0.772
 8349SOL     OW25945   6.346   5.379   1.817
 8349SOL    HW125946   6.274   5.390   1.749
 8349SOL    HW225947   6.408   5.306   1.788
 8350SOL     OW25948   6.383   0.941   5.090
 8350SOL    HW125949   6.443   0.982   5.021
 8350SOL    HW225950   6.414   0.848   5.109
 8351SOL     OW25951   3.030   6.078   2.194
 8351SOL    HW125952   3.053   6.101   2.099
 8351SOL    HW225953   3.067   5.987   2.216
 8352SOL     OW25954   6.638   5.873   1.858
 8352SOL    HW125955   6.595   5.821   1.784
 8352SOL    HW225956   6.570   5.891   1.929
 8353SOL     OW25957   1.535   3.435   2.022
 8353SOL    HW125958   1.493   3.401   2.106
 8353SOL    HW225959   1.537   3.362   1.954
 8354SOL     OW25960   3.011   0.590   0.319
 8354SOL    HW125961   3.055   0.559   0.403
 8354SOL    HW225962   2.973   0.511   0.270
 8355SOL     OW25963   3.113   1.209   0.861
 8355SOL    HW125964   3.199   1.260   0.871
 8355SOL    HW225965   3.117   1.126   0.916
 8356SOL     OW25966   2.933   5.445   0.151
 8356SOL    HW125967   2.994   5.422   0.227
 8356SOL    HW225968   2.900   5.539   0.163
 8357SOL     OW25969   4.408   5.972   3.022
 8357SOL    HW125970   4.413   6.016   3.111
 8357SOL    HW225971   4.312   5.958   2.997
 8358SOL     OW25972   3.214   2.010   5.080
 8358SOL    HW125973   3.293   1.976   5.030
 8358SOL    HW225974   3.209   2.110   5.070
 8359SOL     OW25975   3.943   4.867   3.458
 8359SOL    HW125976   3.990   4.874   3.369
 8359SOL    HW225977   3.865   4.930   3.460
 8360SOL     OW25978   4.305   0.535   3.235
 8360SOL    HW125979   4.300   0.574   3.143
 8360SOL    HW225980   4.223   0.481   3.253
 8361SOL     OW25981   1.332   0.408   2.905
 8361SOL    HW125982   1.261   0.444   2.845
 8361SOL    HW225983   1.405   0.476   2.914
 8362SOL     OW25984   2.295   2.971   0.454
 8362SOL    HW125985   2.324   2.920   0.535
 8362SOL    HW225986   2.264   3.062   0.481
 8363SOL     OW25987   0.649   3.636   1.562
 8363SOL    HW125988   0.724   3.698   1.541
 8363SOL    HW225989   0.678   3.542   1.544
 8364SOL     OW25990   6.960   4.643   5.630
 8364SOL    HW125991   0.012   4.684   5.577
 8364SOL    HW225992   6.872   4.667   5.589
 8365SOL     OW25993   1.219   3.675   6.069
 8365SOL    HW125994   1.135   3.629   6.098
 8365SOL    HW225995   1.206   3.713   5.977
 8366SOL     OW25996   2.394   6.818   2.627
 8366SOL    HW125997   2.353   6.847   2.713
 8366SOL    HW225998   2.454   6.890   2.592
 8367SOL     OW25999   4.971   5.750   3.730
 8367SOL    HW126000   4.924   5.806   3.663
 8367SOL    HW226001   4.945   5.778   3.822
 8368SOL     OW26002   3.247   5.815   6.077
 8368SOL    HW126003   3.346   5.826   6.089
 8368SOL    HW226004   3.227   5.723   6.045
 8369SOL     OW26005   2.655   1.574   1.300
 8369SOL    HW126006   2.564   1.541   1.325
 8369SOL    HW226007   2.697   1.618   1.379
 8370SOL     OW26008   1.962   1.272   6.904
 8370SOL    HW126009   1.963   1.324   6.989
 8370SOL    HW226010   1.993   1.330   6.828
 8371SOL     OW26011   1.563   2.516   0.278
 8371SOL    HW126012   1.531   2.429   0.240
 8371SOL    HW226013   1.484   2.570   0.307
 8372SOL     OW26014   6.713   0.448   0.578
 8372SOL    HW126015   6.643   0.424   0.645
 8372SOL    HW226016   6.697   0.398   0.493
 8373SOL     OW26017   1.626   6.745   4.224
 8373SOL    HW126018   1.646   6.674   4.156
 8373SOL    HW226019   1.568   6.815   4.182
 8374SOL     OW26020   6.741   0.685   5.836
 8374SOL    HW126021   6.798   0.634   5.900
 8374SOL    HW226022   6.649   0.695   5.873
 8375SOL     OW26023   4.224   0.721   6.345
 8375SOL    HW126024   4.175   0.785   6.405
 8375SOL    HW226025   4.192   0.628   6.363
 8376SOL     OW26026   4.272   0.328   4.280
 8376SOL    HW126027   4.220   0.372   4.207
 8376SOL    HW226028   4.230   0.240   4.303
 8377SOL     OW26029   5.786   4.922   0.842
 8377SOL    HW126030   5.791   4.961   0.750
 8377SOL    HW226031   5.873   4.935   0.889
 8378SOL     OW26032   4.972   2.968   3.718
 8378SOL    HW126033   4.952   3.030   3.642
 8378SOL    HW226034   5.038   2.898   3.688
 8379SOL     OW26035   5.181   2.830   2.328
 8379SOL    HW126036   5.263   2.817   2.383
 8379SOL    HW226037   5.153   2.927   2.331
 8380SOL     OW26038   5.792   1.631   3.787
 8380SOL    HW126039   5.888   1.645   3.812
 8380SOL    HW226040   5.778   1.536   3.760
 8381SOL     OW26041   1.795   5.626   4.331
 8381SOL    HW126042   1.810   5.686   4.253
 8381SOL    HW226043   1.721   5.562   4.310
 8382SOL     OW26044   0.533   4.501   2.190
 8382SOL    HW126045   0.454   4.557   2.213
 8382SOL    HW226046   0.584   4.545   2.116
 8383SOL     OW26047   3.431   1.384   5.659
 8383SOL    HW126048   3.383   1.466   5.629
 8383SOL    HW226049   3.395   1.305   5.610
 8384SOL     OW26050   0.993   6.915   1.650
 8384SOL    HW126051   0.940   6.836   1.621
 8384SOL    HW226052   1.003   6.914   1.750
 8385SOL     OW26053   4.098   1.600   1.201
 8385SOL    HW126054   4.073   1.681   1.148
 8385SOL    HW226055   4.053   1.604   1.290
 8386SOL     OW26056   0.552   3.347   2.189
 8386SOL    HW126057   0.564   3.295   2.105
 8386SOL    HW226058   0.488   3.422   2.173
 8387SOL     OW26059   0.962   1.989   1.765
 8387SOL    HW126060   0.924   1.993   1.857
 8387SOL    HW226061   0.899   1.942   1.704
 8388SOL     OW26062   0.908   6.639   2.903
 8388SOL    HW126063   0.813   6.636   2.873
 8388SOL    HW226064   0.919   6.716   2.967
 8389SOL     OW26065   6.006   3.221   3.563
 8389SOL    HW126066   5.918   3.252   3.526
 8389SOL    HW226067   6.023   3.127   3.533
 8390SOL     OW26068   6.065   1.981   6.576
 8390SOL    HW126069   6.016   1.914   6.521
 8390SOL    HW226070   6.047   2.073   6.541
 8391SOL     OW26071   6.395   7.007   1.225
 8391SOL    HW126072   6.365   0.019   1.136
 8391SOL    HW226073   6.456   0.051   1.268
 8392SOL     OW26074   3.515   3.128   5.065
 8392SOL    HW126075   3.499   3.045   5.011
 8392SOL    HW226076   3.613   3.140   5.079
 8393SOL     OW26077   5.899   0.045   1.192
 8393SOL    HW126078   5.902   0.123   1.255
 8393SOL    HW226079   5.917   6.983   1.243
 8394SOL     OW26080   5.950   2.978   2.349
 8394SOL    HW126081   5.888   2.900   2.343
 8394SOL    HW226082   6.003   2.972   2.434
 8395SOL     OW26083   2.383   0.826   5.017
 8395SOL    HW126084   2.358   0.734   5.046
 8395SOL    HW226085   2.308   0.889   5.038
 8396SOL     OW26086   4.986   5.150   4.307
 8396SOL    HW126087   5.049   5.099   4.249
 8396SOL    HW226088   4.994   5.248   4.288
 8397SOL     OW26089   6.295   6.726   2.903
 8397SOL    HW126090   6.259   6.704   2.813
 8397SOL    HW226091   6.220   6.724   2.970
 8398SOL     OW26092   5.871   1.799   6.457
 8398SOL    HW126093   5.846   1.743   6.537
 8398SOL    HW226094   5.940   1.751   6.404
 8399SOL     OW26095   0.294   4.376   2.456
 8399SOL    HW126096   0.229   4.451   2.446
 8399SOL    HW226097   0.380   4.400   2.411
 8400SOL     OW26098   0.876   0.927   5.061
 8400SOL    HW126099   0.863   0.850   5.122
 8400SOL    HW226100   0.952   0.983   5.093
 8401SOL     OW26101   2.013   0.347   5.794
 8401SOL    HW126102   2.091   0.391   5.839
 8401SOL    HW226103   2.030   0.249   5.786
 8402SOL     OW26104   3.012   0.425   6.256
 8402SOL    HW126105   3.089   0.471   6.300
 8402SOL    HW226106   2.971   0.486   6.188
 8403SOL     OW26107   5.694   5.028   5.053
 8403SOL    HW126108   5.601   5.026   5.091
 8403SOL    HW226109   5.712   4.941   5.006
 8404SOL     OW26110   1.188   1.475   0.279
 8404SOL    HW126111   1.135   1.394   0.301
 8404SOL    HW226112   1.184   1.540   0.356
 8405SOL     OW26113   4.039   6.769   5.630
 8405SOL    HW126114   4.081   6.680   5.646
 8405SOL    HW226115   4.111   6.838   5.623
 8406SOL     OW26116   5.852   0.583   6.051
 8406SOL    HW126117   5.853   0.556   5.954
 8406SOL    HW226118   5.943   0.614   6.077
 8407SOL     OW26119   4.550   0.854   4.549
 8407SOL    HW126120   4.517   0.813   4.464
 8407SOL    HW226121   4.481   0.918   4.584
 8408SOL     OW26122   4.025   2.155   1.515
 8408SOL    HW126123   4.053   2.064   1.548
 8408SOL    HW226124   3.956   2.193   1.577
 8409SOL     OW26125   4.249   2.388   1.797
 8409SOL    HW126126   4.309   2.325   1.749
 8409SOL    HW226127   4.282   2.482   1.785
 8410SOL     OW26128   0.023   1.752   1.462
 8410SOL    HW126129   0.001   1.668   1.412
 8410SOL    HW226130   6.969   1.815   1.456
 8411SOL     OW26131   1.066   5.693   1.072
 8411SOL    HW126132   1.119   5.641   1.005
 8411SOL    HW226133   1.118   5.698   1.157
 8412SOL     OW26134   2.662   2.899   7.007
 8412SOL    HW126135   2.600   2.872   6.934
 8412SOL    HW226136   2.625   2.979   0.032
 8413SOL     OW26137   3.793   5.748   4.575
 8413SOL    HW126138   3.787   5.712   4.482
 8413SOL    HW226139   3.836   5.839   4.573
 8414SOL     OW26140   2.095   6.805   0.757
 8414SOL    HW126141   2.106   6.881   0.693
 8414SOL    HW226142   2.172   6.802   0.820
 8415SOL     OW26143   3.469   1.626   6.369
 8415SOL    HW126144   3.496   1.663   6.280
 8415SOL    HW226145   3.397   1.558   6.356
 8416SOL     OW26146   0.967   2.699   5.072
 8416SOL    HW126147   1.013   2.786   5.092
 8416SOL    HW226148   0.927   2.703   4.980
 8417SOL     OW26149   1.875   3.501   5.981
 8417SOL    HW126150   1.886   3.462   6.073
 8417SOL    HW226151   1.958   3.488   5.928
 8418SOL     OW26152   0.190   6.093   2.603
 8418SOL    HW126153   0.186   6.171   2.540
 8418SOL    HW226154   0.220   6.012   2.553
 8419SOL     OW26155   3.633   1.448   4.491
 8419SOL    HW126156   3.618   1.480   4.585
 8419SOL    HW226157   3.594   1.515   4.427
 8420SOL     OW26158   3.643   0.990   2.328
 8420SOL    HW126159   3.654   1.067   2.390
 8420SOL    HW226160   3.598   1.022   2.244
 8421SOL     OW26161   4.681   0.188   6.844
 8421SOL    HW126162   4.584   0.166   6.837
 8421SOL    HW226163   4.735   0.117   6.799
 8422SOL     OW26164   5.191   2.193   4.136
 8422SOL    HW126165   5.192   2.187   4.236
 8422SOL    HW226166   5.116   2.137   4.101
 8423SOL     OW26167   6.210   5.862   0.361
 8423SOL    HW126168   6.168   5.798   0.297
 8423SOL    HW226169   6.270   5.812   0.424
 8424SOL     OW26170   2.913   0.468   5.358
 8424SOL    HW126171   2.986   0.439   5.421
 8424SOL    HW226172   2.877   0.389   5.309
 8425SOL     OW26173   3.712   3.505   2.127
 8425SOL    HW126174   3.762   3.446   2.190
 8425SOL    HW226175   3.638   3.550   2.176
 8426SOL     OW26176   3.548   3.376   1.692
 8426SOL    HW126177   3.479   3.323   1.741
 8426SOL    HW226178   3.503   3.445   1.635
 8427SOL     OW26179   3.987   3.150   2.977
 8427SOL    HW126180   4.051   3.221   2.949
 8427SOL    HW226181   3.940   3.114   2.896
 8428SOL     OW26182   5.773   0.164   2.140
 8428SOL    HW126183   5.850   0.118   2.097
 8428SOL    HW226184   5.722   0.099   2.196
 8429SOL     OW26185   3.300   6.103   5.261
 8429SOL    HW126186   3.370   6.092   5.190
 8429SOL    HW226187   3.231   6.032   5.251
 8430SOL     OW26188   5.121   6.676   5.498
 8430SOL    HW126189   5.024   6.656   5.482
 8430SOL    HW226190   5.145   6.762   5.452
 8431SOL     OW26191   2.329   2.926   6.152
 8431SOL    HW126192   2.333   2.910   6.053
 8431SOL    HW226193   2.233   2.923   6.181
 8432SOL     OW26194   6.433   5.236   5.894
 8432SOL    HW126195   6.489   5.163   5.857
 8432SOL    HW226196   6.436   5.234   5.994
 8433SOL     OW26197   5.116   1.990   1.024
 8433SOL    HW126198   5.197   1.976   1.082
 8433SOL    HW226199   5.034   1.988   1.080
 8434SOL     OW26200   3.004   6.097   4.819
 8434SOL    HW126201   2.973   6.022   4.877
 8434SOL    HW226202   3.089   6.134   4.856
 8435SOL     OW26203   6.511   1.881   2.965
 8435SOL    HW126204   6.430   1.938   2.980
 8435SOL    HW226205   6.586   1.938   2.933
 8436SOL     OW26206   1.755   5.369   2.788
 8436SOL    HW126207   1.794   5.289   2.742
 8436SOL    HW226208   1.655   5.362   2.787
 8437SOL     OW26209   1.772   5.942   0.600
 8437SOL    HW126210   1.763   5.919   0.503
 8437SOL    HW226211   1.789   5.858   0.652
 8438SOL     OW26212   1.040   4.111   2.695
 8438SOL    HW126213   1.054   4.042   2.765
 8438SOL    HW226214   1.042   4.068   2.605
 8439SOL     OW26215   6.306   4.036   2.623
 8439SOL    HW126216   6.343   4.007   2.534
 8439SOL    HW226217   6.268   3.956   2.670
 8440SOL     OW26218   1.664   1.827   2.246
 8440SOL    HW126219   1.566   1.830   2.267
 8440SOL    HW226220   1.717   1.836   2.330
 8441SOL     OW26221   6.802   2.570   5.823
 8441SOL    HW126222   6.866   2.638   5.790
 8441SOL    HW226223   6.803   2.491   5.762
 8442SOL     OW26224   4.016   2.530   6.783
 8442SOL    HW126225   4.047   2.438   6.760
 8442SOL    HW226226   4.061   2.596   6.723
 8443SOL     OW26227   1.937   4.490   2.928
 8443SOL    HW126228   1.907   4.423   2.996
 8443SOL    HW226229   2.034   4.511   2.942
 8444SOL     OW26230   5.745   5.249   4.619
 8444SOL    HW126231   5.772   5.336   4.579
 8444SOL    HW226232   5.748   5.255   4.719
 8445SOL     OW26233   4.370   6.314   6.974
 8445SOL    HW126234   4.373   6.324   0.051
 8445SOL    HW226235   4.309   6.239   6.951
 8446SOL     OW26236   6.400   5.753   4.497
 8446SOL    HW126237   6.404   5.729   4.594
 8446SOL    HW226238   6.390   5.851   4.487
 8447SOL     OW26239   3.439   1.865   4.473
 8447SOL    HW126240   3.532   1.864   4.511
 8447SOL    HW226241   3.402   1.958   4.479
 8448SOL     OW26242   3.391   6.500   3.019
 8448SOL    HW126243   3.330   6.470   2.946
 8448SOL    HW226244   3.358   6.587   3.055
 8449SOL     OW26245   1.421   2.383   4.093
 8449SOL    HW126246   1.478   2.304   4.070
 8449SOL    HW226247   1.459   2.429   4.173
 8450SOL     OW26248   6.778   0.894   0.657
 8450SOL    HW126249   6.689   0.940   0.647
 8450SOL    HW226250   6.847   0.962   0.682
 8451SOL     OW26251   3.986   2.899   1.560
 8451SOL    HW126252   3.938   2.985   1.578
 8451SOL    HW226253   4.040   2.909   1.476
 8452SOL     OW26254   5.033   0.939   5.796
 8452SOL    HW126255   5.036   0.993   5.881
 8452SOL    HW226256   5.078   0.990   5.723
 8453SOL     OW26257   0.128   0.490   0.181
 8453SOL    HW126258   0.197   0.519   0.247
 8453SOL    HW226259   0.037   0.516   0.215
 8454SOL     OW26260   6.409   5.964   6.599
 8454SOL    HW126261   6.411   5.870   6.565
 8454SOL    HW226262   6.435   6.027   6.525
 8455SOL     OW26263   6.263   0.902   2.588
 8455SOL    HW126264   6.191   0.899   2.518
 8455SOL    HW226265   6.256   0.820   2.645
 8456SOL     OW26266   0.038   0.366   2.082
 8456SOL    HW126267   0.010   0.453   2.041
 8456SOL    HW226268   6.980   0.309   2.096
 8457SOL     OW26269   6.874   7.021   4.981
 8457SOL    HW126270   6.964   0.031   5.011
 8457SOL    HW226271   6.880   6.923   4.962
 8458SOL     OW26272   0.948   6.826   0.095
 8458SOL    HW126273   0.877   6.882   0.052
 8458SOL    HW226274   1.010   6.885   0.146
 8459SOL     OW26275   0.690   5.568   2.946
 8459SOL    HW126276   0.773   5.582   2.999
 8459SOL    HW226277   0.621   5.636   2.971
 8460SOL     OW26278   3.986   3.587   3.354
 8460SOL    HW126279   3.889   3.561   3.343
 8460SOL    HW226280   4.003   3.611   3.449
 8461SOL     OW26281   6.295   3.409   3.785
 8461SOL    HW126282   6.280   3.434   3.689
 8461SOL    HW226283   6.210   3.372   3.823
 8462SOL     OW26284   2.675   2.494   1.780
 8462SOL    HW126285   2.770   2.471   1.802
 8462SOL    HW226286   2.615   2.419   1.809
 8463SOL     OW26287   6.272   0.550   1.709
 8463SOL    HW126288   6.308   0.599   1.788
 8463SOL    HW226289   6.241   0.615   1.640
 8464SOL     OW26290   6.830   1.086   4.312
 8464SOL    HW126291   6.815   1.179   4.278
 8464SOL    HW226292   6.893   1.089   4.390
 8465SOL     OW26293   1.957   1.497   0.752
 8465SOL    HW126294   1.898   1.558   0.804
 8465SOL    HW226295   1.941   1.402   0.778
 8466SOL     OW26296   0.547   0.045   4.165
 8466SOL    HW126297   0.510   0.119   4.222
 8466SOL    HW226298   0.505   6.981   4.193
 8467SOL     OW26299   4.137   5.305   0.708
 8467SOL    HW126300   4.212   5.238   0.705
 8467SOL    HW226301   4.174   5.397   0.708
 8468SOL     OW26302   3.479   2.491   0.132
 8468SOL    HW126303   3.459   2.542   0.048
 8468SOL    HW226304   3.566   2.443   0.122
 8469SOL     OW26305   4.280   2.202   5.917
 8469SOL    HW126306   4.204   2.261   5.891
 8469SOL    HW226307   4.246   2.125   5.972
 8470SOL     OW26308   2.061   2.857   6.897
 8470SOL    HW126309   2.135   2.822   6.955
 8470SOL    HW226310   2.093   2.865   6.803
 8471SOL     OW26311   4.500   1.802   4.858
 8471SOL    HW126312   4.453   1.720   4.826
 8471SOL    HW226313   4.434   1.876   4.868
 8472SOL     OW26314   1.314   6.414   2.943
 8472SOL    HW126315   1.339   6.414   2.846
 8472SOL    HW226316   1.272   6.326   2.966
 8473SOL     OW26317   6.751   5.981   6.578
 8473SOL    HW126318   6.742   6.061   6.519
 8473SOL    HW226319   6.793   6.008   6.665
 8474SOL     OW26320   4.231   5.488   0.023
 8474SOL    HW126321   4.329   5.490   0.004
 8474SOL    HW226322   4.214   5.520   0.117
 8475SOL     OW26323   4.624   2.140   2.692
 8475SOL    HW126324   4.657   2.232   2.716
 8475SOL    HW226325   4.699   2.088   2.652
 8476SOL     OW26326   4.552   0.265   3.063
 8476SOL    HW126327   4.585   0.327   3.135
 8476SOL    HW226328   4.593   0.292   2.976
 8477SOL     OW26329   3.270   0.011   3.181
 8477SOL    HW126330   3.220   0.038   3.264
 8477SOL    HW226331   3.206   0.007   3.104
 8478SOL     OW26332   1.264   0.047   5.794
 8478SOL    HW126333   1.321   0.039   5.712
 8478SOL    HW226334   1.214   0.134   5.791
 8479SOL     OW26335   5.467   0.792   2.309
 8479SOL    HW126336   5.433   0.744   2.390
 8479SOL    HW226337   5.531   0.733   2.260
 8480SOL     OW26338   1.767   1.122   1.586
 8480SOL    HW126339   1.673   1.131   1.555
 8480SOL    HW226340   1.805   1.035   1.554
 8481SOL     OW26341   4.331   0.307   5.716
 8481SOL    HW126342   4.376   0.335   5.631
 8481SOL    HW226343   4.283   0.221   5.702
 8482SOL     OW26344   6.973   0.586   1.460
 8482SOL    HW126345   6.966   0.506   1.400
 8482SOL    HW226346   0.046   0.615   1.467
 8483SOL     OW26347   5.202   6.391   2.100
 8483SOL    HW126348   5.201   6.291   2.096
 8483SOL    HW226349   5.222   6.420   2.194
 8484SOL     OW26350   6.561   5.007   5.771
 8484SOL    HW126351   6.660   5.011   5.763
 8484SOL    HW226352   6.519   5.029   5.683
 8485SOL     OW26353   1.657   3.237   6.369
 8485SOL    HW126354   1.567   3.195   6.358
 8485SOL    HW226355   1.715   3.177   6.424
 8486SOL     OW26356   4.265   0.861   2.517
 8486SOL    HW126357   4.193   0.823   2.575
 8486SOL    HW226358   4.251   0.833   2.422
 8487SOL     OW26359   4.217   0.665   0.550
 8487SOL    HW126360   4.233   0.690   0.646
 8487SOL    HW226361   4.220   0.566   0.540
 8488SOL     OW26362   6.609   3.725   5.309
 8488SOL    HW126363   6.644   3.632   5.324
 8488SOL    HW226364   6.584   3.765   5.397
 8489SOL     OW26365   3.012   6.932   3.298
 8489SOL    HW126366   2.965   6.963   3.216
 8489SOL    HW226367   2.968   6.849   3.333
 8490SOL     OW26368   3.769   4.867   2.730
 8490SOL    HW126369   3.838   4.859   2.658
 8490SOL    HW226370   3.678   4.853   2.691
 8491SOL     OW26371   1.098   0.887   1.630
 8491SOL    HW126372   1.045   0.802   1.624
 8491SOL    HW226373   1.046   0.962   1.587
 8492SOL     OW26374   5.730   4.075   4.660
 8492SOL    HW126375   5.803   4.008   4.673
 8492SOL    HW226376   5.697   4.071   4.566
 8493SOL     OW26377   3.477   2.900   1.030
 8493SOL    HW126378   3.414   2.853   1.092
 8493SOL    HW226379   3.481   2.851   0.943
 8494SOL     OW26380   3.529   6.475   6.763
 8494SOL    HW126381   3.527   6.537   6.841
 8494SOL    HW226382   3.473   6.512   6.689
 8495SOL     OW26383   0.664   2.725   6.704
 8495SOL    HW126384   0.618   2.753   6.620
 8495SOL    HW226385   0.600   2.730   6.781
 8496SOL     OW26386   0.857   2.216   3.573
 8496SOL    HW126387   0.869   2.138   3.634
 8496SOL    HW226388   0.947   2.249   3.544
 8497SOL     OW26389   5.638   3.976   3.464
 8497SOL    HW126390   5.717   3.937   3.417
 8497SOL    HW226391   5.559   3.916   3.452
 8498SOL     OW26392   6.761   0.767   1.405
 8498SOL    HW126393   6.747   0.840   1.472
 8498SOL    HW226394   6.824   0.699   1.442
 8499SOL     OW26395   0.258   4.554   0.667
 8499SOL    HW126396   0.308   4.637   0.641
 8499SOL    HW226397   0.220   4.512   0.585
 8500SOL     OW26398   2.241   0.486   5.635
 8500SOL    HW126399   2.337   0.512   5.621
 8500SOL    HW226400   2.232   0.440   5.724
 8501SOL     OW26401   2.599   3.581   6.331
 8501SOL    HW126402   2.621   3.651   6.263
 8501SOL    HW226403   2.629   3.492   6.298
 8502SOL     OW26404   0.786   6.745   1.519
 8502SOL    HW126405   0.737   6.659   1.528
 8502SOL    HW226406   0.800   6.765   1.422
 8503SOL     OW26407   4.025   5.612   3.352
 8503SOL    HW126408   4.122   5.637   3.342
 8503SOL    HW226409   3.985   5.596   3.262
 8504SOL     OW26410   1.201   4.784   3.267
 8504SOL    HW126411   1.175   4.881   3.262
 8504SOL    HW226412   1.277   4.774   3.332
 8505SOL     OW26413   4.535   2.142   3.582
 8505SOL    HW126414   4.631   2.163   3.600
 8505SOL    HW226415   4.477   2.195   3.644
 8506SOL     OW26416   0.686   5.658   6.728
 8506SOL    HW126417   0.703   5.688   6.822
 8506SOL    HW226418   0.617   5.716   6.686
 8507SOL     OW26419   1.751   0.556   4.302
 8507SOL    HW126420   1.791   0.611   4.375
 8507SOL    HW226421   1.748   0.460   4.330
 8508SOL     OW26422   0.696   3.465   5.539
 8508SOL    HW126423   0.700   3.465   5.439
 8508SOL    HW226424   0.603   3.447   5.569
 8509SOL     OW26425   6.036   2.116   4.948
 8509SOL    HW126426   6.051   2.045   4.879
 8509SOL    HW226427   5.988   2.194   4.905
 8510SOL     OW26428   4.961   0.058   2.446
 8510SOL    HW126429   5.029   0.130   2.435
 8510SOL    HW226430   4.900   0.080   2.523
 8511SOL     OW26431   6.669   5.369   1.710
 8511SOL    HW126432   6.611   5.287   1.708
 8511SOL    HW226433   6.623   5.444   1.662
 8512SOL     OW26434   4.149   3.051   1.097
 8512SOL    HW126435   4.144   3.149   1.075
 8512SOL    HW226436   4.244   3.024   1.107
 8513SOL     OW26437   0.492   3.292   0.739
 8513SOL    HW126438   0.548   3.215   0.768
 8513SOL    HW226439   0.408   3.295   0.794
 8514SOL     OW26440   2.242   2.914   4.815
 8514SOL    HW126441   2.221   2.816   4.811
 8514SOL    HW226442   2.286   2.935   4.902
 8515SOL     OW26443   2.728   1.015   0.293
 8515SOL    HW126444   2.806   1.024   0.232
 8515SOL    HW226445   2.734   0.928   0.343
 8516SOL     OW26446   6.292   3.321   4.861
 8516SOL    HW126447   6.278   3.420   4.871
 8516SOL    HW226448   6.374   3.306   4.805
 8517SOL     OW26449   1.591   1.794   5.942
 8517SOL    HW126450   1.509   1.806   5.886
 8517SOL    HW226451   1.578   1.841   6.030
 8518SOL     OW26452   5.554   4.833   0.114
 8518SOL    HW126453   5.630   4.809   0.055
 8518SOL    HW226454   5.589   4.872   0.200
 8519SOL     OW26455   0.579   3.806   0.525
 8519SOL    HW126456   0.541   3.724   0.567
 8519SOL    HW226457   0.535   3.821   0.437
 8520SOL     OW26458   3.145   3.679   6.153
 8520SOL    HW126459   3.150   3.767   6.106
 8520SOL    HW226460   3.214   3.617   6.116
 8521SOL     OW26461   1.995   6.884   4.661
 8521SOL    HW126462   1.965   6.864   4.568
 8521SOL    HW226463   2.025   6.799   4.705
 8522SOL     OW26464   0.269   0.644   6.945
 8522SOL    HW126465   0.312   0.625   0.011
 8522SOL    HW226466   0.255   0.558   6.896
 8523SOL     OW26467   4.004   1.662   1.430
 8523SOL    HW126468   4.005   1.625   1.523
 8523SOL    HW226469   3.910   1.681   1.403
 8524SOL     OW26470   3.268   6.379   5.264
 8524SOL    HW126471   3.175   6.409   5.285
 8524SOL    HW226472   3.269   6.280   5.251
 8525SOL     OW26473   6.127   2.965   2.535
 8525SOL    HW126474   6.107   2.905   2.613
 8525SOL    HW226475   6.211   3.015   2.554
 8526SOL     OW26476   0.400   4.674   6.718
 8526SOL    HW126477   0.328   4.606   6.703
 8526SOL    HW226478   0.474   4.660   6.652
 8527SOL     OW26479   2.847   0.708   6.056
 8527SOL    HW126480   2.924   0.659   6.014
 8527SOL    HW226481   2.883   0.785   6.109
 8528SOL     OW26482   5.715   0.430   1.011
 8528SOL    HW126483   5.621   0.455   0.985
 8528SOL    HW226484   5.720   0.331   1.027
 8529SOL     OW26485   0.936   6.399   6.451
 8529SOL    HW126486   0.986   6.484   6.434
 8529SOL    HW226487   0.838   6.417   6.452
 8530SOL     OW26488   4.028   3.711   2.602
 8530SOL    HW126489   4.059   3.739   2.693
 8530SOL    HW226490   3.955   3.773   2.571
 8531SOL     OW26491   6.316   5.649   3.108
 8531SOL    HW126492   6.363   5.728   3.071
 8531SOL    HW226493   6.218   5.656   3.089
 8532SOL     OW26494   3.550   5.414   0.356
 8532SOL    HW126495   3.547   5.465   0.442
 8532SOL    HW226496   3.477   5.445   0.296
 8533SOL     OW26497   2.503   6.262   5.255
 8533SOL    HW126498   2.459   6.172   5.262
 8533SOL    HW226499   2.563   6.277   5.333
 8534SOL     OW26500   1.879   3.319   2.201
 8534SOL    HW126501   1.860   3.374   2.120
 8534SOL    HW226502   1.978   3.316   2.217
 8535SOL     OW26503   6.182   0.122   2.213
 8535SOL    HW126504   6.160   0.082   2.302
 8535SOL    HW226505   6.100   0.128   2.158
 8536SOL     OW26506   1.734   1.160   3.902
 8536SOL    HW126507   1.703   1.092   3.967
 8536SOL    HW226508   1.684   1.245   3.916
 8537SOL     OW26509   5.857   1.180   3.149
 8537SOL    HW126510   5.836   1.167   3.246
 8537SOL    HW226511   5.772   1.192   3.098
 8538SOL     OW26512   0.661   2.132   6.811
 8538SOL    HW126513   0.719   2.211   6.828
 8538SOL    HW226514   0.566   2.162   6.796
 8539SOL     OW26515   5.365   2.966   1.933
 8539SOL    HW126516   5.363   3.032   1.857
 8539SOL    HW226517   5.278   2.918   1.937
 8540SOL     OW26518   4.235   0.433   1.264
 8540SOL    HW126519   4.273   0.525   1.266
 8540SOL    HW226520   4.179   0.418   1.346
 8541SOL     OW26521   1.699   3.187   3.282
 8541SOL    HW126522   1.719   3.186   3.184
 8541SOL    HW226523   1.649   3.104   3.307
 8542SOL     OW26524   3.030   4.563   6.432
 8542SOL    HW126525   2.986   4.482   6.393
 8542SOL    HW226526   3.040   4.633   6.361
 8543SOL     OW26527   3.713   2.056   6.513
 8543SOL    HW126528   3.620   2.085   6.537
 8543SOL    HW226529   3.774   2.076   6.589
 8544SOL     OW26530   5.975   1.604   4.255
 8544SOL    HW126531   5.938   1.515   4.279
 8544SOL    HW226532   6.053   1.625   4.314
 8545SOL     OW26533   4.646   6.506   5.229
 8545SOL    HW126534   4.666   6.569   5.154
 8545SOL    HW226535   4.559   6.532   5.272
 8546SOL     OW26536   3.940   2.185   0.134
 8546SOL    HW126537   3.999   2.105   0.121
 8546SOL    HW226538   3.982   2.265   0.090
 8547SOL     OW26539   1.637   4.386   2.050
 8547SOL    HW126540   1.584   4.424   2.126
 8547SOL    HW226541   1.704   4.321   2.085
 8548SOL     OW26542   6.218   1.914   5.544
 8548SOL    HW126543   6.234   1.913   5.643
 8548SOL    HW226544   6.120   1.921   5.526
 8549SOL     OW26545   5.259   3.047   5.369
 8549SOL    HW126546   5.246   2.953   5.338
 8549SOL    HW226547   5.345   3.083   5.332
 8550SOL     OW26548   1.362   4.574   5.344
 8550SOL    HW126549   1.313   4.572   5.257
 8550SOL    HW226550   1.322   4.646   5.402
 8551SOL     OW26551   2.180   4.456   1.227
 8551SOL    HW126552   2.229   4.401   1.160
 8551SOL    HW226553   2.155   4.543   1.187
 8552SOL     OW26554   3.051   6.700   4.800
 8552SOL    HW126555   2.999   6.755   4.735
 8552SOL    HW226556   3.006   6.702   4.889
 8553SOL     OW26557   6.222   5.694   7.008
 8553SOL    HW126558   6.283   5.658   0.056
 8553SOL    HW226559   6.266   5.771   6.962
 8554SOL     OW26560   5.861   3.842   0.728
 8554SOL    HW126561   5.886   3.755   0.685
 8554SOL    HW226562   5.836   3.827   0.824
 8555SOL     OW26563   2.040   6.601   4.215
 8555SOL    HW126564   2.036   6.692   4.172
 8555SOL    HW226565   1.987   6.536   4.160
 8556SOL     OW26566   5.928   6.797   4.680
 8556SOL    HW126567   5.987   6.801   4.600
 8556SOL    HW226568   5.882   6.886   4.692
 8557SOL     OW26569   6.446   1.722   1.023
 8557SOL    HW126570   6.368   1.664   1.045
 8557SOL    HW226571   6.423   1.783   0.947
 8558SOL     OW26572   1.546   4.106   2.485
 8558SOL    HW126573   1.497   4.021   2.507
 8558SOL    HW226574   1.522   4.176   2.551
 8559SOL     OW26575   0.861   1.545   5.219
 8559SOL    HW126576   0.881   1.641   5.237
 8559SOL    HW226577   0.831   1.534   5.124
 8560SOL     OW26578   6.463   2.666   6.718
 8560SOL    HW126579   6.522   2.747   6.728
 8560SOL    HW226580   6.370   2.689   6.747
 8561SOL     OW26581   4.756   5.982   6.411
 8561SOL    HW126582   4.753   6.059   6.474
 8561SOL    HW226583   4.844   5.936   6.419
 8562SOL     OW26584   3.983   0.467   4.359
 8562SOL    HW126585   3.975   0.388   4.421
 8562SOL    HW226586   3.891   0.499   4.335
 8563SOL     OW26587   2.825   3.015   6.770
 8563SOL    HW126588   2.776   2.928   6.769
 8563SOL    HW226589   2.818   3.057   6.861
 8564SOL     OW26590   0.905   5.622   3.117
 8564SOL    HW126591   0.941   5.715   3.128
 8564SOL    HW226592   0.895   5.579   3.207
 8565SOL     OW26593   3.447   0.977   1.448
 8565SOL    HW126594   3.348   0.984   1.449
 8565SOL    HW226595   3.476   0.892   1.493
 8566SOL     OW26596   1.813   4.061   4.209
 8566SOL    HW126597   1.773   4.148   4.237
 8566SOL    HW226598   1.860   4.072   4.122
 8567SOL     OW26599   5.459   6.649   6.424
 8567SOL    HW126600   5.431   6.597   6.343
 8567SOL    HW226601   5.548   6.617   6.455
 8568SOL     OW26602   5.592   0.080   0.675
 8568SOL    HW126603   5.669   0.142   0.658
 8568SOL    HW226604   5.528   0.085   0.598
 8569SOL     OW26605   3.564   0.533   5.362
 8569SOL    HW126606   3.611   0.504   5.446
 8569SOL    HW226607   3.629   0.539   5.287
 8570SOL     OW26608   6.357   3.648   6.595
 8570SOL    HW126609   6.383   3.587   6.670
 8570SOL    HW226610   6.435   3.661   6.534
 8571SOL     OW26611   6.779   4.138   5.819
 8571SOL    HW126612   6.693   4.156   5.867
 8571SOL    HW226613   6.807   4.221   5.771
 8572SOL     OW26614   2.553   5.028   6.161
 8572SOL    HW126615   2.635   5.050   6.213
 8572SOL    HW226616   2.481   5.094   6.181
 8573SOL     OW26617   3.409   6.229   4.084
 8573SOL    HW126618   3.419   6.129   4.092
 8573SOL    HW226619   3.428   6.271   4.173
 8574SOL     OW26620   0.959   4.097   4.115
 8574SOL    HW126621   0.991   4.134   4.202
 8574SOL    HW226622   0.873   4.049   4.129
 8575SOL     OW26623   2.993   3.111   6.200
 8575SOL    HW126624   3.048   3.077   6.124
 8575SOL    HW226625   2.917   3.166   6.163
 8576SOL     OW26626   2.204   0.144   0.844
 8576SOL    HW126627   2.182   0.112   0.752
 8576SOL    HW226628   2.123   0.133   0.903
 8577SOL     OW26629   6.208   5.567   4.347
 8577SOL    HW126630   6.266   5.645   4.371
 8577SOL    HW226631   6.124   5.600   4.304
 8578SOL     OW26632   4.606   0.515   3.738
 8578SOL    HW126633   4.579   0.502   3.833
 8578SOL    HW226634   4.697   0.556   3.734
 8579SOL     OW26635   0.638   4.507   2.559
 8579SOL    HW126636   0.650   4.549   2.469
 8579SOL    HW226637   0.706   4.434   2.570
 8580SOL     OW26638   2.701   5.468   6.006
 8580SOL    HW126639   2.619   5.519   6.032
 8580SOL    HW226640   2.675   5.380   5.967
 8581SOL     OW26641   3.613   3.415   0.299
 8581SOL    HW126642   3.544   3.393   0.368
 8581SOL    HW226643   3.579   3.488   0.240
 8582SOL     OW26644   3.961   4.720   0.160
 8582SOL    HW126645   4.049   4.752   0.125
 8582SOL    HW226646   3.894   4.793   0.153
 8583SOL     OW26647   5.679   6.772   4.521
 8583SOL    HW126648   5.693   6.837   4.446
 8583SOL    HW226649   5.763   6.767   4.576
 8584SOL     OW26650   0.240   5.654   6.345
 8584SOL    HW126651   0.255   5.753   6.355
 8584SOL    HW226652   0.284   5.622   6.262
 8585SOL     OW26653   1.494   1.771   0.809
 8585SOL    HW126654   1.428   1.837   0.773
 8585SOL    HW226655   1.461   1.678   0.791
 8586SOL     OW26656   3.950   5.035   3.789
 8586SOL    HW126657   3.934   5.005   3.695
 8586SOL    HW226658   3.933   4.959   3.852
 8587SOL     OW26659   6.665   1.743   1.447
 8587SOL    HW126660   6.690   1.795   1.365
 8587SOL    HW226661   6.730   1.763   1.520
 8588SOL     OW26662   3.623   2.943   6.248
 8588SOL    HW126663   3.524   2.935   6.237
 8588SOL    HW226664   3.668   2.910   6.165
 8589SOL     OW26665   2.524   1.708   4.521
 8589SOL    HW126666   2.439   1.694   4.572
 8589SOL    HW226667   2.503   1.716   4.423
 8590SOL     OW26668   5.494   5.044   5.324
 8590SOL    HW126669   5.555   5.008   5.394
 8590SOL    HW226670   5.417   5.091   5.368
 8591SOL     OW26671   0.665   3.009   0.586
 8591SOL    HW126672   0.583   2.974   0.631
 8591SOL    HW226673   0.699   2.942   0.521
 8592SOL     OW26674   6.567   6.336   6.769
 8592SOL    HW126675   6.513   6.393   6.830
 8592SOL    HW226676   6.572   6.243   6.805
 8593SOL     OW26677   0.623   5.167   3.228
 8593SOL    HW126678   0.528   5.140   3.212
 8593SOL    HW226679   0.626   5.243   3.294
 8594SOL     OW26680   4.060   3.417   2.824
 8594SOL    HW126681   4.116   3.427   2.906
 8594SOL    HW226682   4.110   3.365   2.756
 8595SOL     OW26683   1.543   2.806   1.947
 8595SOL    HW126684   1.581   2.742   1.881
 8595SOL    HW226685   1.510   2.756   2.027
 8596SOL     OW26686   6.757   4.095   2.363
 8596SOL    HW126687   6.746   4.190   2.392
 8596SOL    HW226688   6.717   4.083   2.272
 8597SOL     OW26689   1.915   1.697   0.952
 8597SOL    HW126690   1.863   1.722   1.034
 8597SOL    HW226691   1.911   1.773   0.887
 8598SOL     OW26692   6.089   2.863   1.895
 8598SOL    HW126693   6.058   2.957   1.909
 8598SOL    HW226694   6.177   2.850   1.940
 8599SOL     OW26695   0.964   2.745   0.701
 8599SOL    HW126696   1.038   2.685   0.731
 8599SOL    HW226697   0.949   2.734   0.603
 8600SOL     OW26698   6.915   2.435   6.029
 8600SOL    HW126699   6.958   2.370   5.966
 8600SOL    HW226700   6.843   2.485   5.980
 8601SOL     OW26701   0.755   0.430   4.703
 8601SOL    HW126702   0.827   0.445   4.771
 8601SOL    HW226703   0.797   0.400   4.617
 8602SOL     OW26704   1.322   6.508   2.029
 8602SOL    HW126705   1.327   6.470   1.937
 8602SOL    HW226706   1.240   6.565   2.037
 8603SOL     OW26707   5.013   3.687   1.642
 8603SOL    HW126708   4.934   3.628   1.626
 8603SOL    HW226709   4.989   3.782   1.621
 8604SOL     OW26710   6.171   2.409   3.304
 8604SOL    HW126711   6.099   2.478   3.312
 8604SOL    HW226712   6.254   2.441   3.350
 8605SOL     OW26713   3.017   5.220   1.551
 8605SOL    HW126714   2.953   5.144   1.540
 8605SOL    HW226715   3.020   5.248   1.647
 8606SOL     OW26716   4.210   5.251   4.584
 8606SOL    HW126717   4.135   5.196   4.546
 8606SOL    HW226718   4.202   5.253   4.684
 8607SOL     OW26719   2.667   6.498   0.475
 8607SOL    HW126720   2.593   6.482   0.541
 8607SOL    HW226721   2.749   6.528   0.524
 8608SOL     OW26722   5.579   6.751   2.515
 8608SOL    HW126723   5.644   6.739   2.440
 8608SOL    HW226724   5.585   6.845   2.550
 8609SOL     OW26725   5.550   0.321   5.915
 8609SOL    HW126726   5.646   0.310   5.889
 8609SOL    HW226727   5.532   0.417   5.935
 8610SOL     OW26728   6.697   6.492   5.428
 8610SOL    HW126729   6.773   6.427   5.427
 8610SOL    HW226730   6.675   6.517   5.522
 8611SOL     OW26731   1.712   2.085   3.000
 8611SOL    HW126732   1.726   1.987   3.012
 8611SOL    HW226733   1.666   2.102   2.913
 8612SOL     OW26734   5.206   3.144   4.445
 8612SOL    HW126735   5.179   3.116   4.538
 8612SOL    HW226736   5.158   3.086   4.379
 8613SOL     OW26737   1.019   0.310   0.519
 8613SOL    HW126738   1.053   0.367   0.444
 8613SOL    HW226739   1.008   0.366   0.601
 8614SOL     OW26740   1.585   2.737   3.252
 8614SOL    HW126741   1.643   2.672   3.203
 8614SOL    HW226742   1.606   2.733   3.350
 8615SOL     OW26743   4.914   1.864   6.003
 8615SOL    HW126744   4.926   1.901   6.095
 8615SOL    HW226745   4.852   1.923   5.951
 8616SOL     OW26746   0.801   3.149   0.379
 8616SOL    HW126747   0.739   3.102   0.442
 8616SOL    HW226748   0.878   3.187   0.431
 8617SOL     OW26749   6.146   3.195   0.922
 8617SOL    HW126750   6.103   3.152   0.842
 8617SOL    HW226751   6.144   3.132   0.999
 8618SOL     OW26752   3.505   1.321   2.752
 8618SOL    HW126753   3.457   1.233   2.750
 8618SOL    HW226754   3.439   1.395   2.765
 8619SOL     OW26755   3.629   6.730   0.775
 8619SOL    HW126756   3.715   6.780   0.765
 8619SOL    HW226757   3.583   6.725   0.686
 8620SOL     OW26758   6.194   5.891   3.905
 8620SOL    HW126759   6.164   5.959   3.839
 8620SOL    HW226760   6.114   5.850   3.949
 8621SOL     OW26761   5.013   0.851   3.577
 8621SOL    HW126762   5.099   0.902   3.583
 8621SOL    HW226763   4.937   0.913   3.597
 8622SOL     OW26764   5.114   5.713   6.051
 8622SOL    HW126765   5.096   5.753   5.961
 8622SOL    HW226766   5.080   5.619   6.053
 8623SOL     OW26767   6.059   1.732   3.888
 8623SOL    HW126768   6.115   1.766   3.964
 8623SOL    HW226769   5.985   1.796   3.870
 8624SOL     OW26770   6.332   3.037   3.508
 8624SOL    HW126771   6.304   3.070   3.598
 8624SOL    HW226772   6.267   3.070   3.439
 8625SOL     OW26773   3.748   1.379   6.274
 8625SOL    HW126774   3.842   1.403   6.248
 8625SOL    HW226775   3.732   1.405   6.369
 8626SOL     OW26776   2.991   3.823   2.010
 8626SOL    HW126777   3.063   3.888   2.036
 8626SOL    HW226778   3.030   3.751   1.954
 8627SOL     OW26779   2.874   0.437   6.750
 8627SOL    HW126780   2.934   0.454   6.828
 8627SOL    HW226781   2.787   0.398   6.782
 8628SOL     OW26782   6.483   1.601   1.294
 8628SOL    HW126783   6.512   1.671   1.359
 8628SOL    HW226784   6.545   1.602   1.215
 8629SOL     OW26785   1.500   5.805   3.236
 8629SOL    HW126786   1.548   5.747   3.301
 8629SOL    HW226787   1.447   5.874   3.286
 8630SOL     OW26788   5.182   4.765   4.044
 8630SOL    HW126789   5.213   4.730   4.133
 8630SOL    HW226790   5.121   4.699   4.002
 8631SOL     OW26791   4.031   6.639   3.501
 8631SOL    HW126792   4.091   6.562   3.522
 8631SOL    HW226793   4.063   6.685   3.418
 8632SOL     OW26794   3.329   0.829   3.016
 8632SOL    HW126795   3.375   0.911   3.049
 8632SOL    HW226796   3.330   0.759   3.087
 8633SOL     OW26797   6.627   6.565   2.685
 8633SOL    HW126798   6.579   6.516   2.758
 8633SOL    HW226799   6.617   6.514   2.599
 8634SOL     OW26800   6.309   5.956   1.769
 8634SOL    HW126801   6.303   6.035   1.831
 8634SOL    HW226802   6.356   5.983   1.686
 8635SOL     OW26803   6.020   3.590   5.648
 8635SOL    HW126804   6.020   3.500   5.690
 8635SOL    HW226805   5.959   3.651   5.700
 8636SOL     OW26806   6.198   5.149   0.981
 8636SOL    HW126807   6.175   5.239   1.019
 8636SOL    HW226808   6.207   5.157   0.882
 8637SOL     OW26809   1.111   0.632   1.949
 8637SOL    HW126810   1.028   0.670   1.909
 8637SOL    HW226811   1.096   0.614   2.046
 8638SOL     OW26812   5.981   4.474   1.155
 8638SOL    HW126813   5.918   4.525   1.097
 8638SOL    HW226814   6.063   4.529   1.173
 8639SOL     OW26815   5.986   2.629   2.587
 8639SOL    HW126816   5.977   2.628   2.487
 8639SOL    HW226817   6.082   2.622   2.611
 8640SOL     OW26818   4.901   6.045   1.642
 8640SOL    HW126819   4.902   5.994   1.556
 8640SOL    HW226820   4.811   6.038   1.685
 8641SOL     OW26821   5.740   4.591   3.729
 8641SOL    HW126822   5.782   4.610   3.640
 8641SOL    HW226823   5.735   4.676   3.782
 8642SOL     OW26824   4.386   1.028   1.429
 8642SOL    HW126825   4.341   0.981   1.504
 8642SOL    HW226826   4.349   1.120   1.420
 8643SOL     OW26827   4.751   6.962   0.004
 8643SOL    HW126828   4.843   6.923   7.020
 8643SOL    HW226829   4.733   7.020   6.947
 8644SOL     OW26830   6.285   3.378   5.733
 8644SOL    HW126831   6.311   3.347   5.641
 8644SOL    HW226832   6.188   3.356   5.748
 8645SOL     OW26833   6.559   3.493   1.784
 8645SOL    HW126834   6.568   3.578   1.731
 8645SOL    HW226835   6.510   3.513   1.869
 8646SOL     OW26836   4.952   6.441   0.612
 8646SOL    HW126837   4.895   6.394   0.546
 8646SOL    HW226838   4.893   6.490   0.677
 8647SOL     OW26839   4.856   5.058   2.299
 8647SOL    HW126840   4.936   5.086   2.352
 8647SOL    HW226841   4.886   5.016   2.213
 8648SOL     OW26842   5.907   0.481   4.030
 8648SOL    HW126843   5.923   0.579   4.047
 8648SOL    HW226844   5.810   0.460   4.044
 8649SOL     OW26845   6.324   4.164   5.772
 8649SOL    HW126846   6.381   4.117   5.839
 8649SOL    HW226847   6.379   4.231   5.722
 8650SOL     OW26848   0.522   5.627   1.501
 8650SOL    HW126849   0.434   5.614   1.455
 8650SOL    HW226850   0.512   5.695   1.574
 8651SOL     OW26851   4.397   3.247   1.072
 8651SOL    HW126852   4.423   3.178   1.139
 8651SOL    HW226853   4.381   3.334   1.119
 8652SOL     OW26854   0.731   2.575   4.173
 8652SOL    HW126855   0.818   2.617   4.199
 8652SOL    HW226856   0.682   2.547   4.256
 8653SOL     OW26857   5.127   3.143   6.544
 8653SOL    HW126858   5.122   3.221   6.607
 8653SOL    HW226859   5.207   3.087   6.567
 8654SOL     OW26860   1.395   4.869   1.565
 8654SOL    HW126861   1.414   4.790   1.507
 8654SOL    HW226862   1.471   4.882   1.629
 8655SOL     OW26863   5.646   6.069   2.701
 8655SOL    HW126864   5.590   6.110   2.630
 8655SOL    HW226865   5.710   6.136   2.737
 8656SOL     OW26866   6.497   2.257   2.102
 8656SOL    HW126867   6.450   2.183   2.053
 8656SOL    HW226868   6.443   2.282   2.183
 8657SOL     OW26869   3.178   5.050   0.681
 8657SOL    HW126870   3.208   5.095   0.765
 8657SOL    HW226871   3.193   4.952   0.688
 8658SOL     OW26872   1.322   5.692   5.972
 8658SOL    HW126873   1.262   5.635   6.029
 8658SOL    HW226874   1.303   5.788   5.990
 8659SOL     OW26875   4.326   0.025   4.665
 8659SOL    HW126876   4.388   0.036   4.743
 8659SOL    HW226877   4.308   6.950   4.651
 8660SOL     OW26878   5.258   4.566   7.018
 8660SOL    HW126879   5.292   4.546   6.926
 8660SOL    HW226880   5.193   4.496   0.024
 8661SOL     OW26881   6.303   3.156   1.950
 8661SOL    HW126882   6.295   3.230   2.016
 8661SOL    HW226883   6.343   3.076   1.994
 8662SOL     OW26884   0.277   1.068   6.890
 8662SOL    HW126885   0.191   1.079   6.841
 8662SOL    HW226886   0.314   1.158   6.913
 8663SOL     OW26887   2.634   5.120   0.979
 8663SOL    HW126888   2.573   5.174   1.037
 8663SOL    HW226889   2.728   5.150   0.993
 8664SOL     OW26890   4.743   4.758   1.492
 8664SOL    HW126891   4.806   4.763   1.569
 8664SOL    HW226892   4.792   4.729   1.410
 8665SOL     OW26893   5.162   5.196   4.528
 8665SOL    HW126894   5.159   5.293   4.552
 8665SOL    HW226895   5.072   5.166   4.496
 8666SOL     OW26896   6.613   4.593   4.574
 8666SOL    HW126897   6.679   4.573   4.502
 8666SOL    HW226898   6.661   4.635   4.652
 8667SOL     OW26899   5.471   2.368   3.468
 8667SOL    HW126900   5.474   2.296   3.399
 8667SOL    HW226901   5.381   2.411   3.467
 8668SOL     OW26902   3.420   0.668   4.888
 8668SOL    HW126903   3.340   0.654   4.831
 8668SOL    HW226904   3.404   0.746   4.949
 8669SOL     OW26905   3.993   6.671   6.434
 8669SOL    HW126906   3.909   6.618   6.421
 8669SOL    HW226907   3.987   6.723   6.519
 8670SOL     OW26908   4.505   4.483   2.447
 8670SOL    HW126909   4.546   4.476   2.538
 8670SOL    HW226910   4.576   4.466   2.378
 8671SOL     OW26911   6.270   6.122   2.465
 8671SOL    HW126912   6.292   6.027   2.442
 8671SOL    HW226913   6.197   6.155   2.405
 8672SOL     OW26914   3.652   4.997   4.666
 8672SOL    HW126915   3.710   4.937   4.721
 8672SOL    HW226916   3.698   5.084   4.651
 8673SOL     OW26917   4.935   2.394   6.776
 8673SOL    HW126918   4.921   2.477   6.831
 8673SOL    HW226919   4.986   2.327   6.830
 8674SOL     OW26920   0.750   0.053   3.031
 8674SOL    HW126921   0.788   6.985   3.050
 8674SOL    HW226922   0.792   0.089   2.947
 8675SOL     OW26923   2.419   1.801   2.894
 8675SOL    HW126924   2.410   1.806   2.795
 8675SOL    HW226925   2.511   1.828   2.921
 8676SOL     OW26926   4.592   1.072   4.238
 8676SOL    HW126927   4.514   1.129   4.264
 8676SOL    HW226928   4.658   1.127   4.186
 8677SOL     OW26929   2.037   3.733   5.793
 8677SOL    HW126930   1.963   3.686   5.842
 8677SOL    HW226931   2.061   3.817   5.841
 8678SOL     OW26932   1.239   0.597   5.945
 8678SOL    HW126933   1.149   0.554   5.945
 8678SOL    HW226934   1.238   0.678   6.003
 8679SOL     OW26935   6.073   1.832   4.789
 8679SOL    HW126936   6.027   1.901   4.732
 8679SOL    HW226937   6.049   1.741   4.757
 8680SOL     OW26938   0.827   3.806   0.409
 8680SOL    HW126939   0.743   3.822   0.461
 8680SOL    HW226940   0.873   3.893   0.392
 8681SOL     OW26941   4.266   3.795   1.269
 8681SOL    HW126942   4.208   3.736   1.214
 8681SOL    HW226943   4.256   3.771   1.365
 8682SOL     OW26944   1.364   5.909   2.689
 8682SOL    HW126945   1.282   5.963   2.705
 8682SOL    HW226946   1.369   5.834   2.756
 8683SOL     OW26947   4.779   3.337   6.947
 8683SOL    HW126948   4.798   3.252   6.898
 8683SOL    HW226949   4.680   3.351   6.952
 8684SOL     OW26950   5.984   2.914   3.298
 8684SOL    HW126951   5.905   2.944   3.245
 8684SOL    HW226952   5.957   2.902   3.394
 8685SOL     OW26953   0.250   1.756   5.435
 8685SOL    HW126954   0.247   1.657   5.448
 8685SOL    HW226955   0.163   1.787   5.396
 8686SOL     OW26956   6.468   1.483   3.889
 8686SOL    HW126957   6.421   1.441   3.967
 8686SOL    HW226958   6.401   1.509   3.820
 8687SOL     OW26959   3.659   0.987   2.998
 8687SOL    HW126960   3.694   1.043   2.922
 8687SOL    HW226961   3.735   0.940   3.043
 8688SOL     OW26962   0.911   6.792   2.409
 8688SOL    HW126963   1.005   6.785   2.377
 8688SOL    HW226964   0.862   6.708   2.386
 8689SOL     OW26965   5.250   4.198   1.441
 8689SOL    HW126966   5.266   4.129   1.511
 8689SOL    HW226967   5.297   4.171   1.357
 8690SOL     OW26968   1.432   1.128   2.340
 8690SOL    HW126969   1.425   1.224   2.313
 8690SOL    HW226970   1.346   1.082   2.319
 8691SOL     OW26971   6.182   1.475   0.642
 8691SOL    HW126972   6.138   1.488   0.731
 8691SOL    HW226973   6.280   1.460   0.655
 8692SOL     OW26974   1.584   1.187   3.657
 8692SOL    HW126975   1.631   1.169   3.743
 8692SOL    HW226976   1.541   1.103   3.623
 8693SOL     OW26977   5.026   2.172   6.402
 8693SOL    HW126978   4.939   2.216   6.380
 8693SOL    HW226979   5.102   2.227   6.366
 8694SOL     OW26980   3.979   6.823   6.656
 8694SOL    HW126981   3.925   6.789   6.733
 8694SOL    HW226982   3.932   6.902   6.615
 8695SOL     OW26983   4.467   4.514   5.461
 8695SOL    HW126984   4.402   4.547   5.393
 8695SOL    HW226985   4.531   4.450   5.419
 8696SOL     OW26986   2.305   5.188   0.537
 8696SOL    HW126987   2.335   5.170   0.443
 8696SOL    HW226988   2.293   5.102   0.585
 8697SOL     OW26989   4.973   5.275   6.442
 8697SOL    HW126990   5.026   5.345   6.491
 8697SOL    HW226991   5.021   5.187   6.447
 8698SOL     OW26992   5.731   5.809   5.074
 8698SOL    HW126993   5.763   5.813   5.168
 8698SOL    HW226994   5.765   5.726   5.030
 8699SOL     OW26995   1.582   1.415   4.958
 8699SOL    HW126996   1.505   1.358   4.928
 8699SOL    HW226997   1.590   1.412   5.057
 8700SOL     OW26998   2.721   2.343   6.091
 8700SOL    HW126999   2.754   2.332   5.998
 8700SOL    HW227000   2.627   2.310   6.097
 8701SOL     OW27001   1.284   1.017   3.842
 8701SOL    HW127002   1.369   0.968   3.862
 8701SOL    HW227003   1.305   1.104   3.798
 8702SOL     OW27004   4.987   6.472   6.929
 8702SOL    HW127005   4.986   6.417   6.846
 8702SOL    HW227006   5.050   6.430   6.995
 8703SOL     OW27007   1.271   5.057   1.351
 8703SOL    HW127008   1.324   5.141   1.344
 8703SOL    HW227009   1.325   4.988   1.399
 8704SOL     OW27010   1.110   4.406   1.856
 8704SOL    HW127011   1.208   4.408   1.875
 8704SOL    HW227012   1.069   4.326   1.901
 8705SOL     OW27013   4.679   6.477   4.474
 8705SOL    HW127014   4.738   6.524   4.540
 8705SOL    HW227015   4.723   6.475   4.385
 8706SOL     OW27016   4.770   0.865   5.707
 8706SOL    HW127017   4.768   0.825   5.615
 8706SOL    HW227018   4.862   0.900   5.726
 8707SOL     OW27019   4.125   1.672   5.710
 8707SOL    HW127020   4.081   1.600   5.764
 8707SOL    HW227021   4.222   1.651   5.700
 8708SOL     OW27022   3.881   1.584   0.814
 8708SOL    HW127023   3.924   1.540   0.736
 8708SOL    HW227024   3.853   1.515   0.881
 8709SOL     OW27025   5.328   3.593   0.526
 8709SOL    HW127026   5.343   3.518   0.590
 8709SOL    HW227027   5.349   3.680   0.570
 8710SOL     OW27028   6.342   3.306   4.031
 8710SOL    HW127029   6.323   3.368   3.955
 8710SOL    HW227030   6.289   3.334   4.111
 8711SOL     OW27031   1.147   1.133   4.526
 8711SOL    HW127032   1.062   1.166   4.483
 8711SOL    HW227033   1.163   1.038   4.498
 8712SOL     OW27034   3.636   0.216   6.794
 8712SOL    HW127035   3.665   0.121   6.803
 8712SOL    HW227036   3.559   0.234   6.855
 8713SOL     OW27037   6.145   4.768   2.827
 8713SOL    HW127038   6.237   4.731   2.818
 8713SOL    HW227039   6.123   4.779   2.924
 8714SOL     OW27040   1.619   1.798   3.999
 8714SOL    HW127041   1.674   1.854   4.061
 8714SOL    HW227042   1.530   1.843   3.985
 8715SOL     OW27043   5.757   0.952   2.507
 8715SOL    HW127044   5.855   0.933   2.507
 8715SOL    HW227045   5.737   1.022   2.438
 8716SOL     OW27046   0.343   1.248   2.124
 8716SOL    HW127047   0.283   1.288   2.193
 8716SOL    HW227048   0.403   1.180   2.166
 8717SOL     OW27049   4.141   3.597   0.800
 8717SOL    HW127050   4.114   3.504   0.773
 8717SOL    HW227051   4.240   3.607   0.787
 8718SOL     OW27052   0.040   2.718   5.728
 8718SOL    HW127053   0.071   2.653   5.658
 8718SOL    HW227054   0.006   2.801   5.683
 8719SOL     OW27055   5.879   0.531   5.744
 8719SOL    HW127056   5.858   0.582   5.661
 8719SOL    HW227057   5.978   0.518   5.751
 8720SOL     OW27058   5.023   3.222   5.309
 8720SOL    HW127059   5.049   3.309   5.350
 8720SOL    HW227060   5.100   3.160   5.310
 8721SOL     OW27061   6.766   0.791   5.093
 8721SOL    HW127062   6.710   0.711   5.074
 8721SOL    HW227063   6.771   0.806   5.192
 8722SOL     OW27064   3.135   3.142   0.780
 8722SOL    HW127065   3.037   3.127   0.790
 8722SOL    HW227066   3.159   3.146   0.683
 8723SOL     OW27067   0.264   5.687   0.672
 8723SOL    HW127068   0.356   5.725   0.659
 8723SOL    HW227069   0.264   5.591   0.644
 8724SOL     OW27070   4.891   5.763   6.659
 8724SOL    HW127071   4.936   5.685   6.616
 8724SOL    HW227072   4.951   5.802   6.729
 8725SOL     OW27073   2.458   6.399   1.015
 8725SOL    HW127074   2.468   6.305   1.047
 8725SOL    HW227075   2.368   6.411   0.975
 8726SOL     OW27076   0.282   0.392   0.999
 8726SOL    HW127077   0.342   0.425   1.071
 8726SOL    HW227078   0.252   0.299   1.020
 8727SOL     OW27079   5.616   6.716   1.226
 8727SOL    HW127080   5.569   6.766   1.299
 8727SOL    HW227081   5.555   6.707   1.147
 8728SOL     OW27082   2.656   5.959   5.375
 8728SOL    HW127083   2.719   6.004   5.312
 8728SOL    HW227084   2.646   5.863   5.349
 8729SOL     OW27085   4.672   5.679   4.712
 8729SOL    HW127086   4.616   5.740   4.657
 8729SOL    HW227087   4.717   5.612   4.653
 8730SOL     OW27088   6.211   6.003   1.105
 8730SOL    HW127089   6.186   5.909   1.083
 8730SOL    HW227090   6.300   6.025   1.065
 8731SOL     OW27091   0.622   1.566   2.264
 8731SOL    HW127092   0.541   1.564   2.322
 8731SOL    HW227093   0.599   1.607   2.175
 8732SOL     OW27094   6.799   6.034   1.735
 8732SOL    HW127095   6.876   5.970   1.731
 8732SOL    HW227096   6.720   5.988   1.777
 8733SOL     OW27097   6.899   0.242   0.838
 8733SOL    HW127098   6.939   0.313   0.896
 8733SOL    HW227099   6.802   0.232   0.859
 8734SOL     OW27100   6.500   6.252   0.830
 8734SOL    HW127101   6.463   6.327   0.773
 8734SOL    HW227102   6.501   6.281   0.926
 8735SOL     OW27103   0.489   3.191   6.489
 8735SOL    HW127104   0.546   3.204   6.407
 8735SOL    HW227105   0.393   3.195   6.464
 8736SOL     OW27106   0.212   4.906   5.868
 8736SOL    HW127107   0.226   4.989   5.813
 8736SOL    HW227108   0.116   4.898   5.892
 8737SOL     OW27109   3.894   5.805   6.701
 8737SOL    HW127110   3.845   5.739   6.758
 8737SOL    HW227111   3.989   5.777   6.690
 8738SOL     OW27112   0.832   4.089   5.614
 8738SOL    HW127113   0.902   4.159   5.631
 8738SOL    HW227114   0.774   4.081   5.696
 8739SOL     OW27115   1.246   3.755   5.785
 8739SOL    HW127116   1.154   3.742   5.750
 8739SOL    HW227117   1.290   3.832   5.737
 8740SOL     OW27118   1.734   6.433   0.508
 8740SOL    HW127119   1.669   6.417   0.434
 8740SOL    HW227120   1.684   6.446   0.594
 8741SOL     OW27121   1.430   3.689   1.974
 8741SOL    HW127122   1.470   3.601   1.999
 8741SOL    HW227123   1.503   3.757   1.963
 8742SOL     OW27124   4.608   5.732   2.152
 8742SOL    HW127125   4.533   5.756   2.090
 8742SOL    HW227126   4.694   5.766   2.114
 8743SOL     OW27127   2.544   4.857   2.272
 8743SOL    HW127128   2.571   4.952   2.285
 8743SOL    HW227129   2.470   4.834   2.335
 8744SOL     OW27130   3.041   3.445   5.554
 8744SOL    HW127131   3.078   3.376   5.492
 8744SOL    HW227132   3.066   3.536   5.521
 8745SOL     OW27133   5.445   1.725   6.786
 8745SOL    HW127134   5.506   1.736   6.865
 8745SOL    HW227135   5.435   1.812   6.739
 8746SOL     OW27136   5.160   3.396   4.583
 8746SOL    HW127137   5.200   3.313   4.544
 8746SOL    HW227138   5.228   3.441   4.642
 8747SOL     OW27139   0.263   1.815   3.818
 8747SOL    HW127140   0.214   1.736   3.855
 8747SOL    HW227141   0.255   1.891   3.882
 8748SOL     OW27142   2.931   7.007   6.825
 8748SOL    HW127143   3.020   6.985   6.783
 8748SOL    HW227144   2.879   6.922   6.837
 8749SOL     OW27145   3.829   1.448   3.610
 8749SOL    HW127146   3.924   1.479   3.619
 8749SOL    HW227147   3.826   1.349   3.627
 8750SOL     OW27148   1.927   0.621   5.018
 8750SOL    HW127149   1.974   0.684   5.080
 8750SOL    HW227150   1.995   0.570   4.966
 8751SOL     OW27151   1.704   6.351   3.033
 8751SOL    HW127152   1.790   6.401   3.044
 8751SOL    HW227153   1.628   6.410   3.061
 8752SOL     OW27154   2.212   0.497   5.910
 8752SOL    HW127155   2.258   0.481   5.998
 8752SOL    HW227156   2.160   0.583   5.914
 8753SOL     OW27157   5.437   1.154   5.227
 8753SOL    HW127158   5.532   1.177   5.204
 8753SOL    HW227159   5.387   1.238   5.247
 8754SOL     OW27160   1.824   1.031   5.613
 8754SOL    HW127161   1.746   1.008   5.671
 8754SOL    HW227162   1.904   0.979   5.643
 8755SOL     OW27163   2.224   2.230   0.340
 8755SOL    HW127164   2.253   2.276   0.257
 8755SOL    HW227165   2.229   2.131   0.327
 8756SOL     OW27166   2.279   5.190   4.568
 8756SOL    HW127167   2.226   5.217   4.489
 8756SOL    HW227168   2.322   5.101   4.551
 8757SOL     OW27169   3.288   5.361   3.903
 8757SOL    HW127170   3.362   5.303   3.869
 8757SOL    HW227171   3.315   5.457   3.897
 8758SOL     OW27172   4.927   6.204   2.544
 8758SOL    HW127173   4.833   6.212   2.511
 8758SOL    HW227174   4.939   6.263   2.624
 8759SOL     OW27175   5.453   0.602   6.327
 8759SOL    HW127176   5.431   0.684   6.274
 8759SOL    HW227177   5.525   0.551   6.280
 8760SOL     OW27178   1.766   2.963   3.550
 8760SOL    HW127179   1.811   2.992   3.634
 8760SOL    HW227180   1.828   2.976   3.472
 8761SOL     OW27181   5.220   6.141   1.710
 8761SOL    HW127182   5.220   6.146   1.810
 8761SOL    HW227183   5.308   6.175   1.675
 8762SOL     OW27184   1.088   5.093   1.161
 8762SOL    HW127185   1.154   5.067   1.231
 8762SOL    HW227186   1.044   5.179   1.187
 8763SOL     OW27187   0.554   6.424   6.676
 8763SOL    HW127188   0.578   6.518   6.702
 8763SOL    HW227189   0.456   6.419   6.659
 8764SOL     OW27190   3.319   2.018   6.055
 8764SOL    HW127191   3.331   2.036   6.153
 8764SOL    HW227192   3.224   1.996   6.036
 8765SOL     OW27193   6.195   0.081   4.775
 8765SOL    HW127194   6.237   0.148   4.713
 8765SOL    HW227195   6.233   0.092   4.867
 8766SOL     OW27196   2.172   4.501   2.183
 8766SOL    HW127197   2.255   4.554   2.198
 8766SOL    HW227198   2.092   4.554   2.212
 8767SOL     OW27199   4.786   0.052   5.360
 8767SOL    HW127200   4.875   0.038   5.403
 8767SOL    HW227201   4.758   0.147   5.371
 8768SOL     OW27202   0.593   4.177   0.302
 8768SOL    HW127203   0.579   4.247   0.232
 8768SOL    HW227204   0.642   4.099   0.262
 8769SOL     OW27205   1.783   0.639   6.223
 8769SOL    HW127206   1.716   0.705   6.190
 8769SOL    HW227207   1.738   0.551   6.240
 8770SOL     OW27208   5.744   1.553   3.022
 8770SOL    HW127209   5.771   1.459   3.043
 8770SOL    HW227210   5.706   1.596   3.104
 8771SOL     OW27211   2.978   3.024   5.403
 8771SOL    HW127212   3.037   3.087   5.453
 8771SOL    HW227213   2.887   3.064   5.395
 8772SOL     OW27214   6.649   6.777   6.716
 8772SOL    HW127215   6.551   6.758   6.728
 8772SOL    HW227216   6.660   6.851   6.649
 8773SOL     OW27217   2.953   1.875   2.886
 8773SOL    HW127218   3.003   1.955   2.918
 8773SOL    HW227219   3.018   1.803   2.860
 8774SOL     OW27220   1.311   1.318   6.754
 8774SOL    HW127221   1.271   1.260   6.825
 8774SOL    HW227222   1.379   1.378   6.795
 8775SOL     OW27223   6.570   5.970   4.186
 8775SOL    HW127224   6.537   5.877   4.200
 8775SOL    HW227225   6.502   6.035   4.221
 8776SOL     OW27226   3.102   3.846   5.325
 8776SOL    HW127227   3.136   3.789   5.251
 8776SOL    HW227228   3.157   3.830   5.407
 8777SOL     OW27229   5.853   5.841   2.917
 8777SOL    HW127230   5.839   5.939   2.904
 8777SOL    HW227231   5.783   5.805   2.979
 8778SOL     OW27232   1.424   3.126   2.988
 8778SOL    HW127233   1.430   3.168   2.898
 8778SOL    HW227234   1.433   3.026   2.980
 8779SOL     OW27235   1.867   4.666   1.104
 8779SOL    HW127236   1.954   4.714   1.114
 8779SOL    HW227237   1.839   4.627   1.191
 8780SOL     OW27238   2.208   5.814   5.209
 8780SOL    HW127239   2.243   5.813   5.115
 8780SOL    HW227240   2.125   5.759   5.214
 8781SOL     OW27241   1.136   2.556   2.743
 8781SOL    HW127242   1.132   2.613   2.824
 8781SOL    HW227243   1.105   2.608   2.663
 8782SOL     OW27244   5.444   1.353   3.606
 8782SOL    HW127245   5.395   1.400   3.680
 8782SOL    HW227246   5.542   1.364   3.619
 8783SOL     OW27247   6.371   2.730   5.627
 8783SOL    HW127248   6.413   2.773   5.706
 8783SOL    HW227249   6.434   2.664   5.587
 8784SOL     OW27250   5.905   4.065   5.809
 8784SOL    HW127251   5.928   4.066   5.711
 8784SOL    HW227252   5.989   4.069   5.863
 8785SOL     OW27253   5.264   4.098   6.069
 8785SOL    HW127254   5.244   4.177   6.012
 8785SOL    HW227255   5.319   4.032   6.017
 8786SOL     OW27256   1.561   6.278   6.963
 8786SOL    HW127257   1.494   6.342   7.002
 8786SOL    HW227258   1.642   6.328   6.935
 8787SOL     OW27259   1.272   2.755   6.890
 8787SOL    HW127260   1.230   2.782   6.803
 8787SOL    HW227261   1.303   2.660   6.883
 8788SOL     OW27262   1.296   2.159   5.343
 8788SOL    HW127263   1.239   2.115   5.274
 8788SOL    HW227264   1.391   2.158   5.315
 8789SOL     OW27265   6.803   1.216   0.556
 8789SOL    HW127266   6.886   1.169   0.528
 8789SOL    HW227267   6.818   1.259   0.645
 8790SOL     OW27268   4.017   1.157   6.192
 8790SOL    HW127269   3.928   1.141   6.149
 8790SOL    HW227270   4.013   1.242   6.244
 8791SOL     OW27271   5.316   6.023   5.327
 8791SOL    HW127272   5.369   6.107   5.338
 8791SOL    HW227273   5.375   5.945   5.346
 8792SOL     OW27274   5.158   6.897   2.550
 8792SOL    HW127275   5.204   6.956   2.617
 8792SOL    HW227276   5.096   6.953   2.494
 8793SOL     OW27277   1.047   4.349   3.244
 8793SOL    HW127278   1.044   4.296   3.329
 8793SOL    HW227279   1.037   4.446   3.266
 8794SOL     OW27280   2.868   6.072   2.776
 8794SOL    HW127281   2.787   6.015   2.788
 8794SOL    HW227282   2.889   6.080   2.679
 8795SOL     OW27283   3.138   6.450   4.719
 8795SOL    HW127284   3.106   6.544   4.711
 8795SOL    HW227285   3.164   6.432   4.814
 8796SOL     OW27286   5.016   2.205   4.632
 8796SOL    HW127287   5.027   2.280   4.697
 8796SOL    HW227288   5.003   2.243   4.540
 8797SOL     OW27289   0.470   5.822   6.611
 8797SOL    HW127290   0.497   5.810   6.515
 8797SOL    HW227291   0.388   5.768   6.629
 8798SOL     OW27292   3.260   3.373   5.257
 8798SOL    HW127293   3.352   3.413   5.257
 8798SOL    HW227294   3.227   3.365   5.162
 8799SOL     OW27295   3.608   0.760   2.136
 8799SOL    HW127296   3.578   0.671   2.172
 8799SOL    HW227297   3.635   0.819   2.212
 8800SOL     OW27298   3.649   3.815   0.691
 8800SOL    HW127299   3.638   3.827   0.593
 8800SOL    HW227300   3.738   3.775   0.710
 8801SOL     OW27301   3.187   6.499   5.545
 8801SOL    HW127302   3.187   6.599   5.553
 8801SOL    HW227303   3.241   6.472   5.465
 8802SOL     OW27304   1.895   6.289   1.446
 8802SOL    HW127305   1.859   6.242   1.366
 8802SOL    HW227306   1.965   6.355   1.418
 8803SOL     OW27307   3.732   5.973   1.989
 8803SOL    HW127308   3.729   5.935   1.897
 8803SOL    HW227309   3.806   6.038   1.997
 8804SOL     OW27310   2.567   0.900   1.464
 8804SOL    HW127311   2.531   0.913   1.556
 8804SOL    HW227312   2.586   0.804   1.449
 8805SOL     OW27313   0.692   7.019   3.834
 8805SOL    HW127314   0.665   0.075   3.891
 8805SOL    HW227315   0.757   0.028   3.764
 8806SOL     OW27316   2.013   4.922   6.772
 8806SOL    HW127317   2.025   4.868   6.855
 8806SOL    HW227318   1.973   5.010   6.795
 8807SOL     OW27319   2.447   5.226   6.422
 8807SOL    HW127320   2.539   5.231   6.461
 8807SOL    HW227321   2.387   5.176   6.484
 8808SOL     OW27322   6.004   2.569   0.576
 8808SOL    HW127323   5.943   2.646   0.593
 8808SOL    HW227324   5.950   2.486   0.565
 8809SOL     OW27325   6.508   4.825   0.200
 8809SOL    HW127326   6.527   4.733   0.233
 8809SOL    HW227327   6.523   4.828   0.101
 8810SOL     OW27328   5.038   1.481   3.659
 8810SOL    HW127329   4.953   1.492   3.711
 8810SOL    HW227330   5.016   1.455   3.565
 8811SOL     OW27331   1.089   0.691   3.533
 8811SOL    HW127332   0.990   0.703   3.528
 8811SOL    HW227333   1.133   0.753   3.468
 8812SOL     OW27334   2.825   1.333   0.110
 8812SOL    HW127335   2.812   1.390   0.191
 8812SOL    HW227336   2.857   1.243   0.138
 8813SOL     OW27337   1.151   5.738   1.328
 8813SOL    HW127338   1.103   5.702   1.408
 8813SOL    HW227339   1.244   5.766   1.354
 8814SOL     OW27340   5.782   6.898   5.557
 8814SOL    HW127341   5.850   6.923   5.487
 8814SOL    HW227342   5.696   6.874   5.513
 8815SOL     OW27343   6.060   5.126   2.935
 8815SOL    HW127344   6.091   5.135   2.840
 8815SOL    HW227345   5.970   5.167   2.945
 8816SOL     OW27346   0.702   5.471   2.506
 8816SOL    HW127347   0.792   5.488   2.545
 8816SOL    HW227348   0.635   5.535   2.545
 8817SOL     OW27349   2.132   3.927   5.232
 8817SOL    HW127350   2.215   3.945   5.179
 8817SOL    HW227351   2.143   3.841   5.283
 8818SOL     OW27352   6.727   4.766   5.512
 8818SOL    HW127353   6.664   4.801   5.442
 8818SOL    HW227354   6.747   4.838   5.578
 8819SOL     OW27355   6.824   0.702   4.699
 8819SOL    HW127356   6.781   0.697   4.609
 8819SOL    HW227357   6.784   0.633   4.759
 8820SOL     OW27358   1.035   2.505   3.289
 8820SOL    HW127359   1.038   2.460   3.199
 8820SOL    HW227360   0.941   2.511   3.320
 8821SOL     OW27361   1.110   6.671   6.950
 8821SOL    HW127362   1.082   6.575   6.956
 8821SOL    HW227363   1.047   6.727   7.003
 8822SOL     OW27364   1.279   2.614   3.898
 8822SOL    HW127365   1.244   2.707   3.885
 8822SOL    HW227366   1.348   2.615   3.970
 8823SOL     OW27367   2.367   5.046   0.928
 8823SOL    HW127368   2.464   5.067   0.911
 8823SOL    HW227369   2.359   4.993   1.012
 8824SOL     OW27370   4.897   4.110   1.303
 8824SOL    HW127371   4.859   4.034   1.251
 8824SOL    HW227372   4.828   4.145   1.367
 8825SOL     OW27373   2.655   2.169   0.065
 8825SOL    HW127374   2.590   2.107   0.021
 8825SOL    HW227375   2.612   2.259   0.077
 8826SOL     OW27376   5.457   0.093   1.694
 8826SOL    HW127377   5.469   0.042   1.609
 8826SOL    HW227378   5.440   0.189   1.673
 8827SOL     OW27379   6.270   1.622   3.754
 8827SOL    HW127380   6.284   1.668   3.666
 8827SOL    HW227381   6.196   1.668   3.804
 8828SOL     OW27382   1.731   5.918   3.637
 8828SOL    HW127383   1.802   5.848   3.623
 8828SOL    HW227384   1.773   6.009   3.635
 8829SOL     OW27385   1.104   0.480   1.329
 8829SOL    HW127386   1.136   0.567   1.293
 8829SOL    HW227387   1.181   0.417   1.338
 8830SOL     OW27388   1.283   1.268   0.718
 8830SOL    HW127389   1.372   1.233   0.746
 8830SOL    HW227390   1.253   1.222   0.635
 8831SOL     OW27391   6.412   0.747   1.919
 8831SOL    HW127392   6.497   0.776   1.962
 8831SOL    HW227393   6.334   0.775   1.975
 8832SOL     OW27394   6.081   1.408   2.201
 8832SOL    HW127395   5.986   1.378   2.190
 8832SOL    HW227396   6.090   1.459   2.287
 8833SOL     OW27397   0.959   5.335   2.172
 8833SOL    HW127398   0.934   5.393   2.249
 8833SOL    HW227399   0.897   5.256   2.169
 8834SOL     OW27400   6.309   4.338   3.846
 8834SOL    HW127401   6.239   4.288   3.795
 8834SOL    HW227402   6.271   4.370   3.932
 8835SOL     OW27403   0.442   1.330   0.548
 8835SOL    HW127404   0.428   1.410   0.606
 8835SOL    HW227405   0.505   1.353   0.474
 8836SOL     OW27406   4.690   1.499   1.801
 8836SOL    HW127407   4.722   1.593   1.786
 8836SOL    HW227408   4.763   1.446   1.843
 8837SOL     OW27409   0.169   2.585   2.329
 8837SOL    HW127410   0.201   2.587   2.424
 8837SOL    HW227411   0.069   2.590   2.327
 8838SOL     OW27412   1.312   0.037   3.610
 8838SOL    HW127413   1.309   0.130   3.646
 8838SOL    HW227414   1.221   0.011   3.577
 8839SOL     OW27415   5.465   5.367   4.658
 8839SOL    HW127416   5.511   5.373   4.570
 8839SOL    HW227417   5.508   5.296   4.714
 8840SOL     OW27418   4.240   0.941   1.658
 8840SOL    HW127419   4.190   1.006   1.715
 8840SOL    HW227420   4.305   0.890   1.715
 8841SOL     OW27421   3.543   6.849   3.584
 8841SOL    HW127422   3.538   6.751   3.600
 8841SOL    HW227423   3.632   6.883   3.614
 8842SOL     OW27424   1.344   2.087   1.941
 8842SOL    HW127425   1.320   2.001   1.898
 8842SOL    HW227426   1.275   2.110   2.010
 8843SOL     OW27427   6.789   2.854   4.283
 8843SOL    HW127428   6.839   2.781   4.236
 8843SOL    HW227429   6.782   2.833   4.380
 8844SOL     OW27430   6.007   1.771   0.235
 8844SOL    HW127431   5.916   1.732   0.252
 8844SOL    HW227432   5.999   1.845   0.168
 8845SOL     OW27433   4.991   2.594   0.148
 8845SOL    HW127434   4.907   2.587   0.202
 8845SOL    HW227435   4.968   2.614   0.052
 8846SOL     OW27436   3.092   4.905   4.220
 8846SOL    HW127437   3.159   4.877   4.289
 8846SOL    HW227438   3.044   4.987   4.252
 8847SOL     OW27439   1.047   1.326   3.417
 8847SOL    HW127440   1.127   1.364   3.371
 8847SOL    HW227441   0.973   1.394   3.417
 8848SOL     OW27442   0.422   1.390   3.772
 8848SOL    HW127443   0.339   1.369   3.823
 8848SOL    HW227444   0.414   1.354   3.679
 8849SOL     OW27445   3.038   7.013   1.186
 8849SOL    HW127446   3.047   0.018   1.282
 8849SOL    HW227447   3.128   7.014   1.143
 8850SOL     OW27448   3.236   1.988   0.163
 8850SOL    HW127449   3.317   1.967   0.218
 8850SOL    HW227450   3.238   2.084   0.136
 8851SOL     OW27451   1.902   3.690   1.830
 8851SOL    HW127452   1.915   3.604   1.880
 8851SOL    HW227453   1.983   3.747   1.840
 8852SOL     OW27454   0.969   2.581   4.502
 8852SOL    HW127455   0.952   2.508   4.568
 8852SOL    HW227456   0.964   2.669   4.548
 8853SOL     OW27457   4.493   0.613   1.444
 8853SOL    HW127458   4.559   0.561   1.498
 8853SOL    HW227459   4.540   0.684   1.393
 8854SOL     OW27460   6.737   2.441   5.105
 8854SOL    HW127461   6.798   2.458   5.182
 8854SOL    HW227462   6.730   2.343   5.089
 8855SOL     OW27463   4.876   4.679   1.268
 8855SOL    HW127464   4.902   4.589   1.303
 8855SOL    HW227465   4.914   4.691   1.176
 8856SOL     OW27466   5.695   0.534   5.490
 8856SOL    HW127467   5.746   0.612   5.454
 8856SOL    HW227468   5.633   0.566   5.563
 8857SOL     OW27469   6.622   2.275   6.510
 8857SOL    HW127470   6.686   2.313   6.444
 8857SOL    HW227471   6.672   2.221   6.578
 8858SOL     OW27472   6.548   5.479   4.779
 8858SOL    HW127473   6.628   5.503   4.834
 8858SOL    HW227474   6.565   5.395   4.729
 8859SOL     OW27475   0.449   5.412   3.005
 8859SOL    HW127476   0.541   5.400   2.967
 8859SOL    HW227477   0.453   5.404   3.105
 8860SOL     OW27478   6.415   2.772   2.496
 8860SOL    HW127479   6.462   2.821   2.570
 8860SOL    HW227480   6.480   2.710   2.451
 8861SOL     OW27481   2.751   2.622   1.499
 8861SOL    HW127482   2.842   2.586   1.517
 8861SOL    HW227483   2.709   2.653   1.584
 8862SOL     OW27484   4.462   4.596   4.804
 8862SOL    HW127485   4.478   4.691   4.777
 8862SOL    HW227486   4.414   4.595   4.892
 8863SOL     OW27487   1.516   3.255   1.807
 8863SOL    HW127488   1.433   3.264   1.751
 8863SOL    HW227489   1.594   3.291   1.756
 8864SOL     OW27490   6.331   1.913   4.858
 8864SOL    HW127491   6.338   1.901   4.957
 8864SOL    HW227492   6.235   1.905   4.830
 8865SOL     OW27493   2.871   1.366   0.820
 8865SOL    HW127494   2.845   1.340   0.913
 8865SOL    HW227495   2.953   1.316   0.794
 8866SOL     OW27496   6.177   0.109   1.708
 8866SOL    HW127497   6.116   0.050   1.655
 8866SOL    HW227498   6.125   0.187   1.745
 8867SOL     OW27499   5.970   2.557   3.210
 8867SOL    HW127500   5.962   2.603   3.298
 8867SOL    HW227501   5.879   2.544   3.171
 8868SOL     OW27502   0.364   3.106   3.336
 8868SOL    HW127503   0.444   3.165   3.323
 8868SOL    HW227504   0.317   3.095   3.249
 8869SOL     OW27505   4.399   6.898   3.779
 8869SOL    HW127506   4.318   6.854   3.819
 8869SOL    HW227507   4.479   6.877   3.834
 8870SOL     OW27508   0.852   0.901   1.949
 8870SOL    HW127509   0.812   0.830   1.892
 8870SOL    HW227510   0.940   0.929   1.912
 8871SOL     OW27511   0.419   6.520   1.131
 8871SOL    HW127512   0.382   6.578   1.203
 8871SOL    HW227513   0.483   6.454   1.170
 8872SOL     OW27514   6.730   4.829   3.648
 8872SOL    HW127515   6.771   4.900   3.705
 8872SOL    HW227516   6.654   4.787   3.696
 8873SOL     OW27517   1.769   1.755   3.640
 8873SOL    HW127518   1.718   1.841   3.653
 8873SOL    HW227519   1.773   1.734   3.542
 8874SOL     OW27520   2.736   5.856   0.452
 8874SOL    HW127521   2.832   5.884   0.454
 8874SOL    HW227522   2.710   5.818   0.541
 8875SOL     OW27523   6.324   2.785   4.112
 8875SOL    HW127524   6.311   2.687   4.129
 8875SOL    HW227525   6.247   2.819   4.057
 8876SOL     OW27526   4.676   0.499   0.909
 8876SOL    HW127527   4.705   0.462   0.820
 8876SOL    HW227528   4.594   0.554   0.897
 8877SOL     OW27529   0.944   4.480   1.385
 8877SOL    HW127530   1.017   4.436   1.435
 8877SOL    HW227531   0.858   4.472   1.436
 8878SOL     OW27532   5.031   3.764   2.132
 8878SOL    HW127533   5.019   3.821   2.051
 8878SOL    HW227534   4.974   3.682   2.125
 8879SOL     OW27535   0.063   4.344   4.094
 8879SOL    HW127536   0.034   4.250   4.075
 8879SOL    HW227537   0.150   4.362   4.048
 8880SOL     OW27538   4.185   1.976   2.805
 8880SOL    HW127539   4.162   1.937   2.716
 8880SOL    HW227540   4.111   2.037   2.835
 8881SOL     OW27541   3.842   5.199   3.093
 8881SOL    HW127542   3.749   5.177   3.121
 8881SOL    HW227543   3.907   5.152   3.152
 8882SOL     OW27544   3.788   1.344   0.303
 8882SOL    HW127545   3.787   1.443   0.317
 8882SOL    HW227546   3.737   1.321   0.220
 8883SOL     OW27547   0.668   6.453   2.943
 8883SOL    HW127548   0.747   6.424   2.998
 8883SOL    HW227549   0.661   6.394   2.862
 8884SOL     OW27550   4.413   2.377   6.161
 8884SOL    HW127551   4.321   2.412   6.143
 8884SOL    HW227552   4.408   2.301   6.226
 8885SOL     OW27553   6.127   4.728   0.901
 8885SOL    HW127554   6.218   4.704   0.936
 8885SOL    HW227555   6.129   4.727   0.801
 8886SOL     OW27556   4.641   6.538   0.542
 8886SOL    HW127557   4.689   6.581   0.466
 8886SOL    HW227558   4.658   6.590   0.626
 8887SOL     OW27559   4.231   0.618   1.962
 8887SOL    HW127560   4.274   0.528   1.964
 8887SOL    HW227561   4.208   0.642   1.868
 8888SOL     OW27562   3.932   2.131   2.079
 8888SOL    HW127563   3.888   2.045   2.056
 8888SOL    HW227564   3.871   2.207   2.055
 8889SOL     OW27565   1.572   4.777   6.470
 8889SOL    HW127566   1.530   4.863   6.443
 8889SOL    HW227567   1.628   4.742   6.395
 8890SOL     OW27568   1.656   6.036   0.028
 8890SOL    HW127569   1.628   6.126   7.018
 8890SOL    HW227570   1.581   5.993   0.078
 8891SOL     OW27571   5.913   3.362   5.483
 8891SOL    HW127572   5.857   3.379   5.563
 8891SOL    HW227573   5.961   3.275   5.494
 8892SOL     OW27574   2.500   5.340   5.106
 8892SOL    HW127575   2.511   5.255   5.156
 8892SOL    HW227576   2.407   5.347   5.071
 8893SOL     OW27577   0.690   4.746   5.277
 8893SOL    HW127578   0.726   4.656   5.305
 8893SOL    HW227579   0.701   4.811   5.352
 8894SOL     OW27580   5.479   2.283   1.756
 8894SOL    HW127581   5.454   2.222   1.681
 8894SOL    HW227582   5.575   2.308   1.748
 8895SOL     OW27583   0.084   3.553   1.966
 8895SOL    HW127584   0.113   3.613   1.892
 8895SOL    HW227585   7.007   3.541   1.961
 8896SOL     OW27586   0.834   1.083   3.712
 8896SOL    HW127587   0.875   1.102   3.623
 8896SOL    HW227588   0.773   1.005   3.705
 8897SOL     OW27589   1.515   5.451   4.508
 8897SOL    HW127590   1.517   5.550   4.503
 8897SOL    HW227591   1.590   5.418   4.565
 8898SOL     OW27592   5.834   5.044   2.733
 8898SOL    HW127593   5.769   5.011   2.664
 8898SOL    HW227594   5.810   5.137   2.760
 8899SOL     OW27595   2.351   4.628   1.403
 8899SOL    HW127596   2.313   4.560   1.341
 8899SOL    HW227597   2.284   4.651   1.473
 8900SOL     OW27598   3.979   1.830   4.709
 8900SOL    HW127599   3.954   1.926   4.722
 8900SOL    HW227600   3.960   1.780   4.794
 8901SOL     OW27601   0.959   4.829   5.325
 8901SOL    HW127602   0.979   4.731   5.328
 8901SOL    HW227603   0.926   4.854   5.234
 8902SOL     OW27604   0.652   4.934   6.562
 8902SOL    HW127605   0.714   4.870   6.609
 8902SOL    HW227606   0.598   4.885   6.495
 8903SOL     OW27607   0.682   0.583   4.346
 8903SOL    HW127608   0.589   0.555   4.321
 8903SOL    HW227609   0.733   0.504   4.379
 8904SOL     OW27610   6.973   1.105   2.869
 8904SOL    HW127611   0.004   1.178   2.912
 8904SOL    HW227612   6.879   1.108   2.902
 8905SOL     OW27613   1.793   4.963   1.553
 8905SOL    HW127614   1.771   5.018   1.472
 8905SOL    HW227615   1.841   4.880   1.526
 8906SOL     OW27616   6.148   0.667   6.727
 8906SOL    HW127617   6.193   0.719   6.799
 8906SOL    HW227618   6.059   0.635   6.760
 8907SOL     OW27619   2.709   3.114   5.373
 8907SOL    HW127620   2.629   3.094   5.317
 8907SOL    HW227621   2.682   3.114   5.470
 8908SOL     OW27622   1.693   5.615   5.843
 8908SOL    HW127623   1.688   5.700   5.790
 8908SOL    HW227624   1.779   5.568   5.823
 8909SOL     OW27625   2.300   6.283   1.907
 8909SOL    HW127626   2.395   6.255   1.918
 8909SOL    HW227627   2.293   6.347   1.831
 8910SOL     OW27628   1.034   1.001   3.910
 8910SOL    HW127629   0.969   1.016   3.836
 8910SOL    HW227630   1.126   1.021   3.879
 8911SOL     OW27631   5.120   2.972   4.274
 8911SOL    HW127632   5.110   2.902   4.345
 8911SOL    HW227633   5.084   2.938   4.188
 8912SOL     OW27634   3.659   2.840   3.655
 8912SOL    HW127635   3.694   2.822   3.563
 8912SOL    HW227636   3.565   2.805   3.662
 8913SOL     OW27637   5.270   5.566   1.301
 8913SOL    HW127638   5.200   5.635   1.282
 8913SOL    HW227639   5.330   5.599   1.374
 8914SOL     OW27640   4.951   5.100   5.297
 8914SOL    HW127641   4.952   5.003   5.273
 8914SOL    HW227642   5.038   5.142   5.272
 8915SOL     OW27643   2.586   0.919   3.582
 8915SOL    HW127644   2.532   0.850   3.535
 8915SOL    HW227645   2.538   0.948   3.665
 8916SOL     OW27646   5.939   0.377   2.290
 8916SOL    HW127647   5.950   0.475   2.302
 8916SOL    HW227648   5.901   0.359   2.199
 8917SOL     OW27649   6.057   2.247   0.472
 8917SOL    HW127650   5.967   2.280   0.499
 8917SOL    HW227651   6.122   2.262   0.546
 8918SOL     OW27652   1.645   3.030   2.803
 8918SOL    HW127653   1.697   3.067   2.726
 8918SOL    HW227654   1.633   2.932   2.791
 8919SOL     OW27655   6.333   2.595   2.931
 8919SOL    HW127656   6.343   2.517   2.993
 8919SOL    HW227657   6.296   2.673   2.982
 8920SOL     OW27658   0.847   2.129   0.574
 8920SOL    HW127659   0.844   2.043   0.625
 8920SOL    HW227660   0.758   2.147   0.532
 8921SOL     OW27661   0.956   2.574   1.167
 8921SOL    HW127662   0.909   2.489   1.189
 8921SOL    HW227663   0.917   2.614   1.084
 8922SOL     OW27664   2.819   5.063   3.251
 8922SOL    HW127665   2.868   5.033   3.169
 8922SOL    HW227666   2.804   4.984   3.311
 8923SOL     OW27667   2.589   1.501   3.576
 8923SOL    HW127668   2.525   1.518   3.651
 8923SOL    HW227669   2.543   1.516   3.489
 8924SOL     OW27670   6.294   4.968   4.924
 8924SOL    HW127671   6.338   5.057   4.910
 8924SOL    HW227672   6.246   4.941   4.840
 8925SOL     OW27673   0.543   6.481   3.745
 8925SOL    HW127674   0.519   6.576   3.761
 8925SOL    HW227675   0.486   6.421   3.801
 8926SOL     OW27676   5.894   2.189   6.703
 8926SOL    HW127677   5.974   2.214   6.758
 8926SOL    HW227678   5.917   2.193   6.606
 8927SOL     OW27679   1.394   1.852   6.547
 8927SOL    HW127680   1.373   1.897   6.460
 8927SOL    HW227681   1.476   1.797   6.537
 8928SOL     OW27682   1.094   6.701   5.220
 8928SOL    HW127683   1.115   6.644   5.140
 8928SOL    HW227684   1.164   6.687   5.290
 8929SOL     OW27685   6.515   1.303   3.624
 8929SOL    HW127686   6.471   1.314   3.713
 8929SOL    HW227687   6.560   1.388   3.597
 8930SOL     OW27688   2.124   5.387   2.571
 8930SOL    HW127689   2.131   5.301   2.621
 8930SOL    HW227690   2.033   5.426   2.585
 8931SOL     OW27691   4.273   2.942   0.114
 8931SOL    HW127692   4.344   2.996   0.159
 8931SOL    HW227693   4.190   2.997   0.106
 8932SOL     OW27694   0.430   3.662   2.485
 8932SOL    HW127695   0.486   3.742   2.463
 8932SOL    HW227696   0.473   3.612   2.560
 8933SOL     OW27697   4.958   2.238   6.049
 8933SOL    HW127698   5.025   2.250   6.122
 8933SOL    HW227699   4.886   2.176   6.079
 8934SOL     OW27700   2.517   6.215   2.722
 8934SOL    HW127701   2.538   6.313   2.732
 8934SOL    HW227702   2.419   6.201   2.733
 8935SOL     OW27703   0.222   5.676   6.641
 8935SOL    HW127704   0.144   5.622   6.671
 8935SOL    HW227705   0.238   5.659   6.543
 8936SOL     OW27706   4.584   3.140   0.859
 8936SOL    HW127707   4.554   3.158   0.953
 8936SOL    HW227708   4.529   3.067   0.820
 8937SOL     OW27709   0.056   1.248   6.424
 8937SOL    HW127710   0.141   1.264   6.474
 8937SOL    HW227711   0.072   1.185   6.348
 8938SOL     OW27712   4.556   5.755   1.748
 8938SOL    HW127713   4.599   5.845   1.741
 8938SOL    HW227714   4.627   5.684   1.744
 8939SOL     OW27715   5.576   2.062   4.318
 8939SOL    HW127716   5.619   2.128   4.256
 8939SOL    HW227717   5.533   1.989   4.265
 8940SOL     OW27718   5.544   7.018   2.564
 8940SOL    HW127719   5.462   7.002   2.620
 8940SOL    HW227720   5.588   0.080   2.595
 8941SOL     OW27721   3.869   2.221   0.417
 8941SOL    HW127722   3.917   2.212   0.330
 8941SOL    HW227723   3.896   2.147   0.478
 8942SOL     OW27724   1.348   2.025   5.962
 8942SOL    HW127725   1.371   2.101   5.901
 8942SOL    HW227726   1.321   1.946   5.907
 8943SOL     OW27727   5.340   3.849   0.719
 8943SOL    HW127728   5.243   3.834   0.739
 8943SOL    HW227729   5.352   3.937   0.673
 8944SOL     OW27730   4.441   5.369   1.264
 8944SOL    HW127731   4.496   5.307   1.207
 8944SOL    HW227732   4.446   5.339   1.359
 8945SOL     OW27733   2.498   1.062   3.799
 8945SOL    HW127734   2.435   1.134   3.771
 8945SOL    HW227735   2.486   1.043   3.897
 8946SOL     OW27736   3.831   1.011   4.910
 8946SOL    HW127737   3.814   1.083   4.978
 8946SOL    HW227738   3.913   0.959   4.936
 8947SOL     OW27739   3.546   3.769   5.392
 8947SOL    HW127740   3.610   3.693   5.386
 8947SOL    HW227741   3.590   3.853   5.360
 8948SOL     OW27742   5.495   4.910   3.609
 8948SOL    HW127743   5.519   4.919   3.705
 8948SOL    HW227744   5.416   4.968   3.589
 8949SOL     OW27745   1.671   5.711   6.103
 8949SOL    HW127746   1.676   5.672   6.011
 8949SOL    HW227747   1.625   5.647   6.164
 8950SOL     OW27748   4.725   2.691   4.514
 8950SOL    HW127749   4.697   2.710   4.608
 8950SOL    HW227750   4.804   2.746   4.491
 8951SOL     OW27751   2.950   1.983   5.424
 8951SOL    HW127752   2.927   2.025   5.336
 8951SOL    HW227753   3.034   1.930   5.414
 8952SOL     OW27754   6.181   6.719   3.288
 8952SOL    HW127755   6.145   6.805   3.324
 8952SOL    HW227756   6.138   6.700   3.199
 8953SOL     OW27757   1.293   5.122   5.525
 8953SOL    HW127758   1.344   5.067   5.591
 8953SOL    HW227759   1.336   5.116   5.435
 8954SOL     OW27760   2.510   6.433   6.187
 8954SOL    HW127761   2.552   6.343   6.172
 8954SOL    HW227762   2.577   6.495   6.228
 8955SOL     OW27763   6.992   4.098   4.326
 8955SOL    HW127764   0.009   4.107   4.235
 8955SOL    HW227765   0.041   4.112   4.395
 8956SOL     OW27766   0.688   0.687   4.608
 8956SOL    HW127767   0.706   0.597   4.647
 8956SOL    HW227768   0.630   0.678   4.527
 8957SOL     OW27769   3.391   6.195   1.919
 8957SOL    HW127770   3.362   6.101   1.936
 8957SOL    HW227771   3.394   6.245   2.005
 8958SOL     OW27772   3.214   0.550   4.754
 8958SOL    HW127773   3.180   0.484   4.822
 8958SOL    HW227774   3.141   0.612   4.727
 8959SOL     OW27775   3.743   5.116   0.000
 8959SOL    HW127776   3.781   5.177   0.069
 8959SOL    HW227777   3.678   5.167   6.966
 8960SOL     OW27778   4.334   5.721   0.474
 8960SOL    HW127779   4.293   5.805   0.439
 8960SOL    HW227780   4.411   5.744   0.533
 8961SOL     OW27781   0.814   2.895   4.461
 8961SOL    HW127782   0.899   2.938   4.491
 8961SOL    HW227783   0.782   2.938   4.377
 8962SOL     OW27784   4.910   0.274   3.969
 8962SOL    HW127785   4.945   0.245   3.880
 8962SOL    HW227786   4.824   0.227   3.989
 8963SOL     OW27787   0.719   0.994   4.258
 8963SOL    HW127788   0.737   0.955   4.348
 8963SOL    HW227789   0.775   1.076   4.245
 8964SOL     OW27790   0.778   3.103   3.320
 8964SOL    HW127791   0.744   3.013   3.348
 8964SOL    HW227792   0.827   3.095   3.234
 8965SOL     OW27793   1.856   5.100   1.313
 8965SOL    HW127794   1.938   5.123   1.261
 8965SOL    HW227795   1.798   5.181   1.323
 8966SOL     OW27796   3.941   2.120   4.753
 8966SOL    HW127797   3.981   2.113   4.845
 8966SOL    HW227798   3.994   2.185   4.699
 8967SOL     OW27799   5.270   6.568   0.513
 8967SOL    HW127800   5.218   6.488   0.540
 8967SOL    HW227801   5.322   6.548   0.431
 8968SOL     OW27802   5.686   3.946   3.729
 8968SOL    HW127803   5.638   4.009   3.790
 8968SOL    HW227804   5.661   3.967   3.634
 8969SOL     OW27805   6.537   6.918   3.904
 8969SOL    HW127806   6.608   6.860   3.945
 8969SOL    HW227807   6.519   6.886   3.810
 8970SOL     OW27808   3.036   2.737   1.285
 8970SOL    HW127809   2.985   2.782   1.212
 8970SOL    HW227810   3.056   2.803   1.357
 8971SOL     OW27811   3.616   6.570   2.860
 8971SOL    HW127812   3.524   6.543   2.888
 8971SOL    HW227813   3.681   6.548   2.933
 8972SOL     OW27814   5.133   0.235   4.762
 8972SOL    HW127815   5.129   0.135   4.773
 8972SOL    HW227816   5.200   0.272   4.826
 8973SOL     OW27817   1.889   4.778   6.578
 8973SOL    HW127818   1.948   4.842   6.626
 8973SOL    HW227819   1.820   4.829   6.526
 8974SOL     OW27820   0.234   2.522   4.173
 8974SOL    HW127821   0.283   2.585   4.233
 8974SOL    HW227822   0.296   2.450   4.141
 8975SOL     OW27823   3.529   0.842   6.023
 8975SOL    HW127824   3.606   0.809   6.078
 8975SOL    HW227825   3.552   0.836   5.926
 8976SOL     OW27826   1.395   5.835   3.875
 8976SOL    HW127827   1.433   5.773   3.944
 8976SOL    HW227828   1.419   5.801   3.784
 8977SOL     OW27829   5.191   1.691   0.003
 8977SOL    HW127830   5.248   1.612   7.000
 8977SOL    HW227831   5.157   1.678   0.096
 8978SOL     OW27832   5.852   5.100   1.271
 8978SOL    HW127833   5.761   5.095   1.229
 8978SOL    HW227834   5.853   5.045   1.354
 8979SOL     OW27835   0.887   4.841   4.827
 8979SOL    HW127836   0.790   4.817   4.822
 8979SOL    HW227837   0.932   4.816   4.741
 8980SOL     OW27838   3.003   3.287   3.977
 8980SOL    HW127839   2.920   3.255   3.932
 8980SOL    HW227840   3.052   3.209   4.016
 8981SOL     OW27841   2.998   1.847   5.111
 8981SOL    HW127842   3.022   1.777   5.043
 8981SOL    HW227843   3.072   1.914   5.116
 8982SOL     OW27844   3.701   4.998   0.446
 8982SOL    HW127845   3.661   4.908   0.462
 8982SOL    HW227846   3.645   5.068   0.491
 8983SOL     OW27847   4.794   4.780   0.947
 8983SOL    HW127848   4.793   4.748   0.852
 8983SOL    HW227849   4.718   4.740   0.996
 8984SOL     OW27850   1.530   6.806   3.375
 8984SOL    HW127851   1.437   6.836   3.357
 8984SOL    HW227852   1.586   6.885   3.400
 8985SOL     OW27853   3.339   2.925   6.219
 8985SOL    HW127854   3.306   2.988   6.149
 8985SOL    HW227855   3.315   2.961   6.309
 8986SOL     OW27856   2.541   5.966   1.872
 8986SOL    HW127857   2.566   5.904   1.947
 8986SOL    HW227858   2.561   5.921   1.785
 8987SOL     OW27859   5.024   6.848   2.230
 8987SOL    HW127860   4.997   6.916   2.299
 8987SOL    HW227861   4.964   6.768   2.236
 8988SOL     OW27862   0.745   4.541   4.819
 8988SOL    HW127863   0.740   4.509   4.914
 8988SOL    HW227864   0.701   4.631   4.812
 8989SOL     OW27865   2.492   1.987   6.681
 8989SOL    HW127866   2.464   1.938   6.598
 8989SOL    HW227867   2.485   2.086   6.665
 8990SOL     OW27868   0.359   4.804   4.363
 8990SOL    HW127869   0.380   4.707   4.364
 8990SOL    HW227870   0.417   4.850   4.296
 8991SOL     OW27871   1.573   2.398   5.352
 8991SOL    HW127872   1.615   2.464   5.414
 8991SOL    HW227873   1.640   2.368   5.284
 8992SOL     OW27874   6.131   2.162   1.661
 8992SOL    HW127875   6.192   2.087   1.637
 8992SOL    HW227876   6.185   2.244   1.681
 8993SOL     OW27877   4.327   2.005   1.074
 8993SOL    HW127878   4.378   2.072   1.022
 8993SOL    HW227879   4.376   1.984   1.159
 8994SOL     OW27880   1.546   5.551   2.497
 8994SOL    HW127881   1.615   5.494   2.453
 8994SOL    HW227882   1.536   5.523   2.593
 8995SOL     OW27883   0.840   0.444   1.783
 8995SOL    HW127884   0.772   0.381   1.819
 8995SOL    HW227885   0.889   0.401   1.707
 8996SOL     OW27886   4.270   5.985   5.532
 8996SOL    HW127887   4.247   5.902   5.582
 8996SOL    HW227888   4.223   5.984   5.443
 8997SOL     OW27889   6.308   0.154   5.022
 8997SOL    HW127890   6.316   0.109   5.111
 8997SOL    HW227891   6.363   0.238   5.022
 8998SOL     OW27892   0.049   4.484   4.965
 8998SOL    HW127893   0.047   4.539   5.049
 8998SOL    HW227894   6.999   4.416   4.968
 8999SOL     OW27895   4.092   5.783   6.423
 8999SOL    HW127896   4.097   5.695   6.377
 8999SOL    HW227897   4.004   5.826   6.404
 9000SOL     OW27898   0.823   4.258   1.003
 9000SOL    HW127899   0.851   4.171   0.964
 9000SOL    HW227900   0.762   4.242   1.081
 9001SOL     OW27901   1.615   5.699   0.734
 9001SOL    HW127902   1.582   5.636   0.664
 9001SOL    HW227903   1.708   5.673   0.761
 9002SOL     OW27904   6.776   5.714   6.500
 9002SOL    HW127905   6.845   5.675   6.562
 9002SOL    HW227906   6.768   5.812   6.517
 9003SOL     OW27907   4.940   6.943   0.621
 9003SOL    HW127908   5.000   6.883   0.568
 9003SOL    HW227909   4.854   6.896   0.640
 9004SOL     OW27910   5.973   5.177   1.740
 9004SOL    HW127911   6.034   5.155   1.816
 9004SOL    HW227912   5.985   5.111   1.666
 9005SOL     OW27913   5.001   0.806   4.591
 9005SOL    HW127914   5.074   0.874   4.584
 9005SOL    HW227915   5.040   0.714   4.583
 9006SOL     OW27916   3.799   6.301   0.384
 9006SOL    HW127917   3.851   6.362   0.324
 9006SOL    HW227918   3.701   6.320   0.373
 9007SOL     OW27919   0.369   0.977   3.260
 9007SOL    HW127920   0.329   0.894   3.222
 9007SOL    HW227921   0.304   1.020   3.322
 9008SOL     OW27922   0.025   5.346   2.480
 9008SOL    HW127923   7.001   5.261   2.506
 9008SOL    HW227924   0.109   5.324   2.431
 9009SOL     OW27925   2.751   6.557   2.042
 9009SOL    HW127926   2.775   6.461   2.057
 9009SOL    HW227927   2.673   6.581   2.100
 9010SOL     OW27928   1.468   5.914   4.248
 9010SOL    HW127929   1.459   5.990   4.312
 9010SOL    HW227930   1.380   5.867   4.238
 9011SOL     OW27931   1.928   1.884   2.043
 9011SOL    HW127932   1.942   1.971   2.091
 9011SOL    HW227933   1.898   1.815   2.109
 9012SOL     OW27934   2.540   6.246   6.937
 9012SOL    HW127935   2.444   6.273   6.933
 9012SOL    HW227936   2.563   6.219   0.008
 9013SOL     OW27937   1.995   0.522   4.640
 9013SOL    HW127938   1.900   0.531   4.670
 9013SOL    HW227939   2.017   0.596   4.577
 9014SOL     OW27940   5.174   3.210   3.538
 9014SOL    HW127941   5.178   3.245   3.444
 9014SOL    HW227942   5.131   3.278   3.597
 9015SOL     OW27943   4.241   6.671   6.117
 9015SOL    HW127944   4.222   6.744   6.051
 9015SOL    HW227945   4.272   6.590   6.068
 9016SOL     OW27946   5.243   4.657   5.780
 9016SOL    HW127947   5.263   4.626   5.873
 9016SOL    HW227948   5.148   4.638   5.758
 9017SOL     OW27949   2.690   0.260   5.376
 9017SOL    HW127950   2.673   0.182   5.315
 9017SOL    HW227951   2.656   0.344   5.333
 9018SOL     OW27952   4.193   4.916   0.520
 9018SOL    HW127953   4.182   4.822   0.489
 9018SOL    HW227954   4.122   4.937   0.587
 9019SOL     OW27955   0.551   3.402   4.292
 9019SOL    HW127956   0.647   3.378   4.278
 9019SOL    HW227957   0.510   3.338   4.358
 9020SOL     OW27958   5.797   4.835   3.393
 9020SOL    HW127959   5.887   4.870   3.366
 9020SOL    HW227960   5.798   4.735   3.386
 9021SOL     OW27961   6.784   1.370   4.233
 9021SOL    HW127962   6.728   1.392   4.314
 9021SOL    HW227963   6.854   1.440   4.221
 9022SOL     OW27964   4.503   3.315   7.000
 9022SOL    HW127965   4.421   3.283   6.952
 9022SOL    HW227966   4.498   3.414   7.014
 9023SOL     OW27967   6.964   4.752   0.737
 9023SOL    HW127968   6.998   4.723   0.827
 9023SOL    HW227969   6.875   4.711   0.720
 9024SOL     OW27970   2.223   4.759   5.979
 9024SOL    HW127971   2.146   4.816   5.951
 9024SOL    HW227972   2.262   4.796   6.064
 9025SOL     OW27973   0.891   6.280   0.968
 9025SOL    HW127974   0.808   6.304   0.918
 9025SOL    HW227975   0.889   6.183   0.992
 9026SOL     OW27976   5.942   0.975   0.226
 9026SOL    HW127977   6.028   0.927   0.246
 9026SOL    HW227978   5.958   1.073   0.227
 9027SOL     OW27979   6.989   3.642   3.036
 9027SOL    HW127980   6.906   3.656   2.982
 9027SOL    HW227981   0.046   3.665   2.981
 9028SOL     OW27982   3.246   4.816   6.814
 9028SOL    HW127983   3.270   4.719   6.813
 9028SOL    HW227984   3.216   4.845   6.723
 9029SOL     OW27985   4.335   6.358   4.744
 9029SOL    HW127986   4.275   6.436   4.729
 9029SOL    HW227987   4.403   6.381   4.813
 9030SOL     OW27988   2.918   2.235   2.345
 9030SOL    HW127989   3.007   2.193   2.357
 9030SOL    HW227990   2.908   2.265   2.249
 9031SOL     OW27991   5.185   7.000   4.939
 9031SOL    HW127992   5.136   0.027   5.011
 9031SOL    HW227993   5.284   7.010   4.953
 9032SOL     OW27994   5.348   2.729   1.281
 9032SOL    HW127995   5.315   2.775   1.199
 9032SOL    HW227996   5.423   2.667   1.256
 9033SOL     OW27997   1.208   6.392   2.555
 9033SOL    HW127998   1.296   6.424   2.590
 9033SOL    HW227999   1.208   6.395   2.455
 9034SOL     OW28000   4.636   6.648   5.002
 9034SOL    HW128001   4.709   6.656   4.934
 9034SOL    HW228002   4.572   6.724   4.991
 9035SOL     OW28003   3.151   5.222   6.173
 9035SOL    HW128004   3.144   5.303   6.231
 9035SOL    HW228005   3.172   5.250   6.079
 9036SOL     OW28006   0.838   5.293   5.377
 9036SOL    HW128007   0.861   5.355   5.302
 9036SOL    HW228008   0.916   5.231   5.394
 9037SOL     OW28009   0.247   0.526   2.158
 9037SOL    HW128010   0.328   0.476   2.128
 9037SOL    HW228011   0.165   0.472   2.141
 9038SOL     OW28012   3.895   3.255   5.750
 9038SOL    HW128013   3.796   3.253   5.765
 9038SOL    HW228014   3.940   3.295   5.830
 9039SOL     OW28015   4.188   6.148   6.887
 9039SOL    HW128016   4.124   6.193   6.824
 9039SOL    HW228017   4.238   6.077   6.837
 9040SOL     OW28018   2.117   2.366   1.642
 9040SOL    HW128019   2.094   2.337   1.735
 9040SOL    HW228020   2.213   2.392   1.638
 9041SOL     OW28021   6.023   2.154   2.775
 9041SOL    HW128022   6.102   2.214   2.761
 9041SOL    HW228023   5.980   2.176   2.863
 9042SOL     OW28024   5.457   5.731   6.548
 9042SOL    HW128025   5.529   5.769   6.606
 9042SOL    HW228026   5.378   5.793   6.549
 9043SOL     OW28027   2.944   2.947   1.708
 9043SOL    HW128028   2.856   2.918   1.670
 9043SOL    HW228029   3.007   2.967   1.633
 9044SOL     OW28030   1.621   0.558   0.163
 9044SOL    HW128031   1.706   0.524   0.202
 9044SOL    HW228032   1.604   0.512   0.075
 9045SOL     OW28033   3.765   0.535   3.612
 9045SOL    HW128034   3.683   0.495   3.572
 9045SOL    HW228035   3.764   0.520   3.711
 9046SOL     OW28036   3.758   3.786   2.125
 9046SOL    HW128037   3.745   3.820   2.219
 9046SOL    HW228038   3.691   3.715   2.105
 9047SOL     OW28039   0.559   4.520   5.537
 9047SOL    HW128040   0.526   4.441   5.589
 9047SOL    HW228041   0.591   4.490   5.447
 9048SOL     OW28042   6.901   1.974   5.145
 9048SOL    HW128043   6.962   1.948   5.220
 9048SOL    HW228044   6.827   1.908   5.138
 9049SOL     OW28045   1.304   6.728   5.447
 9049SOL    HW128046   1.328   6.757   5.539
 9049SOL    HW228047   1.377   6.671   5.409
 9050SOL     OW28048   1.234   4.634   0.199
 9050SOL    HW128049   1.212   4.689   0.280
 9050SOL    HW228050   1.236   4.537   0.225
 9051SOL     OW28051   2.039   0.912   1.640
 9051SOL    HW128052   2.076   0.999   1.608
 9051SOL    HW228053   2.039   0.910   1.740
 9052SOL     OW28054   2.154   3.291   6.311
 9052SOL    HW128055   2.183   3.359   6.243
 9052SOL    HW228056   2.103   3.336   6.384
 9053SOL     OW28057   0.341   1.307   6.984
 9053SOL    HW128058   0.390   1.376   6.931
 9053SOL    HW228059   0.354   1.325   0.059
 9054SOL     OW28060   1.510   5.574   3.055
 9054SOL    HW128061   1.460   5.606   3.135
 9054SOL    HW228062   1.546   5.482   3.072
 9055SOL     OW28063   0.907   2.670   6.020
 9055SOL    HW128064   0.973   2.632   6.085
 9055SOL    HW228065   0.827   2.610   6.015
 9056SOL     OW28066   5.671   1.670   4.246
 9056SOL    HW128067   5.629   1.614   4.174
 9056SOL    HW228068   5.754   1.712   4.211
 9057SOL     OW28069   4.989   1.372   3.430
 9057SOL    HW128070   4.910   1.312   3.441
 9057SOL    HW228071   4.980   1.425   3.346
 9058SOL     OW28072   2.342   0.221   6.005
 9058SOL    HW128073   2.327   0.245   6.100
 9058SOL    HW228074   2.257   0.189   5.964
 9059SOL     OW28075   1.144   2.147   3.974
 9059SOL    HW128076   1.175   2.239   3.952
 9059SOL    HW228077   1.105   2.104   3.892
 9060SOL     OW28078   5.318   2.591   5.130
 9060SOL    HW128079   5.416   2.613   5.132
 9060SOL    HW228080   5.265   2.672   5.156
 9061SOL     OW28081   2.112   4.759   3.718
 9061SOL    HW128082   2.019   4.727   3.700
 9061SOL    HW228083   2.116   4.858   3.709
 9062SOL     OW28084   1.574   5.972   1.686
 9062SOL    HW128085   1.474   5.976   1.681
 9062SOL    HW228086   1.602   5.939   1.776
 9063SOL     OW28087   3.108   1.667   2.339
 9063SOL    HW128088   3.156   1.692   2.423
 9063SOL    HW228089   3.166   1.606   2.285
 9064SOL     OW28090   4.654   3.908   6.627
 9064SOL    HW128091   4.662   3.981   6.696
 9064SOL    HW228092   4.646   3.820   6.673
 9065SOL     OW28093   2.540   0.943   1.197
 9065SOL    HW128094   2.619   0.904   1.149
 9065SOL    HW228095   2.545   0.919   1.294
 9066SOL     OW28096   4.987   6.879   6.991
 9066SOL    HW128097   5.055   6.951   7.006
 9066SOL    HW228098   5.017   6.821   6.915
 9067SOL     OW28099   1.015   0.371   1.579
 9067SOL    HW128100   1.095   0.369   1.639
 9067SOL    HW228101   1.036   0.424   1.497
 9068SOL     OW28102   1.201   6.064   6.231
 9068SOL    HW128103   1.298   6.072   6.253
 9068SOL    HW228104   1.191   6.033   6.136
 9069SOL     OW28105   1.210   2.174   6.140
 9069SOL    HW128106   1.268   2.136   6.068
 9069SOL    HW228107   1.117   2.138   6.130
 9070SOL     OW28108   1.569   4.506   4.147
 9070SOL    HW128109   1.485   4.534   4.101
 9070SOL    HW228110   1.641   4.573   4.130
 9071SOL     OW28111   5.020   5.115   6.961
 9071SOL    HW128112   4.980   5.187   6.905
 9071SOL    HW228113   4.988   5.125   0.033
 9072SOL     OW28114   5.025   4.467   0.868
 9072SOL    HW128115   4.979   4.384   0.899
 9072SOL    HW228116   5.012   4.478   0.769
 9073SOL     OW28117   2.007   0.294   1.281
 9073SOL    HW128118   2.048   0.317   1.369
 9073SOL    HW228119   2.039   0.204   1.252
 9074SOL     OW28120   0.452   0.654   1.589
 9074SOL    HW128121   0.500   0.742   1.586
 9074SOL    HW228122   0.506   0.584   1.543
 9075SOL     OW28123   6.974   0.359   1.254
 9075SOL    HW128124   0.043   0.363   1.294
 9075SOL    HW228125   6.942   0.265   1.252
 9076SOL     OW28126   1.375   2.342   5.518
 9076SOL    HW128127   1.318   2.290   5.454
 9076SOL    HW228128   1.464   2.362   5.476
 9077SOL     OW28129   5.970   6.173   2.492
 9077SOL    HW128130   5.914   6.183   2.409
 9077SOL    HW228131   5.973   6.076   2.518
 9078SOL     OW28132   4.761   3.233   5.464
 9078SOL    HW128133   4.837   3.219   5.401
 9078SOL    HW228134   4.775   3.178   5.546
 9079SOL     OW28135   2.394   6.680   5.330
 9079SOL    HW128136   2.345   6.763   5.304
 9079SOL    HW228137   2.438   6.694   5.419
 9080SOL     OW28138   4.606   1.254   0.285
 9080SOL    HW128139   4.613   1.270   0.383
 9080SOL    HW228140   4.530   1.308   0.248
 9081SOL     OW28141   5.628   6.924   3.312
 9081SOL    HW128142   5.574   6.839   3.314
 9081SOL    HW228143   5.665   6.941   3.403
 9082SOL     OW28144   2.338   0.737   1.976
 9082SOL    HW128145   2.291   0.651   1.957
 9082SOL    HW228146   2.437   0.723   1.975
 9083SOL     OW28147   4.476   5.000   3.711
 9083SOL    HW128148   4.384   4.983   3.747
 9083SOL    HW228149   4.471   5.066   3.635
 9084SOL     OW28150   3.498   3.649   2.216
 9084SOL    HW128151   3.417   3.609   2.173
 9084SOL    HW228152   3.482   3.661   2.314
 9085SOL     OW28153   1.136   2.139   0.695
 9085SOL    HW128154   1.216   2.149   0.636
 9085SOL    HW228155   1.053   2.163   0.644
 9086SOL     OW28156   6.693   3.634   0.066
 9086SOL    HW128157   6.690   3.543   0.107
 9086SOL    HW228158   6.611   3.685   0.094
 9087SOL     OW28159   5.219   3.452   2.026
 9087SOL    HW128160   5.129   3.408   2.020
 9087SOL    HW228161   5.251   3.449   2.120
 9088SOL     OW28162   5.859   4.605   2.104
 9088SOL    HW128163   5.884   4.617   2.200
 9088SOL    HW228164   5.868   4.508   2.080
 9089SOL     OW28165   4.030   0.956   5.761
 9089SOL    HW128166   4.070   0.982   5.849
 9089SOL    HW228167   3.953   0.894   5.777
 9090SOL     OW28168   6.644   1.901   3.672
 9090SOL    HW128169   6.691   1.915   3.760
 9090SOL    HW228170   6.702   1.847   3.612
 9091SOL     OW28171   4.199   2.828   5.548
 9091SOL    HW128172   4.132   2.766   5.590
 9091SOL    HW228173   4.217   2.904   5.611
 9092SOL     OW28174   6.647   3.719   6.233
 9092SOL    HW128175   6.666   3.771   6.149
 9092SOL    HW228176   6.671   3.774   6.313
 9093SOL     OW28177   2.688   6.243   5.053
 9093SOL    HW128178   2.625   6.295   5.112
 9093SOL    HW228179   2.635   6.190   4.987
 9094SOL     OW28180   1.888   3.688   0.593
 9094SOL    HW128181   1.931   3.774   0.622
 9094SOL    HW228182   1.896   3.678   0.494
 9095SOL     OW28183   0.544   0.157   6.051
 9095SOL    HW128184   0.616   0.206   6.100
 9095SOL    HW228185   0.499   0.220   5.987
 9096SOL     OW28186   6.650   5.440   3.925
 9096SOL    HW128187   6.623   5.533   3.900
 9096SOL    HW228188   6.749   5.430   3.918
 9097SOL     OW28189   0.890   3.975   6.984
 9097SOL    HW128190   0.914   3.886   7.023
 9097SOL    HW228191   0.971   4.016   6.941
 9098SOL     OW28192   1.996   5.228   4.101
 9098SOL    HW128193   2.010   5.312   4.154
 9098SOL    HW228194   1.897   5.212   4.090
 9099SOL     OW28195   2.397   1.642   6.176
 9099SOL    HW128196   2.362   1.601   6.261
 9099SOL    HW228197   2.352   1.599   6.098
 9100SOL     OW28198   1.949   4.794   4.543
 9100SOL    HW128199   1.873   4.743   4.582
 9100SOL    HW228200   1.925   4.891   4.539
 9101SOL     OW28201   6.619   1.874   1.169
 9101SOL    HW128202   6.696   1.886   1.107
 9101SOL    HW228203   6.545   1.826   1.121
 9102SOL     OW28204   3.720   0.693   3.254
 9102SOL    HW128205   3.654   0.750   3.304
 9102SOL    HW228206   3.672   0.620   3.207
 9103SOL     OW28207   6.428   0.332   1.125
 9103SOL    HW128208   6.395   0.297   1.213
 9103SOL    HW228209   6.369   0.301   1.052
 9104SOL     OW28210   5.677   2.395   5.804
 9104SOL    HW128211   5.630   2.337   5.738
 9104SOL    HW228212   5.763   2.428   5.765
 9105SOL     OW28213   2.891   0.778   6.993
 9105SOL    HW128214   2.985   0.796   0.001
 9105SOL    HW228215   2.834   0.757   0.050
 9106SOL     OW28216   2.533   3.031   6.327
 9106SOL    HW128217   2.479   3.003   6.247
 9106SOL    HW228218   2.630   3.019   6.308
 9107SOL     OW28219   3.623   0.554   1.152
 9107SOL    HW128220   3.675   0.610   1.088
 9107SOL    HW228221   3.665   0.464   1.160
 9108SOL     OW28222   6.260   6.565   5.634
 9108SOL    HW128223   6.322   6.541   5.709
 9108SOL    HW228224   6.309   6.560   5.547
 9109SOL     OW28225   5.459   4.545   3.368
 9109SOL    HW128226   5.403   4.627   3.363
 9109SOL    HW228227   5.524   4.544   3.293
 9110SOL     OW28228   1.441   6.672   2.404
 9110SOL    HW128229   1.488   6.668   2.316
 9110SOL    HW228230   1.384   6.753   2.408
 9111SOL     OW28231   4.483   2.799   5.432
 9111SOL    HW128232   4.524   2.883   5.396
 9111SOL    HW228233   4.388   2.818   5.459
 9112SOL     OW28234   0.561   4.602   1.704
 9112SOL    HW128235   0.472   4.644   1.719
 9112SOL    HW228236   0.562   4.509   1.742
 9113SOL     OW28237   5.690   6.911   4.270
 9113SOL    HW128238   5.692   6.844   4.196
 9113SOL    HW228239   5.620   6.979   4.252
 9114SOL     OW28240   0.389   1.569   6.213
 9114SOL    HW128241   0.332   1.594   6.292
 9114SOL    HW228242   0.397   1.470   6.207
 9115SOL     OW28243   5.506   3.897   4.406
 9115SOL    HW128244   5.408   3.895   4.425
 9115SOL    HW228245   5.545   3.807   4.422
 9116SOL     OW28246   0.582   5.208   3.619
 9116SOL    HW128247   0.557   5.245   3.708
 9116SOL    HW228248   0.503   5.165   3.577
 9117SOL     OW28249   1.905   6.871   0.098
 9117SOL    HW128250   1.870   6.833   0.184
 9117SOL    HW228251   1.988   6.925   0.117
 9118SOL     OW28252   6.740   5.161   1.272
 9118SOL    HW128253   6.760   5.246   1.224
 9118SOL    HW228254   6.752   5.175   1.370
 9119SOL     OW28255   3.355   1.308   0.948
 9119SOL    HW128256   3.438   1.359   0.973
 9119SOL    HW228257   3.315   1.268   1.030
 9120SOL     OW28258   6.389   4.342   5.199
 9120SOL    HW128259   6.354   4.373   5.111
 9120SOL    HW228260   6.476   4.387   5.219
 9121SOL     OW28261   4.347   1.017   4.652
 9121SOL    HW128262   4.322   1.109   4.622
 9121SOL    HW228263   4.264   0.962   4.664
 9122SOL     OW28264   0.041   1.533   1.924
 9122SOL    HW128265   0.026   1.599   1.851
 9122SOL    HW228266   6.977   1.517   1.973
 9123SOL     OW28267   0.728   6.358   4.673
 9123SOL    HW128268   0.793   6.400   4.737
 9123SOL    HW228269   0.711   6.264   4.700
 9124SOL     OW28270   3.281   5.597   0.264
 9124SOL    HW128271   3.214   5.657   0.221
 9124SOL    HW228272   3.236   5.512   0.293
 9125SOL     OW28273   4.936   6.393   1.932
 9125SOL    HW128274   5.035   6.394   1.948
 9125SOL    HW228275   4.892   6.332   1.998
 9126SOL     OW28276   3.771   5.296   0.278
 9126SOL    HW128277   3.777   5.219   0.342
 9126SOL    HW228278   3.683   5.342   0.289
 9127SOL     OW28279   6.355   4.556   5.570
 9127SOL    HW128280   6.383   4.546   5.666
 9127SOL    HW228281   6.377   4.472   5.520
 9128SOL     OW28282   5.342   3.454   6.806
 9128SOL    HW128283   5.271   3.390   6.776
 9128SOL    HW228284   5.359   3.521   6.734
 9129SOL     OW28285   0.604   2.997   1.443
 9129SOL    HW128286   0.507   3.000   1.469
 9129SOL    HW228287   0.660   3.024   1.521
 9130SOL     OW28288   2.837   3.331   6.100
 9130SOL    HW128289   2.853   3.423   6.136
 9130SOL    HW228290   2.866   3.326   6.004
 9131SOL     OW28291   6.432   3.265   0.889
 9131SOL    HW128292   6.485   3.204   0.947
 9131SOL    HW228293   6.335   3.256   0.910
 9132SOL     OW28294   0.974   3.840   3.729
 9132SOL    HW128295   1.009   3.763   3.676
 9132SOL    HW228296   1.012   3.925   3.693
 9133SOL     OW28297   4.873   0.166   0.537
 9133SOL    HW128298   4.934   0.167   0.457
 9133SOL    HW228299   4.909   0.100   0.604
 9134SOL     OW28300   4.912   4.180   6.982
 9134SOL    HW128301   4.894   4.251   6.914
 9134SOL    HW228302   4.883   4.091   6.946
 9135SOL     OW28303   6.809   5.561   2.668
 9135SOL    HW128304   6.904   5.591   2.673
 9135SOL    HW228305   6.751   5.624   2.720
 9136SOL     OW28306   0.526   5.430   6.732
 9136SOL    HW128307   0.573   5.372   6.799
 9136SOL    HW228308   0.569   5.520   6.730
 9137SOL     OW28309   5.493   5.430   5.956
 9137SOL    HW128310   5.394   5.426   5.941
 9137SOL    HW228311   5.540   5.448   5.870
 9138SOL     OW28312   1.566   4.263   6.349
 9138SOL    HW128313   1.491   4.223   6.401
 9138SOL    HW228314   1.648   4.208   6.359
 9139SOL     OW28315   0.370   6.758   0.992
 9139SOL    HW128316   0.386   6.666   1.028
 9139SOL    HW228317   0.293   6.757   0.929
 9140SOL     OW28318   0.579   4.063   3.132
 9140SOL    HW128319   0.489   4.058   3.087
 9140SOL    HW228320   0.566   4.062   3.231
 9141SOL     OW28321   0.469   6.156   4.209
 9141SOL    HW128322   0.408   6.234   4.193
 9141SOL    HW228323   0.475   6.137   4.307
 9142SOL     OW28324   1.334   5.264   3.415
 9142SOL    HW128325   1.366   5.292   3.325
 9142SOL    HW228326   1.279   5.338   3.455
 9143SOL     OW28327   5.409   3.509   2.443
 9143SOL    HW128328   5.372   3.598   2.417
 9143SOL    HW228329   5.412   3.450   2.362
 9144SOL     OW28330   2.453   4.554   4.951
 9144SOL    HW128331   2.542   4.573   4.993
 9144SOL    HW228332   2.414   4.639   4.916
 9145SOL     OW28333   2.925   6.162   6.267
 9145SOL    HW128334   2.996   6.217   6.312
 9145SOL    HW228335   2.967   6.104   6.197
 9146SOL     OW28336   5.476   1.668   4.600
 9146SOL    HW128337   5.509   1.762   4.595
 9146SOL    HW228338   5.383   1.664   4.563
 9147SOL     OW28339   4.482   0.028   6.102
 9147SOL    HW128340   4.474   0.101   6.033
 9147SOL    HW228341   4.500   0.069   6.191
 9148SOL     OW28342   3.819   5.447   2.243
 9148SOL    HW128343   3.745   5.389   2.210
 9148SOL    HW228344   3.826   5.528   2.184
 9149SOL     OW28345   1.309   4.120   1.660
 9149SOL    HW128346   1.248   4.049   1.695
 9149SOL    HW228347   1.397   4.114   1.705
 9150SOL     OW28348   3.964   3.442   6.719
 9150SOL    HW128349   3.881   3.494   6.702
 9150SOL    HW228350   3.942   3.359   6.770
 9151SOL     OW28351   2.103   3.611   3.956
 9151SOL    HW128352   2.014   3.653   3.975
 9151SOL    HW228353   2.175   3.678   3.971
 9152SOL     OW28354   1.941   5.155   1.678
 9152SOL    HW128355   1.994   5.202   1.607
 9152SOL    HW228356   1.879   5.090   1.635
 9153SOL     OW28357   0.721   3.988   0.171
 9153SOL    HW128358   0.766   3.918   0.227
 9153SOL    HW228359   0.775   4.005   0.089
 9154SOL     OW28360   4.385   5.312   2.629
 9154SOL    HW128361   4.303   5.258   2.608
 9154SOL    HW228362   4.367   5.408   2.609
 9155SOL     OW28363   0.732   6.286   2.734
 9155SOL    HW128364   0.831   6.291   2.731
 9155SOL    HW228365   0.699   6.230   2.658
 9156SOL     OW28366   6.741   4.420   5.702
 9156SOL    HW128367   6.690   4.452   5.782
 9156SOL    HW228368   6.828   4.470   5.696
 9157SOL     OW28369   1.850   4.564   4.857
 9157SOL    HW128370   1.819   4.548   4.950
 9157SOL    HW228371   1.907   4.487   4.827
 9158SOL     OW28372   6.931   2.612   3.874
 9158SOL    HW128373   7.006   2.664   3.915
 9158SOL    HW228374   6.932   2.624   3.775
 9159SOL     OW28375   2.393   0.738   3.461
 9159SOL    HW128376   2.326   0.664   3.473
 9159SOL    HW228377   2.461   0.712   3.393
 9160SOL     OW28378   0.778   3.409   6.674
 9160SOL    HW128379   0.747   3.327   6.723
 9160SOL    HW228380   0.848   3.383   6.608
 9161SOL     OW28381   5.709   3.313   2.606
 9161SOL    HW128382   5.701   3.265   2.519
 9161SOL    HW228383   5.667   3.404   2.598
 9162SOL     OW28384   5.138   1.768   2.098
 9162SOL    HW128385   5.044   1.759   2.066
 9162SOL    HW228386   5.189   1.826   2.035
 9163SOL     OW28387   2.037   3.463   2.919
 9163SOL    HW128388   2.086   3.544   2.886
 9163SOL    HW228389   2.040   3.460   3.019
 9164SOL     OW28390   3.423   0.390   0.801
 9164SOL    HW128391   3.454   0.328   0.873
 9164SOL    HW228392   3.491   0.464   0.790
 9165SOL     OW28393   6.380   0.439   6.369
 9165SOL    HW128394   6.471   0.408   6.398
 9165SOL    HW228395   6.320   0.446   6.449
 9166SOL     OW28396   4.134   5.676   1.503
 9166SOL    HW128397   4.081   5.754   1.534
 9166SOL    HW228398   4.163   5.691   1.408
 9167SOL     OW28399   0.986   2.428   4.984
 9167SOL    HW128400   0.964   2.520   5.015
 9167SOL    HW228401   1.084   2.412   4.995
 9168SOL     OW28402   5.831   5.888   4.466
 9168SOL    HW128403   5.735   5.863   4.451
 9168SOL    HW228404   5.835   5.977   4.512
 9169SOL     OW28405   5.793   5.817   0.294
 9169SOL    HW128406   5.876   5.826   0.239
 9169SOL    HW228407   5.718   5.867   0.250
 9170SOL     OW28408   1.417   0.084   5.562
 9170SOL    HW128409   1.454   0.097   5.470
 9170SOL    HW228410   1.486   0.113   5.629
 9171SOL     OW28411   4.760   5.798   0.090
 9171SOL    HW128412   4.706   5.764   0.166
 9171SOL    HW228413   4.743   5.742   0.009
 9172SOL     OW28414   5.425   0.549   6.003
 9172SOL    HW128415   5.374   0.464   6.018
 9172SOL    HW228416   5.384   0.622   6.058
 9173SOL     OW28417   5.748   4.188   6.215
 9173SOL    HW128418   5.739   4.281   6.180
 9173SOL    HW228419   5.772   4.192   6.312
 9174SOL     OW28420   6.038   4.861   0.006
 9174SOL    HW128421   6.049   4.905   6.940
 9174SOL    HW228422   6.118   4.879   0.063
 9175SOL     OW28423   2.015   0.913   1.232
 9175SOL    HW128424   2.038   0.929   1.136
 9175SOL    HW228425   2.090   0.946   1.289
 9176SOL     OW28426   1.249   0.081   2.288
 9176SOL    HW128427   1.261   7.022   2.232
 9176SOL    HW228428   1.287   0.161   2.240
 9177SOL     OW28429   0.659   5.959   3.473
 9177SOL    HW128430   0.684   5.958   3.569
 9177SOL    HW228431   0.578   5.902   3.459
 9178SOL     OW28432   0.954   3.693   1.118
 9178SOL    HW128433   0.915   3.611   1.078
 9178SOL    HW228434   1.002   3.745   1.047
 9179SOL     OW28435   3.644   5.776   2.836
 9179SOL    HW128436   3.676   5.796   2.743
 9179SOL    HW228437   3.556   5.821   2.850
 9180SOL     OW28438   0.100   1.172   5.194
 9180SOL    HW128439   0.036   1.120   5.138
 9180SOL    HW228440   0.194   1.152   5.164
 9181SOL     OW28441   3.215   2.118   3.239
 9181SOL    HW128442   3.296   2.096   3.184
 9181SOL    HW228443   3.234   2.098   3.335
 9182SOL     OW28444   6.786   1.240   3.291
 9182SOL    HW128445   6.745   1.215   3.379
 9182SOL    HW228446   6.727   1.307   3.245
 9183SOL     OW28447   3.294   1.636   5.623
 9183SOL    HW128448   3.332   1.672   5.708
 9183SOL    HW228449   3.198   1.663   5.615
 9184SOL     OW28450   2.920   5.618   0.759
 9184SOL    HW128451   2.860   5.539   0.771
 9184SOL    HW228452   2.959   5.617   0.667
 9185SOL     OW28453   0.220   1.312   5.565
 9185SOL    HW128454   0.167   1.396   5.576
 9185SOL    HW228455   0.316   1.330   5.583
 9186SOL     OW28456   5.512   6.527   5.979
 9186SOL    HW128457   5.446   6.483   6.039
 9186SOL    HW228458   5.474   6.613   5.943
 9187SOL     OW28459   5.177   3.613   1.196
 9187SOL    HW128460   5.161   3.527   1.243
 9187SOL    HW228461   5.168   3.599   1.097
 9188SOL     OW28462   1.105   1.209   2.774
 9188SOL    HW128463   1.014   1.249   2.761
 9188SOL    HW228464   1.122   1.140   2.704
 9189SOL     OW28465   3.139   0.718   6.819
 9189SOL    HW128466   3.060   0.669   6.853
 9189SOL    HW228467   3.117   0.816   6.811
 9190SOL     OW28468   3.807   0.800   5.829
 9190SOL    HW128469   3.781   0.786   5.733
 9190SOL    HW228470   3.830   0.711   5.870
 9191SOL     OW28471   5.002   0.063   1.832
 9191SOL    HW128472   5.075   0.131   1.845
 9191SOL    HW228473   5.019   0.014   1.746
 9192SOL     OW28474   4.353   4.654   4.189
 9192SOL    HW128475   4.415   4.718   4.144
 9192SOL    HW228476   4.393   4.623   4.275
 9193SOL     OW28477   4.070   3.481   2.430
 9193SOL    HW128478   4.071   3.570   2.476
 9193SOL    HW228479   3.985   3.470   2.379
 9194SOL     OW28480   2.867   5.369   3.635
 9194SOL    HW128481   2.910   5.279   3.644
 9194SOL    HW228482   2.857   5.392   3.539
 9195SOL     OW28483   0.165   3.228   3.711
 9195SOL    HW128484   0.190   3.253   3.805
 9195SOL    HW228485   0.134   3.133   3.709
 9196SOL     OW28486   5.285   5.322   3.645
 9196SOL    HW128487   5.236   5.389   3.702
 9196SOL    HW228488   5.220   5.280   3.581
 9197SOL     OW28489   4.209   1.914   6.930
 9197SOL    HW128490   4.142   1.900   6.857
 9197SOL    HW228491   4.292   1.863   6.910
 9198SOL     OW28492   6.319   2.808   4.732
 9198SOL    HW128493   6.276   2.892   4.764
 9198SOL    HW228494   6.376   2.770   4.805
 9199SOL     OW28495   1.026   3.740   0.026
 9199SOL    HW128496   1.062   3.693   0.107
 9199SOL    HW228497   1.072   3.704   6.967
 9200SOL     OW28498   4.398   5.859   1.982
 9200SOL    HW128499   4.414   5.827   1.889
 9200SOL    HW228500   4.392   5.958   1.983
 9201SOL     OW28501   6.946   2.976   2.477
 9201SOL    HW128502   7.012   3.052   2.486
 9201SOL    HW228503   6.960   2.911   2.551
 9202SOL     OW28504   1.770   5.731   3.073
 9202SOL    HW128505   1.785   5.822   3.036
 9202SOL    HW228506   1.677   5.725   3.109
 9203SOL     OW28507   5.198   2.142   0.821
 9203SOL    HW128508   5.169   2.086   0.899
 9203SOL    HW228509   5.202   2.238   0.849
 9204SOL     OW28510   4.502   4.595   1.638
 9204SOL    HW128511   4.574   4.637   1.582
 9204SOL    HW228512   4.513   4.624   1.733
 9205SOL     OW28513   4.026   2.348   1.079
 9205SOL    HW128514   4.019   2.375   1.175
 9205SOL    HW228515   4.107   2.390   1.038
 9206SOL     OW28516   0.082   0.123   5.048
 9206SOL    HW128517   0.144   0.077   5.111
 9206SOL    HW228518   0.135   0.170   4.977
 9207SOL     OW28519   5.845   6.458   0.286
 9207SOL    HW128520   5.902   6.400   0.229
 9207SOL    HW228521   5.874   6.450   0.382
 9208SOL     OW28522   6.001   4.559   1.746
 9208SOL    HW128523   6.037   4.472   1.781
 9208SOL    HW228524   5.993   4.555   1.647
 9209SOL     OW28525   5.266   0.524   4.414
 9209SOL    HW128526   5.303   0.441   4.455
 9209SOL    HW228527   5.285   0.602   4.474
 9210SOL     OW28528   1.477   6.760   0.339
 9210SOL    HW128529   1.382   6.741   0.316
 9210SOL    HW228530   1.490   6.752   0.438
 9211SOL     OW28531   5.507   1.336   6.163
 9211SOL    HW128532   5.423   1.353   6.111
 9211SOL    HW228533   5.545   1.247   6.138
 9212SOL     OW28534   6.326   3.864   6.766
 9212SOL    HW128535   6.347   3.825   6.676
 9212SOL    HW228536   6.409   3.904   6.805
 9213SOL     OW28537   0.312   5.119   3.178
 9213SOL    HW128538   0.339   5.030   3.143
 9213SOL    HW228539   0.263   5.170   3.107
 9214SOL     OW28540   1.842   1.133   5.977
 9214SOL    HW128541   1.831   1.144   6.076
 9214SOL    HW228542   1.874   1.041   5.956
 9215SOL     OW28543   6.842   3.886   3.855
 9215SOL    HW128544   6.822   3.840   3.942
 9215SOL    HW228545   6.846   3.985   3.871
 9216SOL     OW28546   1.763   6.931   3.562
 9216SOL    HW128547   1.702   6.908   3.638
 9216SOL    HW228548   1.808   7.018   3.580
 9217SOL     OW28549   3.399   2.676   0.289
 9217SOL    HW128550   3.433   2.602   0.231
 9217SOL    HW228551   3.319   2.717   0.246
 9218SOL     OW28552   4.850   6.007   5.921
 9218SOL    HW128553   4.770   5.994   5.979
 9218SOL    HW228554   4.853   6.102   5.888
 9219SOL     OW28555   4.137   3.259   6.158
 9219SOL    HW128556   4.040   3.276   6.142
 9219SOL    HW228557   4.169   3.317   6.233
 9220SOL     OW28558   0.821   6.791   3.528
 9220SOL    HW128559   0.727   6.759   3.517
 9220SOL    HW228560   0.821   6.889   3.549
 9221SOL     OW28561   2.634   1.428   1.956
 9221SOL    HW128562   2.638   1.518   2.000
 9221SOL    HW228563   2.669   1.358   2.018
 9222SOL     OW28564   2.019   5.894   3.591
 9222SOL    HW128565   2.100   5.836   3.585
 9222SOL    HW228566   2.009   5.945   3.505
 9223SOL     OW28567   5.944   2.347   4.811
 9223SOL    HW128568   5.864   2.331   4.755
 9223SOL    HW228569   5.975   2.442   4.799
 9224SOL     OW28570   1.732   5.666   2.807
 9224SOL    HW128571   1.715   5.666   2.906
 9224SOL    HW228572   1.780   5.582   2.782
 9225SOL     OW28573   0.699   6.147   5.281
 9225SOL    HW128574   0.793   6.116   5.295
 9225SOL    HW228575   0.654   6.088   5.214
 9226SOL     OW28576   0.717   6.786   4.821
 9226SOL    HW128577   0.772   6.819   4.898
 9226SOL    HW228578   0.742   6.835   4.738
 9227SOL     OW28579   4.333   2.693   0.868
 9227SOL    HW128580   4.337   2.759   0.943
 9227SOL    HW228581   4.238   2.677   0.842
 9228SOL     OW28582   3.752   3.300   4.303
 9228SOL    HW128583   3.656   3.302   4.273
 9228SOL    HW228584   3.812   3.321   4.226
 9229SOL     OW28585   0.634   6.146   1.100
 9229SOL    HW128586   0.549   6.163   1.050
 9229SOL    HW228587   0.634   6.053   1.135
 9230SOL     OW28588   3.635   7.005   6.083
 9230SOL    HW128589   3.541   7.013   6.116
 9230SOL    HW228590   3.683   0.069   6.097
 9231SOL     OW28591   6.015   6.485   1.941
 9231SOL    HW128592   5.991   6.482   2.038
 9231SOL    HW228593   5.938   6.522   1.888
 9232SOL     OW28594   1.051   4.993   1.950
 9232SOL    HW128595   1.068   5.092   1.948
 9232SOL    HW228596   1.122   4.946   1.898
 9233SOL     OW28597   1.353   6.948   6.060
 9233SOL    HW128598   1.380   0.015   6.096
 9233SOL    HW228599   1.305   6.960   5.973
 9234SOL     OW28600   3.328   3.911   6.980
 9234SOL    HW128601   3.271   3.988   7.007
 9234SOL    HW228602   3.271   3.838   6.943
 9235SOL     OW28603   2.115   2.251   2.862
 9235SOL    HW128604   2.124   2.166   2.811
 9235SOL    HW228605   2.026   2.254   2.907
 9236SOL     OW28606   1.712   4.499   6.382
 9236SOL    HW128607   1.650   4.423   6.361
 9236SOL    HW228608   1.738   4.495   6.479
 9237SOL     OW28609   6.989   5.317   3.714
 9237SOL    HW128610   6.997   5.393   3.778
 9237SOL    HW228611   6.900   5.319   3.670
 9238SOL     OW28612   1.864   2.725   5.154
 9238SOL    HW128613   1.929   2.662   5.198
 9238SOL    HW228614   1.909   2.813   5.137
 9239SOL     OW28615   1.870   6.115   6.275
 9239SOL    HW128616   1.899   6.145   6.184
 9239SOL    HW228617   1.833   6.193   6.326
 9240SOL     OW28618   4.083   1.181   4.883
 9240SOL    HW128619   4.003   1.219   4.929
 9240SOL    HW228620   4.105   1.236   4.803
 9241SOL     OW28621   5.411   6.228   0.396
 9241SOL    HW128622   5.510   6.225   0.411
 9241SOL    HW228623   5.363   6.191   0.475
 9242SOL     OW28624   2.736   2.193   6.778
 9242SOL    HW128625   2.645   2.216   6.745
 9242SOL    HW228626   2.734   2.179   6.877
 9243SOL     OW28627   1.917   0.213   0.526
 9243SOL    HW128628   1.877   0.196   0.437
 9243SOL    HW228629   1.990   0.281   0.518
 9244SOL     OW28630   3.066   6.413   6.834
 9244SOL    HW128631   2.979   6.424   6.883
 9244SOL    HW228632   3.073   6.482   6.762
 9245SOL     OW28633   0.794   3.844   3.057
 9245SOL    HW128634   0.819   3.833   3.153
 9245SOL    HW228635   0.696   3.858   3.050
 9246SOL     OW28636   4.892   0.938   6.471
 9246SOL    HW128637   4.905   1.033   6.498
 9246SOL    HW228638   4.811   0.901   6.517
 9247SOL     OW28639   2.982   6.516   2.812
 9247SOL    HW128640   3.080   6.496   2.806
 9247SOL    HW228641   2.940   6.502   2.723
 9248SOL     OW28642   2.900   6.943   6.512
 9248SOL    HW128643   2.867   6.871   6.573
 9248SOL    HW228644   2.989   6.977   6.545
 9249SOL     OW28645   3.498   1.271   0.726
 9249SOL    HW128646   3.420   1.287   0.787
 9249SOL    HW228647   3.466   1.265   0.631
 9250SOL     OW28648   0.846   3.530   1.837
 9250SOL    HW128649   0.869   3.437   1.806
 9250SOL    HW228650   0.848   3.593   1.759
 9251SOL     OW28651   4.183   1.148   0.628
 9251SOL    HW128652   4.084   1.146   0.640
 9251SOL    HW228653   4.206   1.205   0.549
 9252SOL     OW28654   5.589   1.416   4.762
 9252SOL    HW128655   5.558   1.501   4.720
 9252SOL    HW228656   5.512   1.369   4.804
 9253SOL     OW28657   2.341   4.985   3.633
 9253SOL    HW128658   2.381   4.940   3.713
 9253SOL    HW228659   2.401   4.970   3.554
 9254SOL     OW28660   6.729   6.166   2.212
 9254SOL    HW128661   6.760   6.109   2.136
 9254SOL    HW228662   6.782   6.144   2.294
 9255SOL     OW28663   0.345   3.183   1.473
 9255SOL    HW128664   0.250   3.155   1.460
 9255SOL    HW228665   0.351   3.282   1.475
 9256SOL     OW28666   2.223   6.305   1.337
 9256SOL    HW128667   2.205   6.286   1.240
 9256SOL    HW228668   2.167   6.382   1.367
 9257SOL     OW28669   6.585   6.053   5.208
 9257SOL    HW128670   6.636   6.017   5.130
 9257SOL    HW228671   6.517   5.986   5.238
 9258SOL     OW28672   4.873   3.605   3.035
 9258SOL    HW128673   4.788   3.656   3.045
 9258SOL    HW228674   4.947   3.669   3.013
 9259SOL     OW28675   0.924   3.146   6.429
 9259SOL    HW128676   0.881   3.089   6.499
 9259SOL    HW228677   1.016   3.171   6.458
 9260SOL     OW28678   5.135   4.930   5.117
 9260SOL    HW128679   5.152   5.013   5.169
 9260SOL    HW228680   5.216   4.870   5.122
 9261SOL     OW28681   1.595   3.113   1.162
 9261SOL    HW128682   1.603   3.070   1.252
 9261SOL    HW228683   1.599   3.043   1.091
 9262SOL     OW28684   6.780   6.485   6.085
 9262SOL    HW128685   6.793   6.461   6.181
 9262SOL    HW228686   6.774   6.585   6.076
 9263SOL     OW28687   2.530   4.926   2.834
 9263SOL    HW128688   2.621   4.965   2.848
 9263SOL    HW228689   2.534   4.859   2.760
 9264SOL     OW28690   5.897   3.543   5.281
 9264SOL    HW128691   5.959   3.620   5.297
 9264SOL    HW228692   5.918   3.470   5.347
 9265SOL     OW28693   4.647   0.484   1.915
 9265SOL    HW128694   4.640   0.388   1.942
 9265SOL    HW228695   4.577   0.537   1.963
 9266SOL     OW28696   0.445   4.568   0.848
 9266SOL    HW128697   0.363   4.564   0.790
 9266SOL    HW228698   0.491   4.480   0.845
 9267SOL     OW28699   6.742   1.178   3.568
 9267SOL    HW128700   6.647   1.209   3.574
 9267SOL    HW228701   6.755   1.099   3.629
 9268SOL     OW28702   7.008   6.908   1.151
 9268SOL    HW128703   6.961   6.992   1.177
 9268SOL    HW228704   0.065   6.894   1.211
 9269SOL     OW28705   3.209   6.218   1.086
 9269SOL    HW128706   3.117   6.225   1.125
 9269SOL    HW228707   3.276   6.235   1.157
 9270SOL     OW28708   2.016   1.407   5.356
 9270SOL    HW128709   2.037   1.498   5.391
 9270SOL    HW228710   1.995   1.413   5.258
 9271SOL     OW28711   1.495   5.075   5.292
 9271SOL    HW128712   1.535   5.117   5.211
 9271SOL    HW228713   1.446   4.992   5.265
 9272SOL     OW28714   6.092   6.915   6.108
 9272SOL    HW128715   6.113   6.877   6.018
 9272SOL    HW228716   6.062   7.010   6.097
 9273SOL     OW28717   6.420   3.980   3.320
 9273SOL    HW128718   6.321   3.965   3.321
 9273SOL    HW228719   6.462   3.927   3.394
 9274SOL     OW28720   6.901   3.312   0.759
 9274SOL    HW128721   6.959   3.260   0.696
 9274SOL    HW228722   6.931   3.296   0.853
 9275SOL     OW28723   4.731   1.945   0.541
 9275SOL    HW128724   4.696   1.933   0.634
 9275SOL    HW228725   4.782   1.864   0.513
 9276SOL     OW28726   1.305   4.388   0.284
 9276SOL    HW128727   1.405   4.385   0.290
 9276SOL    HW228728   1.267   4.320   0.348
 9277SOL     OW28729   3.294   6.031   2.827
 9277SOL    HW128730   3.296   6.131   2.814
 9277SOL    HW228731   3.366   5.989   2.772
 9278SOL     OW28732   1.705   0.016   4.536
 9278SOL    HW128733   1.609   0.011   4.561
 9278SOL    HW228734   1.728   6.963   4.476
 9279SOL     OW28735   3.423   6.288   1.686
 9279SOL    HW128736   3.361   6.231   1.633
 9279SOL    HW228737   3.427   6.256   1.781
 9280SOL     OW28738   1.031   4.772   1.609
 9280SOL    HW128739   1.091   4.692   1.607
 9280SOL    HW228740   0.980   4.777   1.523
 9281SOL     OW28741   1.447   5.922   0.671
 9281SOL    HW128742   1.423   5.988   0.601
 9281SOL    HW228743   1.520   5.862   0.637
 9282SOL     OW28744   1.910   0.844   3.789
 9282SOL    HW128745   1.824   0.822   3.742
 9282SOL    HW228746   1.894   0.843   3.888
 9283SOL     OW28747   5.579   5.073   6.261
 9283SOL    HW128748   5.573   5.170   6.238
 9283SOL    HW228749   5.493   5.043   6.303
 9284SOL     OW28750   4.049   6.531   1.515
 9284SOL    HW128751   4.029   6.587   1.434
 9284SOL    HW228752   4.033   6.585   1.598
 9285SOL     OW28753   0.016   5.596   3.410
 9285SOL    HW128754   6.981   5.547   3.345
 9285SOL    HW228755   0.066   5.669   3.362
 9286SOL     OW28756   5.764   6.136   1.995
 9286SOL    HW128757   5.743   6.131   2.092
 9286SOL    HW228758   5.857   6.170   1.982
 9287SOL     OW28759   4.581   4.319   0.699
 9287SOL    HW128760   4.558   4.378   0.621
 9287SOL    HW228761   4.590   4.224   0.667
 9288SOL     OW28762   4.023   0.809   3.403
 9288SOL    HW128763   4.007   0.863   3.320
 9288SOL    HW228764   3.947   0.821   3.466
 9289SOL     OW28765   4.275   6.262   2.334
 9289SOL    HW128766   4.260   6.164   2.329
 9289SOL    HW228767   4.358   6.281   2.387
 9290SOL     OW28768   5.640   0.680   3.567
 9290SOL    HW128769   5.552   0.638   3.586
 9290SOL    HW228770   5.699   0.614   3.520
 9291SOL     OW28771   0.158   4.752   5.507
 9291SOL    HW128772   0.161   4.852   5.507
 9291SOL    HW228773   0.206   4.718   5.587
 9292SOL     OW28774   1.761   2.014   0.012
 9292SOL    HW128775   1.789   2.035   0.106
 9292SOL    HW228776   1.807   2.076   6.972
 9293SOL     OW28777   4.114   0.943   6.066
 9293SOL    HW128778   4.088   1.020   6.124
 9293SOL    HW228779   4.212   0.945   6.048
 9294SOL     OW28780   5.637   5.908   6.068
 9294SOL    HW128781   5.707   5.979   6.080
 9294SOL    HW228782   5.602   5.881   6.158
 9295SOL     OW28783   6.251   0.250   3.045
 9295SOL    HW128784   6.160   0.278   3.014
 9295SOL    HW228785   6.298   0.203   2.971
 9296SOL     OW28786   2.435   3.455   5.649
 9296SOL    HW128787   2.484   3.510   5.581
 9296SOL    HW228788   2.409   3.514   5.726
 9297SOL     OW28789   0.047   5.648   1.933
 9297SOL    HW128790   6.976   5.660   1.968
 9297SOL    HW228791   0.048   5.572   1.868
 9298SOL     OW28792   6.572   4.786   6.967
 9298SOL    HW128793   6.670   4.787   6.988
 9298SOL    HW228794   6.550   4.704   6.915
 9299SOL     OW28795   3.127   2.213   4.151
 9299SOL    HW128796   3.224   2.226   4.170
 9299SOL    HW228797   3.078   2.196   4.236
 9300SOL     OW28798   2.691   5.941   5.989
 9300SOL    HW128799   2.777   5.956   5.940
 9300SOL    HW228800   2.685   5.846   6.018
 9301SOL     OW28801   0.106   3.308   4.147
 9301SOL    HW128802   0.013   3.343   4.157
 9301SOL    HW228803   0.110   3.214   4.180
 9302SOL     OW28804   3.075   5.955   3.940
 9302SOL    HW128805   3.103   6.051   3.937
 9302SOL    HW228806   3.035   5.935   4.030
 9303SOL     OW28807   2.900   4.355   6.735
 9303SOL    HW128808   2.938   4.326   6.647
 9303SOL    HW228809   2.967   4.411   6.783
 9304SOL     OW28810   6.099   5.871   6.584
 9304SOL    HW128811   6.009   5.866   6.542
 9304SOL    HW228812   6.149   5.949   6.546
 9305SOL     OW28813   2.303   1.921   0.944
 9305SOL    HW128814   2.307   2.017   0.974
 9305SOL    HW228815   2.211   1.900   0.912
 9306SOL     OW28816   6.722   6.027   3.947
 9306SOL    HW128817   6.645   6.015   3.885
 9306SOL    HW228818   6.696   5.998   4.039
 9307SOL     OW28819   1.691   4.317   1.211
 9307SOL    HW128820   1.733   4.363   1.290
 9307SOL    HW228821   1.592   4.316   1.223
 9308SOL     OW28822   2.496   3.233   1.062
 9308SOL    HW128823   2.480   3.332   1.062
 9308SOL    HW228824   2.417   3.186   1.023
 9309SOL     OW28825   3.652   4.892   5.895
 9309SOL    HW128826   3.583   4.842   5.948
 9309SOL    HW228827   3.665   4.983   5.935
 9310SOL     OW28828   6.376   6.276   5.690
 9310SOL    HW128829   6.314   6.222   5.632
 9310SOL    HW228830   6.447   6.216   5.728
 9311SOL     OW28831   5.572   4.798   6.600
 9311SOL    HW128832   5.612   4.733   6.536
 9311SOL    HW228833   5.514   4.750   6.666
 9312SOL     OW28834   5.895   3.536   3.942
 9312SOL    HW128835   5.880   3.439   3.962
 9312SOL    HW228836   5.920   3.584   4.027
 9313SOL     OW28837   0.474   0.441   2.042
 9313SOL    HW128838   0.529   0.380   1.985
 9313SOL    HW228839   0.472   0.533   2.001
 9314SOL     OW28840   5.186   4.636   1.552
 9314SOL    HW128841   5.253   4.564   1.571
 9314SOL    HW228842   5.221   4.696   1.480
 9315SOL     OW28843   5.832   5.456   5.793
 9315SOL    HW128844   5.904   5.503   5.741
 9315SOL    HW228845   5.805   5.512   5.871
 9316SOL     OW28846   5.370   5.481   6.881
 9316SOL    HW128847   5.433   5.417   6.926
 9316SOL    HW228848   5.383   5.476   6.782
 9317SOL     OW28849   2.561   6.964   3.545
 9317SOL    HW128850   2.499   7.022   3.492
 9317SOL    HW228851   2.645   7.014   3.564
 9318SOL     OW28852   3.093   0.229   3.418
 9318SOL    HW128853   3.116   0.192   3.508
 9318SOL    HW228854   3.005   0.275   3.422
 9319SOL     OW28855   3.768   2.473   0.952
 9319SOL    HW128856   3.852   2.433   0.988
 9319SOL    HW228857   3.772   2.572   0.960
 9320SOL     OW28858   6.577   0.125   6.829
 9320SOL    HW128859   6.604   0.078   6.745
 9320SOL    HW228860   6.492   0.175   6.813
 9321SOL     OW28861   1.200   2.216   4.556
 9321SOL    HW128862   1.225   2.173   4.643
 9321SOL    HW228863   1.242   2.307   4.551
 9322SOL     OW28864   5.545   3.529   0.310
 9322SOL    HW128865   5.522   3.550   0.216
 9322SOL    HW228866   5.466   3.544   0.369
 9323SOL     OW28867   1.061   2.739   4.735
 9323SOL    HW128868   1.139   2.681   4.759
 9323SOL    HW228869   1.094   2.826   4.699
 9324SOL     OW28870   0.925   4.481   1.121
 9324SOL    HW128871   0.926   4.466   1.220
 9324SOL    HW228872   0.883   4.403   1.076
 9325SOL     OW28873   0.052   4.472   2.934
 9325SOL    HW128874   0.029   4.459   2.838
 9325SOL    HW228875   0.116   4.401   2.963
 9326SOL     OW28876   4.322   4.674   1.189
 9326SOL    HW128877   4.315   4.615   1.269
 9326SOL    HW228878   4.265   4.755   1.202
 9327SOL     OW28879   1.756   1.665   3.354
 9327SOL    HW128880   1.848   1.702   3.338
 9327SOL    HW228881   1.732   1.603   3.280
 9328SOL     OW28882   1.340   0.291   3.710
 9328SOL    HW128883   1.426   0.316   3.754
 9328SOL    HW228884   1.277   0.369   3.711
 9329SOL     OW28885   1.304   5.147   6.127
 9329SOL    HW128886   1.228   5.115   6.185
 9329SOL    HW228887   1.353   5.220   6.174
 9330SOL     OW28888   1.102   6.352   0.794
 9330SOL    HW128889   1.020   6.338   0.849
 9330SOL    HW228890   1.165   6.276   0.808
 9331SOL     OW28891   2.130   5.155   4.800
 9331SOL    HW128892   2.033   5.180   4.800
 9331SOL    HW228893   2.172   5.185   4.715
 9332SOL     OW28894   6.359   5.731   0.531
 9332SOL    HW128895   6.358   5.655   0.596
 9332SOL    HW228896   6.426   5.712   0.459
 9333SOL     OW28897   1.372   5.563   0.897
 9333SOL    HW128898   1.389   5.465   0.896
 9333SOL    HW228899   1.426   5.607   0.825
 9334SOL     OW28900   0.105   5.873   0.432
 9334SOL    HW128901   0.150   5.822   0.505
 9334SOL    HW228902   0.035   5.932   0.471
 9335SOL     OW28903   6.954   4.041   0.734
 9335SOL    HW128904   6.980   4.106   0.663
 9335SOL    HW228905   6.907   3.963   0.692
 9336SOL     OW28906   4.087   5.361   5.548
 9336SOL    HW128907   4.123   5.294   5.613
 9336SOL    HW228908   4.102   5.453   5.582
 9337SOL     OW28909   3.272   1.769   4.697
 9337SOL    HW128910   3.193   1.800   4.644
 9337SOL    HW228911   3.354   1.773   4.639
 9338SOL     OW28912   4.485   6.954   1.573
 9338SOL    HW128913   4.557   7.022   1.559
 9338SOL    HW228914   4.468   6.907   1.486
 9339SOL     OW28915   0.269   3.617   5.065
 9339SOL    HW128916   0.214   3.553   5.011
 9339SOL    HW228917   0.311   3.685   5.004
 9340SOL     OW28918   2.412   4.600   2.221
 9340SOL    HW128919   2.472   4.604   2.141
 9340SOL    HW228920   2.404   4.691   2.261
 9341SOL     OW28921   5.970   5.547   1.131
 9341SOL    HW128922   6.030   5.626   1.118
 9341SOL    HW228923   5.998   5.497   1.213
 9342SOL     OW28924   3.029   0.274   4.720
 9342SOL    HW128925   3.075   0.297   4.806
 9342SOL    HW228926   3.097   0.253   4.650
 9343SOL     OW28927   5.521   3.845   1.285
 9343SOL    HW128928   5.521   3.871   1.381
 9343SOL    HW228929   5.545   3.924   1.229
 9344SOL     OW28930   5.708   6.344   4.951
 9344SOL    HW128931   5.712   6.442   4.966
 9344SOL    HW228932   5.712   6.296   5.038
 9345SOL     OW28933   6.973   4.569   6.278
 9345SOL    HW128934   6.975   4.638   6.350
 9345SOL    HW228935   0.044   4.545   6.253
 9346SOL     OW28936   4.796   0.870   2.052
 9346SOL    HW128937   4.862   0.810   2.098
 9346SOL    HW228938   4.761   0.824   1.970
 9347SOL     OW28939   4.532   6.952   2.226
 9347SOL    HW128940   4.498   6.991   2.311
 9347SOL    HW228941   4.532   7.023   2.155
 9348SOL     OW28942   2.671   4.944   1.803
 9348SOL    HW128943   2.639   4.862   1.755
 9348SOL    HW228944   2.750   4.920   1.860
 9349SOL     OW28945   7.016   5.109   1.452
 9349SOL    HW128946   6.919   5.125   1.435
 9349SOL    HW228947   0.030   5.181   1.511
 9350SOL     OW28948   6.409   0.459   6.945
 9350SOL    HW128949   6.349   0.382   6.924
 9350SOL    HW228950   6.355   0.543   6.947
 9351SOL     OW28951   4.509   4.186   6.278
 9351SOL    HW128952   4.503   4.203   6.376
 9351SOL    HW228953   4.589   4.129   6.259
 9352SOL     OW28954   2.825   1.619   6.729
 9352SOL    HW128955   2.821   1.719   6.723
 9352SOL    HW228956   2.781   1.589   6.814
 9353SOL     OW28957   1.002   3.087   2.385
 9353SOL    HW128958   0.926   3.036   2.424
 9353SOL    HW228959   1.088   3.039   2.403
 9354SOL     OW28960   5.965   2.061   2.522
 9354SOL    HW128961   5.951   1.962   2.524
 9354SOL    HW228962   5.969   2.096   2.615
 9355SOL     OW28963   0.501   1.694   2.041
 9355SOL    HW128964   0.403   1.680   2.051
 9355SOL    HW228965   0.533   1.648   1.958
 9356SOL     OW28966   4.614   2.477   2.291
 9356SOL    HW128967   4.540   2.411   2.303
 9356SOL    HW228968   4.668   2.454   2.210
 9357SOL     OW28969   2.153   4.483   6.799
 9357SOL    HW128970   2.220   4.473   6.872
 9357SOL    HW228971   2.064   4.508   6.838
 9358SOL     OW28972   5.348   4.205   2.745
 9358SOL    HW128973   5.292   4.285   2.727
 9358SOL    HW228974   5.417   4.195   2.673
 9359SOL     OW28975   4.548   5.355   5.873
 9359SOL    HW128976   4.624   5.347   5.939
 9359SOL    HW228977   4.503   5.266   5.864
 9360SOL     OW28978   1.003   0.340   5.465
 9360SOL    HW128979   1.067   0.263   5.461
 9360SOL    HW228980   0.910   0.305   5.481
 9361SOL     OW28981   1.648   1.267   2.087
 9361SOL    HW128982   1.619   1.172   2.083
 9361SOL    HW228983   1.571   1.327   2.065
 9362SOL     OW28984   1.413   1.604   3.138
 9362SOL    HW128985   1.425   1.674   3.068
 9362SOL    HW228986   1.494   1.546   3.142
 9363SOL     OW28987   1.412   6.284   1.869
 9363SOL    HW128988   1.462   6.201   1.894
 9363SOL    HW228989   1.328   6.259   1.820
 9364SOL     OW28990   5.393   4.145   1.185
 9364SOL    HW128991   5.429   4.128   1.093
 9364SOL    HW228992   5.298   4.115   1.188
 9365SOL     OW28993   2.079   1.580   4.044
 9365SOL    HW128994   2.094   1.660   4.102
 9365SOL    HW228995   2.013   1.603   3.973
 9366SOL     OW28996   2.723   1.151   1.580
 9366SOL    HW128997   2.725   1.125   1.483
 9366SOL    HW228998   2.658   1.227   1.593
 9367SOL     OW28999   5.427   6.740   3.943
 9367SOL    HW129000   5.329   6.752   3.954
 9367SOL    HW229001   5.456   6.778   3.855
 9368SOL     OW29002   5.812   2.747   0.636
 9368SOL    HW129003   5.815   2.847   0.639
 9368SOL    HW229004   5.717   2.716   0.647
 9369SOL     OW29005   0.210   1.961   5.183
 9369SOL    HW129006   0.249   2.032   5.241
 9369SOL    HW229007   0.186   1.882   5.239
 9370SOL     OW29008   5.907   5.447   2.175
 9370SOL    HW129009   5.869   5.354   2.178
 9370SOL    HW229010   5.989   5.451   2.232
 9371SOL     OW29011   1.805   6.785   0.356
 9371SOL    HW129012   1.838   6.758   0.446
 9371SOL    HW229013   1.707   6.769   0.349
 9372SOL     OW29014   5.704   5.748   0.564
 9372SOL    HW129015   5.746   5.801   0.491
 9372SOL    HW229016   5.611   5.721   0.537
 9373SOL     OW29017   4.831   2.982   4.192
 9373SOL    HW129018   4.846   3.033   4.277
 9373SOL    HW229019   4.783   2.896   4.212
 9374SOL     OW29020   5.406   3.993   6.852
 9374SOL    HW129021   5.436   4.044   6.771
 9374SOL    HW229022   5.483   3.983   6.915
 9375SOL     OW29023   6.313   6.908   4.331
 9375SOL    HW129024   6.267   6.997   4.328
 9375SOL    HW229025   6.405   6.917   4.295
 9376SOL     OW29026   2.483   3.462   1.664
 9376SOL    HW129027   2.437   3.533   1.611
 9376SOL    HW229028   2.444   3.457   1.756
 9377SOL     OW29029   6.812   4.456   3.859
 9377SOL    HW129030   6.716   4.484   3.857
 9377SOL    HW229031   6.818   4.357   3.870
 9378SOL     OW29032   4.151   6.418   0.856
 9378SOL    HW129033   4.095   6.500   0.868
 9378SOL    HW229034   4.113   6.343   0.909
 9379SOL     OW29035   4.795   4.612   5.174
 9379SOL    HW129036   4.882   4.563   5.170
 9379SOL    HW229037   4.812   4.710   5.174
 9380SOL     OW29038   6.717   5.789   5.563
 9380SOL    HW129039   6.700   5.748   5.652
 9380SOL    HW229040   6.811   5.823   5.559
 9381SOL     OW29041   1.122   0.909   0.343
 9381SOL    HW129042   1.065   0.956   0.275
 9381SOL    HW229043   1.094   0.813   0.349
 9382SOL     OW29044   5.847   1.906   2.953
 9382SOL    HW129045   5.796   1.992   2.944
 9382SOL    HW229046   5.844   1.876   3.049
 9383SOL     OW29047   6.795   5.325   6.361
 9383SOL    HW129048   6.828   5.239   6.401
 9383SOL    HW229049   6.723   5.364   6.418
 9384SOL     OW29050   3.794   7.000   2.329
 9384SOL    HW129051   3.705   6.965   2.358
 9384SOL    HW229052   3.866   6.943   2.367
 9385SOL     OW29053   3.754   6.558   3.145
 9385SOL    HW129054   3.702   6.643   3.135
 9385SOL    HW229055   3.788   6.551   3.239
 9386SOL     OW29056   3.556   0.108   5.092
 9386SOL    HW129057   3.515   0.191   5.128
 9386SOL    HW229058   3.627   0.131   5.025
 9387SOL     OW29059   5.089   5.564   0.949
 9387SOL    HW129060   5.073   5.466   0.950
 9387SOL    HW229061   5.119   5.594   1.040
 9388SOL     OW29062   6.793   6.935   1.989
 9388SOL    HW129063   6.860   6.974   2.052
 9388SOL    HW229064   6.765   7.005   1.923
 9389SOL     OW29065   2.848   0.812   0.396
 9389SOL    HW129066   2.938   0.778   0.371
 9389SOL    HW229067   2.803   0.748   0.459
 9390SOL     OW29068   3.860   5.705   1.021
 9390SOL    HW129069   3.929   5.703   1.094
 9390SOL    HW229070   3.897   5.752   0.941
 9391SOL     OW29071   5.999   0.944   3.845
 9391SOL    HW129072   6.041   0.857   3.871
 9391SOL    HW229073   6.064   0.998   3.793
 9392SOL     OW29074   0.773   0.030   5.337
 9392SOL    HW129075   0.695   0.054   5.396
 9392SOL    HW229076   0.835   6.991   5.386
 9393SOL     OW29077   4.357   1.465   5.813
 9393SOL    HW129078   4.430   1.476   5.745
 9393SOL    HW229079   4.287   1.403   5.777
 9394SOL     OW29080   6.318   1.760   2.352
 9394SOL    HW129081   6.312   1.772   2.451
 9394SOL    HW229082   6.393   1.697   2.330
 9395SOL     OW29083   2.087   2.648   6.536
 9395SOL    HW129084   2.029   2.632   6.616
 9395SOL    HW229085   2.045   2.605   6.455
 9396SOL     OW29086   0.184   1.083   6.006
 9396SOL    HW129087   0.271   1.059   5.962
 9396SOL    HW229088   0.112   1.023   5.971
 9397SOL     OW29089   2.099   1.900   0.529
 9397SOL    HW129090   2.107   1.858   0.619
 9397SOL    HW229091   2.003   1.906   0.503
 9398SOL     OW29092   2.568   1.353   1.695
 9398SOL    HW129093   2.583   1.376   1.791
 9398SOL    HW229094   2.492   1.407   1.659
 9399SOL     OW29095   0.340   0.761   5.999
 9399SOL    HW129096   0.261   0.700   6.006
 9399SOL    HW229097   0.408   0.720   5.938
 9400SOL     OW29098   3.855   1.530   3.947
 9400SOL    HW129099   3.930   1.493   3.893
 9400SOL    HW229100   3.835   1.469   4.024
 9401SOL     OW29101   4.613   6.218   4.187
 9401SOL    HW129102   4.581   6.224   4.092
 9401SOL    HW229103   4.542   6.250   4.249
 9402SOL     OW29104   2.885   4.784   6.336
 9402SOL    HW129105   2.852   4.875   6.311
 9402SOL    HW229106   2.843   4.716   6.276
 9403SOL     OW29107   5.999   6.851   4.187
 9403SOL    HW129108   6.048   6.813   4.266
 9403SOL    HW229109   5.923   6.790   4.164
 9404SOL     OW29110   1.709   4.330   5.149
 9404SOL    HW129111   1.741   4.281   5.068
 9404SOL    HW229112   1.759   4.416   5.158
 9405SOL     OW29113   0.607   0.765   1.283
 9405SOL    HW129114   0.604   0.789   1.380
 9405SOL    HW229115   0.700   0.774   1.248
 9406SOL     OW29116   6.520   1.026   4.879
 9406SOL    HW129117   6.500   1.124   4.892
 9406SOL    HW229118   6.615   1.015   4.849
 9407SOL     OW29119   3.592   5.390   3.382
 9407SOL    HW129120   3.569   5.461   3.448
 9407SOL    HW229121   3.641   5.431   3.305
 9408SOL     OW29122   3.783   2.282   6.357
 9408SOL    HW129123   3.705   2.260   6.298
 9408SOL    HW229124   3.797   2.208   6.423
 9409SOL     OW29125   6.025   3.933   3.642
 9409SOL    HW129126   5.927   3.949   3.653
 9409SOL    HW229127   6.049   3.844   3.680
 9410SOL     OW29128   4.229   6.795   1.834
 9410SOL    HW129129   4.322   6.795   1.796
 9410SOL    HW229130   4.183   6.880   1.808
 9411SOL     OW29131   5.328   5.194   2.007
 9411SOL    HW129132   5.231   5.195   1.982
 9411SOL    HW229133   5.356   5.101   2.028
 9412SOL     OW29134   6.557   2.229   3.042
 9412SOL    HW129135   6.606   2.312   3.015
 9412SOL    HW229136   6.622   2.164   3.082
 9413SOL     OW29137   3.644   5.531   3.136
 9413SOL    HW129138   3.604   5.610   3.090
 9413SOL    HW229139   3.741   5.523   3.111
 9414SOL     OW29140   2.213   0.345   2.176
 9414SOL    HW129141   2.269   0.311   2.100
 9414SOL    HW229142   2.134   0.394   2.139
 9415SOL     OW29143   1.687   0.569   1.746
 9415SOL    HW129144   1.735   0.555   1.660
 9415SOL    HW229145   1.590   0.550   1.734
 9416SOL     OW29146   1.393   2.165   1.268
 9416SOL    HW129147   1.430   2.123   1.351
 9416SOL    HW229148   1.328   2.237   1.293
 9417SOL     OW29149   1.156   0.375   4.915
 9417SOL    HW129150   1.150   0.306   4.987
 9417SOL    HW229151   1.249   0.375   4.877
 9418SOL     OW29152   4.281   4.200   1.008
 9418SOL    HW129153   4.235   4.170   0.925
 9418SOL    HW229154   4.214   4.208   1.082
 9419SOL     OW29155   2.599   5.650   3.676
 9419SOL    HW129156   2.503   5.621   3.672
 9419SOL    HW229157   2.655   5.575   3.710
 9420SOL     OW29158   2.071   0.680   3.210
 9420SOL    HW129159   2.044   0.770   3.244
 9420SOL    HW229160   2.007   0.611   3.243
 9421SOL     OW29161   1.675   5.091   5.051
 9421SOL    HW129162   1.741   5.158   5.084
 9421SOL    HW229163   1.698   5.001   5.086
 9422SOL     OW29164   4.185   1.143   3.144
 9422SOL    HW129165   4.245   1.069   3.117
 9422SOL    HW229166   4.238   1.227   3.157
 9423SOL     OW29167   4.474   0.107   4.868
 9423SOL    HW129168   4.573   0.096   4.855
 9423SOL    HW229169   4.457   0.197   4.909
 9424SOL     OW29170   3.204   5.818   3.455
 9424SOL    HW129171   3.137   5.798   3.384
 9424SOL    HW229172   3.274   5.746   3.457
 9425SOL     OW29173   0.831   5.240   2.643
 9425SOL    HW129174   0.745   5.254   2.594
 9425SOL    HW229175   0.904   5.218   2.578
 9426SOL     OW29176   3.800   6.219   0.850
 9426SOL    HW129177   3.833   6.192   0.759
 9426SOL    HW229178   3.714   6.269   0.840
 9427SOL     OW29179   2.604   5.131   4.056
 9427SOL    HW129180   2.620   5.035   4.079
 9427SOL    HW229181   2.525   5.165   4.106
 9428SOL     OW29182   4.827   6.658   2.303
 9428SOL    HW129183   4.799   6.646   2.398
 9428SOL    HW229184   4.837   6.569   2.259
 9429SOL     OW29185   0.844   3.642   2.879
 9429SOL    HW129186   0.832   3.718   2.943
 9429SOL    HW229187   0.764   3.635   2.820
 9430SOL     OW29188   6.494   6.501   1.715
 9430SOL    HW129189   6.416   6.526   1.773
 9430SOL    HW229190   6.461   6.480   1.623
 9431SOL     OW29191   6.950   4.465   0.370
 9431SOL    HW129192   7.004   4.436   0.449
 9431SOL    HW229193   6.870   4.406   0.360
 9432SOL     OW29194   6.831   6.817   4.079
 9432SOL    HW129195   6.908   6.754   4.081
 9432SOL    HW229196   6.864   6.911   4.085
 9433SOL     OW29197   2.647   5.490   4.135
 9433SOL    HW129198   2.591   5.430   4.191
 9433SOL    HW229199   2.603   5.504   4.046
 9434SOL     OW29200   6.283   4.548   3.469
 9434SOL    HW129201   6.349   4.548   3.544
 9434SOL    HW229202   6.298   4.627   3.410
 9435SOL     OW29203   2.594   2.065   5.283
 9435SOL    HW129204   2.580   2.127   5.205
 9435SOL    HW229205   2.657   2.108   5.348
 9436SOL     OW29206   3.783   1.600   5.554
 9436SOL    HW129207   3.694   1.645   5.544
 9436SOL    HW229208   3.833   1.641   5.631
 9437SOL     OW29209   0.419   6.146   4.492
 9437SOL    HW129210   0.449   6.241   4.491
 9437SOL    HW229211   0.459   6.099   4.571
 9438SOL     OW29212   0.420   6.408   1.716
 9438SOL    HW129213   0.472   6.342   1.663
 9438SOL    HW229214   0.329   6.418   1.676
 9439SOL     OW29215   1.710   3.355   1.128
 9439SOL    HW129216   1.676   3.261   1.126
 9439SOL    HW229217   1.635   3.418   1.111
 9440SOL     OW29218   3.228   5.975   3.685
 9440SOL    HW129219   3.183   5.944   3.769
 9440SOL    HW229220   3.215   5.908   3.613
 9441SOL     OW29221   1.564   5.455   5.418
 9441SOL    HW129222   1.537   5.396   5.343
 9441SOL    HW229223   1.580   5.400   5.500
 9442SOL     OW29224   0.523   3.791   1.162
 9442SOL    HW129225   0.616   3.828   1.164
 9442SOL    HW229226   0.462   3.850   1.214
 9443SOL     OW29227   1.236   2.402   1.281
 9443SOL    HW129228   1.232   2.371   1.376
 9443SOL    HW229229   1.202   2.496   1.275
 9444SOL     OW29230   1.400   4.325   5.767
 9444SOL    HW129231   1.490   4.306   5.806
 9444SOL    HW229232   1.339   4.247   5.781
 9445SOL     OW29233   6.169   2.484   2.040
 9445SOL    HW129234   6.212   2.412   2.094
 9445SOL    HW229235   6.239   2.532   1.987
 9446SOL     OW29236   5.514   4.360   6.915
 9446SOL    HW129237   5.499   4.375   7.012
 9446SOL    HW229238   5.571   4.435   6.878
 9447SOL     OW29239   5.699   1.188   1.567
 9447SOL    HW129240   5.602   1.161   1.572
 9447SOL    HW229241   5.738   1.187   1.659
 9448SOL     OW29242   5.914   6.121   0.510
 9448SOL    HW129243   5.982   6.109   0.438
 9448SOL    HW229244   5.946   6.079   0.594
 9449SOL     OW29245   5.827   5.541   4.995
 9449SOL    HW129246   5.925   5.561   5.003
 9449SOL    HW229247   5.814   5.447   4.966
 9450SOL     OW29248   2.164   6.040   4.004
 9450SOL    HW129249   2.133   5.969   3.941
 9450SOL    HW229250   2.258   6.021   4.032
 9451SOL     OW29251   3.969   3.818   5.309
 9451SOL    HW129252   4.040   3.833   5.240
 9451SOL    HW229253   3.954   3.720   5.321
 9452SOL     OW29254   3.517   4.413   0.856
 9452SOL    HW129255   3.539   4.487   0.791
 9452SOL    HW229256   3.421   4.419   0.882
 9453SOL     OW29257   3.659   5.585   1.161
 9453SOL    HW129258   3.633   5.501   1.114
 9453SOL    HW229259   3.721   5.638   1.103
 9454SOL     OW29260   2.119   2.361   6.035
 9454SOL    HW129261   2.160   2.276   6.003
 9454SOL    HW229262   2.119   2.429   5.962
 9455SOL     OW29263   1.462   2.354   2.350
 9455SOL    HW129264   1.528   2.308   2.409
 9455SOL    HW229265   1.408   2.286   2.300
 9456SOL     OW29266   1.173   3.166   0.302
 9456SOL    HW129267   1.185   3.236   0.231
 9456SOL    HW229268   1.128   3.087   0.262
 9457SOL     OW29269   6.063   3.828   0.351
 9457SOL    HW129270   6.106   3.899   0.295
 9457SOL    HW229271   5.974   3.860   0.384
 9458SOL     OW29272   1.400   6.401   4.201
 9458SOL    HW129273   1.364   6.309   4.183
 9458SOL    HW229274   1.330   6.468   4.179
 9459SOL     OW29275   4.501   6.080   0.631
 9459SOL    HW129276   4.585   6.071   0.685
 9459SOL    HW229277   4.422   6.060   0.688
 9460SOL     OW29278   1.431   3.949   5.600
 9460SOL    HW129279   1.416   3.872   5.536
 9460SOL    HW229280   1.378   4.028   5.569
 9461SOL     OW29281   1.465   0.287   2.562
 9461SOL    HW129282   1.402   0.211   2.549
 9461SOL    HW229283   1.557   0.260   2.532
 9462SOL     OW29284   0.416   3.017   3.720
 9462SOL    HW129285   0.496   2.986   3.772
 9462SOL    HW229286   0.442   3.031   3.625
 9463SOL     OW29287   5.598   2.338   6.505
 9463SOL    HW129288   5.628   2.261   6.449
 9463SOL    HW229289   5.678   2.380   6.549
 9464SOL     OW29290   4.113   6.260   6.370
 9464SOL    HW129291   4.147   6.353   6.374
 9464SOL    HW229292   4.048   6.251   6.295
 9465SOL     OW29293   4.793   6.230   4.494
 9465SOL    HW129294   4.725   6.163   4.524
 9465SOL    HW229295   4.750   6.320   4.486
 9466SOL     OW29296   3.518   1.935   6.960
 9466SOL    HW129297   3.616   1.916   6.966
 9466SOL    HW229298   3.499   2.027   6.995
 9467SOL     OW29299   1.617   2.866   2.395
 9467SOL    HW129300   1.708   2.900   2.372
 9467SOL    HW229301   1.548   2.932   2.364
 9468SOL     OW29302   0.984   2.247   5.981
 9468SOL    HW129303   0.997   2.173   5.915
 9468SOL    HW229304   0.886   2.269   5.987
 9469SOL     OW29305   6.924   4.120   2.618
 9469SOL    HW129306   6.929   4.120   2.718
 9469SOL    HW229307   6.847   4.064   2.588
 9470SOL     OW29308   6.908   3.592   1.509
 9470SOL    HW129309   6.946   3.501   1.495
 9470SOL    HW229310   6.851   3.616   1.430
 9471SOL     OW29311   0.380   2.557   5.673
 9471SOL    HW129312   0.407   2.554   5.769
 9471SOL    HW229313   0.366   2.652   5.645
 9472SOL     OW29314   6.592   1.989   5.396
 9472SOL    HW129315   6.529   1.914   5.376
 9472SOL    HW229316   6.618   1.987   5.492
 9473SOL     OW29317   2.791   4.989   5.555
 9473SOL    HW129318   2.845   4.905   5.557
 9473SOL    HW229319   2.792   5.026   5.462
 9474SOL     OW29320   3.921   5.641   3.720
 9474SOL    HW129321   3.986   5.684   3.656
 9474SOL    HW229322   3.924   5.689   3.807
 9475SOL     OW29323   1.947   3.429   1.217
 9475SOL    HW129324   1.865   3.385   1.179
 9475SOL    HW229325   2.006   3.360   1.259
 9476SOL     OW29326   2.683   3.817   5.530
 9476SOL    HW129327   2.661   3.888   5.463
 9476SOL    HW229328   2.629   3.735   5.511
 9477SOL     OW29329   0.763   2.219   0.210
 9477SOL    HW129330   0.715   2.251   0.128
 9477SOL    HW229331   0.696   2.196   0.281
 9478SOL     OW29332   5.546   3.971   6.273
 9478SOL    HW129333   5.469   4.030   6.248
 9478SOL    HW229334   5.629   4.002   6.227
 9479SOL     OW29335   5.404   4.868   5.133
 9479SOL    HW129336   5.432   4.780   5.169
 9479SOL    HW229337   5.428   4.940   5.198
 9480SOL     OW29338   6.662   3.872   6.456
 9480SOL    HW129339   6.574   3.914   6.432
 9480SOL    HW229340   6.658   3.835   6.548
 9481SOL     OW29341   0.325   2.489   2.993
 9481SOL    HW129342   0.404   2.455   2.943
 9481SOL    HW229343   0.354   2.523   3.083
 9482SOL     OW29344   4.792   0.696   2.585
 9482SOL    HW129345   4.701   0.658   2.601
 9482SOL    HW229346   4.838   0.710   2.673
 9483SOL     OW29347   1.227   1.187   0.440
 9483SOL    HW129348   1.247   1.089   0.443
 9483SOL    HW229349   1.132   1.201   0.412
 9484SOL     OW29350   5.882   0.337   3.779
 9484SOL    HW129351   5.932   0.381   3.705
 9484SOL    HW229352   5.902   0.384   3.865
 9485SOL     OW29353   0.512   0.151   2.802
 9485SOL    HW129354   0.462   0.152   2.716
 9485SOL    HW229355   0.607   0.121   2.786
 9486SOL     OW29356   2.576   6.801   2.072
 9486SOL    HW129357   2.637   6.874   2.042
 9486SOL    HW229358   2.586   6.788   2.171
 9487SOL     OW29359   3.542   3.363   3.351
 9487SOL    HW129360   3.555   3.285   3.289
 9487SOL    HW229361   3.487   3.433   3.305
 9488SOL     OW29362   1.601   0.852   1.749
 9488SOL    HW129363   1.595   0.890   1.657
 9488SOL    HW229364   1.621   0.754   1.743
 9489SOL     OW29365   2.991   4.609   0.084
 9489SOL    HW129366   3.024   4.692   0.129
 9489SOL    HW229367   2.942   4.553   0.150
 9490SOL     OW29368   4.648   1.518   0.032
 9490SOL    HW129369   4.703   1.496   0.113
 9490SOL    HW229370   4.707   1.520   6.974
 9491SOL     OW29371   5.884   5.920   6.421
 9491SOL    HW129372   5.833   5.954   6.500
 9491SOL    HW229373   5.952   5.988   6.394
 9492SOL     OW29374   2.706   4.718   1.134
 9492SOL    HW129375   2.679   4.684   1.044
 9492SOL    HW229376   2.668   4.659   1.205
 9493SOL     OW29377   5.306   6.266   2.793
 9493SOL    HW129378   5.289   6.216   2.878
 9493SOL    HW229379   5.234   6.244   2.726
 9494SOL     OW29380   4.060   3.269   6.535
 9494SOL    HW129381   4.088   3.198   6.599
 9494SOL    HW229382   4.071   3.359   6.577
 9495SOL     OW29383   5.548   2.621   4.188
 9495SOL    HW129384   5.482   2.564   4.139
 9495SOL    HW229385   5.631   2.632   4.132
 9496SOL     OW29386   6.410   4.235   6.908
 9496SOL    HW129387   6.418   4.151   6.961
 9496SOL    HW229388   6.461   4.308   6.954
 9497SOL     OW29389   0.997   6.379   5.999
 9497SOL    HW129390   1.085   6.425   5.987
 9497SOL    HW229391   1.012   6.289   6.041
 9498SOL     OW29392   4.297   6.978   6.467
 9498SOL    HW129393   4.275   6.916   6.543
 9498SOL    HW229394   4.219   6.982   6.404
 9499SOL     OW29395   4.643   3.979   5.550
 9499SOL    HW129396   4.636   4.033   5.634
 9499SOL    HW229397   4.662   3.884   5.574
 9500SOL     OW29398   5.047   5.712   1.208
 9500SOL    HW129399   5.043   5.786   1.276
 9500SOL    HW229400   4.954   5.682   1.186
 9501SOL     OW29401   3.454   1.819   5.124
 9501SOL    HW129402   3.396   1.755   5.174
 9501SOL    HW229403   3.526   1.853   5.184
 9502SOL     OW29404   3.595   3.276   5.746
 9502SOL    HW129405   3.544   3.230   5.818
 9502SOL    HW229406   3.532   3.320   5.682
 9503SOL     OW29407   1.650   6.775   1.801
 9503SOL    HW129408   1.685   6.774   1.708
 9503SOL    HW229409   1.645   6.682   1.836
 9504SOL     OW29410   0.356   3.271   0.492
 9504SOL    HW129411   0.409   3.219   0.425
 9504SOL    HW229412   0.397   3.260   0.583
 9505SOL     OW29413   5.277   3.274   2.983
 9505SOL    HW129414   5.271   3.205   2.911
 9505SOL    HW229415   5.319   3.357   2.946
 9506SOL     OW29416   6.600   2.299   1.460
 9506SOL    HW129417   6.689   2.270   1.494
 9506SOL    HW229418   6.595   2.399   1.460
 9507SOL     OW29419   1.263   2.776   5.219
 9507SOL    HW129420   1.262   2.791   5.318
 9507SOL    HW229421   1.202   2.842   5.175
 9508SOL     OW29422   4.738   1.356   5.718
 9508SOL    HW129423   4.691   1.392   5.798
 9508SOL    HW229424   4.831   1.394   5.714
 9509SOL     OW29425   3.706   6.765   6.216
 9509SOL    HW129426   3.688   6.846   6.161
 9509SOL    HW229427   3.786   6.717   6.180
 9510SOL     OW29428   6.152   3.804   3.215
 9510SOL    HW129429   6.067   3.828   3.168
 9510SOL    HW229430   6.216   3.766   3.149
 9511SOL     OW29431   2.094   1.454   1.019
 9511SOL    HW129432   2.017   1.515   1.002
 9511SOL    HW229433   2.063   1.373   1.069
 9512SOL     OW29434   1.336   3.750   5.431
 9512SOL    HW129435   1.325   3.651   5.428
 9512SOL    HW229436   1.332   3.787   5.339
 9513SOL     OW29437   2.279   4.175   4.541
 9513SOL    HW129438   2.352   4.215   4.596
 9513SOL    HW229439   2.234   4.102   4.592
 9514SOL     OW29440   3.249   2.700   5.677
 9514SOL    HW129441   3.274   2.604   5.668
 9514SOL    HW229442   3.185   2.725   5.605
 9515SOL     OW29443   2.072   6.106   5.778
 9515SOL    HW129444   2.139   6.068   5.714
 9515SOL    HW229445   1.996   6.042   5.789
 9516SOL     OW29446   5.718   4.430   4.742
 9516SOL    HW129447   5.768   4.493   4.682
 9516SOL    HW229448   5.632   4.404   4.698
 9517SOL     OW29449   0.771   5.234   2.961
 9517SOL    HW129450   0.680   5.202   2.987
 9517SOL    HW229451   0.783   5.222   2.862
 9518SOL     OW29452   1.059   2.955   5.679
 9518SOL    HW129453   1.135   3.004   5.635
 9518SOL    HW229454   0.984   3.018   5.698
 9519SOL     OW29455   3.188   3.307   3.716
 9519SOL    HW129456   3.165   3.313   3.619
 9519SOL    HW229457   3.108   3.331   3.771
 9520SOL     OW29458   5.222   1.067   6.703
 9520SOL    HW129459   5.173   0.985   6.674
 9520SOL    HW229460   5.229   1.067   6.803
 9521SOL     OW29461   3.618   0.953   1.017
 9521SOL    HW129462   3.674   0.899   1.080
 9521SOL    HW229463   3.532   0.978   1.062
 9522SOL     OW29464   3.722   6.603   1.045
 9522SOL    HW129465   3.688   6.626   0.953
 9522SOL    HW229466   3.669   6.528   1.083
 9523SOL     OW29467   2.561   5.075   4.839
 9523SOL    HW129468   2.657   5.062   4.863
 9523SOL    HW229469   2.509   5.096   4.922
 9524SOL     OW29470   1.872   4.179   0.203
 9524SOL    HW129471   1.889   4.278   0.197
 9524SOL    HW229472   1.957   4.130   0.183
 9525SOL     OW29473   2.294   3.082   6.443
 9525SOL    HW129474   2.247   3.148   6.385
 9525SOL    HW229475   2.392   3.083   6.423
 9526SOL     OW29476   5.240   5.401   5.887
 9526SOL    HW129477   5.233   5.317   5.833
 9526SOL    HW229478   5.162   5.460   5.865
 9527SOL     OW29479   4.001   6.776   4.464
 9527SOL    HW129480   4.070   6.772   4.536
 9527SOL    HW229481   3.927   6.713   4.485
 9528SOL     OW29482   4.869   2.380   0.444
 9528SOL    HW129483   4.830   2.290   0.426
 9528SOL    HW229484   4.844   2.443   0.371
 9529SOL     OW29485   5.715   0.816   1.990
 9529SOL    HW129486   5.713   0.757   2.071
 9529SOL    HW229487   5.623   0.820   1.950
 9530SOL     OW29488   0.881   5.618   3.671
 9530SOL    HW129489   0.974   5.636   3.640
 9530SOL    HW229490   0.830   5.704   3.679
 9531SOL     OW29491   3.108   5.654   1.570
 9531SOL    HW129492   3.091   5.621   1.477
 9531SOL    HW229493   3.038   5.617   1.631
 9532SOL     OW29494   0.205   5.100   4.440
 9532SOL    HW129495   0.268   5.069   4.512
 9532SOL    HW229496   0.176   5.022   4.385
 9533SOL     OW29497   1.178   4.032   3.703
 9533SOL    HW129498   1.229   3.959   3.751
 9533SOL    HW229499   1.224   4.119   3.718
 9534SOL     OW29500   4.544   5.914   4.420
 9534SOL    HW129501   4.537   5.956   4.510
 9534SOL    HW229502   4.632   5.939   4.378
 9535SOL     OW29503   0.163   1.659   4.461
 9535SOL    HW129504   0.219   1.676   4.542
 9535SOL    HW229505   0.086   1.723   4.459
 9536SOL     OW29506   3.793   3.629   5.573
 9536SOL    HW129507   3.779   3.544   5.623
 9536SOL    HW229508   3.890   3.654   5.576
 9537SOL     OW29509   0.023   1.092   4.096
 9537SOL    HW129510   0.025   1.115   4.194
 9537SOL    HW229511   6.957   1.119   4.058
 9538SOL     OW29512   5.563   0.536   5.087
 9538SOL    HW129513   5.576   0.526   4.989
 9538SOL    HW229514   5.615   0.465   5.135
 9539SOL     OW29515   3.516   3.838   2.631
 9539SOL    HW129516   3.506   3.757   2.573
 9539SOL    HW229517   3.559   3.812   2.717
 9540SOL     OW29518   3.993   4.974   3.186
 9540SOL    HW129519   3.966   4.908   3.115
 9540SOL    HW229520   4.092   4.974   3.196
 9541SOL     OW29521   1.579   5.864   5.741
 9541SOL    HW129522   1.488   5.834   5.715
 9541SOL    HW229523   1.593   5.959   5.711
 9542SOL     OW29524   6.310   3.708   3.019
 9542SOL    HW129525   6.310   3.610   3.039
 9542SOL    HW229526   6.376   3.727   2.947
 9543SOL     OW29527   2.569   0.184   5.786
 9543SOL    HW129528   2.593   0.215   5.877
 9543SOL    HW229529   2.633   0.222   5.719
 9544SOL     OW29530   6.383   3.625   4.640
 9544SOL    HW129531   6.364   3.719   4.611
 9544SOL    HW229532   6.315   3.564   4.599
 9545SOL     OW29533   6.688   4.093   2.077
 9545SOL    HW129534   6.603   4.132   2.041
 9545SOL    HW229535   6.717   4.017   2.018
 9546SOL     OW29536   2.828   2.886   1.125
 9546SOL    HW129537   2.804   2.914   1.218
 9546SOL    HW229538   2.767   2.932   1.060
 9547SOL     OW29539   4.440   0.445   3.477
 9547SOL    HW129540   4.366   0.483   3.422
 9547SOL    HW229541   4.464   0.509   3.549
 9548SOL     OW29542   0.726   5.064   6.137
 9548SOL    HW129543   0.706   5.100   6.228
 9548SOL    HW229544   0.676   5.117   6.069
 9549SOL     OW29545   4.209   1.412   1.701
 9549SOL    HW129546   4.302   1.448   1.687
 9549SOL    HW229547   4.185   1.421   1.798
 9550SOL     OW29548   6.841   2.762   1.727
 9550SOL    HW129549   6.746   2.731   1.723
 9550SOL    HW229550   6.842   2.861   1.742
 9551SOL     OW29551   6.001   3.024   6.542
 9551SOL    HW129552   6.058   3.104   6.557
 9551SOL    HW229553   5.968   3.022   6.448
 9552SOL     OW29554   3.095   1.733   6.953
 9552SOL    HW129555   3.058   1.641   6.944
 9552SOL    HW229556   3.036   1.787   7.014
 9553SOL     OW29557   5.596   1.540   0.072
 9553SOL    HW129558   5.676   1.491   0.037
 9553SOL    HW229559   5.599   1.635   0.040
 9554SOL     OW29560   2.979   1.213   4.608
 9554SOL    HW129561   2.952   1.308   4.626
 9554SOL    HW229562   2.985   1.198   4.509
 9555SOL     OW29563   0.098   6.086   3.150
 9555SOL    HW129564   0.060   6.100   3.242
 9555SOL    HW229565   0.191   6.124   3.146
 9556SOL     OW29566   2.244   4.499   6.554
 9556SOL    HW129567   2.230   4.477   6.651
 9556SOL    HW229568   2.157   4.525   6.513
 9557SOL     OW29569   5.882   0.734   1.234
 9557SOL    HW129570   5.823   0.808   1.266
 9557SOL    HW229571   5.845   0.647   1.267
 9558SOL     OW29572   5.025   6.270   6.423
 9558SOL    HW129573   5.125   6.281   6.422
 9558SOL    HW229574   4.983   6.342   6.369
 9559SOL     OW29575   2.341   4.530   7.007
 9559SOL    HW129576   2.260   4.498   0.033
 9559SOL    HW229577   2.419   4.534   0.047
 9560SOL     OW29578   2.501   0.020   2.475
 9560SOL    HW129579   2.416   7.021   2.427
 9560SOL    HW229580   2.537   0.107   2.441
 9561SOL     OW29581   0.043   0.793   7.020
 9561SOL    HW129582   0.068   0.844   0.079
 9561SOL    HW229583   0.122   0.743   6.985
 9562SOL     OW29584   1.834   5.986   2.936
 9562SOL    HW129585   1.930   5.959   2.929
 9562SOL    HW229586   1.821   6.041   3.018
 9563SOL     OW29587   0.975   5.927   6.465
 9563SOL    HW129588   0.924   5.960   6.385
 9563SOL    HW229589   0.945   5.978   6.546
 9564SOL     OW29590   1.107   1.196   0.927
 9564SOL    HW129591   1.161   1.236   0.852
 9564SOL    HW229592   1.162   1.128   0.975
 9565SOL     OW29593   2.361   2.054   4.413
 9565SOL    HW129594   2.263   2.055   4.392
 9565SOL    HW229595   2.413   2.059   4.328
 9566SOL     OW29596   3.273   0.074   6.962
 9566SOL    HW129597   3.359   0.122   6.981
 9566SOL    HW229598   3.198   0.141   6.961
 9567SOL     OW29599   0.144   4.202   1.378
 9567SOL    HW129600   0.049   4.180   1.358
 9567SOL    HW229601   0.186   4.246   1.299
 9568SOL     OW29602   4.463   1.781   6.345
 9568SOL    HW129603   4.390   1.817   6.404
 9568SOL    HW229604   4.495   1.694   6.382
 9569SOL     OW29605   5.626   0.002   2.306
 9569SOL    HW129606   5.610   7.011   2.403
 9569SOL    HW229607   5.539   0.022   2.260
 9570SOL     OW29608   0.992   3.852   2.166
 9570SOL    HW129609   1.065   3.920   2.158
 9570SOL    HW229610   1.010   3.776   2.103
 9571SOL     OW29611   1.643   1.277   6.526
 9571SOL    HW129612   1.718   1.212   6.520
 9571SOL    HW229613   1.557   1.230   6.504
 9572SOL     OW29614   2.186   4.795   4.342
 9572SOL    HW129615   2.123   4.830   4.273
 9572SOL    HW229616   2.138   4.783   4.429
 9573SOL     OW29617   6.104   6.800   4.453
 9573SOL    HW129618   6.085   6.702   4.445
 9573SOL    HW229619   6.197   6.818   4.420
 9574SOL     OW29620   4.596   2.938   0.228
 9574SOL    HW129621   4.685   2.983   0.227
 9574SOL    HW229622   4.525   3.004   0.256
 9575SOL     OW29623   5.311   6.821   2.202
 9575SOL    HW129624   5.221   6.829   2.245
 9575SOL    HW229625   5.350   6.912   2.188
 9576SOL     OW29626   1.305   1.405   6.033
 9576SOL    HW129627   1.388   1.356   6.060
 9576SOL    HW229628   1.225   1.345   6.045
 9577SOL     OW29629   6.638   4.850   3.239
 9577SOL    HW129630   6.580   4.802   3.174
 9577SOL    HW229631   6.700   4.785   3.283
 9578SOL     OW29632   2.114   3.267   2.711
 9578SOL    HW129633   2.127   3.337   2.641
 9578SOL    HW229634   2.103   3.310   2.800
 9579SOL     OW29635   6.192   5.751   2.628
 9579SOL    HW129636   6.290   5.752   2.608
 9579SOL    HW229637   6.178   5.725   2.724
 9580SOL     OW29638   4.945   4.098   3.378
 9580SOL    HW129639   4.906   4.131   3.463
 9580SOL    HW229640   4.974   4.176   3.322
 9581SOL     OW29641   5.507   2.073   6.202
 9581SOL    HW129642   5.471   1.989   6.243
 9581SOL    HW229643   5.437   2.114   6.143
 9582SOL     OW29644   5.031   6.509   4.769
 9582SOL    HW129645   5.108   6.463   4.725
 9582SOL    HW229646   5.007   6.590   4.716
 9583SOL     OW29647   3.180   5.018   1.344
 9583SOL    HW129648   3.106   5.080   1.369
 9583SOL    HW229649   3.224   4.983   1.427
 9584SOL     OW29650   2.519   5.321   4.318
 9584SOL    HW129651   2.568   5.237   4.344
 9584SOL    HW229652   2.527   5.388   4.391
 9585SOL     OW29653   4.492   6.734   0.937
 9585SOL    HW129654   4.418   6.731   0.870
 9585SOL    HW229655   4.455   6.731   1.029
 9586SOL     OW29656   3.033   5.616   2.901
 9586SOL    HW129657   3.096   5.578   2.969
 9586SOL    HW229658   3.083   5.671   2.836
 9587SOL     OW29659   3.332   6.535   0.394
 9587SOL    HW129660   3.246   6.504   0.435
 9587SOL    HW229661   3.312   6.600   0.321
 9588SOL     OW29662   6.616   6.031   0.164
 9588SOL    HW129663   6.603   6.070   0.255
 9588SOL    HW229664   6.701   5.979   0.161
 9589SOL     OW29665   1.685   2.024   6.441
 9589SOL    HW129666   1.781   2.042   6.464
 9589SOL    HW229667   1.676   1.929   6.413
 9590SOL     OW29668   6.388   0.610   1.063
 9590SOL    HW129669   6.413   0.519   1.097
 9590SOL    HW229670   6.421   0.680   1.126
 9591SOL     OW29671   5.444   0.831   0.450
 9591SOL    HW129672   5.445   0.926   0.418
 9591SOL    HW229673   5.518   0.818   0.517
 9592SOL     OW29674   2.726   6.040   5.644
 9592SOL    HW129675   2.729   6.139   5.654
 9592SOL    HW229676   2.665   6.016   5.568
 9593SOL     OW29677   2.290   2.464   3.937
 9593SOL    HW129678   2.299   2.386   3.997
 9593SOL    HW229679   2.336   2.543   3.977
 9594SOL     OW29680   0.089   6.413   3.285
 9594SOL    HW129681   0.022   6.344   3.311
 9594SOL    HW229682   0.137   6.384   3.203
 9595SOL     OW29683   0.618   3.542   3.704
 9595SOL    HW129684   0.591   3.611   3.637
 9595SOL    HW229685   0.683   3.581   3.769
 9596SOL     OW29686   1.723   6.902   0.674
 9596SOL    HW129687   1.679   6.870   0.758
 9596SOL    HW229688   1.782   6.830   0.638
 9597SOL     OW29689   1.046   3.653   1.987
 9597SOL    HW129690   0.968   3.610   1.941
 9597SOL    HW229691   1.104   3.699   1.919
 9598SOL     OW29692   2.031   4.285   4.144
 9598SOL    HW129693   1.948   4.318   4.191
 9598SOL    HW229694   2.078   4.363   4.102
 9599SOL     OW29695   4.604   6.873   4.755
 9599SOL    HW129696   4.673   6.917   4.813
 9599SOL    HW229697   4.633   6.879   4.660
 9600SOL     OW29698   3.715   1.159   0.855
 9600SOL    HW129699   3.636   1.212   0.826
 9600SOL    HW229700   3.687   1.092   0.924
 9601SOL     OW29701   0.925   3.680   0.765
 9601SOL    HW129702   0.861   3.698   0.690
 9601SOL    HW229703   0.879   3.629   0.837
 9602SOL     OW29704   4.294   4.276   5.630
 9602SOL    HW129705   4.289   4.183   5.594
 9602SOL    HW229706   4.319   4.339   5.556
 9603SOL     OW29707   5.196   6.986   5.866
 9603SOL    HW129708   5.290   6.996   5.832
 9603SOL    HW229709   5.168   0.047   5.911
 9604SOL     OW29710   4.734   6.988   1.745
 9604SOL    HW129711   4.816   0.009   1.782
 9604SOL    HW229712   4.715   0.001   1.654
 9605SOL     OW29713   5.211   5.349   1.533
 9605SOL    HW129714   5.284   5.404   1.573
 9605SOL    HW229715   5.179   5.282   1.600
 9606SOL     OW29716   1.001   1.443   6.419
 9606SOL    HW129717   1.058   1.361   6.424
 9606SOL    HW229718   0.944   1.448   6.501
 9607SOL     OW29719   1.879   2.312   6.672
 9607SOL    HW129720   1.909   2.396   6.718
 9607SOL    HW229721   1.905   2.233   6.727
 9608SOL     OW29722   5.718   2.241   4.686
 9608SOL    HW129723   5.658   2.187   4.745
 9608SOL    HW229724   5.663   2.292   4.621
 9609SOL     OW29725   4.922   2.994   0.620
 9609SOL    HW129726   4.892   3.088   0.599
 9609SOL    HW229727   4.857   2.952   0.683
 9610SOL     OW29728   1.078   4.458   2.968
 9610SOL    HW129729   1.137   4.399   3.023
 9610SOL    HW229730   1.088   4.553   2.998
 9611SOL     OW29731   1.920   0.846   0.326
 9611SOL    HW129732   1.973   0.793   0.391
 9611SOL    HW229733   1.890   0.932   0.368
 9612SOL     OW29734   0.093   1.894   3.628
 9612SOL    HW129735   0.099   1.846   3.541
 9612SOL    HW229736   0.140   1.841   3.699
 9613SOL     OW29737   5.984   4.604   3.914
 9613SOL    HW129738   6.072   4.638   3.945
 9613SOL    HW229739   5.984   4.594   3.814
 9614SOL     OW29740   4.184   2.120   3.150
 9614SOL    HW129741   4.235   2.072   3.221
 9614SOL    HW229742   4.244   2.188   3.107
 9615SOL     OW29743   1.848   4.537   1.381
 9615SOL    HW129744   1.887   4.615   1.430
 9615SOL    HW229745   1.911   4.459   1.388
 9616SOL     OW29746   4.427   3.534   5.966
 9616SOL    HW129747   4.382   3.595   6.031
 9616SOL    HW229748   4.366   3.458   5.943
 9617SOL     OW29749   1.825   3.167   2.616
 9617SOL    HW129750   1.767   3.179   2.536
 9617SOL    HW229751   1.921   3.162   2.587
 9618SOL     OW29752   2.642   2.334   0.328
 9618SOL    HW129753   2.584   2.266   0.374
 9618SOL    HW229754   2.700   2.379   0.396
 9619SOL     OW29755   2.217   0.667   6.850
 9619SOL    HW129756   2.224   0.574   6.814
 9619SOL    HW229757   2.308   0.707   6.856
 9620SOL     OW29758   5.240   0.574   4.969
 9620SOL    HW129759   5.154   0.603   4.926
 9620SOL    HW229760   5.307   0.648   4.961
 9621SOL     OW29761   1.903   3.815   2.994
 9621SOL    HW129762   1.868   3.870   2.917
 9621SOL    HW229763   1.845   3.734   3.006
 9622SOL     OW29764   4.478   0.199   0.067
 9622SOL    HW129765   4.443   0.159   7.005
 9622SOL    HW229766   4.555   0.259   0.047
 9623SOL     OW29767   1.764   3.884   0.147
 9623SOL    HW129768   1.680   3.880   0.093
 9623SOL    HW229769   1.802   3.976   0.144
 9624SOL     OW29770   6.242   3.083   3.764
 9624SOL    HW129771   6.176   3.143   3.808
 9624SOL    HW229772   6.333   3.101   3.801
 9625SOL     OW29773   5.457   6.215   1.660
 9625SOL    HW129774   5.430   6.306   1.630
 9625SOL    HW229775   5.553   6.199   1.635
 9626SOL     OW29776   3.328   0.294   0.562
 9626SOL    HW129777   3.388   0.326   0.489
 9626SOL    HW229778   3.353   0.339   0.648
 9627SOL     OW29779   0.684   0.145   6.875
 9627SOL    HW129780   0.652   0.139   6.969
 9627SOL    HW229781   0.770   0.197   6.872
 9628SOL     OW29782   3.440   6.936   1.834
 9628SOL    HW129783   3.413   6.862   1.895
 9628SOL    HW229784   3.387   7.018   1.856
 9629SOL     OW29785   2.645   0.286   1.145
 9629SOL    HW129786   2.723   0.227   1.121
 9629SOL    HW229787   2.562   0.250   1.103
 9630SOL     OW29788   6.923   2.153   6.376
 9630SOL    HW129789   6.921   2.058   6.344
 9630SOL    HW229790   6.963   2.158   6.467
 9631SOL     OW29791   6.895   6.015   0.210
 9631SOL    HW129792   6.950   6.021   0.127
 9631SOL    HW229793   6.912   6.094   0.268
 9632SOL     OW29794   1.212   5.466   2.678
 9632SOL    HW129795   1.117   5.495   2.690
 9632SOL    HW229796   1.220   5.413   2.593
 9633SOL     OW29797   0.104   5.394   6.434
 9633SOL    HW129798   0.134   5.485   6.403
 9633SOL    HW229799   0.018   5.370   6.389
 9634SOL     OW29800   0.806   5.992   5.821
 9634SOL    HW129801   0.709   6.012   5.834
 9634SOL    HW229802   0.833   5.917   5.882
 9635SOL     OW29803   0.319   6.155   5.212
 9635SOL    HW129804   0.386   6.179   5.142
 9635SOL    HW229805   0.284   6.063   5.196
 9636SOL     OW29806   4.083   1.633   0.347
 9636SOL    HW129807   4.122   1.702   0.407
 9636SOL    HW229808   4.078   1.668   0.254
 9637SOL     OW29809   2.462   0.729   6.317
 9637SOL    HW129810   2.507   0.777   6.392
 9637SOL    HW229811   2.367   0.711   6.341
 9638SOL     OW29812   6.426   2.394   6.663
 9638SOL    HW129813   6.458   2.489   6.673
 9638SOL    HW229814   6.503   2.336   6.635
 9639SOL     OW29815   3.542   0.401   2.525
 9639SOL    HW129816   3.539   0.465   2.601
 9639SOL    HW229817   3.624   0.344   2.532
 9640SOL     OW29818   1.207   1.641   2.826
 9640SOL    HW129819   1.199   1.555   2.877
 9640SOL    HW229820   1.137   1.643   2.754
 9641SOL     OW29821   5.512   5.800   6.287
 9641SOL    HW129822   5.474   5.733   6.224
 9641SOL    HW229823   5.513   5.763   6.379
 9642SOL     OW29824   3.413   6.575   3.387
 9642SOL    HW129825   3.339   6.564   3.321
 9642SOL    HW229826   3.453   6.666   3.377
 9643SOL     OW29827   4.325   4.968   2.771
 9643SOL    HW129828   4.273   5.038   2.820
 9643SOL    HW229829   4.269   4.886   2.761
 9644SOL     OW29830   2.630   1.415   0.695
 9644SOL    HW129831   2.719   1.407   0.740
 9644SOL    HW229832   2.616   1.336   0.635
 9645SOL     OW29833   2.494   5.392   4.590
 9645SOL    HW129834   2.422   5.323   4.582
 9645SOL    HW229835   2.565   5.359   4.652
 9646SOL     OW29836   3.644   5.315   3.957
 9646SOL    HW129837   3.604   5.386   4.015
 9646SOL    HW229838   3.599   5.228   3.975
 9647SOL     OW29839   6.588   2.993   6.065
 9647SOL    HW129840   6.554   3.082   6.038
 9647SOL    HW229841   6.629   2.999   6.156
 9648SOL     OW29842   4.420   3.661   0.828
 9648SOL    HW129843   4.442   3.660   0.926
 9648SOL    HW229844   4.462   3.582   0.784
 9649SOL     OW29845   2.256   5.224   1.850
 9649SOL    HW129846   2.320   5.253   1.921
 9649SOL    HW229847   2.179   5.177   1.892
 9650SOL     OW29848   1.495   0.363   1.217
 9650SOL    HW129849   1.586   0.339   1.249
 9650SOL    HW229850   1.426   0.323   1.278
 9651SOL     OW29851   0.291   1.790   0.089
 9651SOL    HW129852   0.287   1.744   7.022
 9651SOL    HW229853   0.234   1.740   0.155
 9652SOL     OW29854   1.225   4.851   1.791
 9652SOL    HW129855   1.139   4.840   1.741
 9652SOL    HW229856   1.299   4.865   1.726
 9653SOL     OW29857   5.653   6.131   4.329
 9653SOL    HW129858   5.743   6.148   4.368
 9653SOL    HW229859   5.582   6.156   4.395
 9654SOL     OW29860   2.067   3.094   2.467
 9654SOL    HW129861   2.112   3.111   2.554
 9654SOL    HW229862   2.111   3.148   2.396
 9655SOL     OW29863   6.154   1.938   6.848
 9655SOL    HW129864   6.236   1.964   6.900
 9655SOL    HW229865   6.168   1.961   6.752
 9656SOL     OW29866   2.690   1.663   3.258
 9656SOL    HW129867   2.677   1.718   3.341
 9656SOL    HW229868   2.776   1.613   3.265
 9657SOL     OW29869   6.727   0.294   4.918
 9657SOL    HW129870   6.757   0.332   5.006
 9657SOL    HW229871   6.793   0.226   4.887
 9658SOL     OW29872   6.008   1.525   2.672
 9658SOL    HW129873   5.945   1.591   2.711
 9658SOL    HW229874   6.033   1.457   2.742
 9659SOL     OW29875   1.170   5.249   6.963
 9659SOL    HW129876   1.238   5.289   6.903
 9659SOL    HW229877   1.150   5.156   6.932
 9660SOL     OW29878   0.976   5.378   0.307
 9660SOL    HW129879   0.909   5.437   0.263
 9660SOL    HW229880   0.931   5.322   0.376
 9661SOL     OW29881   3.856   0.579   0.608
 9661SOL    HW129882   3.918   0.643   0.653
 9661SOL    HW229883   3.907   0.496   0.582
 9662SOL     OW29884   5.900   1.822   4.100
 9662SOL    HW129885   5.961   1.896   4.072
 9662SOL    HW229886   5.954   1.744   4.132
 9663SOL     OW29887   2.444   5.969   2.979
 9663SOL    HW129888   2.347   5.992   2.967
 9663SOL    HW229889   2.453   5.900   3.051
 9664SOL     OW29890   2.833   5.774   1.359
 9664SOL    HW129891   2.788   5.857   1.390
 9664SOL    HW229892   2.835   5.707   1.434
 9665SOL     OW29893   5.386   4.485   3.692
 9665SOL    HW129894   5.469   4.498   3.637
 9665SOL    HW229895   5.327   4.565   3.682
 9666SOL     OW29896   5.926   4.679   4.755
 9666SOL    HW129897   5.892   4.644   4.667
 9666SOL    HW229898   5.853   4.730   4.801
 9667SOL     OW29899   2.936   3.627   3.648
 9667SOL    HW129900   2.919   3.719   3.612
 9667SOL    HW229901   2.927   3.628   3.748
 9668SOL     OW29902   0.002   1.863   5.365
 9668SOL    HW129903   6.943   1.825   5.408
 9668SOL    HW229904   0.038   1.937   5.422
 9669SOL     OW29905   1.760   6.551   0.150
 9669SOL    HW129906   1.662   6.542   0.166
 9669SOL    HW229907   1.798   6.619   0.213
 9670SOL     OW29908   5.876   4.263   6.458
 9670SOL    HW129909   5.917   4.232   6.372
 9670SOL    HW229910   5.942   4.319   6.509
 9671SOL     OW29911   6.859   0.947   0.002
 9671SOL    HW129912   6.875   1.014   0.074
 9671SOL    HW229913   6.940   0.889   7.014
 9672SOL     OW29914   0.930   6.485   5.396
 9672SOL    HW129915   0.954   6.552   5.467
 9672SOL    HW229916   0.866   6.526   5.332
 9673SOL     OW29917   2.254   2.486   6.272
 9673SOL    HW129918   2.183   2.487   6.201
 9673SOL    HW229919   2.321   2.557   6.252
 9674SOL     OW29920   2.459   6.526   2.287
 9674SOL    HW129921   2.369   6.511   2.328
 9674SOL    HW229922   2.494   6.440   2.250
 9675SOL     OW29923   0.184   2.184   2.413
 9675SOL    HW129924   0.245   2.253   2.374
 9675SOL    HW229925   0.112   2.162   2.347
 9676SOL     OW29926   6.789   2.544   4.820
 9676SOL    HW129927   6.759   2.523   4.913
 9676SOL    HW229928   6.753   2.634   4.794
 9677SOL     OW29929   1.719   3.248   5.751
 9677SOL    HW129930   1.704   3.265   5.848
 9677SOL    HW229931   1.639   3.201   5.713
 9678SOL     OW29932   3.652   3.575   3.041
 9678SOL    HW129933   3.637   3.582   2.943
 9678SOL    HW229934   3.707   3.493   3.060
 9679SOL     OW29935   0.921   3.985   0.957
 9679SOL    HW129936   0.895   3.989   1.054
 9679SOL    HW229937   0.865   3.916   0.911
 9680SOL     OW29938   4.760   5.004   2.714
 9680SOL    HW129939   4.691   4.968   2.777
 9680SOL    HW229940   4.745   5.102   2.702
 9681SOL     OW29941   0.512   0.874   4.138
 9681SOL    HW129942   0.506   0.776   4.156
 9681SOL    HW229943   0.587   0.913   4.192
 9682SOL     OW29944   0.552   4.230   2.705
 9682SOL    HW129945   0.495   4.154   2.676
 9682SOL    HW229946   0.638   4.229   2.654
 9683SOL     OW29947   4.430   0.114   5.211
 9683SOL    HW129948   4.379   0.191   5.172
 9683SOL    HW229949   4.489   0.148   5.284
 9684SOL     OW29950   1.111   4.181   3.474
 9684SOL    HW129951   1.202   4.219   3.452
 9684SOL    HW229952   1.120   4.113   3.546
 9685SOL     OW29953   2.204   1.668   6.709
 9685SOL    HW129954   2.295   1.702   6.684
 9685SOL    HW229955   2.157   1.635   6.628
 9686SOL     OW29956   5.721   2.949   1.836
 9686SOL    HW129957   5.801   2.921   1.890
 9686SOL    HW229958   5.648   2.883   1.849
 9687SOL     OW29959   3.299   1.162   4.446
 9687SOL    HW129960   3.292   1.070   4.485
 9687SOL    HW229961   3.381   1.207   4.483
 9688SOL     OW29962   5.687   1.565   4.477
 9688SOL    HW129963   5.619   1.607   4.537
 9688SOL    HW229964   5.684   1.609   4.387
 9689SOL     OW29965   2.782   5.050   5.285
 9689SOL    HW129966   2.858   5.084   5.229
 9689SOL    HW229967   2.704   5.028   5.226
 9690SOL     OW29968   6.477   3.602   0.385
 9690SOL    HW129969   6.489   3.510   0.350
 9690SOL    HW229970   6.552   3.625   0.447
 9691SOL     OW29971   1.465   4.787   0.554
 9691SOL    HW129972   1.551   4.781   0.502
 9691SOL    HW229973   1.482   4.836   0.640
 9692SOL     OW29974   2.992   5.620   0.495
 9692SOL    HW129975   3.015   5.529   0.460
 9692SOL    HW229976   2.924   5.663   0.435
 9693SOL     OW29977   5.898   5.749   1.508
 9693SOL    HW129978   5.921   5.807   1.587
 9693SOL    HW229979   5.804   5.767   1.479
 9694SOL     OW29980   0.891   1.487   0.485
 9694SOL    HW129981   0.959   1.556   0.462
 9694SOL    HW229982   0.803   1.532   0.501
 9695SOL     OW29983   6.515   4.474   0.061
 9695SOL    HW129984   6.553   4.534   0.131
 9695SOL    HW229985   6.441   4.420   0.100
 9696SOL     OW29986   4.017   4.317   0.360
 9696SOL    HW129987   3.997   4.277   0.449
 9696SOL    HW229988   4.008   4.417   0.366
 9697SOL     OW29989   0.325   5.974   6.330
 9697SOL    HW129990   0.363   6.039   6.396
 9697SOL    HW229991   0.248   6.015   6.283
 9698SOL     OW29992   4.990   1.564   5.454
 9698SOL    HW129993   4.928   1.563   5.376
 9698SOL    HW229994   5.037   1.653   5.458
 9699SOL     OW29995   1.629   2.408   6.548
 9699SOL    HW129996   1.539   2.368   6.529
 9699SOL    HW229997   1.697   2.335   6.549
 9700SOL     OW29998   4.010   3.301   3.351
 9700SOL    HW129999   4.016   3.400   3.364
 9700SOL    HW230000   4.005   3.257   3.440
 9701SOL     OW30001   5.037   4.473   4.316
 9701SOL    HW130002   5.087   4.387   4.303
 9701SOL    HW230003   5.022   4.516   4.227
 9702SOL     OW30004   5.443   0.453   0.980
 9702SOL    HW130005   5.376   0.521   1.010
 9702SOL    HW230006   5.473   0.474   0.887
 9703SOL     OW30007   2.589   5.842   4.395
 9703SOL    HW130008   2.645   5.761   4.375
 9703SOL    HW230009   2.640   5.925   4.372
 9704SOL     OW30010   2.307   1.264   3.781
 9704SOL    HW130011   2.293   1.339   3.845
 9704SOL    HW230012   2.232   1.261   3.715
 9705SOL     OW30013   3.479   4.150   0.724
 9705SOL    HW130014   3.517   4.242   0.730
 9705SOL    HW230015   3.549   4.084   0.752
 9706SOL     OW30016   0.135   2.590   3.708
 9706SOL    HW130017   0.226   2.617   3.739
 9706SOL    HW230018   0.103   2.513   3.764
 9707SOL     OW30019   2.951   5.492   1.870
 9707SOL    HW130020   2.917   5.510   1.962
 9707SOL    HW230021   3.020   5.419   1.874
 9708SOL     OW30022   1.973   1.963   1.573
 9708SOL    HW130023   2.066   1.953   1.539
 9708SOL    HW230024   1.920   2.021   1.511
 9709SOL     OW30025   1.727   6.491   3.647
 9709SOL    HW130026   1.791   6.434   3.699
 9709SOL    HW230027   1.768   6.515   3.559
 9710SOL     OW30028   1.032   0.034   3.843
 9710SOL    HW130029   1.042   0.074   3.752
 9710SOL    HW230030   1.111   0.058   3.899
 9711SOL     OW30031   1.329   3.191   6.602
 9711SOL    HW130032   1.273   3.110   6.620
 9711SOL    HW230033   1.377   3.179   6.515
 9712SOL     OW30034   4.895   3.674   4.736
 9712SOL    HW130035   4.843   3.652   4.818
 9712SOL    HW230036   4.889   3.598   4.671
 9713SOL     OW30037   0.062   4.925   3.057
 9713SOL    HW130038   7.000   4.965   3.022
 9713SOL    HW230039   0.042   4.838   3.102
 9714SOL     OW30040   2.511   1.859   2.633
 9714SOL    HW130041   2.516   1.947   2.587
 9714SOL    HW230042   2.563   1.791   2.582
 9715SOL     OW30043   6.160   5.520   6.049
 9715SOL    HW130044   6.189   5.467   5.970
 9715SOL    HW230045   6.133   5.457   6.123
 9716SOL     OW30046   3.252   0.881   5.999
 9716SOL    HW130047   3.344   0.856   6.028
 9716SOL    HW230048   3.235   0.845   5.907
 9717SOL     OW30049   5.404   5.101   3.174
 9717SOL    HW130050   5.342   5.023   3.182
 9717SOL    HW230051   5.352   5.186   3.180
 9718SOL     OW30052   5.312   3.177   1.740
 9718SOL    HW130053   5.383   3.132   1.686
 9718SOL    HW230054   5.335   3.273   1.753
 9719SOL     OW30055   0.089   1.405   0.024
 9719SOL    HW130056   0.018   1.366   6.988
 9719SOL    HW230057   0.179   1.375   7.014
 9720SOL     OW30058   0.557   0.669   0.458
 9720SOL    HW130059   0.578   0.597   0.392
 9720SOL    HW230060   0.607   0.652   0.542
 9721SOL     OW30061   0.511   2.592   3.550
 9721SOL    HW130062   0.583   2.522   3.545
 9721SOL    HW230063   0.444   2.574   3.478
 9722SOL     OW30064   0.129   0.139   4.511
 9722SOL    HW130065   0.083   0.119   4.425
 9722SOL    HW230066   0.188   0.219   4.499
 9723SOL     OW30067   6.652   0.304   3.981
 9723SOL    HW130068   6.599   0.223   4.006
 9723SOL    HW230069   6.642   0.321   3.883
 9724SOL     OW30070   4.196   2.836   1.718
 9724SOL    HW130071   4.184   2.915   1.778
 9724SOL    HW230072   4.124   2.837   1.649
 9725SOL     OW30073   3.724   3.161   5.438
 9725SOL    HW130074   3.716   3.229   5.365
 9725SOL    HW230075   3.769   3.203   5.518
 9726SOL     OW30076   5.316   5.911   4.808
 9726SOL    HW130077   5.295   5.937   4.903
 9726SOL    HW230078   5.359   5.821   4.807
 9727SOL     OW30079   1.037   0.625   6.706
 9727SOL    HW130080   0.960   0.600   6.765
 9727SOL    HW230081   1.038   0.567   6.625
 9728SOL     OW30082   3.479   6.205   6.581
 9728SOL    HW130083   3.456   6.293   6.622
 9728SOL    HW230084   3.523   6.219   6.493
 9729SOL     OW30085   2.954   5.325   2.653
 9729SOL    HW130086   3.043   5.283   2.669
 9729SOL    HW230087   2.889   5.254   2.623
 9730SOL     OW30088   5.516   3.834   3.158
 9730SOL    HW130089   5.495   3.795   3.247
 9730SOL    HW230090   5.448   3.903   3.134
 9731SOL     OW30091   5.270   4.849   0.879
 9731SOL    HW130092   5.331   4.909   0.932
 9731SOL    HW230093   5.204   4.806   0.940
 9732SOL     OW30094   4.747   6.470   4.760
 9732SOL    HW130095   4.847   6.466   4.760
 9732SOL    HW230096   4.711   6.394   4.814
 9733SOL     OW30097   5.356   4.521   4.971
 9733SOL    HW130098   5.336   4.598   4.911
 9733SOL    HW230099   5.406   4.554   5.052
 9734SOL     OW30100   6.034   1.728   5.899
 9734SOL    HW130101   6.073   1.699   5.811
 9734SOL    HW230102   5.939   1.698   5.905
 9735SOL     OW30103   3.316   4.818   0.737
 9735SOL    HW130104   3.411   4.850   0.727
 9735SOL    HW230105   3.313   4.743   0.802
 9736SOL     OW30106   3.113   1.448   2.062
 9736SOL    HW130107   3.058   1.526   2.032
 9736SOL    HW230108   3.085   1.367   2.011
 9737SOL     OW30109   4.197   1.637   4.588
 9737SOL    HW130110   4.271   1.704   4.585
 9737SOL    HW230111   4.113   1.678   4.552
 9738SOL     OW30112   2.127   0.917   1.924
 9738SOL    HW130113   2.044   0.908   1.981
 9738SOL    HW230114   2.188   0.840   1.942
 9739SOL     OW30115   5.569   4.505   2.051
 9739SOL    HW130116   5.629   4.505   1.971
 9739SOL    HW230117   5.612   4.454   2.125
 9740SOL     OW30118   6.378   3.126   2.548
 9740SOL    HW130119   6.338   3.201   2.494
 9740SOL    HW230120   6.475   3.117   2.525
 9741SOL     OW30121   3.791   2.012   2.687
 9741SOL    HW130122   3.718   2.021   2.619
 9741SOL    HW230123   3.756   2.038   2.777
 9742SOL     OW30124   4.078   1.473   3.834
 9742SOL    HW130125   4.135   1.555   3.825
 9742SOL    HW230126   4.136   1.393   3.849
 9743SOL     OW30127   1.422   0.992   5.316
 9743SOL    HW130128   1.360   1.065   5.289
 9743SOL    HW230129   1.373   0.905   5.320
 9744SOL     OW30130   2.825   0.266   1.363
 9744SOL    HW130131   2.905   0.290   1.308
 9744SOL    HW230132   2.743   0.270   1.307
 9745SOL     OW30133   0.341   0.703   4.405
 9745SOL    HW130134   0.328   0.794   4.445
 9745SOL    HW230135   0.338   0.635   4.478
 9746SOL     OW30136   6.201   0.135   4.368
 9746SOL    HW130137   6.158   0.177   4.288
 9746SOL    HW230138   6.163   0.175   4.451
 9747SOL     OW30139   0.236   0.134   6.313
 9747SOL    HW130140   0.222   0.232   6.327
 9747SOL    HW230141   0.255   0.117   6.216
 9748SOL     OW30142   1.564   4.177   4.373
 9748SOL    HW130143   1.633   4.240   4.338
 9748SOL    HW230144   1.582   4.158   4.469
 9749SOL     OW30145   0.329   5.351   4.385
 9749SOL    HW130146   0.277   5.266   4.390
 9749SOL    HW230147   0.426   5.333   4.397
 9750SOL     OW30148   2.355   5.486   2.389
 9750SOL    HW130149   2.447   5.451   2.400
 9750SOL    HW230150   2.293   5.438   2.450
 9751SOL     OW30151   1.299   2.455   0.579
 9751SOL    HW130152   1.255   2.515   0.512
 9751SOL    HW230153   1.334   2.373   0.532
 9752SOL     OW30154   3.600   6.869   5.860
 9752SOL    HW130155   3.574   6.777   5.892
 9752SOL    HW230156   3.618   6.927   5.939
 9753SOL     OW30157   6.761   6.315   0.163
 9753SOL    HW130158   6.796   6.302   0.071
 9753SOL    HW230159   6.833   6.294   0.230
 9754SOL     OW30160   6.808   3.589   6.841
 9754SOL    HW130161   6.765   3.621   6.925
 9754SOL    HW230162   6.896   3.547   6.862
 9755SOL     OW30163   3.903   5.786   5.053
 9755SOL    HW130164   3.972   5.815   5.119
 9755SOL    HW230165   3.908   5.686   5.041
 9756SOL     OW30166   4.812   2.949   6.380
 9756SOL    HW130167   4.786   3.038   6.343
 9756SOL    HW230168   4.903   2.924   6.346
 9757SOL     OW30169   6.291   0.943   4.039
 9757SOL    HW130170   6.375   0.927   3.987
 9757SOL    HW230171   6.261   1.037   4.026
 9758SOL     OW30172   3.462   1.016   0.330
 9758SOL    HW130173   3.514   0.941   0.290
 9758SOL    HW230174   3.402   0.980   0.402
 9759SOL     OW30175   2.868   5.987   1.748
 9759SOL    HW130176   2.812   5.924   1.694
 9759SOL    HW230177   2.947   6.016   1.694
 9760SOL     OW30178   5.536   4.228   5.898
 9760SOL    HW130179   5.472   4.288   5.850
 9760SOL    HW230180   5.502   4.134   5.897
 9761SOL     OW30181   4.957   5.301   2.650
 9761SOL    HW130182   5.000   5.386   2.679
 9761SOL    HW230183   4.858   5.313   2.643
 9762SOL     OW30184   3.302   0.447   2.137
 9762SOL    HW130185   3.303   0.350   2.158
 9762SOL    HW230186   3.326   0.461   2.041
 9763SOL     OW30187   2.225   1.903   1.473
 9763SOL    HW130188   2.219   1.804   1.485
 9763SOL    HW230189   2.278   1.943   1.547
 9764SOL     OW30190   0.628   2.360   3.996
 9764SOL    HW130191   0.644   2.443   4.050
 9764SOL    HW230192   0.715   2.324   3.963
 9765SOL     OW30193   0.572   0.541   6.068
 9765SOL    HW130194   0.598   0.585   6.154
 9765SOL    HW230195   0.489   0.486   6.082
 9766SOL     OW30196   2.550   0.662   2.367
 9766SOL    HW130197   2.617   0.590   2.384
 9766SOL    HW230198   2.464   0.621   2.337
 9767SOL     OW30199   4.783   0.549   5.181
 9767SOL    HW130200   4.699   0.597   5.208
 9767SOL    HW230201   4.776   0.521   5.085
 9768SOL     OW30202   4.667   2.147   3.300
 9768SOL    HW130203   4.713   2.093   3.371
 9768SOL    HW230204   4.568   2.139   3.312
 9769SOL     OW30205   0.459   2.222   0.672
 9769SOL    HW130206   0.489   2.151   0.735
 9769SOL    HW230207   0.364   2.247   0.693
 9770SOL     OW30208   0.922   2.734   5.551
 9770SOL    HW130209   0.936   2.654   5.609
 9770SOL    HW230210   0.980   2.809   5.584
 9771SOL     OW30211   2.304   6.480   3.776
 9771SOL    HW130212   2.254   6.566   3.776
 9771SOL    HW230213   2.254   6.412   3.829
 9772SOL     OW30214   5.882   6.701   1.136
 9772SOL    HW130215   5.788   6.718   1.165
 9772SOL    HW230216   5.900   6.751   1.052
 9773SOL     OW30217   4.898   5.335   3.936
 9773SOL    HW130218   4.873   5.426   3.969
 9773SOL    HW230219   4.904   5.335   3.836
 9774SOL     OW30220   6.831   5.089   4.644
 9774SOL    HW130221   6.885   5.051   4.719
 9774SOL    HW230222   6.843   5.033   4.562
 9775SOL     OW30223   3.042   1.704   4.858
 9775SOL    HW130224   2.950   1.668   4.873
 9775SOL    HW230225   3.037   1.784   4.799
 9776SOL     OW30226   0.598   4.638   4.420
 9776SOL    HW130227   0.638   4.724   4.453
 9776SOL    HW230228   0.590   4.642   4.320
 9777SOL     OW30229   5.296   6.300   6.422
 9777SOL    HW130230   5.292   6.282   6.521
 9777SOL    HW230231   5.313   6.214   6.373
 9778SOL     OW30232   4.097   0.884   4.687
 9778SOL    HW130233   4.042   0.896   4.770
 9778SOL    HW230234   4.085   0.792   4.652
 9779SOL     OW30235   3.544   2.435   6.556
 9779SOL    HW130236   3.608   2.457   6.629
 9779SOL    HW230237   3.535   2.512   6.494
 9780SOL     OW30238   2.073   3.891   1.103
 9780SOL    HW130239   2.014   3.834   1.161
 9780SOL    HW230240   2.117   3.834   1.034
 9781SOL     OW30241   0.777   6.878   4.585
 9781SOL    HW130242   0.708   6.836   4.525
 9781SOL    HW230243   0.864   6.832   4.573
 9782SOL     OW30244   6.227   6.782   1.212
 9782SOL    HW130245   6.199   6.770   1.117
 9782SOL    HW230246   6.285   6.864   1.219
 9783SOL     OW30247   5.997   6.938   3.628
 9783SOL    HW130248   6.029   6.981   3.544
 9783SOL    HW230249   6.061   6.865   3.655
 9784SOL     OW30250   5.285   0.280   4.551
 9784SOL    HW130251   5.382   0.269   4.572
 9784SOL    HW230252   5.230   0.245   4.626
 9785SOL     OW30253   0.848   2.323   1.233
 9785SOL    HW130254   0.818   2.320   1.328
 9785SOL    HW230255   0.930   2.266   1.223
 9786SOL     OW30256   2.037   0.270   3.748
 9786SOL    HW130257   1.981   0.352   3.753
 9786SOL    HW230258   2.132   0.295   3.729
 9787SOL     OW30259   5.686   4.341   1.603
 9787SOL    HW130260   5.652   4.331   1.510
 9787SOL    HW230261   5.699   4.251   1.644
 9788SOL     OW30262   6.661   0.396   6.455
 9788SOL    HW130263   6.618   0.436   6.536
 9788SOL    HW230264   6.730   0.330   6.482
 9789SOL     OW30265   1.680   4.421   4.574
 9789SOL    HW130266   1.744   4.348   4.598
 9789SOL    HW230267   1.717   4.509   4.603
 9790SOL     OW30268   6.964   1.334   3.722
 9790SOL    HW130269   6.911   1.264   3.674
 9790SOL    HW230270   6.905   1.384   3.784
 9791SOL     OW30271   1.501   2.812   0.745
 9791SOL    HW130272   1.546   2.731   0.705
 9791SOL    HW230273   1.416   2.785   0.789
 9792SOL     OW30274   3.898   5.681   1.883
 9792SOL    HW130275   3.953   5.607   1.846
 9792SOL    HW230276   3.856   5.732   1.807
 9793SOL     OW30277   5.277   6.020   2.536
 9793SOL    HW130278   5.253   6.116   2.526
 9793SOL    HW230279   5.296   6.000   2.632
 9794SOL     OW30280   3.838   3.226   6.820
 9794SOL    HW130281   3.742   3.218   6.790
 9794SOL    HW230282   3.853   3.168   6.900
 9795SOL     OW30283   1.439   4.702   2.749
 9795SOL    HW130284   1.412   4.613   2.783
 9795SOL    HW230285   1.530   4.725   2.783
 9796SOL     OW30286   3.889   4.924   6.709
 9796SOL    HW130287   3.820   4.969   6.653
 9796SOL    HW230288   3.865   4.936   6.806
 9797SOL     OW30289   6.065   3.052   5.222
 9797SOL    HW130290   6.104   2.961   5.215
 9797SOL    HW230291   6.130   3.119   5.187
 9798SOL     OW30292   2.997   1.053   2.266
 9798SOL    HW130293   3.091   1.037   2.295
 9798SOL    HW230294   2.994   1.063   2.166
 9799SOL     OW30295   3.971   3.919   3.324
 9799SOL    HW130296   4.036   3.995   3.321
 9799SOL    HW230297   4.016   3.837   3.359
 9800SOL     OW30298   3.326   6.763   0.208
 9800SOL    HW130299   3.264   6.816   0.149
 9800SOL    HW230300   3.420   6.784   0.184
 9801SOL     OW30301   5.705   4.647   1.511
 9801SOL    HW130302   5.744   4.571   1.563
 9801SOL    HW230303   5.635   4.612   1.448
 9802SOL     OW30304   1.005   5.563   2.381
 9802SOL    HW130305   0.991   5.629   2.454
 9802SOL    HW230306   1.045   5.609   2.302
 9803SOL     OW30307   5.532   0.342   6.761
 9803SOL    HW130308   5.460   0.397   6.802
 9803SOL    HW230309   5.524   0.344   6.662
 9804SOL     OW30310   4.636   5.225   4.625
 9804SOL    HW130311   4.682   5.146   4.666
 9804SOL    HW230312   4.577   5.268   4.693
 9805SOL     OW30313   3.606   3.958   0.902
 9805SOL    HW130314   3.655   3.906   0.972
 9805SOL    HW230315   3.601   3.903   0.819
 9806SOL     OW30316   6.969   1.389   2.304
 9806SOL    HW130317   6.955   1.291   2.292
 9806SOL    HW230318   6.921   1.420   2.386
 9807SOL     OW30319   2.135   3.031   1.073
 9807SOL    HW130320   2.150   3.057   0.978
 9807SOL    HW230321   2.043   3.057   1.101
 9808SOL     OW30322   2.340   2.524   3.546
 9808SOL    HW130323   2.395   2.570   3.476
 9808SOL    HW230324   2.335   2.427   3.525
 9809SOL     OW30325   0.278   0.229   4.059
 9809SOL    HW130326   0.345   0.221   4.134
 9809SOL    HW230327   0.237   0.139   4.043
 9810SOL     OW30328   4.314   1.800   2.419
 9810SOL    HW130329   4.397   1.762   2.458
 9810SOL    HW230330   4.245   1.811   2.491
 9811SOL     OW30331   1.530   0.759   3.359
 9811SOL    HW130332   1.474   0.770   3.277
 9811SOL    HW230333   1.603   0.693   3.340
 9812SOL     OW30334   5.608   3.067   6.440
 9812SOL    HW130335   5.537   3.028   6.381
 9812SOL    HW230336   5.655   2.995   6.490
 9813SOL     OW30337   6.133   4.527   0.292
 9813SOL    HW130338   6.069   4.513   0.217
 9813SOL    HW230339   6.098   4.484   0.375
 9814SOL     OW30340   6.333   1.240   5.838
 9814SOL    HW130341   6.402   1.198   5.779
 9814SOL    HW230342   6.263   1.283   5.782
 9815SOL     OW30343   0.213   4.976   2.151
 9815SOL    HW130344   0.152   5.017   2.218
 9815SOL    HW230345   0.160   4.916   2.090
 9816SOL     OW30346   6.606   1.792   4.982
 9816SOL    HW130347   6.518   1.837   4.981
 9816SOL    HW230348   6.642   1.786   4.888
 9817SOL     OW30349   2.353   1.523   0.358
 9817SOL    HW130350   2.338   1.610   0.405
 9817SOL    HW230351   2.346   1.449   0.425
 9818SOL     OW30352   0.609   0.392   2.686
 9818SOL    HW130353   0.572   0.313   2.735
 9818SOL    HW230354   0.644   0.362   2.597
 9819SOL     OW30355   5.587   1.209   4.515
 9819SOL    HW130356   5.642   1.277   4.565
 9819SOL    HW230357   5.490   1.231   4.524
 9820SOL     OW30358   3.655   0.365   6.570
 9820SOL    HW130359   3.637   0.323   6.659
 9820SOL    HW230360   3.594   0.444   6.558
 9821SOL     OW30361   4.911   3.887   6.921
 9821SOL    HW130362   4.858   3.831   6.985
 9821SOL    HW230363   4.946   3.829   6.847
 9822SOL     OW30364   3.115   5.683   3.869
 9822SOL    HW130365   3.212   5.668   3.885
 9822SOL    HW230366   3.095   5.781   3.874
 9823SOL     OW30367   4.509   5.770   3.580
 9823SOL    HW130368   4.530   5.673   3.591
 9823SOL    HW230369   4.468   5.806   3.665
 9824SOL     OW30370   1.312   5.722   5.697
 9824SOL    HW130371   1.314   5.732   5.796
 9824SOL    HW230372   1.226   5.681   5.669
 9825SOL     OW30373   1.101   6.411   4.668
 9825SOL    HW130374   1.184   6.457   4.700
 9825SOL    HW230375   1.023   6.442   4.723
 9826SOL     OW30376   1.889   5.892   5.981
 9826SOL    HW130377   1.876   5.794   5.992
 9826SOL    HW230378   1.975   5.920   6.023
 9827SOL     OW30379   1.409   4.950   2.000
 9827SOL    HW130380   1.372   4.955   2.093
 9827SOL    HW230381   1.340   4.913   1.938
 9828SOL     OW30382   4.995   2.215   4.343
 9828SOL    HW130383   4.938   2.273   4.284
 9828SOL    HW230384   4.986   2.120   4.315
 9829SOL     OW30385   5.652   4.105   5.587
 9829SOL    HW130386   5.687   4.013   5.601
 9829SOL    HW230387   5.728   4.170   5.581
 9830SOL     OW30388   5.868   1.239   2.832
 9830SOL    HW130389   5.960   1.273   2.848
 9830SOL    HW230390   5.861   1.145   2.865
 9831SOL     OW30391   0.835   5.069   1.641
 9831SOL    HW130392   0.934   5.081   1.633
 9831SOL    HW230393   0.813   4.972   1.647
 9832SOL     OW30394   5.242   5.630   5.187
 9832SOL    HW130395   5.268   5.536   5.168
 9832SOL    HW230396   5.315   5.692   5.157
 9833SOL     OW30397   3.521   3.040   4.232
 9833SOL    HW130398   3.521   3.011   4.136
 9833SOL    HW230399   3.585   2.984   4.284
 9834SOL     OW30400   3.529   5.961   6.283
 9834SOL    HW130401   3.533   6.058   6.303
 9834SOL    HW230402   3.514   5.947   6.185
 9835SOL     OW30403   3.709   3.192   3.585
 9835SOL    HW130404   3.661   3.171   3.670
 9835SOL    HW230405   3.643   3.194   3.510
 9836SOL     OW30406   6.324   2.714   6.075
 9836SOL    HW130407   6.385   2.663   6.015
 9836SOL    HW230408   6.268   2.650   6.128
 9837SOL     OW30409   6.325   0.848   4.278
 9837SOL    HW130410   6.422   0.840   4.301
 9837SOL    HW230411   6.316   0.876   4.182
 9838SOL     OW30412   0.950   5.951   1.075
 9838SOL    HW130413   0.856   5.939   1.044
 9838SOL    HW230414   0.989   5.863   1.100
 9839SOL     OW30415   3.870   6.304   3.837
 9839SOL    HW130416   3.956   6.356   3.839
 9839SOL    HW230417   3.855   6.262   3.927
 9840SOL     OW30418   6.181   2.291   6.333
 9840SOL    HW130419   6.233   2.240   6.402
 9840SOL    HW230420   6.218   2.383   6.325
 9841SOL     OW30421   0.074   5.593   2.449
 9841SOL    HW130422   0.174   5.591   2.441
 9841SOL    HW230423   0.040   5.500   2.459
 9842SOL     OW30424   3.700   0.402   0.173
 9842SOL    HW130425   3.793   0.367   0.176
 9842SOL    HW230426   3.677   0.427   0.079
 9843SOL     OW30427   0.274   0.345   0.727
 9843SOL    HW130428   0.367   0.310   0.717
 9843SOL    HW230429   0.260   0.375   0.821
 9844SOL     OW30430   4.908   1.190   4.411
 9844SOL    HW130431   4.904   1.287   4.387
 9844SOL    HW230432   5.002   1.158   4.401
 9845SOL     OW30433   1.129   3.564   2.238
 9845SOL    HW130434   1.097   3.580   2.145
 9845SOL    HW230435   1.122   3.467   2.260
 9846SOL     OW30436   5.823   2.392   2.661
 9846SOL    HW130437   5.869   2.305   2.679
 9846SOL    HW230438   5.891   2.465   2.660
 9847SOL     OW30439   4.031   4.259   0.099
 9847SOL    HW130440   4.009   4.181   0.041
 9847SOL    HW230441   4.014   4.236   0.195
 9848SOL     OW30442   3.029   3.522   5.842
 9848SOL    HW130443   3.021   3.620   5.860
 9848SOL    HW230444   3.027   3.507   5.743
 9849SOL     OW30445   1.599   2.082   2.102
 9849SOL    HW130446   1.600   1.995   2.151
 9849SOL    HW230447   1.514   2.090   2.051
 9850SOL     OW30448   1.755   0.815   4.129
 9850SOL    HW130449   1.759   0.716   4.145
 9850SOL    HW230450   1.696   0.858   4.197
 9851SOL     OW30451   3.170   5.474   3.644
 9851SOL    HW130452   3.100   5.546   3.655
 9851SOL    HW230453   3.185   5.429   3.732
 9852SOL     OW30454   2.295   0.392   6.772
 9852SOL    HW130455   2.282   0.375   6.674
 9852SOL    HW230456   2.381   0.350   6.801
 9853SOL     OW30457   0.227   3.558   4.114
 9853SOL    HW130458   0.220   3.460   4.133
 9853SOL    HW230459   0.234   3.573   4.015
 9854SOL     OW30460   6.184   4.241   6.737
 9854SOL    HW130461   6.120   4.168   6.757
 9854SOL    HW230462   6.260   4.237   6.802
 9855SOL     OW30463   1.273   6.168   0.866
 9855SOL    HW130464   1.245   6.074   0.848
 9855SOL    HW230465   1.370   6.178   0.845
 9856SOL     OW30466   4.796   4.617   3.114
 9856SOL    HW130467   4.836   4.553   3.048
 9856SOL    HW230468   4.716   4.660   3.072
 9857SOL     OW30469   5.027   0.157   5.490
 9857SOL    HW130470   4.998   0.249   5.463
 9857SOL    HW230471   5.104   0.163   5.553
 9858SOL     OW30472   0.009   5.095   2.748
 9858SOL    HW130473   0.066   5.136   2.819
 9858SOL    HW230474   6.965   5.162   2.716
 9859SOL     OW30475   0.334   5.762   2.929
 9859SOL    HW130476   0.395   5.759   3.008
 9859SOL    HW230477   0.240   5.781   2.960
 9860SOL     OW30478   1.322   3.187   3.314
 9860SOL    HW130479   1.369   3.239   3.243
 9860SOL    HW230480   1.384   3.119   3.352
 9861SOL     OW30481   3.721   2.144   4.192
 9861SOL    HW130482   3.731   2.123   4.094
 9861SOL    HW230483   3.811   2.166   4.230
 9862SOL     OW30484   1.925   2.579   6.750
 9862SOL    HW130485   1.825   2.580   6.742
 9862SOL    HW230486   1.950   2.567   6.846
 9863SOL     OW30487   3.643   6.125   1.630
 9863SOL    HW130488   3.725   6.146   1.682
 9863SOL    HW230489   3.572   6.193   1.650
 9864SOL     OW30490   2.959   5.845   4.960
 9864SOL    HW130491   3.000   5.774   5.017
 9864SOL    HW230492   2.861   5.825   4.948
 9865SOL     OW30493   2.692   5.721   5.751
 9865SOL    HW130494   2.613   5.685   5.700
 9865SOL    HW230495   2.711   5.814   5.722
 9866SOL     OW30496   0.222   5.722   5.609
 9866SOL    HW130497   0.288   5.796   5.599
 9866SOL    HW230498   0.175   5.731   5.697
 9867SOL     OW30499   4.864   0.944   2.439
 9867SOL    HW130500   4.797   1.010   2.470
 9867SOL    HW230501   4.835   0.852   2.465
 9868SOL     OW30502   2.407   4.478   3.206
 9868SOL    HW130503   2.364   4.458   3.294
 9868SOL    HW230504   2.504   4.457   3.211
 9869SOL     OW30505   5.434   2.116   2.889
 9869SOL    HW130506   5.507   2.098   2.822
 9869SOL    HW230507   5.347   2.127   2.841
 9870SOL     OW30508   2.184   2.832   2.722
 9870SOL    HW130509   2.089   2.809   2.701
 9870SOL    HW230510   2.225   2.877   2.643
 9871SOL     OW30511   5.767   5.281   3.534
 9871SOL    HW130512   5.762   5.183   3.511
 9871SOL    HW230513   5.858   5.315   3.512
 9872SOL     OW30514   0.984   6.142   5.226
 9872SOL    HW130515   0.979   6.045   5.202
 9872SOL    HW230516   0.982   6.152   5.325
 9873SOL     OW30517   0.271   0.860   5.103
 9873SOL    HW130518   0.312   0.951   5.100
 9873SOL    HW230519   0.199   0.853   5.034
 9874SOL     OW30520   6.784   1.751   3.484
 9874SOL    HW130521   6.720   1.680   3.511
 9874SOL    HW230522   6.814   1.735   3.390
 9875SOL     OW30523   5.969   6.023   1.244
 9875SOL    HW130524   6.049   6.015   1.184
 9875SOL    HW230525   5.897   5.962   1.211
 9876SOL     OW30526   0.447   0.395   3.426
 9876SOL    HW130527   0.397   0.391   3.340
 9876SOL    HW230528   0.523   0.460   3.417
 9877SOL     OW30529   1.641   6.144   4.881
 9877SOL    HW130530   1.555   6.184   4.914
 9877SOL    HW230531   1.697   6.116   4.958
 9878SOL     OW30532   4.240   3.774   0.260
 9878SOL    HW130533   4.240   3.723   0.174
 9878SOL    HW230534   4.193   3.720   0.330
 9879SOL     OW30535   5.394   5.302   4.372
 9879SOL    HW130536   5.344   5.221   4.404
 9879SOL    HW230537   5.472   5.273   4.316
 9880SOL     OW30538   2.693   1.234   1.000
 9880SOL    HW130539   2.673   1.154   0.944
 9880SOL    HW230540   2.624   1.305   0.983
 9881SOL     OW30541   6.495   6.903   2.798
 9881SOL    HW130542   6.570   6.889   2.862
 9881SOL    HW230543   6.420   6.840   2.819
 9882SOL     OW30544   3.468   4.068   4.463
 9882SOL    HW130545   3.531   4.056   4.387
 9882SOL    HW230546   3.413   3.986   4.474
 9883SOL     OW30547   1.412   6.176   2.783
 9883SOL    HW130548   1.398   6.110   2.709
 9883SOL    HW230549   1.509   6.196   2.793
 9884SOL     OW30550   3.071   2.483   5.445
 9884SOL    HW130551   3.066   2.582   5.433
 9884SOL    HW230552   3.114   2.441   5.365
 9885SOL     OW30553   4.979   2.230   5.015
 9885SOL    HW130554   4.964   2.320   4.974
 9885SOL    HW230555   5.074   2.222   5.045
 9886SOL     OW30556   2.787   6.437   1.620
 9886SOL    HW130557   2.849   6.489   1.678
 9886SOL    HW230558   2.744   6.499   1.554
 9887SOL     OW30559   3.622   1.193   0.122
 9887SOL    HW130560   3.647   1.181   0.218
 9887SOL    HW230561   3.544   1.133   0.101
 9888SOL     OW30562   6.325   6.635   4.037
 9888SOL    HW130563   6.290   6.726   4.016
 9888SOL    HW230564   6.422   6.630   4.014
 9889SOL     OW30565   6.806   5.964   2.041
 9889SOL    HW130566   6.738   5.918   1.983
 9889SOL    HW230567   6.891   5.974   1.990
 9890SOL     OW30568   1.714   3.215   3.014
 9890SOL    HW130569   1.796   3.256   2.974
 9890SOL    HW230570   1.687   3.136   2.960
 9891SOL     OW30571   3.593   0.253   1.650
 9891SOL    HW130572   3.687   0.238   1.680
 9891SOL    HW230573   3.570   0.187   1.578
 9892SOL     OW30574   1.989   6.033   3.270
 9892SOL    HW130575   2.019   6.126   3.290
 9892SOL    HW230576   1.890   6.033   3.253
 9893SOL     OW30577   5.709   4.542   4.995
 9893SOL    HW130578   5.768   4.623   5.000
 9893SOL    HW230579   5.688   4.522   4.899
 9894SOL     OW30580   4.454   3.856   5.313
 9894SOL    HW130581   4.552   3.863   5.292
 9894SOL    HW230582   4.426   3.934   5.369
 9895SOL     OW30583   4.845   2.481   5.962
 9895SOL    HW130584   4.749   2.504   5.979
 9895SOL    HW230585   4.864   2.390   5.999
 9896SOL     OW30586   4.379   3.912   6.842
 9896SOL    HW130587   4.354   3.823   6.805
 9896SOL    HW230588   4.401   3.904   6.939
 9897SOL     OW30589   1.472   1.412   2.299
 9897SOL    HW130590   1.382   1.453   2.282
 9897SOL    HW230591   1.514   1.457   2.378
 9898SOL     OW30592   7.021   5.484   0.078
 9898SOL    HW130593   0.061   5.437   0.015
 9898SOL    HW230594   6.972   5.417   0.133
 9899SOL     OW30595   4.374   5.613   0.959
 9899SOL    HW130596   4.458   5.613   0.904
 9899SOL    HW230597   4.295   5.609   0.898
 9900SOL     OW30598   2.074   5.910   3.030
 9900SOL    HW130599   2.085   5.956   3.118
 9900SOL    HW230600   2.123   5.822   3.033
 9901SOL     OW30601   3.035   1.058   5.818
 9901SOL    HW130602   3.072   1.143   5.782
 9901SOL    HW230603   3.109   0.991   5.828
 9902SOL     OW30604   4.324   4.404   0.338
 9902SOL    HW130605   4.239   4.431   0.292
 9902SOL    HW230606   4.305   4.331   0.402
 9903SOL     OW30607   2.286   1.215   1.126
 9903SOL    HW130608   2.274   1.298   1.071
 9903SOL    HW230609   2.304   1.138   1.065
 9904SOL     OW30610   6.508   6.314   2.172
 9904SOL    HW130611   6.479   6.347   2.262
 9904SOL    HW230612   6.583   6.249   2.183
 9905SOL     OW30613   2.168   6.780   0.198
 9905SOL    HW130614   2.160   6.690   0.155
 9905SOL    HW230615   2.179   6.769   0.297
 9906SOL     OW30616   3.834   3.774   6.335
 9906SOL    HW130617   3.787   3.850   6.289
 9906SOL    HW230618   3.774   3.694   6.336
 9907SOL     OW30619   0.795   6.418   3.249
 9907SOL    HW130620   0.805   6.405   3.348
 9907SOL    HW230621   0.882   6.397   3.203
 9908SOL     OW30622   6.493   2.841   5.843
 9908SOL    HW130623   6.510   2.902   5.921
 9908SOL    HW230624   6.486   2.746   5.876
 9909SOL     OW30625   2.212   6.333   3.101
 9909SOL    HW130626   2.187   6.290   3.188
 9909SOL    HW230627   2.174   6.426   3.097
 9910SOL     OW30628   1.125   5.559   0.840
 9910SOL    HW130629   1.223   5.573   0.857
 9910SOL    HW230630   1.104   5.462   0.848
 9911SOL     OW30631   3.165   4.915   1.947
 9911SOL    HW130632   3.253   4.954   1.975
 9911SOL    HW230633   3.181   4.836   1.888
 9912SOL     OW30634   5.588   6.790   0.065
 9912SOL    HW130635   5.669   6.767   0.119
 9912SOL    HW230636   5.608   6.775   6.991
 9913SOL     OW30637   6.342   1.831   2.654
 9913SOL    HW130638   6.322   1.802   2.747
 9913SOL    HW230639   6.361   1.930   2.653
 9914SOL     OW30640   1.849   5.497   3.800
 9914SOL    HW130641   1.788   5.418   3.803
 9914SOL    HW230642   1.799   5.579   3.825
 9915SOL     OW30643   6.306   4.777   4.365
 9915SOL    HW130644   6.376   4.734   4.309
 9915SOL    HW230645   6.228   4.716   4.373
 9916SOL     OW30646   2.033   3.483   0.721
 9916SOL    HW130647   1.978   3.400   0.710
 9916SOL    HW230648   1.974   3.563   0.712
 9917SOL     OW30649   1.791   3.760   4.516
 9917SOL    HW130650   1.874   3.815   4.503
 9917SOL    HW230651   1.761   3.767   4.612
 9918SOL     OW30652   2.077   2.020   4.324
 9918SOL    HW130653   2.033   2.085   4.262
 9918SOL    HW230654   2.012   1.994   4.396
 9919SOL     OW30655   0.822   6.038   1.332
 9919SOL    HW130656   0.791   6.006   1.242
 9919SOL    HW230657   0.815   6.138   1.335
 9920SOL     OW30658   2.849   0.663   3.335
 9920SOL    HW130659   2.773   0.723   3.308
 9920SOL    HW230660   2.834   0.571   3.298
 9921SOL     OW30661   5.024   0.656   2.440
 9921SOL    HW130662   5.011   0.660   2.341
 9921SOL    HW230663   4.937   0.674   2.486
 9922SOL     OW30664   6.287   2.978   2.317
 9922SOL    HW130665   6.204   2.988   2.373
 9922SOL    HW230666   6.363   2.948   2.376
 9923SOL     OW30667   5.621   0.080   6.777
 9923SOL    HW130668   5.578   0.169   6.767
 9923SOL    HW230669   5.563   0.021   6.833
 9924SOL     OW30670   5.752   0.504   3.397
 9924SOL    HW130671   5.838   0.527   3.352
 9924SOL    HW230672   5.675   0.530   3.337
 9925SOL     OW30673   4.051   2.124   5.010
 9925SOL    HW130674   4.088   2.217   5.011
 9925SOL    HW230675   3.978   2.116   5.078
 9926SOL     OW30676   2.102   0.981   5.871
 9926SOL    HW130677   2.088   1.078   5.855
 9926SOL    HW230678   2.112   0.934   5.783
 9927SOL     OW30679   1.888   3.784   4.042
 9927SOL    HW130680   1.819   3.798   4.113
 9927SOL    HW230681   1.912   3.872   4.001
 9928SOL     OW30682   6.389   2.888   3.055
 9928SOL    HW130683   6.419   2.912   2.963
 9928SOL    HW230684   6.459   2.915   3.121
 9929SOL     OW30685   1.374   5.110   4.904
 9929SOL    HW130686   1.463   5.065   4.915
 9929SOL    HW230687   1.349   5.157   4.988
 9930SOL     OW30688   0.122   6.075   6.538
 9930SOL    HW130689   0.060   6.138   6.585
 9930SOL    HW230690   0.073   6.028   6.465
 9931SOL     OW30691   1.728   4.347   7.007
 9931SOL    HW130692   1.650   4.371   6.950
 9931SOL    HW230693   1.767   4.429   0.026
 9932SOL     OW30694   2.169   2.133   1.285
 9932SOL    HW130695   2.073   2.110   1.268
 9932SOL    HW230696   2.210   2.065   1.346
 9933SOL     OW30697   1.374   1.763   3.354
 9933SOL    HW130698   1.389   1.702   3.277
 9933SOL    HW230699   1.416   1.852   3.335
 9934SOL     OW30700   5.025   0.180   5.924
 9934SOL    HW130701   4.969   0.243   5.870
 9934SOL    HW230702   4.988   0.175   6.017
 9935SOL     OW30703   3.383   3.074   0.363
 9935SOL    HW130704   3.477   3.067   0.332
 9935SOL    HW230705   3.321   3.044   0.291
 9936SOL     OW30706   4.890   5.757   0.547
 9936SOL    HW130707   4.882   5.746   0.448
 9936SOL    HW230708   4.835   5.687   0.593
 9937SOL     OW30709   1.635   0.172   4.844
 9937SOL    HW130710   1.611   0.093   4.787
 9937SOL    HW230711   1.731   0.194   4.831
 9938SOL     OW30712   0.646   1.882   3.102
 9938SOL    HW130713   0.601   1.854   3.186
 9938SOL    HW230714   0.593   1.850   3.023
 9939SOL     OW30715   3.006   3.794   1.005
 9939SOL    HW130716   3.050   3.710   1.036
 9939SOL    HW230717   3.006   3.798   0.905
 9940SOL     OW30718   6.706   0.919   2.709
 9940SOL    HW130719   6.776   0.882   2.647
 9940SOL    HW230720   6.656   0.992   2.663
 9941SOL     OW30721   5.941   3.599   0.575
 9941SOL    HW130722   5.899   3.572   0.488
 9941SOL    HW230723   6.033   3.633   0.558
 9942SOL     OW30724   6.086   5.498   2.420
 9942SOL    HW130725   6.163   5.560   2.434
 9942SOL    HW230726   6.106   5.410   2.464
 9943SOL     OW30727   1.187   4.794   4.912
 9943SOL    HW130728   1.230   4.880   4.883
 9943SOL    HW230729   1.102   4.780   4.862
 9944SOL     OW30730   2.211   5.694   6.418
 9944SOL    HW130731   2.222   5.595   6.417
 9944SOL    HW230732   2.277   5.735   6.482
 9945SOL     OW30733   6.241   2.917   5.495
 9945SOL    HW130734   6.289   2.834   5.524
 9945SOL    HW230735   6.231   2.978   5.574
 9946SOL     OW30736   5.805   1.736   0.916
 9946SOL    HW130737   5.786   1.760   0.821
 9946SOL    HW230738   5.783   1.640   0.932
 9947SOL     OW30739   0.717   0.287   3.196
 9947SOL    HW130740   0.746   0.213   3.135
 9947SOL    HW230741   0.692   0.367   3.142
 9948SOL     OW30742   5.017   0.684   4.867
 9948SOL    HW130743   4.945   0.616   4.881
 9948SOL    HW230744   4.982   0.757   4.807
 9949SOL     OW30745   6.757   2.950   2.707
 9949SOL    HW130746   6.663   2.931   2.737
 9949SOL    HW230747   6.760   2.953   2.607
 9950SOL     OW30748   5.258   4.481   6.424
 9950SOL    HW130749   5.176   4.479   6.482
 9950SOL    HW230750   5.237   4.527   6.338
 9951SOL     OW30751   7.007   2.105   2.601
 9951SOL    HW130752   0.012   2.009   2.613
 9951SOL    HW230753   0.035   2.145   2.525
 9952SOL     OW30754   1.455   4.675   1.313
 9952SOL    HW130755   1.514   4.740   1.265
 9952SOL    HW230756   1.501   4.644   1.397
 9953SOL     OW30757   6.051   4.472   4.910
 9953SOL    HW130758   5.970   4.416   4.926
 9953SOL    HW230759   6.023   4.565   4.887
 9954SOL     OW30760   4.170   1.885   1.552
 9954SOL    HW130761   4.098   1.845   1.495
 9954SOL    HW230762   4.233   1.937   1.494
 9955SOL     OW30763   6.451   5.403   1.466
 9955SOL    HW130764   6.362   5.437   1.495
 9955SOL    HW230765   6.443   5.306   1.440
 9956SOL     OW30766   1.561   3.665   3.406
 9956SOL    HW130767   1.598   3.707   3.489
 9956SOL    HW230768   1.610   3.580   3.387
 9957SOL     OW30769   5.776   6.733   0.293
 9957SOL    HW130770   5.855   6.769   0.343
 9957SOL    HW230771   5.792   6.636   0.272
 9958SOL     OW30772   6.595   6.096   5.502
 9958SOL    HW130773   6.496   6.092   5.512
 9958SOL    HW230774   6.624   6.034   5.429
 9959SOL     OW30775   6.374   5.884   6.866
 9959SOL    HW130776   6.353   5.921   6.776
 9959SOL    HW230777   6.470   5.858   6.870
 9960SOL     OW30778   6.230   0.194   6.334
 9960SOL    HW130779   6.130   0.196   6.333
 9960SOL    HW230780   6.263   0.261   6.401
 9961SOL     OW30781   3.079   6.503   0.470
 9961SOL    HW130782   3.001   6.511   0.531
 9961SOL    HW230783   3.050   6.464   0.383
 9962SOL     OW30784   3.525   0.652   1.382
 9962SOL    HW130785   3.565   0.629   1.293
 9962SOL    HW230786   3.460   0.580   1.408
 9963SOL     OW30787   0.491   0.361   6.447
 9963SOL    HW130788   0.439   0.299   6.505
 9963SOL    HW230789   0.589   0.344   6.458
 9964SOL     OW30790   4.560   5.322   5.562
 9964SOL    HW130791   4.602   5.296   5.649
 9964SOL    HW230792   4.623   5.381   5.511
 9965SOL     OW30793   1.969   5.468   4.676
 9965SOL    HW130794   2.003   5.441   4.586
 9965SOL    HW230795   1.993   5.564   4.694
 9966SOL     OW30796   1.661   4.561   1.818
 9966SOL    HW130797   1.583   4.499   1.829
 9966SOL    HW230798   1.634   4.654   1.842
 9967SOL     OW30799   6.572   0.341   2.408
 9967SOL    HW130800   6.575   0.244   2.386
 9967SOL    HW230801   6.481   0.378   2.388
 9968SOL     OW30802   4.943   6.212   0.371
 9968SOL    HW130803   4.850   6.198   0.335
 9968SOL    HW230804   5.004   6.143   0.333
 9969SOL     OW30805   0.300   6.279   3.111
 9969SOL    HW130806   0.391   6.298   3.149
 9969SOL    HW230807   0.310   6.238   3.020
 9970SOL     OW30808   0.283   3.484   1.395
 9970SOL    HW130809   0.348   3.482   1.319
 9970SOL    HW230810   0.301   3.563   1.452
 9971SOL     OW30811   6.822   5.337   5.698
 9971SOL    HW130812   6.844   5.285   5.616
 9971SOL    HW230813   6.859   5.290   5.778
 9972SOL     OW30814   2.914   4.231   5.838
 9972SOL    HW130815   2.957   4.179   5.764
 9972SOL    HW230816   2.826   4.267   5.806
 9973SOL     OW30817   2.761   2.263   2.974
 9973SOL    HW130818   2.793   2.221   2.890
 9973SOL    HW230819   2.720   2.352   2.954
 9974SOL     OW30820   0.793   3.189   3.632
 9974SOL    HW130821   0.829   3.157   3.545
 9974SOL    HW230822   0.699   3.220   3.620
 9975SOL     OW30823   1.027   4.801   6.998
 9975SOL    HW130824   1.062   4.807   0.069
 9975SOL    HW230825   0.944   4.745   6.998
 9976SOL     OW30826   4.612   6.036   5.211
 9976SOL    HW130827   4.640   5.997   5.298
 9976SOL    HW230828   4.686   6.093   5.174
 9977SOL     OW30829   4.278   6.875   5.710
 9977SOL    HW130830   4.328   6.800   5.752
 9977SOL    HW230831   4.342   6.948   5.685
 9978SOL     OW30832   6.815   2.780   0.151
 9978SOL    HW130833   6.851   2.810   0.239
 9978SOL    HW230834   6.732   2.832   0.130
 9979SOL     OW30835   3.634   4.055   3.825
 9979SOL    HW130836   3.712   3.999   3.854
 9979SOL    HW230837   3.617   4.127   3.893
 9980SOL     OW30838   0.280   6.953   6.939
 9980SOL    HW130839   0.224   6.871   6.944
 9980SOL    HW230840   0.377   6.927   6.935
 9981SOL     OW30841   5.483   1.163   1.101
 9981SOL    HW130842   5.453   1.258   1.107
 9981SOL    HW230843   5.521   1.135   1.189
 9982SOL     OW30844   2.761   1.879   4.872
 9982SOL    HW130845   2.662   1.891   4.863
 9982SOL    HW230846   2.780   1.798   4.928
 9983SOL     OW30847   0.545   2.929   2.139
 9983SOL    HW130848   0.531   2.930   2.040
 9983SOL    HW230849   0.457   2.945   2.185
 9984SOL     OW30850   1.204   4.800   1.224
 9984SOL    HW130851   1.284   4.746   1.252
 9984SOL    HW230852   1.222   4.897   1.244
 9985SOL     OW30853   4.669   4.469   5.873
 9985SOL    HW130854   4.716   4.439   5.790
 9985SOL    HW230855   4.598   4.403   5.897
 9986SOL     OW30856   5.706   4.208   6.773
 9986SOL    HW130857   5.747   4.264   6.701
 9986SOL    HW230858   5.647   4.265   6.830
 9987SOL     OW30859   5.180   1.997   0.588
 9987SOL    HW130860   5.270   2.021   0.552
 9987SOL    HW230861   5.168   2.037   0.679
 9988SOL     OW30862   5.544   6.541   3.759
 9988SOL    HW130863   5.538   6.617   3.823
 9988SOL    HW230864   5.634   6.498   3.767
 9989SOL     OW30865   6.382   5.921   2.311
 9989SOL    HW130866   6.449   5.849   2.297
 9989SOL    HW230867   6.290   5.881   2.311
 9990SOL     OW30868   0.106   5.890   2.969
 9990SOL    HW130869   0.135   5.972   3.018
 9990SOL    HW230870   0.009   5.874   2.983
 9991SOL     OW30871   1.938   3.452   1.980
 9991SOL    HW130872   1.918   3.403   1.895
 9991SOL    HW230873   2.035   3.446   2.001
 9992SOL     OW30874   2.140   4.396   0.165
 9992SOL    HW130875   2.209   4.354   0.224
 9992SOL    HW230876   2.112   4.330   0.095
 9993SOL     OW30877   3.406   0.181   4.127
 9993SOL    HW130878   3.342   0.152   4.199
 9993SOL    HW230879   3.423   0.104   4.066
 9994SOL     OW30880   5.941   5.053   5.208
 9994SOL    HW130881   5.857   5.065   5.156
 9994SOL    HW230882   5.956   4.956   5.226
 9995SOL     OW30883   4.267   1.635   5.988
 9995SOL    HW130884   4.191   1.683   5.945
 9995SOL    HW230885   4.306   1.570   5.923
 9996SOL     OW30886   3.050   4.858   0.948
 9996SOL    HW130887   3.137   4.810   0.960
 9996SOL    HW230888   2.991   4.806   0.886
 9997SOL     OW30889   5.861   0.593   2.675
 9997SOL    HW130890   5.826   0.585   2.768
 9997SOL    HW230891   5.897   0.505   2.645
 9998SOL     OW30892   5.256   3.727   2.295
 9998SOL    HW130893   5.174   3.701   2.244
 9998SOL    HW230894   5.247   3.821   2.327
 9999SOL     OW30895   0.464   6.974   5.138
 9999SOL    HW130896   0.543   6.920   5.167
 9999SOL    HW230897   0.396   6.913   5.097
10000SOL     OW30898   4.645   3.286   1.424
10000SOL    HW130899   4.705   3.228   1.480
10000SOL    HW230900   4.556   3.241   1.414
10001SOL     OW30901   3.808   7.020   1.380
10001SOL    HW130902   3.757   0.083   1.391
10001SOL    HW230903   3.784   6.957   1.454
10002SOL     OW30904   1.846   6.632   2.800
10002SOL    HW130905   1.786   6.685   2.861
10002SOL    HW230906   1.829   6.659   2.705
10003SOL     OW30907   0.598   1.063   2.753
10003SOL    HW130908   0.551   0.975   2.768
10003SOL    HW230909   0.530   1.134   2.735
10004SOL     OW30910   0.031   2.948   3.083
10004SOL    HW130911   0.128   2.970   3.096
10004SOL    HW230912   0.013   2.936   2.985
10005SOL     OW30913   2.500   5.873   2.312
10005SOL    HW130914   2.439   5.810   2.265
10005SOL    HW230915   2.448   5.925   2.380
10006SOL     OW30916   5.748   1.932   6.134
10006SOL    HW130917   5.670   1.987   6.164
10006SOL    HW230918   5.805   1.909   6.213
10007SOL     OW30919   1.405   5.031   3.556
10007SOL    HW130920   1.413   4.961   3.485
10007SOL    HW230921   1.372   5.116   3.515
10008SOL     OW30922   4.105   0.536   5.641
10008SOL    HW130923   4.102   0.633   5.617
10008SOL    HW230924   4.109   0.527   5.740
10009SOL     OW30925   1.597   5.124   1.898
10009SOL    HW130926   1.522   5.062   1.922
10009SOL    HW230927   1.652   5.142   1.980
10010SOL     OW30928   2.018   4.882   0.684
10010SOL    HW130929   1.938   4.893   0.743
10010SOL    HW230930   2.006   4.801   0.627
10011SOL     OW30931   3.404   3.557   6.807
10011SOL    HW130932   3.359   3.568   6.895
10011SOL    HW230933   3.342   3.515   6.741
10012SOL     OW30934   5.849   1.984   3.239
10012SOL    HW130935   5.830   2.082   3.231
10012SOL    HW230936   5.871   1.961   3.333
10013SOL     OW30937   0.578   6.384   5.416
10013SOL    HW130938   0.603   6.416   5.508
10013SOL    HW230939   0.635   6.306   5.392
10014SOL     OW30940   1.673   1.120   3.160
10014SOL    HW130941   1.688   1.140   3.063
10014SOL    HW230942   1.756   1.140   3.212
10015SOL     OW30943   4.333   0.723   6.814
10015SOL    HW130944   4.361   0.647   6.756
10015SOL    HW230945   4.236   0.744   6.798
10016SOL     OW30946   3.090   0.965   4.725
10016SOL    HW130947   3.176   0.956   4.676
10016SOL    HW230948   3.041   1.047   4.692
10017SOL     OW30949   3.219   1.201   2.963
10017SOL    HW130950   3.256   1.250   3.042
10017SOL    HW230951   3.139   1.147   2.991
10018SOL     OW30952   0.369   5.182   5.871
10018SOL    HW130953   0.364   5.277   5.842
10018SOL    HW230954   0.327   5.173   5.962
10019SOL     OW30955   0.027   1.835   2.648
10019SOL    HW130956   6.964   1.804   2.688
10019SOL    HW230957   0.050   1.778   2.569
10020SOL     OW30958   6.491   0.665   2.682
10020SOL    HW130959   6.526   0.661   2.775
10020SOL    HW230960   6.563   0.698   2.620
10021SOL     OW30961   1.729   3.510   1.371
10021SOL    HW130962   1.762   3.596   1.410
10021SOL    HW230963   1.802   3.469   1.315
10022SOL     OW30964   1.016   6.700   5.977
10022SOL    HW130965   0.948   6.734   5.912
10022SOL    HW230966   1.050   6.775   6.033
10023SOL     OW30967   1.150   1.357   5.434
10023SOL    HW130968   1.143   1.454   5.455
10023SOL    HW230969   1.201   1.311   5.507
10024SOL     OW30970   2.326   4.318   3.446
10024SOL    HW130971   2.308   4.247   3.378
10024SOL    HW230972   2.328   4.277   3.538
10025SOL     OW30973   0.527   3.009   0.992
10025SOL    HW130974   0.490   3.053   1.075
10025SOL    HW230975   0.599   3.067   0.954
10026SOL     OW30976   6.950   1.080   4.591
10026SOL    HW130977   6.889   1.022   4.645
10026SOL    HW230978   6.946   1.173   4.626
10027SOL     OW30979   3.532   0.987   5.739
10027SOL    HW130980   3.565   1.070   5.785
10027SOL    HW230981   3.532   1.002   5.640
10028SOL     OW30982   3.879   6.842   2.561
10028SOL    HW130983   3.848   6.764   2.507
10028SOL    HW230984   3.818   6.855   2.639
10029SOL     OW30985   6.978   5.054   4.213
10029SOL    HW130986   0.026   4.993   4.176
10029SOL    HW230987   6.948   5.020   4.303
10030SOL     OW30988   2.921   0.099   4.175
10030SOL    HW130989   2.975   0.028   4.222
10030SOL    HW230990   2.950   0.104   4.080
10031SOL     OW30991   1.922   6.763   3.915
10031SOL    HW130992   1.961   6.846   3.877
10031SOL    HW230993   1.829   6.751   3.882
10032SOL     OW30994   2.957   5.986   4.207
10032SOL    HW130995   3.030   6.052   4.223
10032SOL    HW230996   2.977   5.901   4.256
10033SOL     OW30997   2.555   1.247   4.973
10033SOL    HW130998   2.488   1.189   5.019
10033SOL    HW230999   2.626   1.190   4.933
10034SOL     OW31000   2.101   1.226   1.883
10034SOL    HW131001   2.071   1.133   1.905
10034SOL    HW231002   2.195   1.239   1.913
10035SOL     OW31003   0.339   3.228   2.393
10035SOL    HW131004   0.432   3.264   2.392
10035SOL    HW231005   0.274   3.303   2.403
10036SOL     OW31006   0.259   1.652   6.858
10036SOL    HW131007   0.320   1.575   6.843
10036SOL    HW231008   0.168   1.630   6.823
10037SOL     OW31009   6.095   0.681   6.050
10037SOL    HW131010   6.129   0.743   5.980
10037SOL    HW231011   6.092   0.728   6.138
10038SOL     OW31012   5.063   6.692   6.781
10038SOL    HW131013   5.035   6.603   6.816
10038SOL    HW231014   5.069   6.688   6.681
10039SOL     OW31015   0.146   5.279   1.677
10039SOL    HW131016   0.226   5.338   1.661
10039SOL    HW231017   0.176   5.197   1.726
10040SOL     OW31018   2.543   0.203   0.163
10040SOL    HW131019   2.542   0.297   0.128
10040SOL    HW231020   2.634   0.181   0.197
10041SOL     OW31021   5.507   4.733   5.506
10041SOL    HW131022   5.455   4.816   5.529
10041SOL    HW231023   5.601   4.758   5.482
10042SOL     OW31024   6.452   0.683   5.135
10042SOL    HW131025   6.473   0.680   5.232
10042SOL    HW231026   6.370   0.628   5.116
10043SOL     OW31027   0.838   0.472   2.780
10043SOL    HW131028   0.914   0.415   2.749
10043SOL    HW231029   0.751   0.432   2.750
10044SOL     OW31030   3.134   2.361   6.775
10044SOL    HW131031   3.091   2.372   6.686
10044SOL    HW231032   3.227   2.326   6.764
10045SOL     OW31033   4.171   0.080   4.438
10045SOL    HW131034   4.222   0.059   4.521
10045SOL    HW231035   4.122   0.167   4.449
10046SOL     OW31036   6.841   2.231   1.581
10046SOL    HW131037   6.838   2.163   1.654
10046SOL    HW231038   6.936   2.252   1.558
10047SOL     OW31039   1.401   2.863   3.056
10047SOL    HW131040   1.347   2.895   3.134
10047SOL    HW231041   1.496   2.851   3.084
10048SOL     OW31042   3.412   2.408   1.729
10048SOL    HW131043   3.406   2.503   1.699
10048SOL    HW231044   3.502   2.392   1.770
10049SOL     OW31045   1.579   5.741   4.731
10049SOL    HW131046   1.548   5.715   4.639
10049SOL    HW231047   1.612   5.659   4.778
10050SOL     OW31048   5.845   1.522   4.859
10050SOL    HW131049   5.773   1.453   4.850
10050SOL    HW231050   5.888   1.537   4.770
10051SOL     OW31051   6.289   1.741   0.740
10051SOL    HW131052   6.385   1.713   0.736
10051SOL    HW231053   6.247   1.730   0.650
10052SOL     OW31054   1.973   5.128   1.049
10052SOL    HW131055   1.934   5.072   0.976
10052SOL    HW231056   1.912   5.205   1.068
10053SOL     OW31057   2.844   6.413   3.435
10053SOL    HW131058   2.764   6.354   3.442
10053SOL    HW231059   2.923   6.359   3.408
10054SOL     OW31060   4.546   5.177   3.903
10054SOL    HW131061   4.641   5.208   3.899
10054SOL    HW231062   4.532   5.102   3.839
10055SOL     OW31063   5.148   3.335   0.149
10055SOL    HW131064   5.211   3.273   0.104
10055SOL    HW231065   5.127   3.411   0.088
10056SOL     OW31066   5.099   3.916   2.666
10056SOL    HW131067   5.078   4.014   2.671
10056SOL    HW231068   5.061   3.878   2.581
10057SOL     OW31069   2.576   2.483   3.120
10057SOL    HW131070   2.487   2.444   3.097
10057SOL    HW231071   2.602   2.549   3.049
10058SOL     OW31072   1.087   5.018   4.123
10058SOL    HW131073   1.008   5.079   4.130
10058SOL    HW231074   1.091   4.980   4.030
10059SOL     OW31075   4.669   6.527   1.755
10059SOL    HW131076   4.605   6.603   1.746
10059SOL    HW231077   4.763   6.562   1.749
10060SOL     OW31078   2.367   2.677   2.349
10060SOL    HW131079   2.442   2.611   2.361
10060SOL    HW231080   2.345   2.685   2.251
10061SOL     OW31081   6.775   2.031   5.785
10061SOL    HW131082   6.691   2.056   5.738
10061SOL    HW231083   6.767   1.937   5.819
10062SOL     OW31084   4.829   5.790   2.978
10062SOL    HW131085   4.829   5.846   3.061
10062SOL    HW231086   4.919   5.795   2.934
10063SOL     OW31087   0.932   2.710   2.241
10063SOL    HW131088   0.939   2.796   2.191
10063SOL    HW231089   0.837   2.682   2.246
10064SOL     OW31090   4.958   5.021   5.699
10064SOL    HW131091   4.938   4.931   5.660
10064SOL    HW231092   4.890   5.043   5.769
10065SOL     OW31093   0.268   0.354   2.741
10065SOL    HW131094   0.214   0.338   2.823
10065SOL    HW231095   0.269   0.270   2.686
10066SOL     OW31096   0.391   0.908   3.884
10066SOL    HW131097   0.316   0.973   3.869
10066SOL    HW231098   0.447   0.939   3.961
10067SOL     OW31099   4.928   6.365   3.676
10067SOL    HW131100   4.859   6.357   3.604
10067SOL    HW231101   4.889   6.333   3.763
10068SOL     OW31102   5.198   3.426   5.605
10068SOL    HW131103   5.174   3.332   5.630
10068SOL    HW231104   5.253   3.426   5.522
10069SOL     OW31105   5.338   1.514   3.797
10069SOL    HW131106   5.240   1.516   3.819
10069SOL    HW231107   5.390   1.504   3.882
10070SOL     OW31108   1.302   0.184   4.316
10070SOL    HW131109   1.401   0.186   4.302
10070SOL    HW231110   1.259   0.119   4.253
10071SOL     OW31111   5.035   4.486   5.266
10071SOL    HW131112   4.999   4.444   5.350
10071SOL    HW231113   5.094   4.562   5.290
10072SOL     OW31114   1.039   6.765   4.113
10072SOL    HW131115   0.969   6.753   4.184
10072SOL    HW231116   0.996   6.762   4.023
10073SOL     OW31117   7.008   5.876   6.365
10073SOL    HW131118   6.980   5.789   6.406
10073SOL    HW231119   6.932   5.913   6.311
10074SOL     OW31120   2.375   6.969   4.926
10074SOL    HW131121   2.376   6.962   5.026
10074SOL    HW231122   2.285   7.001   4.895
10075SOL     OW31123   1.313   2.584   4.816
10075SOL    HW131124   1.351   2.676   4.821
10075SOL    HW231125   1.382   2.517   4.846
10076SOL     OW31126   5.707   0.242   3.577
10076SOL    HW131127   5.731   0.280   3.666
10076SOL    HW231128   5.692   0.318   3.513
10077SOL     OW31129   3.194   1.745   6.218
10077SOL    HW131130   3.108   1.695   6.217
10077SOL    HW231131   3.177   1.843   6.230
10078SOL     OW31132   5.542   5.883   5.400
10078SOL    HW131133   5.533   5.788   5.369
10078SOL    HW231134   5.552   5.884   5.499
10079SOL     OW31135   0.220   2.830   5.893
10079SOL    HW131136   0.283   2.841   5.817
10079SOL    HW231137   0.130   2.805   5.859
10080SOL     OW31138   1.305   2.847   5.603
10080SOL    HW131139   1.276   2.754   5.583
10080SOL    HW231140   1.394   2.844   5.649
10081SOL     OW31141   0.352   1.356   0.238
10081SOL    HW131142   0.447   1.378   0.258
10081SOL    HW231143   0.333   1.263   0.267
10082SOL     OW31144   6.909   0.544   0.262
10082SOL    HW131145   6.859   0.568   0.345
10082SOL    HW231146   6.846   0.507   0.194
10083SOL     OW31147   5.462   1.319   4.084
10083SOL    HW131148   5.532   1.390   4.080
10083SOL    HW231149   5.388   1.348   4.145
10084SOL     OW31150   2.657   0.465   6.447
10084SOL    HW131151   2.672   0.490   6.351
10084SOL    HW231152   2.734   0.412   6.480
10085SOL     OW31153   1.151   4.950   2.611
10085SOL    HW131154   1.197   4.974   2.697
10085SOL    HW231155   1.088   4.875   2.627
10086SOL     OW31156   6.826   3.528   1.914
10086SOL    HW131157   6.807   3.472   1.833
10086SOL    HW231158   6.740   3.569   1.946
10087SOL     OW31159   2.247   0.860   3.077
10087SOL    HW131160   2.163   0.806   3.070
10087SOL    HW231161   2.323   0.801   3.105
10088SOL     OW31162   5.927   0.083   4.738
10088SOL    HW131163   5.915   0.063   4.640
10088SOL    HW231164   6.022   0.066   4.763
10089SOL     OW31165   2.076   2.273   1.877
10089SOL    HW131166   2.056   2.336   1.951
10089SOL    HW231167   2.006   2.202   1.874
10090SOL     OW31168   0.545   5.351   1.978
10090SOL    HW131169   0.602   5.323   1.901
10090SOL    HW231170   0.519   5.447   1.967
10091SOL     OW31171   0.179   1.805   4.192
10091SOL    HW131172   0.136   1.796   4.282
10091SOL    HW231173   0.268   1.758   4.193
10092SOL     OW31174   1.794   2.923   5.483
10092SOL    HW131175   1.773   3.020   5.473
10092SOL    HW231176   1.734   2.869   5.423
10093SOL     OW31177   6.965   6.228   6.261
10093SOL    HW131178   0.027   6.189   6.225
10093SOL    HW231179   6.987   6.311   6.314
10094SOL     OW31180   1.423   0.555   1.721
10094SOL    HW131181   1.362   0.522   1.793
10094SOL    HW231182   1.370   0.604   1.652
10095SOL     OW31183   6.970   2.099   4.890
10095SOL    HW131184   0.047   2.104   4.902
10095SOL    HW231185   6.928   2.067   4.974
10096SOL     OW31186   6.873   5.775   3.031
10096SOL    HW131187   6.807   5.760   3.105
10096SOL    HW231188   6.825   5.815   2.953
10097SOL     OW31189   1.253   2.436   5.745
10097SOL    HW131190   1.154   2.439   5.759
10097SOL    HW231191   1.272   2.415   5.649
10098SOL     OW31192   3.765   5.188   6.507
10098SOL    HW131193   3.675   5.214   6.471
10098SOL    HW231194   3.798   5.259   6.569
10099SOL     OW31195   0.389   4.505   4.548
10099SOL    HW131196   0.317   4.547   4.603
10099SOL    HW231197   0.459   4.573   4.527
10100SOL     OW31198   4.556   0.231   5.438
10100SOL    HW131199   4.631   0.253   5.500
10100SOL    HW231200   4.477   0.289   5.458
10101SOL     OW31201   6.838   4.769   2.643
10101SOL    HW131202   6.905   4.843   2.634
10101SOL    HW231203   6.791   4.777   2.731
10102SOL     OW31204   3.697   0.541   4.272
10102SOL    HW131205   3.622   0.536   4.337
10102SOL    HW231206   3.673   0.604   4.198
10103SOL     OW31207   0.662   2.564   0.429
10103SOL    HW131208   0.574   2.518   0.435
10103SOL    HW231209   0.719   2.539   0.508
10104SOL     OW31210   2.409   6.205   5.623
10104SOL    HW131211   2.360   6.286   5.590
10104SOL    HW231212   2.452   6.226   5.711
10105SOL     OW31213   3.630   0.484   6.960
10105SOL    HW131214   3.568   0.560   6.939
10105SOL    HW231215   3.700   0.478   6.888
10106SOL     OW31216   4.945   4.979   1.254
10106SOL    HW131217   5.023   4.979   1.191
10106SOL    HW231218   4.967   4.923   1.334
10107SOL     OW31219   5.408   0.917   5.916
10107SOL    HW131220   5.359   0.959   5.839
10107SOL    HW231221   5.454   0.834   5.884
10108SOL     OW31222   5.551   6.336   6.682
10108SOL    HW131223   5.579   6.285   6.601
10108SOL    HW231224   5.612   6.313   6.758
10109SOL     OW31225   4.545   5.713   3.138
10109SOL    HW131226   4.634   5.726   3.182
10109SOL    HW231227   4.554   5.647   3.063
10110SOL     OW31228   3.385   1.765   5.996
10110SOL    HW131229   3.362   1.855   6.031
10110SOL    HW231230   3.312   1.700   6.019
10111SOL     OW31231   6.920   2.418   1.917
10111SOL    HW131232   6.957   2.495   1.970
10111SOL    HW231233   6.902   2.447   1.823
10112SOL     OW31234   4.747   3.191   6.222
10112SOL    HW131235   4.799   3.271   6.251
10112SOL    HW231236   4.658   3.221   6.187
10113SOL     OW31237   4.073   6.857   0.818
10113SOL    HW131238   4.101   6.786   0.754
10113SOL    HW231239   4.155   6.903   0.855
10114SOL     OW31240   4.698   1.252   2.120
10114SOL    HW131241   4.671   1.348   2.104
10114SOL    HW231242   4.629   1.208   2.178
10115SOL     OW31243   1.368   2.029   4.731
10115SOL    HW131244   1.452   2.058   4.777
10115SOL    HW231245   1.378   1.935   4.699
10116SOL     OW31246   0.599   0.379   1.039
10116SOL    HW131247   0.630   0.293   1.079
10116SOL    HW231248   0.669   0.449   1.049
10117SOL     OW31249   4.498   7.016   5.615
10117SOL    HW131250   4.532   6.934   5.569
10117SOL    HW231251   4.511   0.073   5.555
10118SOL     OW31252   6.127   5.838   2.353
10118SOL    HW131253   6.061   5.832   2.277
10118SOL    HW231254   6.083   5.806   2.437
10119SOL     OW31255   2.065   7.000   6.043
10119SOL    HW131256   1.969   6.980   6.064
10119SOL    HW231257   2.116   6.914   6.036
10120SOL     OW31258   5.514   3.167   3.512
10120SOL    HW131259   5.481   3.118   3.592
10120SOL    HW231260   5.452   3.153   3.435
10121SOL     OW31261   6.191   4.880   3.643
10121SOL    HW131262   6.162   4.786   3.621
10121SOL    HW231263   6.146   4.910   3.727
10122SOL     OW31264   5.313   2.643   0.330
10122SOL    HW131265   5.396   2.666   0.279
10122SOL    HW231266   5.273   2.727   0.366
10123SOL     OW31267   0.087   6.993   0.103
10123SOL    HW131268   0.157   6.992   0.031
10123SOL    HW231269   0.096   0.054   0.158
10124SOL     OW31270   3.236   4.295   0.808
10124SOL    HW131271   3.198   4.305   0.900
10124SOL    HW231272   3.272   4.203   0.797
10125SOL     OW31273   2.143   0.333   0.458
10125SOL    HW131274   2.196   0.331   0.543
10125SOL    HW231275   2.202   0.308   0.381
10126SOL     OW31276   5.799   5.439   6.270
10126SOL    HW131277   5.869   5.385   6.318
10126SOL    HW231278   5.810   5.535   6.294
10127SOL     OW31279   3.791   4.834   5.143
10127SOL    HW131280   3.836   4.776   5.211
10127SOL    HW231281   3.813   4.930   5.160
10128SOL     OW31282   1.076   1.434   1.104
10128SOL    HW131283   1.109   1.377   1.029
10128SOL    HW231284   1.137   1.423   1.183
10129SOL     OW31285   5.126   2.498   3.026
10129SOL    HW131286   5.027   2.504   3.041
10129SOL    HW231287   5.149   2.543   2.940
10130SOL     OW31288   6.216   5.822   1.441
10130SOL    HW131289   6.282   5.897   1.448
10130SOL    HW231290   6.125   5.859   1.423
10131SOL     OW31291   0.560   0.113   0.102
10131SOL    HW131292   0.495   0.189   0.100
10131SOL    HW231293   0.572   0.082   0.197
10132SOL     OW31294   2.826   6.502   2.599
10132SOL    HW131295   2.748   6.454   2.639
10132SOL    HW231296   2.796   6.589   2.562
10133SOL     OW31297   5.928   4.675   2.674
10133SOL    HW131298   5.831   4.673   2.700
10133SOL    HW231299   5.983   4.703   2.752
10134SOL     OW31300   0.569   1.564   1.800
10134SOL    HW131301   0.564   1.473   1.840
10134SOL    HW231302   0.490   1.580   1.741
10135SOL     OW31303   3.052   6.049   2.958
10135SOL    HW131304   3.133   6.015   2.909
10135SOL    HW231305   2.982   6.074   2.891
10136SOL     OW31306   6.551   6.445   2.443
10136SOL    HW131307   6.574   6.348   2.447
10136SOL    HW231308   6.451   6.456   2.442
10137SOL     OW31309   5.747   4.981   4.558
10137SOL    HW131310   5.745   5.078   4.581
10137SOL    HW231311   5.665   4.957   4.506
10138SOL     OW31312   6.004   2.992   5.909
10138SOL    HW131313   6.086   2.974   5.962
10138SOL    HW231314   5.966   2.906   5.876
10139SOL     OW31315   3.708   2.966   3.375
10139SOL    HW131316   3.720   3.022   3.457
10139SOL    HW231317   3.775   2.993   3.306
10140SOL     OW31318   1.256   4.841   4.226
10140SOL    HW131319   1.294   4.893   4.302
10140SOL    HW231320   1.180   4.891   4.185
10141SOL     OW31321   2.080   0.590   3.977
10141SOL    HW131322   2.160   0.645   3.955
10141SOL    HW231323   2.093   0.497   3.941
10142SOL     OW31324   5.167   5.411   4.277
10142SOL    HW131325   5.250   5.381   4.325
10142SOL    HW231326   5.113   5.470   4.338
10143SOL     OW31327   4.525   6.075   1.165
10143SOL    HW131328   4.477   6.146   1.112
10143SOL    HW231329   4.508   5.986   1.124
10144SOL     OW31330   2.734   4.658   3.144
10144SOL    HW131331   2.767   4.577   3.095
10144SOL    HW231332   2.639   4.675   3.120
10145SOL     OW31333   2.823   0.207   6.425
10145SOL    HW131334   2.873   0.122   6.409
10145SOL    HW231335   2.775   0.233   6.342
10146SOL     OW31336   5.088   4.624   4.545
10146SOL    HW131337   5.032   4.706   4.560
10146SOL    HW231338   5.061   4.580   4.459
10147SOL     OW31339   4.971   5.804   4.319
10147SOL    HW131340   4.942   5.708   4.318
10147SOL    HW231341   5.001   5.830   4.227
10148SOL     OW31342   6.237   5.399   0.684
10148SOL    HW131343   6.246   5.414   0.783
10148SOL    HW231344   6.190   5.312   0.668
10149SOL     OW31345   4.299   3.337   1.487
10149SOL    HW131346   4.277   3.404   1.558
10149SOL    HW231347   4.309   3.247   1.527
10150SOL     OW31348   5.546   4.182   0.906
10150SOL    HW131349   5.615   4.205   0.974
10150SOL    HW231350   5.579   4.106   0.850
10151SOL     OW31351   0.668   5.694   5.606
10151SOL    HW131352   0.678   5.595   5.608
10151SOL    HW231353   0.618   5.724   5.687
10152SOL     OW31354   0.817   5.752   4.188
10152SOL    HW131355   0.718   5.735   4.193
10152SOL    HW231356   0.833   5.849   4.175
10153SOL     OW31357   5.145   5.257   4.069
10153SOL    HW131358   5.117   5.319   3.995
10153SOL    HW231359   5.155   5.309   4.154
10154SOL     OW31360   6.967   5.939   5.895
10154SOL    HW131361   6.975   6.031   5.856
10154SOL    HW231362   6.875   5.925   5.931
10155SOL     OW31363   3.780   1.069   6.085
10155SOL    HW131364   3.826   0.990   6.045
10155SOL    HW231365   3.720   1.111   6.017
10156SOL     OW31366   5.968   0.376   2.565
10156SOL    HW131367   5.954   0.345   2.471
10156SOL    HW231368   6.049   0.331   2.604
10157SOL     OW31369   4.976   0.575   3.897
10157SOL    HW131370   5.072   0.556   3.918
10157SOL    HW231371   4.918   0.508   3.943
10158SOL     OW31372   5.006   3.208   5.897
10158SOL    HW131373   4.945   3.135   5.925
10158SOL    HW231374   4.956   3.294   5.890
10159SOL     OW31375   1.824   1.133   6.258
10159SOL    HW131376   1.862   1.069   6.325
10159SOL    HW231377   1.725   1.120   6.252
10160SOL     OW31378   0.494   6.169   3.498
10160SOL    HW131379   0.534   6.243   3.552
10160SOL    HW231380   0.565   6.103   3.474
10161SOL     OW31381   2.676   5.846   4.969
10161SOL    HW131382   2.634   5.885   4.887
10161SOL    HW231383   2.639   5.754   4.985
10162SOL     OW31384   3.201   2.778   6.827
10162SOL    HW131385   3.267   2.754   6.898
10162SOL    HW231386   3.124   2.715   6.831
10163SOL     OW31387   0.750   3.443   5.920
10163SOL    HW131388   0.804   3.431   5.837
10163SOL    HW231389   0.764   3.365   5.981
10164SOL     OW31390   1.419   2.610   6.176
10164SOL    HW131391   1.425   2.637   6.080
10164SOL    HW231392   1.355   2.534   6.186
10165SOL     OW31393   0.245   1.670   3.082
10165SOL    HW131394   0.238   1.647   2.985
10165SOL    HW231395   0.252   1.769   3.092
10166SOL     OW31396   0.558   1.317   1.936
10166SOL    HW131397   0.568   1.220   1.913
10166SOL    HW231398   0.491   1.327   2.009
10167SOL     OW31399   5.094   1.003   0.682
10167SOL    HW131400   5.121   0.929   0.621
10167SOL    HW231401   5.011   0.977   0.732
10168SOL     OW31402   6.691   4.698   4.820
10168SOL    HW131403   6.601   4.674   4.857
10168SOL    HW231404   6.753   4.718   4.896
10169SOL     OW31405   6.612   4.222   4.897
10169SOL    HW131406   6.549   4.259   4.829
10169SOL    HW231407   6.624   4.287   4.972
10170SOL     OW31408   1.417   4.089   5.093
10170SOL    HW131409   1.440   4.126   5.003
10170SOL    HW231410   1.473   4.134   5.162
10171SOL     OW31411   5.762   2.871   6.542
10171SOL    HW131412   5.858   2.892   6.529
10171SOL    HW231413   5.751   2.772   6.551
10172SOL     OW31414   4.707   0.592   4.193
10172SOL    HW131415   4.789   0.535   4.199
10172SOL    HW231416   4.716   0.670   4.254
10173SOL     OW31417   2.291   2.419   2.721
10173SOL    HW131418   2.297   2.498   2.782
10173SOL    HW231419   2.222   2.355   2.756
10174SOL     OW31420   6.460   4.245   0.946
10174SOL    HW131421   6.441   4.272   1.041
10174SOL    HW231422   6.383   4.195   0.909
10175SOL     OW31423   5.530   2.596   5.575
10175SOL    HW131424   5.435   2.577   5.600
10175SOL    HW231425   5.561   2.678   5.624
10176SOL     OW31426   2.173   3.218   0.490
10176SOL    HW131427   2.208   3.308   0.465
10176SOL    HW231428   2.095   3.229   0.551
10177SOL     OW31429   2.011   0.295   5.325
10177SOL    HW131430   2.109   0.296   5.347
10177SOL    HW231431   1.988   0.211   5.277
10178SOL     OW31432   5.199   2.847   5.185
10178SOL    HW131433   5.102   2.866   5.169
10178SOL    HW231434   5.253   2.890   5.112
10179SOL     OW31435   0.052   3.447   6.891
10179SOL    HW131436   0.039   3.483   6.984
10179SOL    HW231437   0.126   3.498   6.846
10180SOL     OW31438   1.892   6.671   5.809
10180SOL    HW131439   1.819   6.659   5.742
10180SOL    HW231440   1.852   6.672   5.901
10181SOL     OW31441   6.005   3.545   2.050
10181SOL    HW131442   5.936   3.534   2.122
10181SOL    HW231443   5.982   3.485   1.973
10182SOL     OW31444   4.226   1.359   0.434
10182SOL    HW131445   4.309   1.410   0.453
10182SOL    HW231446   4.146   1.417   0.450
10183SOL     OW31447   2.333   1.471   6.391
10183SOL    HW131448   2.373   1.379   6.385
10183SOL    HW231449   2.233   1.463   6.396
10184SOL     OW31450   4.666   0.811   6.970
10184SOL    HW131451   4.586   0.870   6.981
10184SOL    HW231452   4.649   0.746   6.896
10185SOL     OW31453   4.431   1.369   0.101
10185SOL    HW131454   4.476   1.437   0.043
10185SOL    HW231455   4.372   1.311   0.045
10186SOL     OW31456   4.858   2.428   3.025
10186SOL    HW131457   4.879   2.426   2.928
10186SOL    HW231458   4.780   2.369   3.044
10187SOL     OW31459   1.100   2.189   2.485
10187SOL    HW131460   1.053   2.233   2.561
10187SOL    HW231461   1.132   2.098   2.514
10188SOL     OW31462   4.138   5.112   0.307
10188SOL    HW131463   4.123   5.070   0.396
10188SOL    HW231464   4.132   5.212   0.315
10189SOL     OW31465   1.390   6.852   5.192
10189SOL    HW131466   1.352   6.868   5.283
10189SOL    HW231467   1.318   6.856   5.123
10190SOL     OW31468   5.307   2.857   6.914
10190SOL    HW131469   5.353   2.770   6.891
10190SOL    HW231470   5.250   2.843   6.995
10191SOL     OW31471   6.973   4.710   6.533
10191SOL    HW131472   0.040   4.743   6.563
10191SOL    HW231473   6.901   4.764   6.576
10192SOL     OW31474   3.775   1.746   0.148
10192SOL    HW131475   3.698   1.701   0.104
10192SOL    HW231476   3.793   1.702   0.236
10193SOL     OW31477   4.661   4.112   0.543
10193SOL    HW131478   4.614   4.053   0.477
10193SOL    HW231479   4.697   4.057   0.618
10194SOL     OW31480   4.655   2.593   4.999
10194SOL    HW131481   4.579   2.635   5.048
10194SOL    HW231482   4.732   2.579   5.062
10195SOL     OW31483   5.978   4.109   1.925
10195SOL    HW131484   5.889   4.064   1.924
10195SOL    HW231485   6.050   4.042   1.944
10196SOL     OW31486   6.958   2.086   4.187
10196SOL    HW131487   7.008   2.169   4.209
10196SOL    HW231488   6.862   2.108   4.169
10197SOL     OW31489   5.649   0.725   0.059
10197SOL    HW131490   5.562   0.755   0.019
10197SOL    HW231491   5.634   0.697   0.154
10198SOL     OW31492   4.046   6.850   3.686
10198SOL    HW131493   4.041   6.785   3.610
10198SOL    HW231494   4.086   6.804   3.765
10199SOL     OW31495   0.766   2.338   5.497
10199SOL    HW131496   0.836   2.297   5.438
10199SOL    HW231497   0.756   2.283   5.579
10200SOL     OW31498   5.038   2.291   1.907
10200SOL    HW131499   5.057   2.250   1.818
10200SOL    HW231500   4.981   2.229   1.961
10201SOL     OW31501   1.602   3.820   0.879
10201SOL    HW131502   1.688   3.865   0.858
10201SOL    HW231503   1.529   3.888   0.888
10202SOL     OW31504   5.426   0.529   3.650
10202SOL    HW131505   5.351   0.596   3.645
10202SOL    HW231506   5.389   0.438   3.666
10203SOL     OW31507   0.251   2.728   5.032
10203SOL    HW131508   0.211   2.763   4.947
10203SOL    HW231509   0.300   2.643   5.013
10204SOL     OW31510   5.662   4.799   6.281
10204SOL    HW131511   5.635   4.893   6.259
10204SOL    HW231512   5.591   4.755   6.335
10205SOL     OW31513   0.021   1.544   6.765
10205SOL    HW131514   0.051   1.458   6.723
10205SOL    HW231515   6.991   1.597   6.699
10206SOL     OW31516   1.997   1.627   4.649
10206SOL    HW131517   1.898   1.644   4.645
10206SOL    HW231518   2.038   1.646   4.559
10207SOL     OW31519   2.493   2.408   5.774
10207SOL    HW131520   2.572   2.365   5.818
10207SOL    HW231521   2.480   2.369   5.683
10208SOL     OW31522   0.021   6.743   5.953
10208SOL    HW131523   6.947   6.749   5.980
10208SOL    HW231524   0.069   6.680   6.014
10209SOL     OW31525   6.651   6.588   5.712
10209SOL    HW131526   6.625   6.681   5.738
10209SOL    HW231527   6.632   6.525   5.787
10210SOL     OW31528   3.826   0.500   1.708
10210SOL    HW131529   3.741   0.527   1.752
10210SOL    HW231530   3.869   0.580   1.667
10211SOL     OW31531   5.092   5.448   6.200
10211SOL    HW131532   5.180   5.405   6.216
10211SOL    HW231533   5.021   5.398   6.249
10212SOL     OW31534   0.298   0.839   6.762
10212SOL    HW131535   0.296   0.932   6.798
10212SOL    HW231536   0.294   0.774   6.838
10213SOL     OW31537   6.839   2.648   1.166
10213SOL    HW131538   6.836   2.644   1.066
10213SOL    HW231539   6.933   2.631   1.197
10214SOL     OW31540   1.562   2.809   6.953
10214SOL    HW131541   1.577   2.822   6.855
10214SOL    HW231542   1.521   2.719   6.969
10215SOL     OW31543   3.411   4.178   2.952
10215SOL    HW131544   3.509   4.177   2.974
10215SOL    HW231545   3.382   4.272   2.935
10216SOL     OW31546   0.495   6.243   1.943
10216SOL    HW131547   0.473   6.304   1.867
10216SOL    HW231548   0.416   6.235   2.003
10217SOL     OW31549   4.562   1.690   5.146
10217SOL    HW131550   4.485   1.626   5.141
10217SOL    HW231551   4.546   1.767   5.084
10218SOL     OW31552   1.125   2.757   2.939
10218SOL    HW131553   1.213   2.804   2.934
10218SOL    HW231554   1.059   2.803   2.881
10219SOL     OW31555   6.745   6.276   2.618
10219SOL    HW131556   6.797   6.212   2.676
10219SOL    HW231557   6.675   6.225   2.568
10220SOL     OW31558   3.355   3.240   6.899
10220SOL    HW131559   3.339   3.317   6.961
10220SOL    HW231560   3.272   3.223   6.845
10221SOL     OW31561   1.131   5.081   3.255
10221SOL    HW131562   1.120   5.090   3.354
10221SOL    HW231563   1.063   5.138   3.209
10222SOL     OW31564   3.099   3.803   3.806
10222SOL    HW131565   3.069   3.814   3.711
10222SOL    HW231566   3.179   3.744   3.809
10223SOL     OW31567   2.470   6.718   0.731
10223SOL    HW131568   2.451   6.758   0.641
10223SOL    HW231569   2.472   6.619   0.723
10224SOL     OW31570   6.950   3.373   2.937
10224SOL    HW131571   0.016   3.407   2.970
10224SOL    HW231572   6.876   3.420   2.986
10225SOL     OW31573   1.650   3.870   5.784
10225SOL    HW131574   1.577   3.903   5.724
10225SOL    HW231575   1.646   3.920   5.871
10226SOL     OW31576   4.565   4.435   0.124
10226SOL    HW131577   4.642   4.453   0.185
10226SOL    HW231578   4.493   4.386   0.174
10227SOL     OW31579   5.761   4.002   1.252
10227SOL    HW131580   5.846   4.003   1.303
10227SOL    HW231581   5.727   4.095   1.241
10228SOL     OW31582   5.502   0.417   0.680
10228SOL    HW131583   5.450   0.347   0.729
10228SOL    HW231584   5.559   0.373   0.610
10229SOL     OW31585   0.457   2.222   4.881
10229SOL    HW131586   0.440   2.193   4.787
10229SOL    HW231587   0.524   2.160   4.923
10230SOL     OW31588   6.866   6.265   1.578
10230SOL    HW131589   6.854   6.193   1.646
10230SOL    HW231590   6.865   6.354   1.623
10231SOL     OW31591   0.381   4.025   2.252
10231SOL    HW131592   0.296   4.007   2.301
10231SOL    HW231593   0.458   3.986   2.302
10232SOL     OW31594   4.438   4.922   2.517
10232SOL    HW131595   4.404   4.930   2.611
10232SOL    HW231596   4.538   4.926   2.517
10233SOL     OW31597   3.059   3.837   5.807
10233SOL    HW131598   2.977   3.864   5.857
10233SOL    HW231599   3.140   3.857   5.862
10234SOL     OW31600   0.443   0.977   2.097
10234SOL    HW131601   0.390   0.907   2.145
10234SOL    HW231602   0.507   1.021   2.161
10235SOL     OW31603   1.436   1.202   3.259
10235SOL    HW131604   1.427   1.158   3.348
10235SOL    HW231605   1.511   1.158   3.208
10236SOL     OW31606   0.447   0.560   2.858
10236SOL    HW131607   0.389   0.499   2.805
10236SOL    HW231608   0.418   0.655   2.843
10237SOL     OW31609   7.016   3.380   5.631
10237SOL    HW131610   7.008   3.291   5.676
10237SOL    HW231611   0.054   3.372   5.552
10238SOL     OW31612   2.814   6.625   1.137
10238SOL    HW131613   2.789   6.720   1.121
10238SOL    HW231614   2.914   6.617   1.139
10239SOL     OW31615   1.459   2.581   5.161
10239SOL    HW131616   1.504   2.563   5.249
10239SOL    HW231617   1.385   2.646   5.174
10240SOL     OW31618   2.408   5.899   1.327
10240SOL    HW131619   2.318   5.895   1.372
10240SOL    HW231620   2.398   5.882   1.229
10241SOL     OW31621   4.221   3.716   1.510
10241SOL    HW131622   4.131   3.690   1.546
10241SOL    HW231623   4.290   3.700   1.580
10242SOL     OW31624   0.228   3.522   1.023
10242SOL    HW131625   0.288   3.526   1.103
10242SOL    HW231626   0.152   3.585   1.035
10243SOL     OW31627   3.325   5.320   2.138
10243SOL    HW131628   3.397   5.381   2.104
10243SOL    HW231629   3.364   5.258   2.206
10244SOL     OW31630   2.856   4.982   1.568
10244SOL    HW131631   2.840   4.933   1.482
10244SOL    HW231632   2.824   4.927   1.645
10245SOL     OW31633   6.054   4.206   1.058
10245SOL    HW131634   6.053   4.302   1.085
10245SOL    HW231635   5.960   4.175   1.044
10246SOL     OW31636   3.425   3.178   3.621
10246SOL    HW131637   3.345   3.164   3.679
10246SOL    HW231638   3.398   3.225   3.537
10247SOL     OW31639   0.732   3.151   4.615
10247SOL    HW131640   0.815   3.165   4.561
10247SOL    HW231641   0.670   3.090   4.566
10248SOL     OW31642   0.490   1.658   5.139
10248SOL    HW131643   0.436   1.594   5.193
10248SOL    HW231644   0.460   1.654   5.043
10249SOL     OW31645   2.639   4.773   5.741
10249SOL    HW131646   2.718   4.825   5.709
10249SOL    HW231647   2.620   4.698   5.678
10250SOL     OW31648   3.205   3.210   0.525
10250SOL    HW131649   3.287   3.183   0.474
10250SOL    HW231650   3.127   3.215   0.463
10251SOL     OW31651   1.129   0.883   4.472
10251SOL    HW131652   1.180   0.819   4.529
10251SOL    HW231653   1.070   0.833   4.409
10252SOL     OW31654   4.946   4.622   5.837
10252SOL    HW131655   4.967   4.693   5.904
10252SOL    HW231656   4.866   4.570   5.867
10253SOL     OW31657   3.728   5.633   6.841
10253SOL    HW131658   3.646   5.673   6.801
10253SOL    HW231659   3.722   5.638   6.941
10254SOL     OW31660   6.465   1.297   6.107
10254SOL    HW131661   6.427   1.284   6.016
10254SOL    HW231662   6.499   1.210   6.142
10255SOL     OW31663   4.006   4.489   1.643
10255SOL    HW131664   4.105   4.483   1.659
10255SOL    HW231665   3.969   4.398   1.631
10256SOL     OW31666   2.884   1.504   4.607
10256SOL    HW131667   2.971   1.548   4.585
10256SOL    HW231668   2.826   1.504   4.526
10257SOL     OW31669   3.347   5.685   2.801
10257SOL    HW131670   3.413   5.625   2.756
10257SOL    HW231671   3.273   5.706   2.736
10258SOL     OW31672   2.611   1.499   2.393
10258SOL    HW131673   2.562   1.586   2.398
10258SOL    HW231674   2.647   1.487   2.301
10259SOL     OW31675   1.472   3.876   3.892
10259SOL    HW131676   1.494   3.794   3.945
10259SOL    HW231677   1.508   3.957   3.938
10260SOL     OW31678   0.796   0.348   3.438
10260SOL    HW131679   0.766   0.315   3.349
10260SOL    HW231680   0.753   0.436   3.457
10261SOL     OW31681   6.935   3.974   1.097
10261SOL    HW131682   6.915   3.987   0.999
10261SOL    HW231683   6.951   4.064   1.139
10262SOL     OW31684   3.607   0.906   6.972
10262SOL    HW131685   3.577   0.854   0.029
10262SOL    HW231686   3.643   0.843   6.903
10263SOL     OW31687   5.677   0.207   2.944
10263SOL    HW131688   5.687   0.120   2.992
10263SOL    HW231689   5.655   0.190   2.848
10264SOL     OW31690   6.465   0.508   6.114
10264SOL    HW131691   6.432   0.515   6.208
10264SOL    HW231692   6.557   0.468   6.114
10265SOL     OW31693   2.078   1.438   1.714
10265SOL    HW131694   2.062   1.518   1.773
10265SOL    HW231695   2.082   1.356   1.771
10266SOL     OW31696   2.761   3.612   1.329
10266SOL    HW131697   2.670   3.635   1.364
10266SOL    HW231698   2.801   3.540   1.386
10267SOL     OW31699   6.521   0.336   0.747
10267SOL    HW131700   6.471   0.253   0.725
10267SOL    HW231701   6.464   0.416   0.727
10268SOL     OW31702   2.864   5.424   2.346
10268SOL    HW131703   2.837   5.477   2.265
10268SOL    HW231704   2.862   5.327   2.324
10269SOL     OW31705   2.288   1.337   6.925
10269SOL    HW131706   2.292   1.309   6.829
10269SOL    HW231707   2.254   1.261   6.980
10270SOL     OW31708   2.681   0.365   3.942
10270SOL    HW131709   2.763   0.401   3.898
10270SOL    HW231710   2.702   0.336   4.035
10271SOL     OW31711   1.978   1.003   6.913
10271SOL    HW131712   1.962   1.100   6.931
10271SOL    HW231713   2.023   0.962   6.993
10272SOL     OW31714   6.073   6.553   4.757
10272SOL    HW131715   6.128   6.510   4.828
10272SOL    HW231716   6.059   6.650   4.779
10273SOL     OW31717   1.725   5.447   3.251
10273SOL    HW131718   1.762   5.386   3.181
10273SOL    HW231719   1.782   5.529   3.256
10274SOL     OW31720   1.011   3.632   5.271
10274SOL    HW131721   0.978   3.591   5.186
10274SOL    HW231722   1.104   3.666   5.258
10275SOL     OW31723   6.910   1.013   1.890
10275SOL    HW131724   6.915   1.111   1.874
10275SOL    HW231725   6.957   0.990   1.975
10276SOL     OW31726   3.242   5.151   5.192
10276SOL    HW131727   3.245   5.223   5.262
10276SOL    HW231728   3.152   5.149   5.150
10277SOL     OW31729   1.123   5.210   3.690
10277SOL    HW131730   1.146   5.137   3.755
10277SOL    HW231731   1.026   5.230   3.695
10278SOL     OW31732   6.360   0.236   4.598
10278SOL    HW131733   6.437   0.218   4.660
10278SOL    HW231734   6.393   0.235   4.504
10279SOL     OW31735   1.329   4.595   4.060
10279SOL    HW131736   1.301   4.596   3.964
10279SOL    HW231737   1.282   4.668   4.109
10280SOL     OW31738   5.890   5.504   0.509
10280SOL    HW131739   5.899   5.419   0.562
10280SOL    HW231740   5.871   5.580   0.571
10281SOL     OW31741   6.237   0.587   4.270
10281SOL    HW131742   6.145   0.586   4.309
10281SOL    HW231743   6.277   0.678   4.281
10282SOL     OW31744   4.525   2.596   3.434
10282SOL    HW131745   4.520   2.690   3.399
10282SOL    HW231746   4.620   2.568   3.440
10283SOL     OW31747   0.292   2.097   1.112
10283SOL    HW131748   0.389   2.095   1.139
10283SOL    HW231749   0.285   2.108   1.013
10284SOL     OW31750   0.573   5.036   4.622
10284SOL    HW131751   0.631   5.109   4.659
10284SOL    HW231752   0.596   5.020   4.526
10285SOL     OW31753   0.089   6.751   6.575
10285SOL    HW131754   0.020   6.792   6.515
10285SOL    HW231755   0.057   6.661   6.605
10286SOL     OW31756   2.788   0.930   2.396
10286SOL    HW131757   2.865   0.982   2.361
10286SOL    HW231758   2.739   0.888   2.319
10287SOL     OW31759   0.708   5.869   2.780
10287SOL    HW131760   0.722   5.935   2.853
10287SOL    HW231761   0.793   5.821   2.761
10288SOL     OW31762   3.723   5.870   4.171
10288SOL    HW131763   3.645   5.821   4.208
10288SOL    HW231764   3.692   5.934   4.101
10289SOL     OW31765   3.977   6.076   0.020
10289SOL    HW131766   4.024   6.140   6.982
10289SOL    HW231767   4.024   5.988   0.019
10290SOL     OW31768   2.922   3.397   2.446
10290SOL    HW131769   2.920   3.338   2.365
10290SOL    HW231770   3.010   3.444   2.451
10291SOL     OW31771   3.071   1.801   2.090
10291SOL    HW131772   3.091   1.770   2.183
10291SOL    HW231773   3.056   1.900   2.091
10292SOL     OW31774   0.167   0.166   6.025
10292SOL    HW131775   0.183   0.087   5.966
10292SOL    HW231776   0.243   0.230   6.018
10293SOL     OW31777   1.227   3.419   5.140
10293SOL    HW131778   1.130   3.421   5.118
10293SOL    HW231779   1.239   3.420   5.240
10294SOL     OW31780   2.088   6.979   2.175
10294SOL    HW131781   2.098   6.960   2.078
10294SOL    HW231782   1.993   7.005   2.195
10295SOL     OW31783   1.619   1.408   0.473
10295SOL    HW131784   1.679   1.364   0.541
10295SOL    HW231785   1.649   1.502   0.460
10296SOL     OW31786   6.346   2.289   5.672
10296SOL    HW131787   6.282   2.262   5.600
10296SOL    HW231788   6.411   2.356   5.636
10297SOL     OW31789   4.777   0.866   1.074
10297SOL    HW131790   4.836   0.785   1.075
10297SOL    HW231791   4.778   0.907   0.983
10298SOL     OW31792   1.223   1.864   1.841
10298SOL    HW131793   1.133   1.861   1.798
10298SOL    HW231794   1.293   1.847   1.772
10299SOL     OW31795   5.000   0.456   2.722
10299SOL    HW131796   4.957   0.432   2.809
10299SOL    HW231797   4.930   0.466   2.651
10300SOL     OW31798   1.361   3.090   0.673
10300SOL    HW131799   1.358   3.075   0.772
10300SOL    HW231800   1.454   3.074   0.639
10301SOL     OW31801   3.957   1.040   0.195
10301SOL    HW131802   4.052   1.017   0.214
10301SOL    HW231803   3.953   1.129   0.148
10302SOL     OW31804   3.352   6.048   5.528
10302SOL    HW131805   3.298   6.093   5.457
10302SOL    HW231806   3.306   6.059   5.616
10303SOL     OW31807   0.451   4.237   4.756
10303SOL    HW131808   0.481   4.237   4.851
10303SOL    HW231809   0.512   4.294   4.701
10304SOL     OW31810   5.486   6.351   1.325
10304SOL    HW131811   5.446   6.390   1.408
10304SOL    HW231812   5.585   6.367   1.326
10305SOL     OW31813   2.814   3.796   5.190
10305SOL    HW131814   2.890   3.803   5.256
10305SOL    HW231815   2.842   3.736   5.115
10306SOL     OW31816   4.279   1.027   0.958
10306SOL    HW131817   4.182   1.051   0.946
10306SOL    HW231818   4.332   1.067   0.883
10307SOL     OW31819   1.956   0.115   5.133
10307SOL    HW131820   1.928   0.055   5.057
10307SOL    HW231821   2.019   0.184   5.099
10308SOL     OW31822   3.045   4.423   1.664
10308SOL    HW131823   3.075   4.380   1.749
10308SOL    HW231824   2.955   4.465   1.678
10309SOL     OW31825   0.136   1.090   5.716
10309SOL    HW131826   0.183   1.163   5.666
10309SOL    HW231827   0.194   1.009   5.719
10310SOL     OW31828   3.260   3.882   5.988
10310SOL    HW131829   3.334   3.840   6.041
10310SOL    HW231830   3.261   3.981   6.004
10311SOL     OW31831   5.814   6.084   0.024
10311SOL    HW131832   5.866   6.124   0.099
10311SOL    HW231833   5.868   6.011   7.004
10312SOL     OW31834   2.927   6.760   2.315
10312SOL    HW131835   2.836   6.743   2.278
10312SOL    HW231836   2.979   6.675   2.316
10313SOL     OW31837   4.969   6.764   2.718
10313SOL    HW131838   5.007   6.685   2.766
10313SOL    HW231839   5.036   6.798   2.652
10314SOL     OW31840   0.751   6.948   0.809
10314SOL    HW131841   0.835   6.901   0.782
10314SOL    HW231842   0.686   6.881   0.847
10315SOL     OW31843   4.920   4.656   3.763
10315SOL    HW131844   4.875   4.739   3.794
10315SOL    HW231845   4.922   4.589   3.837
10316SOL     OW31846   0.740   1.849   0.225
10316SOL    HW131847   0.820   1.893   0.183
10316SOL    HW231848   0.657   1.881   0.180
10317SOL     OW31849   3.935   6.096   4.977
10317SOL    HW131850   3.858   6.103   4.913
10317SOL    HW231851   3.930   6.009   5.026
10318SOL     OW31852   6.254   0.087   0.277
10318SOL    HW131853   6.353   0.087   0.260
10318SOL    HW231854   6.212   0.014   0.223
10319SOL     OW31855   0.650   4.262   4.104
10319SOL    HW131856   0.589   4.266   4.183
10319SOL    HW231857   0.667   4.167   4.078
10320SOL     OW31858   6.762   0.385   2.604
10320SOL    HW131859   6.756   0.285   2.600
10320SOL    HW231860   6.689   0.424   2.547
10321SOL     OW31861   6.005   2.720   2.918
10321SOL    HW131862   5.989   2.655   2.843
10321SOL    HW231863   6.031   2.670   3.000
10322SOL     OW31864   4.578   4.355   4.615
10322SOL    HW131865   4.553   4.259   4.606
10322SOL    HW231866   4.609   4.391   4.527
10323SOL     OW31867   1.366   4.616   6.067
10323SOL    HW131868   1.437   4.686   6.074
10323SOL    HW231869   1.407   4.526   6.081
10324SOL     OW31870   2.905   3.311   2.970
10324SOL    HW131871   2.862   3.400   2.954
10324SOL    HW231872   2.902   3.257   2.886
10325SOL     OW31873   5.852   6.027   4.950
10325SOL    HW131874   5.805   6.060   4.869
10325SOL    HW231875   5.813   5.940   4.979
10326SOL     OW31876   5.763   3.039   6.779
10326SOL    HW131877   5.760   2.972   6.705
10326SOL    HW231878   5.736   3.129   6.744
10327SOL     OW31879   1.669   5.826   6.622
10327SOL    HW131880   1.681   5.898   6.690
10327SOL    HW231881   1.648   5.866   6.533
10328SOL     OW31882   5.639   2.522   2.332
10328SOL    HW131883   5.570   2.508   2.261
10328SOL    HW231884   5.622   2.460   2.408
10329SOL     OW31885   3.506   1.690   2.090
10329SOL    HW131886   3.449   1.768   2.066
10329SOL    HW231887   3.476   1.609   2.039
10330SOL     OW31888   5.393   0.044   2.160
10330SOL    HW131889   5.336   0.126   2.149
10330SOL    HW231890   5.443   0.026   2.075
10331SOL     OW31891   4.958   5.531   5.872
10331SOL    HW131892   4.934   5.627   5.858
10331SOL    HW231893   4.920   5.476   5.798
10332SOL     OW31894   1.972   1.756   6.422
10332SOL    HW131895   1.892   1.815   6.428
10332SOL    HW231896   2.055   1.812   6.420
10333SOL     OW31897   1.389   3.517   4.503
10333SOL    HW131898   1.365   3.511   4.600
10333SOL    HW231899   1.428   3.607   4.484
10334SOL     OW31900   3.422   1.682   4.061
10334SOL    HW131901   3.399   1.637   3.975
10334SOL    HW231902   3.377   1.771   4.065
10335SOL     OW31903   1.946   2.943   4.998
10335SOL    HW131904   2.035   2.986   4.980
10335SOL    HW231905   1.880   3.013   5.025
10336SOL     OW31906   5.533   6.664   3.401
10336SOL    HW131907   5.579   6.579   3.375
10336SOL    HW231908   5.525   6.668   3.501
10337SOL     OW31909   6.538   6.097   6.931
10337SOL    HW131910   6.461   6.033   6.928
10337SOL    HW231911   6.589   6.084   7.016
10338SOL     OW31912   1.202   6.654   1.724
10338SOL    HW131913   1.284   6.709   1.738
10338SOL    HW231914   1.128   6.690   1.780
10339SOL     OW31915   5.517   2.610   5.906
10339SOL    HW131916   5.471   2.651   5.827
10339SOL    HW231917   5.567   2.528   5.876
10340SOL     OW31918   2.214   4.048   6.357
10340SOL    HW131919   2.136   4.043   6.420
10340SOL    HW231920   2.236   4.144   6.340
10341SOL     OW31921   2.585   4.675   3.522
10341SOL    HW131922   2.507   4.694   3.463
10341SOL    HW231923   2.554   4.629   3.606
10342SOL     OW31924   0.726   1.123   3.982
10342SOL    HW131925   0.768   1.105   3.893
10342SOL    HW231926   0.697   1.037   4.023
10343SOL     OW31927   3.909   5.089   1.865
10343SOL    HW131928   3.867   5.065   1.953
10343SOL    HW231929   4.008   5.081   1.873
10344SOL     OW31930   4.802   6.974   6.711
10344SOL    HW131931   4.772   6.879   6.706
10344SOL    HW231932   4.897   6.980   6.679
10345SOL     OW31933   1.441   4.169   4.842
10345SOL    HW131934   1.538   4.150   4.831
10345SOL    HW231935   1.388   4.107   4.784
10346SOL     OW31936   0.358   5.915   0.043
10346SOL    HW131937   0.361   5.979   6.989
10346SOL    HW231938   0.332   5.965   0.127
10347SOL     OW31939   5.637   2.138   5.091
10347SOL    HW131940   5.660   2.226   5.133
10347SOL    HW231941   5.670   2.063   5.148
10348SOL     OW31942   0.223   5.053   1.130
10348SOL    HW131943   0.212   5.019   1.223
10348SOL    HW231944   0.270   5.142   1.133
10349SOL     OW31945   6.885   6.727   6.354
10349SOL    HW131946   6.801   6.675   6.369
10349SOL    HW231947   6.863   6.818   6.319
10350SOL     OW31948   3.666   0.432   6.113
10350SOL    HW131949   3.566   0.433   6.119
10350SOL    HW231950   3.700   0.340   6.135
10351SOL     OW31951   4.238   5.282   6.121
10351SOL    HW131952   4.173   5.304   6.048
10351SOL    HW231953   4.271   5.366   6.163
10352SOL     OW31954   4.160   4.598   6.356
10352SOL    HW131955   4.222   4.552   6.292
10352SOL    HW231956   4.077   4.627   6.306
10353SOL     OW31957   0.707   3.305   5.159
10353SOL    HW131958   0.642   3.378   5.140
10353SOL    HW231959   0.658   3.225   5.194
10354SOL     OW31960   5.539   1.878   0.712
10354SOL    HW131961   5.635   1.853   0.713
10354SOL    HW231962   5.531   1.978   0.715
10355SOL     OW31963   1.350   4.291   3.429
10355SOL    HW131964   1.330   4.378   3.385
10355SOL    HW231965   1.449   4.282   3.441
10356SOL     OW31966   0.366   2.469   4.998
10356SOL    HW131967   0.447   2.479   5.056
10356SOL    HW231968   0.375   2.387   4.941
10357SOL     OW31969   3.217   3.060   6.406
10357SOL    HW131970   3.168   3.072   6.320
10357SOL    HW231971   3.153   3.060   6.483
10358SOL     OW31972   0.333   0.768   2.246
10358SOL    HW131973   0.289   0.682   2.220
10358SOL    HW231974   0.284   0.809   2.324
10359SOL     OW31975   0.492   1.499   0.760
10359SOL    HW131976   0.415   1.502   0.823
10359SOL    HW231977   0.576   1.484   0.810
10360SOL     OW31978   0.108   4.572   3.866
10360SOL    HW131979   0.012   4.543   3.863
10360SOL    HW231980   0.114   4.664   3.903
10361SOL     OW31981   2.648   5.089   0.578
10361SOL    HW131982   2.609   5.163   0.632
10361SOL    HW231983   2.697   5.025   0.638
10362SOL     OW31984   1.238   4.590   5.082
10362SOL    HW131985   1.205   4.657   5.015
10362SOL    HW231986   1.295   4.523   5.036
10363SOL     OW31987   5.488   6.847   3.704
10363SOL    HW131988   5.565   6.910   3.696
10363SOL    HW231989   5.436   6.847   3.619
10364SOL     OW31990   1.259   4.363   1.019
10364SOL    HW131991   1.327   4.402   0.958
10364SOL    HW231992   1.208   4.437   1.064
10365SOL     OW31993   5.193   5.192   0.253
10365SOL    HW131994   5.255   5.157   0.183
10365SOL    HW231995   5.147   5.115   0.298
10366SOL     OW31996   3.960   6.527   4.085
10366SOL    HW131997   4.019   6.608   4.093
10366SOL    HW231998   3.977   6.483   3.997
10367SOL     OW31999   6.722   1.086   2.971
10367SOL    HW132000   6.734   1.012   3.036
10367SOL    HW232001   6.637   1.071   2.919
10368SOL     OW32002   2.436   0.154   0.992
10368SOL    HW132003   2.338   0.170   0.990
10368SOL    HW232004   2.455   0.056   0.983
10369SOL     OW32005   4.087   2.718   6.599
10369SOL    HW132006   3.990   2.732   6.580
10369SOL    HW232007   4.140   2.790   6.553
10370SOL     OW32008   3.439   0.772   5.302
10370SOL    HW132009   3.348   0.730   5.299
10370SOL    HW232010   3.504   0.707   5.341
10371SOL     OW32011   4.761   6.773   5.367
10371SOL    HW132012   4.776   6.763   5.268
10371SOL    HW232013   4.807   6.855   5.400
10372SOL     OW32014   0.662   0.856   3.729
10372SOL    HW132015   0.572   0.892   3.754
10372SOL    HW232016   0.678   0.770   3.777
10373SOL     OW32017   1.519   5.840   5.180
10373SOL    HW132018   1.581   5.778   5.132
10373SOL    HW232019   1.504   5.806   5.273
10374SOL     OW32020   3.407   1.792   3.497
10374SOL    HW132021   3.312   1.806   3.471
10374SOL    HW232022   3.430   1.695   3.492
10375SOL     OW32023   0.239   1.911   1.393
10375SOL    HW132024   0.317   1.869   1.438
10375SOL    HW232025   0.154   1.867   1.423
10376SOL     OW32026   5.952   0.088   3.859
10376SOL    HW132027   5.913   0.172   3.821
10376SOL    HW232028   5.966   0.021   3.786
10377SOL     OW32029   0.014   6.287   3.797
10377SOL    HW132030   0.062   6.362   3.752
10377SOL    HW232031   0.077   6.211   3.814
10378SOL     OW32032   6.052   6.333   5.580
10378SOL    HW132033   6.145   6.366   5.568
10378SOL    HW232034   5.995   6.363   5.504
10379SOL     OW32035   4.263   1.620   4.114
10379SOL    HW132036   4.310   1.566   4.045
10379SOL    HW232037   4.270   1.574   4.203
10380SOL     OW32038   3.552   0.546   3.998
10380SOL    HW132039   3.628   0.584   3.946
10380SOL    HW232040   3.571   0.450   4.020
10381SOL     OW32041   3.406   5.302   4.536
10381SOL    HW132042   3.411   5.321   4.634
10381SOL    HW232043   3.314   5.271   4.514
10382SOL     OW32044   0.400   5.889   0.945
10382SOL    HW132045   0.335   5.834   0.999
10382SOL    HW232046   0.415   5.845   0.856
10383SOL     OW32047   5.420   2.854   0.527
10383SOL    HW132048   5.499   2.877   0.470
10383SOL    HW232049   5.452   2.830   0.619
10384SOL     OW32050   5.823   1.140   6.508
10384SOL    HW132051   5.740   1.139   6.453
10384SOL    HW232052   5.803   1.100   6.598
10385SOL     OW32053   0.421   2.867   6.566
10385SOL    HW132054   0.483   2.904   6.497
10385SOL    HW232055   0.407   2.936   6.638
10386SOL     OW32056   6.936   1.943   6.238
10386SOL    HW132057   6.935   1.989   6.149
10386SOL    HW232058   6.844   1.908   6.257
10387SOL     OW32059   1.733   3.908   2.798
10387SOL    HW132060   1.663   3.836   2.796
10387SOL    HW232061   1.769   3.921   2.705
10388SOL     OW32062   1.427   4.413   2.310
10388SOL    HW132063   1.369   4.396   2.389
10388SOL    HW232064   1.523   4.411   2.339
10389SOL     OW32065   0.875   5.334   3.619
10389SOL    HW132066   0.879   5.431   3.642
10389SOL    HW232067   0.838   5.282   3.695
10390SOL     OW32068   2.102   3.378   3.195
10390SOL    HW132069   2.144   3.292   3.167
10390SOL    HW232070   2.133   3.402   3.287
10391SOL     OW32071   3.987   5.823   4.329
10391SOL    HW132072   3.889   5.842   4.322
10391SOL    HW232073   4.039   5.906   4.309
10392SOL     OW32074   6.429   5.479   6.183
10392SOL    HW132075   6.523   5.514   6.179
10392SOL    HW232076   6.388   5.482   6.092
10393SOL     OW32077   0.403   1.713   4.663
10393SOL    HW132078   0.483   1.656   4.678
10393SOL    HW232079   0.426   1.789   4.603
10394SOL     OW32080   2.807   0.400   0.827
10394SOL    HW132081   2.877   0.329   0.828
10394SOL    HW232082   2.722   0.362   0.790
10395SOL     OW32083   1.445   0.593   4.081
10395SOL    HW132084   1.450   0.617   4.178
10395SOL    HW232085   1.351   0.605   4.049
10396SOL     OW32086   0.497   0.030   4.820
10396SOL    HW132087   0.444   6.968   4.818
10396SOL    HW232088   0.465   0.088   4.895
10397SOL     OW32089   4.397   2.312   2.228
10397SOL    HW132090   4.396   2.214   2.247
10397SOL    HW232091   4.303   2.348   2.230
10398SOL     OW32092   6.783   2.957   2.256
10398SOL    HW132093   6.818   2.893   2.187
10398SOL    HW232094   6.840   2.953   2.338
10399SOL     OW32095   6.618   3.324   6.061
10399SOL    HW132096   6.695   3.340   6.001
10399SOL    HW232097   6.642   3.353   6.154
10400SOL     OW32098   1.726   5.387   2.317
10400SOL    HW132099   1.711   5.380   2.218
10400SOL    HW232100   1.816   5.350   2.340
10401SOL     OW32101   1.554   5.675   1.122
10401SOL    HW132102   1.497   5.692   1.041
10401SOL    HW232103   1.524   5.735   1.197
10402SOL     OW32104   1.273   2.116   4.970
10402SOL    HW132105   1.287   2.064   4.886
10402SOL    HW232106   1.245   2.055   5.044
10403SOL     OW32107   5.405   1.118   3.208
10403SOL    HW132108   5.349   1.166   3.275
10403SOL    HW232109   5.389   1.020   3.215
10404SOL     OW32110   6.462   0.109   4.052
10404SOL    HW132111   6.491   0.025   4.006
10404SOL    HW232112   6.363   0.117   4.047
10405SOL     OW32113   3.153   6.997   6.617
10405SOL    HW132114   3.191   0.061   6.648
10405SOL    HW232115   3.222   6.946   6.566
10406SOL     OW32116   1.471   6.179   5.433
10406SOL    HW132117   1.508   6.173   5.525
10406SOL    HW232118   1.372   6.193   5.437
10407SOL     OW32119   3.028   0.977   6.647
10407SOL    HW132120   3.008   0.911   6.575
10407SOL    HW232121   3.060   1.063   6.606
10408SOL     OW32122   3.634   6.853   3.105
10408SOL    HW132123   3.537   6.878   3.107
10408SOL    HW232124   3.689   6.929   3.141
10409SOL     OW32125   0.069   4.892   2.552
10409SOL    HW132126   0.041   4.957   2.622
10409SOL    HW232127   0.152   4.844   2.581
10410SOL     OW32128   5.062   5.935   0.677
10410SOL    HW132129   5.006   5.883   0.612
10410SOL    HW232130   5.059   5.890   0.767
10411SOL     OW32131   2.340   5.146   2.203
10411SOL    HW132132   2.382   5.088   2.133
10411SOL    HW232133   2.312   5.090   2.281
10412SOL     OW32134   0.657   3.167   6.740
10412SOL    HW132135   0.590   3.169   6.814
10412SOL    HW232136   0.609   3.158   6.653
10413SOL     OW32137   6.660   1.391   4.491
10413SOL    HW132138   6.586   1.442   4.534
10413SOL    HW232139   6.748   1.430   4.519
10414SOL     OW32140   5.729   6.061   5.368
10414SOL    HW132141   5.793   6.038   5.441
10414SOL    HW232142   5.658   5.990   5.363
10415SOL     OW32143   0.131   4.616   3.512
10415SOL    HW132144   0.175   4.680   3.575
10415SOL    HW232145   0.065   4.560   3.562
10416SOL     OW32146   4.908   0.831   0.362
10416SOL    HW132147   4.861   0.743   0.360
10416SOL    HW232148   5.003   0.817   0.390
10417SOL     OW32149   5.086   4.344   4.718
10417SOL    HW132150   5.076   4.404   4.797
10417SOL    HW232151   5.104   4.398   4.636
10418SOL     OW32152   6.212   3.266   0.517
10418SOL    HW132153   6.243   3.172   0.531
10418SOL    HW232154   6.225   3.318   0.602
10419SOL     OW32155   1.245   0.084   4.796
10419SOL    HW132156   1.147   0.101   4.790
10419SOL    HW232157   1.294   0.171   4.806
10420SOL     OW32158   6.285   4.066   4.104
10420SOL    HW132159   6.186   4.085   4.107
10420SOL    HW232160   6.304   3.982   4.156
10421SOL     OW32161   0.211   3.680   4.412
10421SOL    HW132162   0.121   3.706   4.447
10421SOL    HW232163   0.203   3.656   4.315
10422SOL     OW32164   5.996   3.104   5.503
10422SOL    HW132165   6.012   3.088   5.406
10422SOL    HW232166   6.068   3.060   5.557
10423SOL     OW32167   2.204   5.717   1.989
10423SOL    HW132168   2.245   5.717   2.080
10423SOL    HW232169   2.215   5.807   1.948
10424SOL     OW32170   4.826   1.030   1.792
10424SOL    HW132171   4.887   0.997   1.865
10424SOL    HW232172   4.746   1.074   1.833
10425SOL     OW32173   0.634   4.329   0.531
10425SOL    HW132174   0.717   4.380   0.508
10425SOL    HW232175   0.623   4.252   0.468
10426SOL     OW32176   6.361   2.011   0.006
10426SOL    HW132177   6.395   1.959   0.085
10426SOL    HW232178   6.335   2.103   0.035
10427SOL     OW32179   6.147   0.327   4.141
10427SOL    HW132180   6.206   0.399   4.178
10427SOL    HW232181   6.069   0.369   4.094
10428SOL     OW32182   1.895   0.173   4.712
10428SOL    HW132183   1.975   0.176   4.653
10428SOL    HW232184   1.819   0.131   4.663
10429SOL     OW32185   2.181   4.632   1.639
10429SOL    HW132186   2.156   4.578   1.720
10429SOL    HW232187   2.207   4.724   1.669
10430SOL     OW32188   3.274   0.908   3.923
10430SOL    HW132189   3.298   0.943   4.014
10430SOL    HW232190   3.247   0.812   3.930
10431SOL     OW32191   4.398   2.377   3.681
10431SOL    HW132192   4.399   2.473   3.709
10431SOL    HW232193   4.360   2.369   3.589
10432SOL     OW32194   0.970   4.680   0.892
10432SOL    HW132195   0.934   4.648   0.804
10432SOL    HW232196   0.913   4.644   0.966
10433SOL     OW32197   3.635   6.458   4.619
10433SOL    HW132198   3.720   6.410   4.599
10433SOL    HW232199   3.572   6.396   4.665
10434SOL     OW32200   4.511   1.841   0.343
10434SOL    HW132201   4.555   1.880   0.424
10434SOL    HW232202   4.475   1.750   0.365
10435SOL     OW32203   2.330   1.489   1.598
10435SOL    HW132204   2.312   1.540   1.514
10435SOL    HW232205   2.244   1.474   1.646
10436SOL     OW32206   1.008   3.782   5.639
10436SOL    HW132207   1.049   3.843   5.571
10436SOL    HW232208   0.913   3.810   5.656
10437SOL     OW32209   6.919   6.771   4.708
10437SOL    HW132210   6.893   6.766   4.805
10437SOL    HW232211   6.903   6.683   4.665
10438SOL     OW32212   0.154   5.919   6.757
10438SOL    HW132213   0.146   5.958   6.665
10438SOL    HW232214   0.184   5.824   6.750
10439SOL     OW32215   5.898   5.285   4.899
10439SOL    HW132216   5.996   5.304   4.900
10439SOL    HW232217   5.884   5.186   4.892
10440SOL     OW32218   6.311   2.635   1.209
10440SOL    HW132219   6.337   2.729   1.232
10440SOL    HW232220   6.213   2.623   1.224
10441SOL     OW32221   4.883   1.469   6.392
10441SOL    HW132222   4.911   1.430   6.304
10441SOL    HW232223   4.945   1.437   6.463
10442SOL     OW32224   1.984   0.603   5.671
10442SOL    HW132225   1.947   0.607   5.764
10442SOL    HW232226   2.061   0.540   5.669
10443SOL     OW32227   0.603   0.878   0.141
10443SOL    HW132228   0.588   0.934   0.222
10443SOL    HW232229   0.616   0.937   0.061
10444SOL     OW32230   4.348   5.373   3.821
10444SOL    HW132231   4.294   5.373   3.905
10444SOL    HW232232   4.418   5.302   3.826
10445SOL     OW32233   1.271   3.394   3.795
10445SOL    HW132234   1.262   3.481   3.843
10445SOL    HW232235   1.306   3.411   3.703
10446SOL     OW32236   2.826   4.800   4.790
10446SOL    HW132237   2.750   4.761   4.738
10446SOL    HW232238   2.857   4.734   4.859
10447SOL     OW32239   1.597   2.127   2.716
10447SOL    HW132240   1.531   2.192   2.680
10447SOL    HW232241   1.686   2.143   2.674
10448SOL     OW32242   0.671   4.931   2.712
10448SOL    HW132243   0.607   4.991   2.760
10448SOL    HW232244   0.732   4.986   2.656
10449SOL     OW32245   3.613   5.151   4.306
10449SOL    HW132246   3.609   5.178   4.402
10449SOL    HW232247   3.702   5.110   4.286
10450SOL     OW32248   0.392   2.156   4.614
10450SOL    HW132249   0.302   2.166   4.572
10450SOL    HW232250   0.437   2.075   4.576
10451SOL     OW32251   2.237   1.352   4.617
10451SOL    HW132252   2.332   1.381   4.633
10451SOL    HW232253   2.208   1.384   4.527
10452SOL     OW32254   6.799   2.529   4.460
10452SOL    HW132255   6.846   2.557   4.376
10452SOL    HW232256   6.708   2.569   4.463
10453SOL     OW32257   3.044   5.666   4.212
10453SOL    HW132258   3.115   5.608   4.252
10453SOL    HW232259   3.032   5.644   4.115
10454SOL     OW32260   6.657   1.635   0.098
10454SOL    HW132261   6.715   1.621   0.018
10454SOL    HW232262   6.713   1.659   0.176
10455SOL     OW32263   0.846   5.752   2.525
10455SOL    HW132264   0.772   5.803   2.481
10455SOL    HW232265   0.886   5.809   2.597
10456SOL     OW32266   1.175   5.558   6.159
10456SOL    HW132267   1.219   5.486   6.212
10456SOL    HW232268   1.097   5.594   6.210
10457SOL     OW32269   4.101   1.408   0.978
10457SOL    HW132270   4.152   1.450   0.903
10457SOL    HW232271   4.062   1.480   1.036
10458SOL     OW32272   1.505   6.935   0.122
10458SOL    HW132273   1.442   7.012   0.130
10458SOL    HW232274   1.487   6.869   0.196
10459SOL     OW32275   5.296   6.142   0.903
10459SOL    HW132276   5.327   6.235   0.882
10459SOL    HW232277   5.330   6.114   0.992
10460SOL     OW32278   6.556   1.083   6.296
10460SOL    HW132279   6.630   1.112   6.356
10460SOL    HW232280   6.477   1.056   6.351
10461SOL     OW32281   6.837   3.952   5.634
10461SOL    HW132282   6.821   4.032   5.691
10461SOL    HW232283   6.924   3.961   5.587
10462SOL     OW32284   4.122   3.665   0.049
10462SOL    HW132285   4.115   3.667   6.972
10462SOL    HW232286   4.061   3.734   0.088
10463SOL     OW32287   4.725   2.234   5.149
10463SOL    HW132288   4.814   2.226   5.105
10463SOL    HW232289   4.737   2.255   5.246
10464SOL     OW32290   6.364   4.860   2.061
10464SOL    HW132291   6.430   4.786   2.077
10464SOL    HW232292   6.400   4.923   1.992
10465SOL     OW32293   5.272   4.488   1.003
10465SOL    HW132294   5.193   4.541   0.973
10465SOL    HW232295   5.253   4.446   1.091
10466SOL     OW32296   6.150   3.700   5.410
10466SOL    HW132297   6.090   3.655   5.476
10466SOL    HW232298   6.219   3.634   5.377
10467SOL     OW32299   0.482   3.488   0.022
10467SOL    HW132300   0.437   3.400   0.008
10467SOL    HW232301   0.580   3.480   0.005
10468SOL     OW32302   1.543   4.171   3.757
10468SOL    HW132303   1.465   4.109   3.766
10468SOL    HW232304   1.597   4.169   3.842
10469SOL     OW32305   0.927   0.747   4.282
10469SOL    HW132306   0.852   0.698   4.324
10469SOL    HW232307   0.914   0.750   4.183
10470SOL     OW32308   2.602   3.922   1.436
10470SOL    HW132309   2.649   3.840   1.468
10470SOL    HW232310   2.526   3.943   1.498
10471SOL     OW32311   2.274   4.550   5.732
10471SOL    HW132312   2.292   4.466   5.783
10471SOL    HW232313   2.206   4.605   5.781
10472SOL     OW32314   3.859   5.196   5.931
10472SOL    HW132315   3.924   5.262   5.895
10472SOL    HW232316   3.782   5.244   5.973
10473SOL     OW32317   6.320   5.569   0.188
10473SOL    HW132318   6.409   5.578   0.232
10473SOL    HW232319   6.248   5.574   0.257
10474SOL     OW32320   6.104   5.984   5.034
10474SOL    HW132321   6.157   5.975   4.949
10474SOL    HW232322   6.011   6.010   5.012
10475SOL     OW32323   0.433   5.848   1.686
10475SOL    HW132324   0.468   5.894   1.767
10475SOL    HW232325   0.335   5.866   1.677
10476SOL     OW32326   4.951   6.725   1.531
10476SOL    HW132327   4.863   6.738   1.485
10476SOL    HW232328   4.938   6.671   1.614
10477SOL     OW32329   0.058   5.697   3.650
10477SOL    HW132330   0.040   5.645   3.567
10477SOL    HW232331   0.067   5.794   3.627
10478SOL     OW32332   6.731   0.673   6.901
10478SOL    HW132333   6.720   0.626   6.989
10478SOL    HW232334   6.711   0.610   6.827
10479SOL     OW32335   6.756   3.921   2.779
10479SOL    HW132336   6.822   3.861   2.734
10479SOL    HW232337   6.667   3.912   2.734
10480SOL     OW32338   2.218   1.126   3.012
10480SOL    HW132339   2.170   1.111   2.926
10480SOL    HW232340   2.207   1.047   3.071
10481SOL     OW32341   6.395   0.843   1.653
10481SOL    HW132342   6.430   0.808   1.740
10481SOL    HW232343   6.321   0.908   1.670
10482SOL     OW32344   4.817   3.930   4.095
10482SOL    HW132345   4.908   3.890   4.107
10482SOL    HW232346   4.768   3.929   4.181
10483SOL     OW32347   5.906   0.562   6.775
10483SOL    HW132348   5.869   0.511   6.853
10483SOL    HW232349   5.832   0.611   6.729
10484SOL     OW32350   6.105   0.349   1.895
10484SOL    HW132351   6.008   0.368   1.909
10484SOL    HW232352   6.147   0.425   1.846
10485SOL     OW32353   5.567   3.148   6.028
10485SOL    HW132354   5.662   3.174   6.040
10485SOL    HW232355   5.522   3.213   5.967
10486SOL     OW32356   5.933   3.165   2.170
10486SOL    HW132357   5.954   3.088   2.230
10486SOL    HW232358   5.912   3.246   2.225
10487SOL     OW32359   3.562   6.706   2.600
10487SOL    HW132360   3.623   6.629   2.582
10487SOL    HW232361   3.565   6.728   2.698
10488SOL     OW32362   4.083   4.235   6.564
10488SOL    HW132363   4.118   4.164   6.624
10488SOL    HW232364   4.082   4.202   6.470
10489SOL     OW32365   2.220   5.433   5.350
10489SOL    HW132366   2.223   5.333   5.347
10489SOL    HW232367   2.305   5.468   5.390
10490SOL     OW32368   6.265   6.836   4.714
10490SOL    HW132369   6.281   6.934   4.705
10490SOL    HW232370   6.202   6.807   4.642
10491SOL     OW32371   6.376   5.696   4.752
10491SOL    HW132372   6.389   5.599   4.773
10491SOL    HW232373   6.279   5.719   4.763
10492SOL     OW32374   5.395   4.064   5.583
10492SOL    HW132375   5.335   4.143   5.579
10492SOL    HW232376   5.488   4.090   5.557
10493SOL     OW32377   3.209   1.538   0.957
10493SOL    HW132378   3.267   1.458   0.947
10493SOL    HW232379   3.172   1.541   1.050
10494SOL     OW32380   5.405   1.398   5.336
10494SOL    HW132381   5.450   1.356   5.415
10494SOL    HW232382   5.306   1.389   5.345
10495SOL     OW32383   1.478   0.309   6.438
10495SOL    HW132384   1.397   0.342   6.488
10495SOL    HW232385   1.547   0.381   6.436
10496SOL     OW32386   6.588   6.825   5.512
10496SOL    HW132387   6.586   6.838   5.611
10496SOL    HW232388   6.503   6.781   5.482
10497SOL     OW32389   2.096   1.311   6.661
10497SOL    HW132390   2.162   1.247   6.621
10497SOL    HW232391   2.073   1.382   6.593
10498SOL     OW32392   3.198   5.286   5.489
10498SOL    HW132393   3.183   5.202   5.540
10498SOL    HW232394   3.124   5.351   5.509
10499SOL     OW32395   2.571   5.727   2.580
10499SOL    HW132396   2.544   5.797   2.646
10499SOL    HW232397   2.550   5.758   2.487
10500SOL     OW32398   2.455   2.064   6.940
10500SOL    HW132399   2.485   2.035   6.850
10500SOL    HW232400   2.372   2.013   6.966
10501SOL     OW32401   1.893   3.800   3.342
10501SOL    HW132402   1.960   3.798   3.268
10501SOL    HW232403   1.909   3.723   3.404
10502SOL     OW32404   3.102   6.050   4.552
10502SOL    HW132405   3.088   6.146   4.530
10502SOL    HW232406   3.054   6.028   4.637
10503SOL     OW32407   2.211   2.975   6.678
10503SOL    HW132408   2.246   3.045   6.740
10503SOL    HW232409   2.231   3.001   6.584
10504SOL     OW32410   2.269   3.608   0.592
10504SOL    HW132411   2.285   3.564   0.504
10504SOL    HW232412   2.188   3.568   0.635
10505SOL     OW32413   0.803   6.433   6.893
10505SOL    HW132414   0.840   6.510   6.842
10505SOL    HW232415   0.852   6.349   6.867
10506SOL     OW32416   6.832   5.023   5.707
10506SOL    HW132417   6.883   5.038   5.623
10506SOL    HW232418   6.888   4.970   5.771
10507SOL     OW32419   2.735   0.445   3.211
10507SOL    HW132420   2.761   0.432   3.115
10507SOL    HW232421   2.640   0.475   3.217
10508SOL     OW32422   5.696   4.552   2.536
10508SOL    HW132423   5.767   4.588   2.476
10508SOL    HW232424   5.679   4.617   2.610
10509SOL     OW32425   2.199   1.187   5.340
10509SOL    HW132426   2.264   1.191   5.416
10509SOL    HW232427   2.126   1.254   5.354
10510SOL     OW32428   5.705   0.706   6.616
10510SOL    HW132429   5.610   0.732   6.635
10510SOL    HW232430   5.723   0.715   6.518
10511SOL     OW32431   6.998   2.799   2.106
10511SOL    HW132432   0.006   2.885   2.145
10511SOL    HW232433   0.053   2.752   2.064
10512SOL     OW32434   2.332   0.061   6.610
10512SOL    HW132435   2.233   0.075   6.606
10512SOL    HW232436   2.379   0.142   6.573
10513SOL     OW32437   0.178   2.267   0.752
10513SOL    HW132438   0.170   2.361   0.787
10513SOL    HW232439   0.121   2.257   0.671
10514SOL     OW32440   1.357   3.247   1.579
10514SOL    HW132441   1.446   3.213   1.550
10514SOL    HW232442   1.344   3.340   1.545
10515SOL     OW32443   0.193   3.086   5.070
10515SOL    HW132444   0.198   3.050   5.163
10515SOL    HW232445   0.272   3.054   5.018
10516SOL     OW32446   2.486   6.913   0.964
10516SOL    HW132447   2.485   6.842   0.893
10516SOL    HW232448   2.511   6.871   1.051
10517SOL     OW32449   0.697   2.628   3.275
10517SOL    HW132450   0.692   2.550   3.338
10517SOL    HW232451   0.740   2.705   3.321
10518SOL     OW32452   0.547   6.285   3.240
10518SOL    HW132453   0.628   6.343   3.249
10518SOL    HW232454   0.527   6.242   3.328
10519SOL     OW32455   4.444   2.594   5.664
10519SOL    HW132456   4.428   2.582   5.762
10519SOL    HW232457   4.451   2.691   5.643
10520SOL     OW32458   2.859   5.043   6.274
10520SOL    HW132459   2.957   5.035   6.294
10520SOL    HW232460   2.830   5.138   6.281
10521SOL     OW32461   6.687   5.418   2.183
10521SOL    HW132462   6.752   5.409   2.108
10521SOL    HW232463   6.623   5.492   2.163
10522SOL     OW32464   6.742   6.954   2.531
10522SOL    HW132465   6.731   6.879   2.596
10522SOL    HW232466   6.799   0.003   2.572
10523SOL     OW32467   6.124   6.343   6.190
10523SOL    HW132468   6.175   6.286   6.126
10523SOL    HW232469   6.096   6.428   6.144
10524SOL     OW32470   4.749   0.722   4.664
10524SOL    HW132471   4.832   0.748   4.615
10524SOL    HW232472   4.670   0.767   4.621
10525SOL     OW32473   2.641   6.987   4.930
10525SOL    HW132474   2.685   6.988   4.840
10525SOL    HW232475   2.542   6.977   4.919
10526SOL     OW32476   4.336   6.132   2.719
10526SOL    HW132477   4.390   6.056   2.683
10526SOL    HW232478   4.282   6.101   2.796
10527SOL     OW32479   2.002   2.599   4.210
10527SOL    HW132480   1.919   2.654   4.205
10527SOL    HW232481   2.061   2.633   4.283
10528SOL     OW32482   6.211   4.841   5.889
10528SOL    HW132483   6.206   4.889   5.977
10528SOL    HW232484   6.121   4.803   5.867
10529SOL     OW32485   0.152   5.562   4.989
10529SOL    HW132486   0.104   5.647   5.008
10529SOL    HW232487   0.193   5.566   4.898
10530SOL     OW32488   1.563   2.116   5.240
10530SOL    HW132489   1.597   2.205   5.209
10530SOL    HW232490   1.568   2.051   5.164
10531SOL     OW32491   2.499   2.607   4.576
10531SOL    HW132492   2.573   2.612   4.642
10531SOL    HW232493   2.455   2.696   4.569
10532SOL     OW32494   3.291   3.418   4.436
10532SOL    HW132495   3.378   3.467   4.446
10532SOL    HW232496   3.286   3.377   4.345
10533SOL     OW32497   3.706   0.696   6.153
10533SOL    HW132498   3.804   0.717   6.143
10533SOL    HW232499   3.695   0.598   6.171
10534SOL     OW32500   6.051   4.614   1.455
10534SOL    HW132501   6.110   4.670   1.397
10534SOL    HW232502   6.026   4.530   1.406
10535SOL     OW32503   0.236   1.354   1.635
10535SOL    HW132504   0.252   1.351   1.734
10535SOL    HW232505   0.141   1.327   1.617
10536SOL     OW32506   5.723   5.572   3.335
10536SOL    HW132507   5.760   5.494   3.284
10536SOL    HW232508   5.763   5.574   3.426
10537SOL     OW32509   6.385   5.687   1.751
10537SOL    HW132510   6.333   5.630   1.687
10537SOL    HW232511   6.346   5.778   1.755
10538SOL     OW32512   4.206   3.296   6.896
10538SOL    HW132513   4.268   3.347   6.837
10538SOL    HW232514   4.171   3.355   6.968
10539SOL     OW32515   1.123   3.162   4.775
10539SOL    HW132516   1.047   3.157   4.839
10539SOL    HW232517   1.146   3.257   4.757
10540SOL     OW32518   3.519   0.772   0.199
10540SOL    HW132519   3.521   0.705   0.125
10540SOL    HW232520   3.583   0.744   0.271
10541SOL     OW32521   3.513   2.789   1.805
10541SOL    HW132522   3.457   2.794   1.887
10541SOL    HW232523   3.483   2.712   1.749
10542SOL     OW32524   1.574   2.186   0.452
10542SOL    HW132525   1.483   2.226   0.461
10542SOL    HW232526   1.570   2.109   0.388
10543SOL     OW32527   2.550   0.520   4.586
10543SOL    HW132528   2.631   0.466   4.611
10543SOL    HW232529   2.548   0.534   4.487
10544SOL     OW32530   0.394   2.150   1.450
10544SOL    HW132531   0.330   2.083   1.412
10544SOL    HW232532   0.360   2.242   1.431
10545SOL     OW32533   4.456   1.494   2.922
10545SOL    HW132534   4.506   1.454   2.846
10545SOL    HW232535   4.357   1.486   2.907
10546SOL     OW32536   4.783   0.741   5.446
10546SOL    HW132537   4.800   0.644   5.432
10546SOL    HW232538   4.804   0.791   5.362
10547SOL     OW32539   4.595   6.298   1.888
10547SOL    HW132540   4.664   6.270   1.954
10547SOL    HW232541   4.626   6.380   1.839
10548SOL     OW32542   4.747   3.901   5.309
10548SOL    HW132543   4.797   3.986   5.295
10548SOL    HW232544   4.706   3.900   5.401
10549SOL     OW32545   0.831   1.565   1.759
10549SOL    HW132546   0.735   1.573   1.786
10549SOL    HW232547   0.846   1.611   1.672
10550SOL     OW32548   4.411   6.818   4.951
10550SOL    HW132549   4.454   6.828   4.861
10550SOL    HW232550   4.450   6.886   5.014
10551SOL     OW32551   1.396   3.170   6.293
10551SOL    HW132552   1.391   3.089   6.234
10551SOL    HW232553   1.319   3.230   6.273
10552SOL     OW32554   3.465   1.371   5.310
10552SOL    HW132555   3.401   1.311   5.359
10552SOL    HW232556   3.468   1.343   5.214
10553SOL     OW32557   2.764   5.284   6.267
10553SOL    HW132558   2.837   5.327   6.321
10553SOL    HW232559   2.723   5.352   6.207
10554SOL     OW32560   6.085   3.609   6.149
10554SOL    HW132561   6.000   3.560   6.131
10554SOL    HW232562   6.162   3.553   6.117
10555SOL     OW32563   3.535   3.083   1.638
10555SOL    HW132564   3.481   3.015   1.687
10555SOL    HW232565   3.491   3.173   1.647
10556SOL     OW32566   1.274   4.272   3.895
10556SOL    HW132567   1.177   4.249   3.904
10556SOL    HW232568   1.284   4.354   3.838
10557SOL     OW32569   5.361   1.586   3.220
10557SOL    HW132570   5.264   1.562   3.228
10557SOL    HW232571   5.395   1.553   3.132
10558SOL     OW32572   5.822   5.694   5.321
10558SOL    HW132573   5.834   5.749   5.404
10558SOL    HW232574   5.881   5.614   5.326
10559SOL     OW32575   4.089   2.656   0.718
10559SOL    HW132576   4.015   2.615   0.665
10559SOL    HW232577   4.076   2.755   0.722
10560SOL     OW32578   6.183   2.183   4.225
10560SOL    HW132579   6.254   2.197   4.294
10560SOL    HW232580   6.098   2.226   4.255
10561SOL     OW32581   2.203   3.913   6.694
10561SOL    HW132582   2.174   3.948   6.605
10561SOL    HW232583   2.248   3.824   6.683
10562SOL     OW32584   4.201   1.781   0.530
10562SOL    HW132585   4.297   1.791   0.556
10562SOL    HW232586   4.143   1.809   0.606
10563SOL     OW32587   1.314   2.251   2.793
10563SOL    HW132588   1.357   2.340   2.774
10563SOL    HW232589   1.215   2.264   2.803
10564SOL     OW32590   0.085   1.674   2.417
10564SOL    HW132591   7.017   1.710   2.392
10564SOL    HW232592   0.074   1.582   2.453
10565SOL     OW32593   5.127   1.500   5.006
10565SOL    HW132594   5.173   1.537   4.926
10565SOL    HW232595   5.095   1.575   5.064
10566SOL     OW32596   4.922   5.327   6.806
10566SOL    HW132597   4.847   5.355   6.746
10566SOL    HW232598   5.004   5.379   6.783
10567SOL     OW32599   2.524   5.647   5.046
10567SOL    HW132600   2.469   5.570   5.079
10567SOL    HW232601   2.465   5.727   5.031
10568SOL     OW32602   3.335   1.316   3.169
10568SOL    HW132603   3.343   1.359   3.258
10568SOL    HW232604   3.404   1.354   3.107
10569SOL     OW32605   6.621   2.293   3.907
10569SOL    HW132606   6.619   2.384   3.865
10569SOL    HW232607   6.530   2.270   3.941
10570SOL     OW32608   1.170   3.934   0.921
10570SOL    HW132609   1.074   3.964   0.915
10570SOL    HW232610   1.177   3.841   0.885
10571SOL     OW32611   6.534   6.802   4.682
10571SOL    HW132612   6.600   6.858   4.632
10571SOL    HW232613   6.450   6.854   4.696
10572SOL     OW32614   6.508   4.019   1.813
10572SOL    HW132615   6.570   3.953   1.854
10572SOL    HW232616   6.436   3.971   1.762
10573SOL     OW32617   6.357   5.499   5.455
10573SOL    HW132618   6.308   5.432   5.400
10573SOL    HW232619   6.432   5.454   5.503
10574SOL     OW32620   0.749   1.937   2.752
10574SOL    HW132621   0.716   1.909   2.662
10574SOL    HW232622   0.847   1.917   2.759
10575SOL     OW32623   0.201   6.888   6.255
10575SOL    HW132624   0.192   6.974   6.304
10575SOL    HW232625   0.289   6.884   6.209
10576SOL     OW32626   1.102   5.790   3.256
10576SOL    HW132627   1.044   5.862   3.295
10576SOL    HW232628   1.160   5.828   3.185
10577SOL     OW32629   0.377   2.613   5.954
10577SOL    HW132630   0.310   2.672   5.910
10577SOL    HW232631   0.331   2.545   6.011
10578SOL     OW32632   4.985   0.435   5.359
10578SOL    HW132633   5.068   0.456   5.307
10578SOL    HW232634   4.905   0.470   5.310
10579SOL     OW32635   5.596   6.881   0.831
10579SOL    HW132636   5.587   6.971   0.790
10579SOL    HW232637   5.541   6.815   0.780
10580SOL     OW32638   0.570   5.670   0.141
10580SOL    HW132639   0.515   5.653   0.059
10580SOL    HW232640   0.509   5.688   0.219
10581SOL     OW32641   4.350   2.372   3.073
10581SOL    HW132642   4.297   2.375   2.988
10581SOL    HW232643   4.447   2.360   3.052
10582SOL     OW32644   3.583   4.221   6.900
10582SOL    HW132645   3.647   4.206   6.824
10582SOL    HW232646   3.492   4.189   6.873
10583SOL     OW32647   4.840   1.324   1.330
10583SOL    HW132648   4.842   1.371   1.242
10583SOL    HW232649   4.750   1.336   1.372
10584SOL     OW32650   5.820   6.650   1.573
10584SOL    HW132651   5.811   6.550   1.575
10584SOL    HW232652   5.882   6.676   1.500
10585SOL     OW32653   2.918   4.313   6.330
10585SOL    HW132654   2.886   4.243   6.393
10585SOL    HW232655   2.878   4.297   6.239
10586SOL     OW32656   4.566   1.830   1.463
10586SOL    HW132657   4.559   1.865   1.556
10586SOL    HW232658   4.615   1.743   1.463
10587SOL     OW32659   6.922   3.254   0.349
10587SOL    HW132660   6.968   3.339   0.375
10587SOL    HW232661   6.968   3.177   0.393
10588SOL     OW32662   1.443   4.790   3.411
10588SOL    HW132663   1.494   4.773   3.327
10588SOL    HW232664   1.495   4.755   3.489
10589SOL     OW32665   5.979   0.838   4.281
10589SOL    HW132666   6.028   0.925   4.272
10589SOL    HW232667   5.938   0.814   4.193
10590SOL     OW32668   1.659   0.290   5.097
10590SOL    HW132669   1.738   0.259   5.150
10590SOL    HW232670   1.642   0.226   5.023
10591SOL     OW32671   1.587   2.191   1.690
10591SOL    HW132672   1.627   2.246   1.617
10591SOL    HW232673   1.494   2.223   1.708
10592SOL     OW32674   5.528   1.217   6.429
10592SOL    HW132675   5.550   1.294   6.369
10592SOL    HW232676   5.504   1.138   6.373
10593SOL     OW32677   1.322   3.807   2.204
10593SOL    HW132678   1.381   3.779   2.128
10593SOL    HW232679   1.312   3.730   2.268
10594SOL     OW32680   1.280   1.333   4.569
10594SOL    HW132681   1.227   1.249   4.560
10594SOL    HW232682   1.218   1.411   4.574
10595SOL     OW32683   1.664   5.978   4.668
10595SOL    HW132684   1.620   5.894   4.700
10595SOL    HW232685   1.665   6.045   4.742
10596SOL     OW32686   2.732   1.117   1.316
10596SOL    HW132687   2.736   1.209   1.278
10596SOL    HW232688   2.677   1.059   1.256
10597SOL     OW32689   1.510   0.929   3.982
10597SOL    HW132690   1.583   0.889   4.038
10597SOL    HW232691   1.423   0.922   4.031
10598SOL     OW32692   2.573   0.760   0.579
10598SOL    HW132693   2.551   0.726   0.671
10598SOL    HW232694   2.560   0.686   0.513
10599SOL     OW32695   4.751   0.128   6.478
10599SOL    HW132696   4.822   0.096   6.416
10599SOL    HW232697   4.750   0.070   6.560
10600SOL     OW32698   1.701   3.074   5.081
10600SOL    HW132699   1.716   3.102   5.176
10600SOL    HW232700   1.664   3.151   5.029
10601SOL     OW32701   3.984   6.205   5.485
10601SOL    HW132702   4.001   6.284   5.426
10601SOL    HW232703   3.938   6.235   5.569
10602SOL     OW32704   4.586   2.214   2.020
10602SOL    HW132705   4.569   2.115   2.022
10602SOL    HW232706   4.521   2.261   2.079
10603SOL     OW32707   0.535   5.405   4.691
10603SOL    HW132708   0.439   5.384   4.712
10603SOL    HW232709   0.577   5.452   4.769
10604SOL     OW32710   0.517   4.201   6.089
10604SOL    HW132711   0.563   4.268   6.147
10604SOL    HW232712   0.418   4.211   6.100
10605SOL     OW32713   1.143   5.078   6.370
10605SOL    HW132714   1.072   5.144   6.394
10605SOL    HW232715   1.179   5.036   6.454
10606SOL     OW32716   1.163   1.367   2.144
10606SOL    HW132717   1.169   1.281   2.195
10606SOL    HW232718   1.151   1.443   2.207
10607SOL     OW32719   5.714   3.857   6.471
10607SOL    HW132720   5.807   3.892   6.481
10607SOL    HW232721   5.688   3.858   6.375
10608SOL     OW32722   5.522   6.269   2.550
10608SOL    HW132723   5.552   6.354   2.593
10608SOL    HW232724   5.422   6.263   2.552
10609SOL     OW32725   4.203   6.778   2.897
10609SOL    HW132726   4.196   6.741   2.805
10609SOL    HW232727   4.116   6.762   2.945
10610SOL     OW32728   2.152   4.547   4.787
10610SOL    HW132729   2.089   4.623   4.804
10610SOL    HW232730   2.149   4.483   4.864
10611SOL     OW32731   5.072   2.078   5.771
10611SOL    HW132732   4.983   2.068   5.816
10611SOL    HW232733   5.100   2.174   5.774
10612SOL     OW32734   2.134   0.410   1.498
10612SOL    HW132735   2.124   0.496   1.547
10612SOL    HW232736   2.224   0.406   1.455
10613SOL     OW32737   0.898   6.416   0.238
10613SOL    HW132738   0.971   6.436   0.172
10613SOL    HW232739   0.819   6.377   0.190
10614SOL     OW32740   0.383   0.831   2.860
10614SOL    HW132741   0.287   0.857   2.865
10614SOL    HW232742   0.433   0.875   2.935
10615SOL     OW32743   0.110   6.902   5.173
10615SOL    HW132744   0.178   6.870   5.107
10615SOL    HW232745   0.021   6.860   5.152
10616SOL     OW32746   3.620   5.823   1.322
10616SOL    HW132747   3.532   5.848   1.280
10616SOL    HW232748   3.654   5.739   1.280
10617SOL     OW32749   6.721   1.691   6.601
10617SOL    HW132750   6.636   1.694   6.653
10617SOL    HW232751   6.777   1.770   6.626
10618SOL     OW32752   6.558   3.885   0.741
10618SOL    HW132753   6.592   3.888   0.647
10618SOL    HW232754   6.606   3.953   0.796
10619SOL     OW32755   0.141   3.207   3.434
10619SOL    HW132756   0.213   3.156   3.387
10619SOL    HW232757   0.149   3.192   3.533
10620SOL     OW32758   1.600   5.460   4.221
10620SOL    HW132759   1.551   5.432   4.139
10620SOL    HW232760   1.545   5.440   4.302
10621SOL     OW32761   3.559   0.006   1.166
10621SOL    HW132762   3.650   0.014   1.126
10621SOL    HW232763   3.548   6.938   1.207
10622SOL     OW32764   3.998   1.830   0.704
10622SOL    HW132765   4.013   1.905   0.768
10622SOL    HW232766   3.996   1.743   0.754
10623SOL     OW32767   0.352   1.605   4.903
10623SOL    HW132768   0.352   1.670   4.827
10623SOL    HW232769   0.334   1.513   4.868
10624SOL     OW32770   2.618   1.255   4.371
10624SOL    HW132771   2.519   1.255   4.356
10624SOL    HW232772   2.652   1.349   4.367
10625SOL     OW32773   0.711   3.144   0.846
10625SOL    HW132774   0.729   3.107   0.755
10625SOL    HW232775   0.751   3.235   0.854
10626SOL     OW32776   0.280   1.935   3.099
10626SOL    HW132777   0.368   1.980   3.116
10626SOL    HW232778   0.246   1.962   3.009
10627SOL     OW32779   4.391   5.711   4.581
10627SOL    HW132780   4.393   5.629   4.639
10627SOL    HW232781   4.338   5.691   4.498
10628SOL     OW32782   6.876   6.486   5.031
10628SOL    HW132783   6.782   6.450   5.028
10628SOL    HW232784   6.939   6.417   4.995
10629SOL     OW32785   2.770   3.969   6.527
10629SOL    HW132786   2.716   4.036   6.475
10629SOL    HW232787   2.780   4.002   6.622
10630SOL     OW32788   5.498   1.435   1.652
10630SOL    HW132789   5.470   1.508   1.714
10630SOL    HW232790   5.471   1.458   1.559
10631SOL     OW32791   1.285   6.864   4.453
10631SOL    HW132792   1.231   6.908   4.381
10631SOL    HW232793   1.283   6.764   4.439
10632SOL     OW32794   0.039   3.055   0.123
10632SOL    HW132795   0.065   2.961   0.103
10632SOL    HW232796   0.084   3.085   0.207
10633SOL     OW32797   1.373   5.349   6.804
10633SOL    HW132798   1.387   5.426   6.742
10633SOL    HW232799   1.461   5.317   6.838
10634SOL     OW32800   3.473   6.992   2.162
10634SOL    HW132801   3.489   0.068   2.168
10634SOL    HW232802   3.520   6.946   2.237
10635SOL     OW32803   1.411   0.846   1.263
10635SOL    HW132804   1.486   0.788   1.231
10635SOL    HW232805   1.365   0.886   1.184
10636SOL     OW32806   5.209   1.961   6.958
10636SOL    HW132807   5.218   1.865   6.985
10636SOL    HW232808   5.223   2.020   0.015
10637SOL     OW32809   3.269   3.772   6.413
10637SOL    HW132810   3.249   3.727   6.326
10637SOL    HW232811   3.199   3.748   6.480
10638SOL     OW32812   6.461   0.864   6.106
10638SOL    HW132813   6.486   0.941   6.164
10638SOL    HW232814   6.362   0.850   6.111
10639SOL     OW32815   3.728   2.040   5.146
10639SOL    HW132816   3.701   2.034   5.050
10639SOL    HW232817   3.734   1.948   5.185
10640SOL     OW32818   4.401   6.625   0.360
10640SOL    HW132819   4.474   6.675   0.314
10640SOL    HW232820   4.439   6.544   0.405
10641SOL     OW32821   3.563   6.663   6.961
10641SOL    HW132822   3.608   6.657   0.028
10641SOL    HW232823   3.468   6.691   6.974
10642SOL     OW32824   0.792   5.822   1.511
10642SOL    HW132825   0.805   5.908   1.461
10642SOL    HW232826   0.734   5.839   1.590
10643SOL     OW32827   3.366   3.395   5.685
10643SOL    HW132828   3.405   3.487   5.680
10643SOL    HW232829   3.305   3.381   5.607
10644SOL     OW32830   3.758   1.310   5.665
10644SOL    HW132831   3.669   1.350   5.643
10644SOL    HW232832   3.821   1.382   5.695
10645SOL     OW32833   1.947   0.405   4.143
10645SOL    HW132834   1.991   0.476   4.087
10645SOL    HW232835   1.880   0.447   4.203
10646SOL     OW32836   6.496   5.362   6.450
10646SOL    HW132837   6.440   5.402   6.522
10646SOL    HW232838   6.475   5.407   6.363
10647SOL     OW32839   6.842   5.903   0.932
10647SOL    HW132840   6.926   5.871   0.888
10647SOL    HW232841   6.862   5.984   0.987
10648SOL     OW32842   5.195   3.750   6.198
10648SOL    HW132843   5.142   3.800   6.129
10648SOL    HW232844   5.141   3.740   6.281
10649SOL     OW32845   6.848   5.059   6.459
10649SOL    HW132846   6.779   4.997   6.495
10649SOL    HW232847   6.928   5.058   6.519
10650SOL     OW32848   2.113   0.086   5.805
10650SOL    HW132849   2.107   0.060   5.901
10650SOL    HW232850   2.063   0.020   5.749
10651SOL     OW32851   1.615   1.031   5.144
10651SOL    HW132852   1.676   1.103   5.176
10651SOL    HW232853   1.541   1.018   5.210
10652SOL     OW32854   4.826   0.732   0.685
10652SOL    HW132855   4.924   0.716   0.702
10652SOL    HW232856   4.798   0.680   0.604
10653SOL     OW32857   6.245   3.905   4.718
10653SOL    HW132858   6.201   3.971   4.779
10653SOL    HW232859   6.175   3.859   4.663
10654SOL     OW32860   4.856   0.297   1.416
10654SOL    HW132861   4.877   0.385   1.459
10654SOL    HW232862   4.867   0.306   1.317
10655SOL     OW32863   2.421   5.879   1.033
10655SOL    HW132864   2.511   5.836   1.028
10655SOL    HW232865   2.354   5.824   0.984
10656SOL     OW32866   6.788   3.026   6.309
10656SOL    HW132867   6.836   2.939   6.318
10656SOL    HW232868   6.775   3.067   6.399
10657SOL     OW32869   6.171   0.227   0.504
10657SOL    HW132870   6.133   0.165   0.572
10657SOL    HW232871   6.211   0.175   0.428
10658SOL     OW32872   6.905   6.041   3.725
10658SOL    HW132873   6.932   6.137   3.723
10658SOL    HW232874   6.856   6.022   3.810
10659SOL     OW32875   5.187   1.081   1.666
10659SOL    HW132876   5.175   0.984   1.687
10659SOL    HW232877   5.098   1.121   1.642
10660SOL     OW32878   4.954   4.817   5.345
10660SOL    HW132879   4.912   4.785   5.430
10660SOL    HW232880   5.050   4.788   5.342
10661SOL     OW32881   6.941   1.363   1.584
10661SOL    HW132882   6.976   1.435   1.524
10661SOL    HW232883   6.962   1.274   1.544
10662SOL     OW32884   0.240   2.039   0.862
10662SOL    HW132885   0.163   1.977   0.845
10662SOL    HW232886   0.222   2.127   0.817
10663SOL     OW32887   0.627   2.558   1.924
10663SOL    HW132888   0.665   2.651   1.918
10663SOL    HW232889   0.577   2.548   2.010
10664SOL     OW32890   2.229   5.558   6.029
10664SOL    HW132891   2.260   5.494   6.100
10664SOL    HW232892   2.274   5.646   6.042
10665SOL     OW32893   5.554   2.018   0.101
10665SOL    HW132894   5.551   2.048   0.005
10665SOL    HW232895   5.467   2.038   0.145
10666SOL     OW32896   0.242   6.671   0.460
10666SOL    HW132897   0.163   6.732   0.448
10666SOL    HW232898   0.316   6.700   0.400
10667SOL     OW32899   2.993   2.118   5.881
10667SOL    HW132900   2.915   2.181   5.877
10667SOL    HW232901   3.023   2.096   5.788
10668SOL     OW32902   1.305   0.739   6.369
10668SOL    HW132903   1.266   0.649   6.394
10668SOL    HW232904   1.261   0.772   6.286
10669SOL     OW32905   2.039   5.853   6.576
10669SOL    HW132906   2.093   5.788   6.522
10669SOL    HW232907   2.051   5.945   6.540
10670SOL     OW32908   5.735   4.283   5.091
10670SOL    HW132909   5.810   4.235   5.046
10670SOL    HW232910   5.730   4.377   5.057
10671SOL     OW32911   2.310   2.842   3.299
10671SOL    HW132912   2.240   2.781   3.262
10671SOL    HW232913   2.323   2.823   3.396
10672SOL     OW32914   6.887   2.358   0.803
10672SOL    HW132915   6.919   2.265   0.785
10672SOL    HW232916   6.787   2.361   0.795
10673SOL     OW32917   3.371   4.155   4.006
10673SOL    HW132918   3.371   4.113   3.915
10673SOL    HW232919   3.279   4.155   4.044
10674SOL     OW32920   4.461   1.563   2.591
10674SOL    HW132921   4.370   1.523   2.579
10674SOL    HW232922   4.510   1.513   2.662
10675SOL     OW32923   1.392   1.515   5.763
10675SOL    HW132924   1.346   1.452   5.826
10675SOL    HW232925   1.380   1.609   5.795
10676SOL     OW32926   6.312   0.738   6.982
10676SOL    HW132927   6.220   0.717   7.015
10676SOL    HW232928   6.376   0.733   0.036
10677SOL     OW32929   5.232   1.405   0.148
10677SOL    HW132930   5.211   1.309   0.167
10677SOL    HW232931   5.297   1.439   0.215
10678SOL     OW32932   1.475   5.289   3.689
10678SOL    HW132933   1.405   5.358   3.675
10678SOL    HW232934   1.477   5.226   3.612
10679SOL     OW32935   5.741   5.304   3.811
10679SOL    HW132936   5.753   5.315   3.712
10679SOL    HW232937   5.644   5.309   3.833
10680SOL     OW32938   0.105   2.730   4.030
10680SOL    HW132939   0.158   2.659   4.076
10680SOL    HW232940   0.163   2.779   3.965
10681SOL     OW32941   0.760   3.414   0.079
10681SOL    HW132942   0.793   3.427   0.172
10681SOL    HW232943   0.728   3.320   0.067
10682SOL     OW32944   6.452   2.137   3.629
10682SOL    HW132945   6.506   2.054   3.642
10682SOL    HW232946   6.361   2.124   3.669
10683SOL     OW32947   0.556   0.211   3.934
10683SOL    HW132948   0.559   0.151   4.014
10683SOL    HW232949   0.463   0.245   3.921
10684SOL     OW32950   5.335   6.032   0.636
10684SOL    HW132951   5.324   6.065   0.730
10684SOL    HW232952   5.253   5.981   0.609
10685SOL     OW32953   6.223   2.751   3.259
10685SOL    HW132954   6.137   2.800   3.269
10685SOL    HW232955   6.281   2.800   3.193
10686SOL     OW32956   4.727   4.176   1.499
10686SOL    HW132957   4.712   4.227   1.583
10686SOL    HW232958   4.640   4.166   1.450
10687SOL     OW32959   0.133   5.474   0.951
10687SOL    HW132960   0.132   5.390   1.006
10687SOL    HW232961   0.200   5.464   0.877
10688SOL     OW32962   1.485   4.451   0.892
10688SOL    HW132963   1.533   4.533   0.922
10688SOL    HW232964   1.495   4.440   0.793
10689SOL     OW32965   0.374   0.269   1.223
10689SOL    HW132966   0.445   0.290   1.156
10689SOL    HW232967   0.345   0.173   1.212
10690SOL     OW32968   3.706   0.410   3.198
10690SOL    HW132969   3.743   0.327   3.239
10690SOL    HW232970   3.611   0.423   3.229
10691SOL     OW32971   5.347   1.448   1.416
10691SOL    HW132972   5.335   1.487   1.325
10691SOL    HW232973   5.263   1.457   1.468
10692SOL     OW32974   5.791   6.214   3.877
10692SOL    HW132975   5.773   6.116   3.882
10692SOL    HW232976   5.828   6.246   3.964
10693SOL     OW32977   4.828   2.408   4.221
10693SOL    HW132978   4.808   2.505   4.204
10693SOL    HW232979   4.767   2.351   4.165
10694SOL     OW32980   2.323   5.956   6.842
10694SOL    HW132981   2.346   6.045   6.802
10694SOL    HW232982   2.229   5.958   6.875
10695SOL     OW32983   5.915   2.731   5.828
10695SOL    HW132984   5.981   2.707   5.757
10695SOL    HW232985   5.829   2.760   5.785
10696SOL     OW32986   6.435   0.070   0.695
10696SOL    HW132987   6.484   7.008   0.714
10696SOL    HW232988   6.438   0.090   0.597
10697SOL     OW32989   2.574   5.937   2.744
10697SOL    HW132990   2.524   5.941   2.830
10697SOL    HW232991   2.579   6.029   2.704
10698SOL     OW32992   3.657   0.179   3.878
10698SOL    HW132993   3.699   0.215   3.962
10698SOL    HW232994   3.585   0.114   3.902
10699SOL     OW32995   0.524   3.298   3.626
10699SOL    HW132996   0.579   3.370   3.669
10699SOL    HW232997   0.427   3.320   3.637
10700SOL     OW32998   1.236   3.004   2.751
10700SOL    HW132999   1.155   2.972   2.703
10700SOL    HW233000   1.217   3.093   2.793
10701SOL     OW33001   2.698   6.970   1.222
10701SOL    HW133002   2.750   0.019   1.175
10701SOL    HW233003   2.748   6.940   1.303
10702SOL     OW33004   4.919   2.354   0.719
10702SOL    HW133005   4.948   2.341   0.624
10702SOL    HW233006   4.905   2.452   0.736
10703SOL     OW33007   3.856   3.910   3.988
10703SOL    HW133008   3.807   3.849   4.050
10703SOL    HW233009   3.947   3.929   4.024
10704SOL     OW33010   5.450   5.769   1.810
10704SOL    HW133011   5.432   5.746   1.906
10704SOL    HW233012   5.538   5.816   1.802
10705SOL     OW33013   1.215   3.039   6.954
10705SOL    HW133014   1.143   3.076   6.896
10705SOL    HW233015   1.252   2.956   6.911
10706SOL     OW33016   3.323   3.750   0.551
10706SOL    HW133017   3.260   3.730   0.626
10706SOL    HW233018   3.326   3.849   0.534
10707SOL     OW33019   5.970   0.467   6.509
10707SOL    HW133020   5.952   0.528   6.586
10707SOL    HW233021   5.883   0.440   6.467
10708SOL     OW33022   4.641   2.426   1.392
10708SOL    HW133023   4.568   2.434   1.459
10708SOL    HW233024   4.612   2.369   1.317
10709SOL     OW33025   0.797   1.161   6.611
10709SOL    HW133026   0.870   1.094   6.605
10709SOL    HW233027   0.835   1.250   6.639
10710SOL     OW33028   0.026   6.939   3.296
10710SOL    HW133029   0.039   0.003   3.344
10710SOL    HW233030   0.115   6.901   3.272
10711SOL     OW33031   1.776   4.201   5.532
10711SOL    HW133032   1.695   4.144   5.513
10711SOL    HW233033   1.852   4.170   5.475
10712SOL     OW33034   3.853   1.822   6.065
10712SOL    HW133035   3.876   1.836   6.161
10712SOL    HW233036   3.817   1.730   6.053
10713SOL     OW33037   2.938   0.352   0.207
10713SOL    HW133038   2.889   0.329   0.291
10713SOL    HW233039   2.943   0.271   0.149
10714SOL     OW33040   4.871   5.449   4.560
10714SOL    HW133041   4.856   5.445   4.659
10714SOL    HW233042   4.814   5.380   4.515
10715SOL     OW33043   5.989   6.871   2.695
10715SOL    HW133044   6.013   6.943   2.630
10715SOL    HW233045   5.946   6.912   2.776
10716SOL     OW33046   0.145   1.866   2.191
10716SOL    HW133047   0.240   1.849   2.218
10716SOL    HW233048   0.084   1.807   2.245
10717SOL     OW33049   0.472   6.754   1.933
10717SOL    HW133050   0.547   6.818   1.918
10717SOL    HW233051   0.477   6.718   2.026
10718SOL     OW33052   6.552   4.866   5.363
10718SOL    HW133053   6.470   4.897   5.412
10718SOL    HW233054   6.560   4.917   5.277
10719SOL     OW33055   3.259   6.369   3.535
10719SOL    HW133056   3.319   6.298   3.572
10719SOL    HW233057   3.312   6.431   3.478
10720SOL     OW33058   0.610   2.948   5.762
10720SOL    HW133059   0.682   2.959   5.830
10720SOL    HW233060   0.638   2.992   5.677
10721SOL     OW33061   5.569   1.603   3.979
10721SOL    HW133062   5.499   1.673   3.963
10721SOL    HW233063   5.650   1.625   3.925
10722SOL     OW33064   0.826   5.391   0.626
10722SOL    HW133065   0.788   5.332   0.554
10722SOL    HW233066   0.923   5.407   0.608
10723SOL     OW33067   0.181   3.777   6.234
10723SOL    HW133068   0.248   3.802   6.165
10723SOL    HW233069   0.117   3.709   6.197
10724SOL     OW33070   3.873   6.338   5.714
10724SOL    HW133071   3.790   6.291   5.745
10724SOL    HW233072   3.863   6.437   5.727
10725SOL     OW33073   6.984   0.343   5.167
10725SOL    HW133074   7.019   0.259   5.124
10725SOL    HW233075   6.924   0.318   5.244
10726SOL     OW33076   6.789   0.529   3.487
10726SOL    HW133077   6.736   0.461   3.437
10726SOL    HW233078   6.881   0.494   3.504
10727SOL     OW33079   5.053   5.982   6.411
10727SOL    HW133080   5.050   5.986   6.312
10727SOL    HW233081   5.034   6.072   6.449
10728SOL     OW33082   5.352   5.720   4.348
10728SOL    HW133083   5.394   5.710   4.257
10728SOL    HW233084   5.255   5.740   4.338
10729SOL     OW33085   6.585   2.973   4.212
10729SOL    HW133086   6.512   2.911   4.185
10729SOL    HW233087   6.661   2.920   4.251
10730SOL     OW33088   1.648   6.502   4.089
10730SOL    HW133089   1.551   6.478   4.084
10730SOL    HW233090   1.692   6.449   4.162
10731SOL     OW33091   5.148   3.935   5.030
10731SOL    HW133092   5.060   3.909   5.071
10731SOL    HW233093   5.133   4.007   4.963
10732SOL     OW33094   5.449   5.630   2.675
10732SOL    HW133095   5.503   5.573   2.613
10732SOL    HW233096   5.360   5.649   2.632
10733SOL     OW33097   0.632   1.887   5.661
10733SOL    HW133098   0.579   1.833   5.727
10733SOL    HW233099   0.575   1.907   5.582
10734SOL     OW33100   0.428   0.513   4.218
10734SOL    HW133101   0.432   0.546   4.123
10734SOL    HW233102   0.387   0.583   4.276
10735SOL     OW33103   0.087   0.842   1.800
10735SOL    HW133104   7.016   0.876   1.799
10735SOL    HW233105   0.145   0.905   1.851
10736SOL     OW33106   5.735   5.584   3.905
10736SOL    HW133107   5.770   5.496   3.873
10736SOL    HW233108   5.636   5.589   3.888
10737SOL     OW33109   6.393   0.669   0.479
10737SOL    HW133110   6.371   0.576   0.450
10737SOL    HW233111   6.411   0.670   0.578
10738SOL     OW33112   1.034   6.448   1.746
10738SOL    HW133113   1.075   6.357   1.734
10738SOL    HW233114   1.099   6.518   1.716
10739SOL     OW33115   5.082   2.659   4.307
10739SOL    HW133116   5.111   2.567   4.335
10739SOL    HW233117   5.116   2.677   4.215
10740SOL     OW33118   2.775   0.969   6.351
10740SOL    HW133119   2.825   1.033   6.409
10740SOL    HW233120   2.697   0.933   6.402
10741SOL     OW33121   2.116   2.864   4.093
10741SOL    HW133122   2.139   2.910   4.179
10741SOL    HW233123   2.017   2.852   4.088
10742SOL     OW33124   0.257   0.051   2.298
10742SOL    HW133125   0.256   0.082   2.203
10742SOL    HW233126   0.184   0.097   2.349
10743SOL     OW33127   3.731   2.900   6.016
10743SOL    HW133128   3.775   2.920   5.928
10743SOL    HW233129   3.777   2.823   6.059
10744SOL     OW33130   1.288   1.513   0.542
10744SOL    HW133131   1.360   1.569   0.501
10744SOL    HW233132   1.324   1.422   0.563
10745SOL     OW33133   3.499   5.637   1.604
10745SOL    HW133134   3.440   5.567   1.644
10745SOL    HW233135   3.572   5.593   1.552
10746SOL     OW33136   2.469   6.101   6.077
10746SOL    HW133137   2.390   6.068   6.129
10746SOL    HW233138   2.502   6.027   6.018
10747SOL     OW33139   6.823   0.026   4.688
10747SOL    HW133140   6.850   6.982   4.758
10747SOL    HW233141   6.898   0.092   4.675
10748SOL     OW33142   3.317   6.071   2.412
10748SOL    HW133143   3.261   6.154   2.412
10748SOL    HW233144   3.261   5.994   2.381
10749SOL     OW33145   4.915   2.858   2.570
10749SOL    HW133146   4.859   2.909   2.635
10749SOL    HW233147   4.892   2.885   2.477
10750SOL     OW33148   3.131   1.501   4.181
10750SOL    HW133149   3.193   1.468   4.110
10750SOL    HW233150   3.176   1.574   4.233
10751SOL     OW33151   6.097   6.047   3.675
10751SOL    HW133152   6.004   6.040   3.640
10751SOL    HW233153   6.156   5.982   3.628
10752SOL     OW33154   0.317   6.353   6.551
10752SOL    HW133155   0.303   6.255   6.558
10752SOL    HW233156   0.229   6.399   6.543
10753SOL     OW33157   5.414   6.598   5.063
10753SOL    HW133158   5.415   6.652   4.979
10753SOL    HW233159   5.334   6.623   5.117
10754SOL     OW33160   0.018   5.855   2.322
10754SOL    HW133161   7.011   5.869   2.227
10754SOL    HW233162   0.047   5.761   2.334
10755SOL     OW33163   0.990   1.752   2.367
10755SOL    HW133164   0.928   1.827   2.345
10755SOL    HW233165   0.942   1.665   2.354
10756SOL     OW33166   0.529   0.457   6.768
10756SOL    HW133167   0.599   0.405   6.717
10756SOL    HW233168   0.439   0.420   6.748
10757SOL     OW33169   0.315   2.674   1.834
10757SOL    HW133170   0.308   2.580   1.799
10757SOL    HW233171   0.296   2.673   1.933
10758SOL     OW33172   0.425   1.742   0.612
10758SOL    HW133173   0.449   1.656   0.657
10758SOL    HW233174   0.336   1.733   0.568
10759SOL     OW33175   3.591   5.212   5.106
10759SOL    HW133176   3.567   5.219   5.203
10759SOL    HW233177   3.519   5.162   5.057
10760SOL     OW33178   0.856   4.923   0.252
10760SOL    HW133179   0.939   4.973   0.278
10760SOL    HW233180   0.782   4.988   0.235
10761SOL     OW33181   1.682   1.574   6.589
10761SOL    HW133182   1.740   1.578   6.670
10761SOL    HW233183   1.640   1.483   6.582
10762SOL     OW33184   1.922   6.020   1.205
10762SOL    HW133185   1.843   6.041   1.264
10762SOL    HW233186   1.934   6.092   1.138
10763SOL     OW33187   5.032   1.261   2.659
10763SOL    HW133188   5.045   1.250   2.561
10763SOL    HW233189   5.121   1.262   2.704
10764SOL     OW33190   5.223   5.979   4.574
10764SOL    HW133191   5.129   5.946   4.573
10764SOL    HW233192   5.271   5.938   4.652
10765SOL     OW33193   6.734   3.003   1.470
10765SOL    HW133194   6.784   3.005   1.556
10765SOL    HW233195   6.686   2.916   1.462
10766SOL     OW33196   3.396   5.394   6.765
10766SOL    HW133197   3.343   5.462   6.815
10766SOL    HW233198   3.438   5.436   6.685
10767SOL     OW33199   1.524   5.071   6.456
10767SOL    HW133200   1.535   5.163   6.419
10767SOL    HW233201   1.435   5.063   6.500
10768SOL     OW33202   5.991   6.242   0.177
10768SOL    HW133203   6.046   6.187   0.240
10768SOL    HW233204   6.048   6.274   0.101
10769SOL     OW33205   3.184   3.706   4.747
10769SOL    HW133206   3.148   3.737   4.836
10769SOL    HW233207   3.201   3.607   4.751
10770SOL     OW33208   4.345   6.914   4.312
10770SOL    HW133209   4.267   6.963   4.351
10770SOL    HW233210   4.352   6.824   4.355
10771SOL     OW33211   4.862   6.280   5.843
10771SOL    HW133212   4.885   6.255   5.749
10771SOL    HW233213   4.924   6.352   5.874
10772SOL     OW33214   5.223   3.487   3.977
10772SOL    HW133215   5.123   3.488   3.980
10772SOL    HW233216   5.259   3.450   4.063
10773SOL     OW33217   1.193   4.566   0.596
10773SOL    HW133218   1.287   4.532   0.603
10773SOL    HW233219   1.133   4.507   0.651
10774SOL     OW33220   6.925   3.004   0.653
10774SOL    HW133221   6.913   2.972   0.747
10774SOL    HW233222   7.008   3.060   0.647
10775SOL     OW33223   2.105   4.537   6.069
10775SOL    HW133224   2.157   4.606   6.019
10775SOL    HW233225   2.025   4.579   6.110
10776SOL     OW33226   0.255   3.637   3.024
10776SOL    HW133227   0.221   3.543   3.032
10776SOL    HW233228   0.210   3.694   3.093
10777SOL     OW33229   0.779   6.393   1.821
10777SOL    HW133230   0.776   6.380   1.920
10777SOL    HW233231   0.874   6.409   1.792
10778SOL     OW33232   5.064   6.992   3.722
10778SOL    HW133233   4.996   7.001   3.795
10778SOL    HW233234   5.022   6.948   3.642
10779SOL     OW33235   5.660   2.799   5.723
10779SOL    HW133236   5.681   2.860   5.647
10779SOL    HW233237   5.609   2.848   5.793
10780SOL     OW33238   0.989   5.423   4.642
10780SOL    HW133239   0.968   5.391   4.549
10780SOL    HW233240   0.946   5.362   4.709
10781SOL     OW33241   6.071   2.383   5.738
10781SOL    HW133242   6.085   2.481   5.723
10781SOL    HW233243   6.160   2.340   5.757
10782SOL     OW33244   1.380   3.214   5.126
10782SOL    HW133245   1.322   3.295   5.136
10782SOL    HW233246   1.448   3.213   5.200
10783SOL     OW33247   1.549   4.092   4.048
10783SOL    HW133248   1.619   4.156   4.082
10783SOL    HW233249   1.458   4.130   4.065
10784SOL     OW33250   4.895   4.916   3.933
10784SOL    HW133251   4.838   4.986   3.977
10784SOL    HW233252   4.989   4.949   3.926
10785SOL     OW33253   1.782   5.372   1.772
10785SOL    HW133254   1.687   5.369   1.742
10785SOL    HW233255   1.822   5.281   1.763
10786SOL     OW33256   4.914   1.589   2.621
10786SOL    HW133257   4.913   1.526   2.544
10786SOL    HW233258   4.992   1.651   2.613
10787SOL     OW33259   3.104   1.983   3.729
10787SOL    HW133260   3.109   1.884   3.744
10787SOL    HW233261   3.124   2.030   3.814
10788SOL     OW33262   1.415   3.244   6.957
10788SOL    HW133263   1.344   3.174   6.953
10788SOL    HW233264   1.462   3.238   0.022
10789SOL     OW33265   6.625   2.645   2.732
10789SOL    HW133266   6.561   2.669   2.806
10789SOL    HW233267   6.609   2.551   2.704
10790SOL     OW33268   6.799   2.708   5.196
10790SOL    HW133269   6.896   2.690   5.210
10790SOL    HW233270   6.762   2.641   5.132
10791SOL     OW33271   1.922   2.777   3.007
10791SOL    HW133272   1.920   2.785   3.106
10791SOL    HW233273   1.934   2.868   2.967
10792SOL     OW33274   3.840   1.380   2.179
10792SOL    HW133275   3.887   1.468   2.191
10792SOL    HW233276   3.847   1.326   2.263
10793SOL     OW33277   4.069   2.024   4.052
10793SOL    HW133278   4.062   2.089   3.976
10793SOL    HW233279   4.034   1.935   4.022
10794SOL     OW33280   4.238   2.868   6.864
10794SOL    HW133281   4.302   2.795   6.841
10794SOL    HW233282   4.278   2.927   6.934
10795SOL     OW33283   6.194   2.892   2.809
10795SOL    HW133284   6.177   2.972   2.866
10795SOL    HW233285   6.137   2.816   2.839
10796SOL     OW33286   6.689   1.844   6.283
10796SOL    HW133287   6.710   1.749   6.303
10796SOL    HW233288   6.594   1.864   6.307
10797SOL     OW33289   5.621   4.567   6.470
10797SOL    HW133290   5.578   4.479   6.451
10797SOL    HW233291   5.703   4.577   6.414
10798SOL     OW33292   2.288   5.783   0.355
10798SOL    HW133293   2.292   5.850   0.430
10798SOL    HW233294   2.329   5.823   0.273
10799SOL     OW33295   1.919   1.190   3.307
10799SOL    HW133296   1.865   1.254   3.362
10799SOL    HW233297   1.994   1.239   3.263
10800SOL     OW33298   1.207   0.600   5.172
10800SOL    HW133299   1.212   0.658   5.091
10800SOL    HW233300   1.193   0.505   5.144
10801SOL     OW33301   3.012   5.993   6.721
10801SOL    HW133302   3.031   6.012   6.624
10801SOL    HW233303   3.089   6.025   6.776
10802SOL     OW33304   0.414   4.527   3.527
10802SOL    HW133305   0.321   4.560   3.513
10802SOL    HW233306   0.443   4.473   3.448
10803SOL     OW33307   0.296   4.457   4.841
10803SOL    HW133308   0.326   4.363   4.830
10803SOL    HW233309   0.197   4.460   4.856
10804SOL     OW33310   4.131   4.954   6.386
10804SOL    HW133311   4.104   4.922   6.477
10804SOL    HW233312   4.059   5.011   6.347
10805SOL     OW33313   5.087   6.011   0.266
10805SOL    HW133314   5.035   5.926   0.264
10805SOL    HW233315   5.182   5.992   0.290
10806SOL     OW33316   5.918   2.918   4.921
10806SOL    HW133317   6.007   2.920   4.874
10806SOL    HW233318   5.909   2.832   4.970
10807SOL     OW33319   4.453   2.656   5.174
10807SOL    HW133320   4.463   2.714   5.255
10807SOL    HW233321   4.365   2.609   5.178
10808SOL     OW33322   0.834   2.644   0.928
10808SOL    HW133323   0.882   2.667   0.843
10808SOL    HW233324   0.746   2.692   0.931
10809SOL     OW33325   1.109   1.124   3.179
10809SOL    HW133326   1.012   1.100   3.177
10809SOL    HW233327   1.156   1.079   3.104
10810SOL     OW33328   1.920   2.059   6.531
10810SOL    HW133329   2.014   2.039   6.502
10810SOL    HW233330   1.911   2.158   6.545
10811SOL     OW33331   3.833   5.410   6.733
10811SOL    HW133332   3.931   5.430   6.731
10811SOL    HW233333   3.782   5.491   6.760
10812SOL     OW33334   6.942   3.502   2.508
10812SOL    HW133335   6.881   3.439   2.557
10812SOL    HW233336   7.020   3.451   2.473
10813SOL     OW33337   3.396   6.317   2.154
10813SOL    HW133338   3.338   6.286   2.229
10813SOL    HW233339   3.364   6.406   2.122
10814SOL     OW33340   1.686   6.034   4.159
10814SOL    HW133341   1.691   6.113   4.097
10814SOL    HW233342   1.592   6.000   4.162
10815SOL     OW33343   5.436   2.940   5.873
10815SOL    HW133344   5.389   2.882   5.940
10815SOL    HW233345   5.507   2.993   5.919
10816SOL     OW33346   2.439   2.795   0.676
10816SOL    HW133347   2.340   2.810   0.672
10816SOL    HW233348   2.460   2.731   0.750
10817SOL     OW33349   3.777   1.918   1.770
10817SOL    HW133350   3.723   1.876   1.697
10817SOL    HW233351   3.776   2.018   1.758
10818SOL     OW33352   4.221   3.533   5.576
10818SOL    HW133353   4.239   3.518   5.479
10818SOL    HW233354   4.308   3.546   5.624
10819SOL     OW33355   2.128   3.158   5.162
10819SOL    HW133356   2.064   3.191   5.093
10819SOL    HW233357   2.198   3.102   5.117
10820SOL     OW33358   0.722   6.544   5.232
10820SOL    HW133359   0.676   6.545   5.144
10820SOL    HW233360   0.665   6.497   5.299
10821SOL     OW33361   7.011   0.533   6.972
10821SOL    HW133362   0.048   0.489   0.017
10821SOL    HW233363   7.005   0.631   6.992
10822SOL     OW33364   0.348   5.472   5.843
10822SOL    HW133365   0.314   5.492   5.935
10822SOL    HW233366   0.287   5.511   5.775
10823SOL     OW33367   2.766   2.448   0.528
10823SOL    HW133368   2.802   2.358   0.551
10823SOL    HW233369   2.762   2.504   0.610
10824SOL     OW33370   5.069   1.464   4.654
10824SOL    HW133371   5.088   1.561   4.641
10824SOL    HW233372   5.003   1.451   4.727
10825SOL     OW33373   3.891   1.302   1.901
10825SOL    HW133374   3.857   1.311   1.995
10825SOL    HW233375   3.865   1.383   1.848
10826SOL     OW33376   0.481   3.528   1.221
10826SOL    HW133377   0.519   3.619   1.206
10826SOL    HW233378   0.552   3.459   1.206
10827SOL     OW33379   6.949   2.365   4.669
10827SOL    HW133380   6.881   2.435   4.691
10827SOL    HW233381   7.015   2.358   4.744
10828SOL     OW33382   2.640   4.303   6.807
10828SOL    HW133383   2.724   4.348   6.776
10828SOL    HW233384   2.571   4.307   6.735
10829SOL     OW33385   2.236   3.567   0.993
10829SOL    HW133386   2.151   3.515   0.992
10829SOL    HW233387   2.228   3.645   0.931
10830SOL     OW33388   6.214   0.123   3.964
10830SOL    HW133389   6.148   0.129   3.888
10830SOL    HW233390   6.202   0.201   4.025
10831SOL     OW33391   5.605   2.906   2.329
10831SOL    HW133392   5.540   2.846   2.375
10831SOL    HW233393   5.688   2.855   2.309
10832SOL     OW33394   1.805   2.912   1.828
10832SOL    HW133395   1.852   2.856   1.895
10832SOL    HW233396   1.715   2.938   1.863
10833SOL     OW33397   3.252   6.893   4.798
10833SOL    HW133398   3.162   6.878   4.840
10833SOL    HW233399   3.306   6.809   4.804
10834SOL     OW33400   6.975   2.364   5.630
10834SOL    HW133401   0.013   2.414   5.569
10834SOL    HW233402   6.892   2.337   5.580
10835SOL     OW33403   0.607   1.406   0.349
10835SOL    HW133404   0.686   1.374   0.297
10835SOL    HW233405   0.620   1.502   0.375
10836SOL     OW33406   0.360   1.834   1.136
10836SOL    HW133407   0.381   1.827   1.233
10836SOL    HW233408   0.319   1.923   1.116
10837SOL     OW33409   1.529   5.569   0.530
10837SOL    HW133410   1.475   5.642   0.487
10837SOL    HW233411   1.474   5.486   0.538
10838SOL     OW33412   6.644   5.891   1.256
10838SOL    HW133413   6.650   5.990   1.240
10838SOL    HW233414   6.548   5.864   1.259
10839SOL     OW33415   2.712   1.798   6.407
10839SOL    HW133416   2.719   1.838   6.498
10839SOL    HW233417   2.759   1.857   6.341
10840SOL     OW33418   1.230   1.054   3.440
10840SOL    HW133419   1.190   1.095   3.358
10840SOL    HW233420   1.224   1.120   3.516
10841SOL     OW33421   4.823   4.249   0.217
10841SOL    HW133422   4.877   4.216   0.139
10841SOL    HW233423   4.866   4.219   0.302
10842SOL     OW33424   5.827   2.022   1.805
10842SOL    HW133425   5.797   2.053   1.715
10842SOL    HW233426   5.747   2.014   1.865
10843SOL     OW33427   1.054   2.044   1.342
10843SOL    HW133428   0.975   1.984   1.333
10843SOL    HW233429   1.122   2.020   1.273
10844SOL     OW33430   4.795   6.439   4.239
10844SOL    HW133431   4.757   6.351   4.211
10844SOL    HW233432   4.860   6.471   4.171
10845SOL     OW33433   2.493   3.648   1.413
10845SOL    HW133434   2.524   3.697   1.494
10845SOL    HW233435   2.410   3.690   1.378
10846SOL     OW33436   3.423   2.632   1.577
10846SOL    HW133437   3.333   2.629   1.532
10846SOL    HW233438   3.494   2.640   1.507
10847SOL     OW33439   5.175   1.782   5.475
10847SOL    HW133440   5.266   1.747   5.451
10847SOL    HW233441   5.140   1.837   5.400
10848SOL     OW33442   1.922   0.608   6.866
10848SOL    HW133443   1.981   0.676   6.909
10848SOL    HW233444   1.927   0.619   6.766
10849SOL     OW33445   0.888   4.122   5.027
10849SOL    HW133446   0.877   4.051   4.958
10849SOL    HW233447   0.979   4.162   5.021
10850SOL     OW33448   5.785   0.637   2.927
10850SOL    HW133449   5.830   0.695   2.994
10850SOL    HW233450   5.703   0.684   2.893
10851SOL     OW33451   4.571   2.668   0.115
10851SOL    HW133452   4.488   2.614   0.132
10851SOL    HW233453   4.554   2.764   0.134
10852SOL     OW33454   5.896   1.353   5.728
10852SOL    HW133455   5.838   1.389   5.654
10852SOL    HW233456   5.850   1.366   5.816
10853SOL     OW33457   2.262   6.927   5.573
10853SOL    HW133458   2.164   6.916   5.587
10853SOL    HW233459   2.290   7.019   5.599
10854SOL     OW33460   5.746   0.455   6.973
10854SOL    HW133461   5.671   0.430   6.912
10854SOL    HW233462   5.714   0.521   0.018
10855SOL     OW33463   0.950   5.844   6.858
10855SOL    HW133464   0.857   5.817   6.884
10855SOL    HW233465   0.999   5.876   6.940
10856SOL     OW33466   4.737   7.021   6.055
10856SOL    HW133467   4.756   6.933   6.013
10856SOL    HW233468   4.644   7.021   6.092
10857SOL     OW33469   6.501   6.569   4.877
10857SOL    HW133470   6.569   6.516   4.927
10857SOL    HW233471   6.548   6.636   4.819
10858SOL     OW33472   2.160   2.794   0.725
10858SOL    HW133473   2.088   2.856   0.756
10858SOL    HW233474   2.127   2.700   0.730
10859SOL     OW33475   2.645   5.194   1.718
10859SOL    HW133476   2.650   5.227   1.813
10859SOL    HW233477   2.681   5.101   1.714
10860SOL     OW33478   5.458   1.605   1.886
10860SOL    HW133479   5.423   1.686   1.839
10860SOL    HW233480   5.414   1.597   1.975
10861SOL     OW33481   2.789   4.801   0.666
10861SOL    HW133482   2.888   4.814   0.677
10861SOL    HW233483   2.742   4.828   0.750
10862SOL     OW33484   3.905   4.685   5.336
10862SOL    HW133485   3.827   4.636   5.374
10862SOL    HW233486   3.988   4.631   5.350
10863SOL     OW33487   0.222   6.935   3.902
10863SOL    HW133488   0.148   6.886   3.855
10863SOL    HW233489   0.205   6.933   4.001
10864SOL     OW33490   2.860   3.555   2.634
10864SOL    HW133491   2.917   3.637   2.625
10864SOL    HW233492   2.849   3.512   2.545
10865SOL     OW33493   3.176   2.132   2.342
10865SOL    HW133494   3.274   2.111   2.347
10865SOL    HW233495   3.144   2.120   2.248
10866SOL     OW33496   0.512   3.542   5.250
10866SOL    HW133497   0.419   3.549   5.215
10866SOL    HW233498   0.565   3.621   5.218
10867SOL     OW33499   4.954   3.265   0.550
10867SOL    HW133500   5.022   3.319   0.501
10867SOL    HW233501   4.862   3.291   0.518
10868SOL     OW33502   0.216   6.620   6.233
10868SOL    HW133503   0.304   6.612   6.279
10868SOL    HW233504   0.191   6.716   6.224
10869NA      NA33505   6.715   0.926   6.845
10870NA      NA33506   4.674   4.487   4.795
10871NA      NA33507   0.854   4.377   2.953
10872NA      NA33508   6.515   3.549   3.742
10873NA      NA33509   4.268   2.355   5.284
10874NA      NA33510   2.411   3.357   6.979
10875NA      NA33511   1.736   5.450   0.014
10876NA      NA33512   4.264   5.059   2.080
10877NA      NA33513   5.428   3.681   1.143
10878NA      NA33514   3.406   1.888   0.703
10879NA      NA33515   5.050   6.214   1.570
10880NA      NA33516   2.739   6.373   4.577
10881NA      NA33517   2.945   5.547   2.528
10882NA      NA33518   4.329   4.827   6.100
   7.02256   7.02256   7.02256
