Generated by trjconv : CNT in water t= 423.00000
33518
    1C        C    1   2.842   2.766   4.745
    1C        C    2   2.896   2.719   4.867
    1C        C    3   2.843   2.769   4.986
    1C        C    4   2.848   2.772   4.258
    1C        C    5   2.903   2.728   4.380
    1C        C    6   2.852   2.777   4.502
    1C        C    7   3.015   2.640   4.626
    1C        C    8   2.901   2.725   4.624
    1C        C    9   3.074   2.596   4.746
    1C        C   10   3.009   2.635   4.865
    1C        C   11   3.176   2.490   4.975
    1C        C   12   3.057   2.565   4.977
    1C        C   13   2.854   2.772   3.772
    1C        C   14   2.902   2.720   3.894
    1C        C   15   2.849   2.771   4.015
    1C        C   16   3.019   2.644   4.140
    1C        C   17   2.903   2.724   4.137
    1C        C   18   3.085   2.615   4.261
    1C        C   19   3.021   2.651   4.381
    1C        C   20   3.207   2.551   4.504
    1C        C   21   3.077   2.607   4.504
    1C        C   22   3.276   2.534   4.626
    1C        C   23   3.207   2.544   4.749
    1C        C   24   3.412   2.481   4.862
    1C        C   25   3.270   2.498   4.867
    1C        C   26   3.484   2.476   4.982
    1C        C   27   2.853   2.771   3.282
    1C        C   28   2.907   2.727   3.405
    1C        C   29   2.856   2.776   3.527
    1C        C   30   3.021   2.643   3.648
    1C        C   31   2.909   2.730   3.650
    1C        C   32   3.077   2.604   3.772
    1C        C   33   3.017   2.638   3.896
    1C        C   34   3.210   2.552   4.019
    1C        C   35   3.079   2.604   4.018
    1C        C   36   3.281   2.528   4.139
    1C        C   37   3.214   2.556   4.260
    1C        C   38   3.415   2.500   4.383
    1C        C   39   3.277   2.529   4.383
    1C        C   40   3.487   2.496   4.505
    1C        C   41   3.414   2.505   4.625
    1C        C   42   3.631   2.484   4.745
    1C        C   43   3.489   2.483   4.743
    1C        C   44   3.703   2.483   4.866
    1C        C   45   3.623   2.476   4.981
    1C        C   46   2.839   2.753   2.794
    1C        C   47   2.901   2.715   2.915
    1C        C   48   2.848   2.764   3.036
    1C        C   49   3.019   2.641   3.161
    1C        C   50   2.904   2.723   3.159
    1C        C   51   3.080   2.605   3.283
    1C        C   52   3.022   2.645   3.406
    1C        C   53   3.212   2.548   3.529
    1C        C   54   3.084   2.608   3.527
    1C        C   55   3.279   2.528   3.652
    1C        C   56   3.208   2.551   3.772
    1C        C   57   3.414   2.504   3.894
    1C        C   58   3.275   2.532   3.895
    1C        C   59   3.486   2.494   4.016
    1C        C   60   3.419   2.495   4.140
    1C        C   61   3.629   2.494   4.260
    1C        C   62   3.488   2.489   4.263
    1C        C   63   3.700   2.505   4.381
    1C        C   64   3.628   2.499   4.503
    1C        C   65   3.835   2.544   4.622
    1C        C   66   3.701   2.500   4.623
    1C        C   67   3.904   2.561   4.744
    1C        C   68   3.837   2.527   4.863
    1C        C   69   4.048   2.592   4.979
    1C        C   70   3.920   2.536   4.976
    1C        C   71   2.823   2.730   2.309
    1C        C   72   2.884   2.689   2.429
    1C        C   73   2.834   2.744   2.549
    1C        C   74   3.009   2.629   2.673
    1C        C   75   2.886   2.698   2.672
    1C        C   76   3.076   2.596   2.793
    1C        C   77   3.017   2.635   2.915
    1C        C   78   3.210   2.551   3.038
    1C        C   79   3.079   2.605   3.039
    1C        C   80   3.277   2.526   3.160
    1C        C   81   3.209   2.547   3.282
    1C        C   82   3.413   2.495   3.403
    1C        C   83   3.275   2.524   3.405
    1C        C   84   3.483   2.490   3.525
    1C        C   85   3.418   2.507   3.650
    1C        C   86   3.627   2.492   3.770
    1C        C   87   3.486   2.502   3.773
    1C        C   88   3.698   2.502   3.892
    1C        C   89   3.627   2.502   4.014
    1C        C   90   3.833   2.545   4.136
    1C        C   91   3.696   2.509   4.137
    1C        C   92   3.899   2.573   4.257
    1C        C   93   3.836   2.544   4.380
    1C        C   94   4.029   2.635   4.499
    1C        C   95   3.906   2.567   4.501
    1C        C   96   4.090   2.674   4.621
    1C        C   97   4.028   2.632   4.741
    1C        C   98   4.189   2.770   4.863
    1C        C   99   4.092   2.664   4.863
    1C        C  100   4.215   2.847   4.977
    1C        C  101   2.823   2.732   2.071
    1C        C  102   2.993   2.592   2.187
    1C        C  103   2.880   2.679   2.188
    1C        C  104   3.063   2.571   2.309
    1C        C  105   3.005   2.617   2.430
    1C        C  106   3.198   2.528   2.551
    1C        C  107   3.072   2.591   2.552
    1C        C  108   3.272   2.514   2.670
    1C        C  109   3.204   2.536   2.792
    1C        C  110   3.411   2.495   2.916
    1C        C  111   3.272   2.522   2.915
    1C        C  112   3.484   2.492   3.037
    1C        C  113   3.416   2.502   3.160
    1C        C  114   3.628   2.489   3.281
    1C        C  115   3.486   2.489   3.282
    1C        C  116   3.697   2.502   3.404
    1C        C  117   3.625   2.493   3.525
    1C        C  118   3.832   2.536   3.647
    1C        C  119   3.696   2.498   3.646
    1C        C  120   3.898   2.566   3.768
    1C        C  121   3.833   2.544   3.891
    1C        C  122   4.022   2.638   4.011
    1C        C  123   3.898   2.570   4.013
    1C        C  124   4.082   2.677   4.133
    1C        C  125   4.024   2.640   4.256
    1C        C  126   4.193   2.769   4.377
    1C        C  127   4.088   2.675   4.377
    1C        C  128   4.243   2.821   4.498
    1C        C  129   4.195   2.768   4.620
    1C        C  130   4.325   2.937   4.742
    1C        C  131   4.239   2.823   4.742
    1C        C  132   4.360   3.005   4.861
    1C        C  133   4.294   2.961   4.976
    1C        C  134   3.173   2.469   2.076
    1C        C  135   3.039   2.509   2.080
    1C        C  136   3.257   2.477   2.188
    1C        C  137   3.193   2.515   2.308
    1C        C  138   3.404   2.481   2.429
    1C        C  139   3.264   2.498   2.429
    1C        C  140   3.480   2.475   2.548
    1C        C  141   3.410   2.486   2.671
    1C        C  142   3.622   2.482   2.794
    1C        C  143   3.480   2.482   2.794
    1C        C  144   3.696   2.493   2.913
    1C        C  145   3.625   2.494   3.036
    1C        C  146   3.832   2.536   3.156
    1C        C  147   3.696   2.498   3.158
    1C        C  148   3.899   2.558   3.278
    1C        C  149   3.833   2.538   3.402
    1C        C  150   4.022   2.631   3.523
    1C        C  151   3.898   2.564   3.525
    1C        C  152   4.080   2.673   3.645
    1C        C  153   4.018   2.641   3.767
    1C        C  154   4.188   2.769   3.887
    1C        C  155   4.079   2.679   3.889
    1C        C  156   4.241   2.818   4.009
    1C        C  157   4.192   2.765   4.131
    1C        C  158   4.334   2.924   4.252
    1C        C  159   4.242   2.817   4.253
    1C        C  160   4.374   2.987   4.373
    1C        C  161   4.329   2.934   4.496
    1C        C  162   4.442   3.111   4.614
    1C        C  163   4.368   2.991   4.619
    1C        C  164   4.471   3.181   4.733
    1C        C  165   4.439   3.122   4.858
    1C        C  166   4.514   3.319   4.971
    1C        C  167   4.482   3.184   4.976
    1C        C  168   3.473   2.433   2.073
    1C        C  169   3.397   2.458   2.189
    1C        C  170   3.615   2.468   2.305
    1C        C  171   3.473   2.463   2.307
    1C        C  172   3.689   2.483   2.425
    1C        C  173   3.621   2.477   2.548
    1C        C  174   3.826   2.531   2.666
    1C        C  175   3.690   2.494   2.670
    1C        C  176   3.894   2.557   2.787
    1C        C  177   3.832   2.530   2.911
    1C        C  178   4.023   2.626   3.032
    1C        C  179   3.898   2.559   3.033
    1C        C  180   4.083   2.662   3.154
    1C        C  181   4.023   2.626   3.277
    1C        C  182   4.191   2.754   3.398
    1C        C  183   4.081   2.665   3.399
    1C        C  184   4.242   2.807   3.519
    1C        C  185   4.192   2.759   3.643
    1C        C  186   4.339   2.914   3.763
    1C        C  187   4.245   2.809   3.764
    1C        C  188   4.375   2.979   3.883
    1C        C  189   4.332   2.926   4.007
    1C        C  190   4.444   3.105   4.129
    1C        C  191   4.373   2.983   4.130
    1C        C  192   4.471   3.172   4.250
    1C        C  193   4.447   3.107   4.373
    1C        C  194   4.510   3.314   4.491
    1C        C  195   4.472   3.178   4.493
    1C        C  196   4.525   3.386   4.611
    1C        C  197   4.511   3.317   4.734
    1C        C  198   4.554   3.534   4.849
    1C        C  199   4.532   3.392   4.853
    1C        C  200   4.585   3.617   4.961
    1C        C  201   3.612   2.420   2.075
    1C        C  202   3.828   2.507   2.182
    1C        C  203   3.692   2.461   2.186
    1C        C  204   3.895   2.541   2.302
    1C        C  205   3.826   2.519   2.423
    1C        C  206   4.018   2.616   2.543
    1C        C  207   3.892   2.553   2.543
    1C        C  208   4.081   2.654   2.664
    1C        C  209   4.018   2.624   2.787
    1C        C  210   4.190   2.752   2.907
    1C        C  211   4.079   2.664   2.908
    1C        C  212   4.243   2.800   3.029
    1C        C  213   4.193   2.751   3.152
    1C        C  214   4.328   2.912   3.272
    1C        C  215   4.239   2.802   3.275
    1C        C  216   4.367   2.973   3.393
    1C        C  217   4.330   2.917   3.518
    1C        C  218   4.433   3.102   3.639
    1C        C  219   4.372   2.975   3.640
    1C        C  220   4.462   3.170   3.760
    1C        C  221   4.440   3.104   3.883
    1C        C  222   4.506   3.305   4.006
    1C        C  223   4.471   3.168   4.005
    1C        C  224   4.517   3.378   4.126
    1C        C  225   4.504   3.310   4.249
    1C        C  226   4.527   3.524   4.366
    1C        C  227   4.523   3.383   4.368
    1C        C  228   4.528   3.597   4.487
    1C        C  229   4.538   3.526   4.609
    1C        C  230   4.504   3.742   4.725
    1C        C  231   4.540   3.604   4.727
    1C        C  232   4.495   3.818   4.844
    1C        C  233   4.550   3.752   4.955
    1C        C  234   4.018   2.606   2.063
    1C        C  235   3.896   2.539   2.063
    1C        C  236   4.082   2.650   2.180
    1C        C  237   4.021   2.608   2.301
    1C        C  238   4.195   2.736   2.420
    1C        C  239   4.080   2.652   2.421
    1C        C  240   4.242   2.790   2.542
    1C        C  241   4.193   2.740   2.665
    1C        C  242   4.329   2.909   2.784
    1C        C  243   4.242   2.797   2.784
    1C        C  244   4.375   2.964   2.906
    1C        C  245   4.332   2.909   3.029
    1C        C  246   4.443   3.091   3.149
    1C        C  247   4.375   2.967   3.151
    1C        C  248   4.460   3.161   3.270
    1C        C  249   4.431   3.099   3.394
    1C        C  250   4.500   3.301   3.517
    1C        C  251   4.461   3.165   3.516
    1C        C  252   4.514   3.372   3.638
    1C        C  253   4.502   3.306   3.763
    1C        C  254   4.527   3.516   3.880
    1C        C  255   4.522   3.375   3.884
    1C        C  256   4.524   3.590   4.000
    1C        C  257   4.527   3.519   4.123
    1C        C  258   4.489   3.731   4.241
    1C        C  259   4.516   3.593   4.243
    1C        C  260   4.478   3.803   4.362
    1C        C  261   4.501   3.735   4.485
    1C        C  262   4.430   3.941   4.603
    1C        C  263   4.478   3.809   4.603
    1C        C  264   4.403   4.011   4.723
    1C        C  265   4.437   3.947   4.844
    1C        C  266   4.315   4.128   4.956
    1C        C  267   4.393   4.012   4.960
    1C        C  268   4.260   2.780   2.064
    1C        C  269   4.193   2.736   2.179
    1C        C  270   4.341   2.893   2.299
    1C        C  271   4.248   2.785   2.299
    1C        C  272   4.381   2.955   2.419
    1C        C  273   4.334   2.897   2.539
    1C        C  274   4.439   3.085   2.660
    1C        C  275   4.369   2.962   2.660
    1C        C  276   4.473   3.150   2.780
    1C        C  277   4.446   3.086   2.903
    1C        C  278   4.505   3.290   3.026
    1C        C  279   4.474   3.152   3.025
    1C        C  280   4.518   3.362   3.146
    1C        C  281   4.501   3.296   3.270
    1C        C  282   4.521   3.507   3.390
    1C        C  283   4.511   3.366   3.393
    1C        C  284   4.517   3.580   3.511
    1C        C  285   4.522   3.513   3.635
    1C        C  286   4.499   3.724   3.753
    1C        C  287   4.520   3.585   3.756
    1C        C  288   4.480   3.796   3.873
    1C        C  289   4.498   3.728   3.996
    1C        C  290   4.425   3.930   4.116
    1C        C  291   4.476   3.799   4.117
    1C        C  292   4.391   3.994   4.237
    1C        C  293   4.425   3.934   4.360
    1C        C  294   4.328   4.126   4.478
    1C        C  295   4.398   4.003   4.480
    1C        C  296   4.284   4.185   4.599
    1C        C  297   4.327   4.131   4.722
    1C        C  298   4.200   4.315   4.837
    1C        C  299   4.281   4.197   4.839
    1C        C  300   4.171   4.402   4.947
    1C        C  301   4.353   2.883   2.065
    1C        C  302   4.471   3.072   2.175
    1C        C  303   4.397   2.949   2.181
    1C        C  304   4.488   3.141   2.298
    1C        C  305   4.450   3.078   2.418
    1C        C  306   4.506   3.286   2.537
    1C        C  307   4.472   3.149   2.538
    1C        C  308   4.520   3.357   2.658
    1C        C  309   4.507   3.287   2.780
    1C        C  310   4.525   3.499   2.901
    1C        C  311   4.515   3.358   2.902
    1C        C  312   4.519   3.573   3.021
    1C        C  313   4.524   3.503   3.144
    1C        C  314   4.486   3.712   3.263
    1C        C  315   4.520   3.575   3.266
    1C        C  316   4.473   3.784   3.384
    1C        C  317   4.494   3.720   3.508
    1C        C  318   4.427   3.922   3.628
    1C        C  319   4.479   3.790   3.630
    1C        C  320   4.390   3.984   3.749
    1C        C  321   4.422   3.924   3.873
    1C        C  322   4.322   4.114   3.990
    1C        C  323   4.397   3.995   3.993
    1C        C  324   4.275   4.169   4.112
    1C        C  325   4.317   4.114   4.235
    1C        C  326   4.186   4.283   4.356
    1C        C  327   4.280   4.178   4.356
    1C        C  328   4.137   4.340   4.476
    1C        C  329   4.192   4.292   4.596
    1C        C  330   4.020   4.429   4.716
    1C        C  331   4.138   4.348   4.714
    1C        C  332   3.966   4.490   4.832
    1C        C  333   4.050   4.473   4.943
    1C        C  334   4.551   3.265   2.062
    1C        C  335   4.542   3.125   2.063
    1C        C  336   4.537   3.350   2.172
    1C        C  337   4.521   3.280   2.293
    1C        C  338   4.528   3.493   2.409
    1C        C  339   4.527   3.352   2.414
    1C        C  340   4.523   3.565   2.531
    1C        C  341   4.527   3.498   2.655
    1C        C  342   4.495   3.707   2.772
    1C        C  343   4.523   3.568   2.778
    1C        C  344   4.482   3.779   2.893
    1C        C  345   4.494   3.712   3.017
    1C        C  346   4.419   3.909   3.139
    1C        C  347   4.472   3.778   3.139
    1C        C  348   4.388   3.976   3.259
    1C        C  349   4.422   3.916   3.382
    1C        C  350   4.317   4.100   3.500
    1C        C  351   4.393   3.981   3.504
    1C        C  352   4.273   4.158   3.621
    1C        C  353   4.318   4.105   3.744
    1C        C  354   4.176   4.264   3.866
    1C        C  355   4.274   4.163   3.866
    1C        C  356   4.123   4.313   3.988
    1C        C  357   4.176   4.269   4.111
    1C        C  358   4.013   4.403   4.228
    1C        C  359   4.132   4.326   4.233
    1C        C  360   3.953   4.441   4.350
    1C        C  361   4.016   4.413   4.473
    1C        C  362   3.825   4.510   4.596
    1C        C  363   3.956   4.455   4.594
    1C        C  364   3.761   4.552   4.714
    1C        C  365   3.837   4.547   4.833
    1C        C  366   3.628   4.595   4.952
    1C        C  367   3.766   4.576   4.950
    1C        C  368   4.515   3.564   2.048
    1C        C  369   4.530   3.491   2.167
    1C        C  370   4.501   3.704   2.287
    1C        C  371   4.521   3.564   2.287
    1C        C  372   4.486   3.777   2.407
    1C        C  373   4.507   3.705   2.527
    1C        C  374   4.421   3.900   2.650
    1C        C  375   4.484   3.774   2.649
    1C        C  376   4.394   3.969   2.771
    1C        C  377   4.431   3.911   2.894
    1C        C  378   4.318   4.092   3.010
    1C        C  379   4.394   3.973   3.015
    1C        C  380   4.270   4.148   3.131
    1C        C  381   4.312   4.095   3.255
    1C        C  382   4.175   4.256   3.376
    1C        C  383   4.274   4.156   3.377
    1C        C  384   4.121   4.303   3.498
    1C        C  385   4.171   4.255   3.621
    1C        C  386   4.004   4.385   3.742
    1C        C  387   4.121   4.306   3.743
    1C        C  388   3.943   4.424   3.863
    1C        C  389   4.006   4.393   3.985
    1C        C  390   3.817   4.487   4.107
    1C        C  391   3.946   4.431   4.107
    1C        C  392   3.753   4.512   4.231
    1C        C  393   3.823   4.498   4.352
    1C        C  394   3.617   4.549   4.474
    1C        C  395   3.757   4.526   4.474
    1C        C  396   3.547   4.562   4.595
    1C        C  397   3.621   4.567   4.716
    1C        C  398   3.411   4.552   4.839
    1C        C  399   3.550   4.574   4.838
    1C        C  400   3.339   4.516   4.953
    1C        C  401   4.507   3.703   2.050
    1C        C  402   4.459   3.915   2.168
    1C        C  403   4.491   3.778   2.167
    1C        C  404   4.414   3.976   2.287
    1C        C  405   4.435   3.909   2.409
    1C        C  406   4.324   4.091   2.527
    1C        C  407   4.399   3.971   2.531
    1C        C  408   4.277   4.147   2.648
    1C        C  409   4.319   4.089   2.770
    1C        C  410   4.171   4.248   2.888
    1C        C  411   4.271   4.147   2.889
    1C        C  412   4.119   4.298   3.009
    1C        C  413   4.171   4.249   3.131
    1C        C  414   3.997   4.369   3.253
    1C        C  415   4.119   4.298   3.253
    1C        C  416   3.939   4.408   3.376
    1C        C  417   4.003   4.381   3.499
    1C        C  418   3.810   4.472   3.620
    1C        C  419   3.940   4.417   3.620
    1C        C  420   3.747   4.504   3.742
    1C        C  421   3.813   4.481   3.865
    1C        C  422   3.609   4.538   3.986
    1C        C  423   3.746   4.507   3.986
    1C        C  424   3.542   4.544   4.111
    1C        C  425   3.614   4.540   4.232
    1C        C  426   3.402   4.546   4.356
    1C        C  427   3.543   4.554   4.354
    1C        C  428   3.334   4.544   4.480
    1C        C  429   3.406   4.556   4.600
    1C        C  430   3.194   4.515   4.724
    1C        C  431   3.333   4.546   4.721
    1C        C  432   3.124   4.489   4.845
    1C        C  433   3.202   4.493   4.961
    1C        C  434   4.383   4.119   2.049
    1C        C  435   4.446   3.994   2.053
    1C        C  436   4.301   4.157   2.160
    1C        C  437   4.337   4.096   2.284
    1C        C  438   4.180   4.242   2.403
    1C        C  439   4.287   4.150   2.404
    1C        C  440   4.122   4.289   2.523
    1C        C  441   4.176   4.246   2.646
    1C        C  442   4.001   4.373   2.767
    1C        C  443   4.119   4.294   2.766
    1C        C  444   3.938   4.409   2.888
    1C        C  445   4.001   4.376   3.011
    1C        C  446   3.806   4.466   3.133
    1C        C  447   3.934   4.404   3.132
    1C        C  448   3.742   4.493   3.256
    1C        C  449   3.811   4.469   3.377
    1C        C  450   3.606   4.529   3.499
    1C        C  451   3.744   4.497   3.498
    1C        C  452   3.537   4.543   3.622
    1C        C  453   3.610   4.539   3.743
    1C        C  454   3.397   4.544   3.866
    1C        C  455   3.538   4.547   3.864
    1C        C  456   3.329   4.538   3.990
    1C        C  457   3.401   4.543   4.111
    1C        C  458   3.195   4.501   4.236
    1C        C  459   3.331   4.539   4.234
    1C        C  460   3.127   4.487   4.359
    1C        C  461   3.196   4.513   4.480
    1C        C  462   2.997   4.437   4.603
    1C        C  463   3.127   4.493   4.602
    1C        C  464   2.933   4.402   4.724
    1C        C  465   2.989   4.441   4.848
    1C        C  466   2.801   4.338   4.960
    1C        C  467   2.905   4.433   4.964
    1C        C  468   4.122   4.280   2.045
    1C        C  469   4.186   4.242   2.163
    1C        C  470   4.004   4.365   2.282
    1C        C  471   4.125   4.290   2.282
    1C        C  472   3.938   4.398   2.403
    1C        C  473   4.005   4.368   2.524
    1C        C  474   3.814   4.467   2.644
    1C        C  475   3.942   4.407   2.644
    1C        C  476   3.744   4.491   2.765
    1C        C  477   3.811   4.469   2.888
    1C        C  478   3.605   4.525   3.010
    1C        C  479   3.743   4.494   3.010
    1C        C  480   3.533   4.534   3.131
    1C        C  481   3.604   4.523   3.253
    1C        C  482   3.395   4.535   3.377
    1C        C  483   3.536   4.531   3.376
    1C        C  484   3.323   4.533   3.499
    1C        C  485   3.396   4.540   3.620
    1C        C  486   3.192   4.495   3.744
    1C        C  487   3.328   4.530   3.743
    1C        C  488   3.127   4.476   3.869
    1C        C  489   3.192   4.502   3.991
    1C        C  490   3.000   4.417   4.116
    1C        C  491   3.126   4.482   4.114
    1C        C  492   2.940   4.386   4.240
    1C        C  493   2.998   4.430   4.361
    1C        C  494   2.831   4.300   4.484
    1C        C  495   2.938   4.392   4.483
    1C        C  496   2.779   4.250   4.605
    1C        C  497   2.823   4.311   4.724
    1C        C  498   2.669   4.165   4.844
    1C        C  499   2.756   4.277   4.843
    1C        C  500   2.602   4.116   4.957
    1C        C  501   4.003   4.352   2.043
    1C        C  502   3.815   4.461   2.157
    1C        C  503   3.943   4.400   2.160
    1C        C  504   3.744   4.477   2.278
    1C        C  505   3.808   4.452   2.401
    1C        C  506   3.605   4.513   2.521
    1C        C  507   3.742   4.482   2.523
    1C        C  508   3.536   4.526   2.643
    1C        C  509   3.606   4.517   2.766
    1C        C  510   3.394   4.532   2.885
    1C        C  511   3.535   4.530   2.887
    1C        C  512   3.323   4.527   3.007
    1C        C  513   3.392   4.534   3.130
    1C        C  514   3.188   4.495   3.253
    1C        C  515   3.325   4.527   3.254
    1C        C  516   3.121   4.472   3.376
    1C        C  517   3.186   4.499   3.498
    1C        C  518   3.001   4.404   3.626
    1C        C  519   3.125   4.472   3.622
    1C        C  520   2.940   4.373   3.750
    1C        C  521   2.999   4.417   3.871
    1C        C  522   2.834   4.285   3.996
    1C        C  523   2.942   4.376   3.994
    1C        C  524   2.788   4.237   4.121
    1C        C  525   2.835   4.292   4.242
    1C        C  526   2.697   4.131   4.362
    1C        C  527   2.784   4.242   4.364
    1C        C  528   2.651   4.078   4.485
    1C        C  529   2.687   4.142   4.605
    1C        C  530   2.579   3.963   4.726
    1C        C  531   2.638   4.092   4.727
    1C        C  532   2.539   3.902   4.848
    1C        C  533   2.534   3.993   4.958
    1C        C  534   3.617   4.557   2.040
    1C        C  535   3.750   4.512   2.044
    1C        C  536   3.536   4.537   2.156
    1C        C  537   3.607   4.514   2.277
    1C        C  538   3.393   4.518   2.399
    1C        C  539   3.534   4.522   2.398
    1C        C  540   3.322   4.512   2.521
    1C        C  541   3.394   4.521   2.641
    1C        C  542   3.186   4.483   2.765
    1C        C  543   3.323   4.517   2.763
    1C        C  544   3.121   4.465   2.889
    1C        C  545   3.188   4.487   3.011
    1C        C  546   2.996   4.397   3.132
    1C        C  547   3.120   4.463   3.133
    1C        C  548   2.938   4.363   3.257
    1C        C  549   2.995   4.407   3.378
    1C        C  550   2.836   4.275   3.503
    1C        C  551   2.941   4.369   3.503
    1C        C  552   2.783   4.229   3.626
    1C        C  553   2.830   4.284   3.747
    1C        C  554   2.703   4.123   3.875
    1C        C  555   2.784   4.238   3.873
    1C        C  556   2.665   4.062   3.997
    1C        C  557   2.704   4.124   4.118
    1C        C  558   2.601   3.940   4.245
    1C        C  559   2.663   4.067   4.241
    1C        C  560   2.574   3.876   4.368
    1C        C  561   2.592   3.950   4.487
    1C        C  562   2.535   3.747   4.614
    1C        C  563   2.567   3.884   4.610
    1C        C  564   2.516   3.680   4.737
    1C        C  565   2.522   3.760   4.854
    1C        C  566   2.527   3.546   4.976
    1C        C  567   2.536   3.684   4.972
    1C        C  568   3.325   4.478   2.041
    1C        C  569   3.396   4.512   2.157
    1C        C  570   3.182   4.474   2.277
    1C        C  571   3.322   4.503   2.278
    1C        C  572   3.117   4.453   2.401
    1C        C  573   3.184   4.480   2.522
    1C        C  574   2.989   4.399   2.645
    1C        C  575   3.117   4.460   2.644
    1C        C  576   2.932   4.360   2.768
    1C        C  577   2.994   4.403   2.888
    1C        C  578   2.827   4.271   3.015
    1C        C  579   2.936   4.360   3.009
    1C        C  580   2.780   4.218   3.138
    1C        C  581   2.833   4.269   3.258
    1C        C  582   2.696   4.112   3.386
    1C        C  583   2.786   4.221   3.383
    1C        C  584   2.661   4.052   3.509
    1C        C  585   2.700   4.115   3.630
    1C        C  586   2.601   3.934   3.756
    1C        C  587   2.662   4.061   3.755
    1C        C  588   2.574   3.871   3.879
    1C        C  589   2.601   3.936   4.002
    1C        C  590   2.533   3.737   4.125
    1C        C  591   2.575   3.872   4.125
    1C        C  592   2.515   3.670   4.248
    1C        C  593   2.530   3.742   4.369
    1C        C  594   2.514   3.534   4.496
    1C        C  595   2.519   3.675   4.493
    1C        C  596   2.521   3.463   4.618
    1C        C  597   2.520   3.538   4.737
    1C        C  598   2.534   3.327   4.862
    1C        C  599   2.523   3.467   4.859
    1C        C  600   2.535   3.248   4.978
    1C        C  601   3.193   4.438   2.041
    1C        C  602   2.982   4.386   2.158
    1C        C  603   3.115   4.438   2.157
    1C        C  604   2.925   4.353   2.284
    1C        C  605   2.986   4.400   2.403
    1C        C  606   2.821   4.266   2.527
    1C        C  607   2.927   4.360   2.524
    1C        C  608   2.769   4.220   2.650
    1C        C  609   2.824   4.269   2.770
    1C        C  610   2.686   4.111   2.896
    1C        C  611   2.776   4.220   2.894
    1C        C  612   2.649   4.051   3.018
    1C        C  613   2.691   4.108   3.140
    1C        C  614   2.591   3.926   3.266
    1C        C  615   2.654   4.053   3.265
    1C        C  616   2.562   3.866   3.391
    1C        C  617   2.594   3.928   3.513
    1C        C  618   2.525   3.730   3.636
    1C        C  619   2.567   3.865   3.637
    1C        C  620   2.517   3.663   3.760
    1C        C  621   2.531   3.736   3.880
    1C        C  622   2.506   3.527   4.007
    1C        C  623   2.518   3.667   4.003
    1C        C  624   2.512   3.458   4.130
    1C        C  625   2.518   3.529   4.252
    1C        C  626   2.537   3.320   4.379
    1C        C  627   2.517   3.460   4.375
    1C        C  628   2.557   3.252   4.501
    1C        C  629   2.542   3.323   4.622
    1C        C  630   2.602   3.119   4.747
    1C        C  631   2.551   3.251   4.744
    1C        C  632   2.622   3.049   4.869
    1C        C  633   2.559   3.110   4.982
    1C        C  634   2.784   4.298   2.050
    1C        C  635   2.892   4.388   2.047
    1C        C  636   2.753   4.224   2.165
    1C        C  637   2.811   4.269   2.285
    1C        C  638   2.677   4.105   2.409
    1C        C  639   2.765   4.216   2.408
    1C        C  640   2.644   4.045   2.532
    1C        C  641   2.686   4.105   2.653
    1C        C  642   2.586   3.920   2.779
    1C        C  643   2.647   4.048   2.776
    1C        C  644   2.561   3.854   2.901
    1C        C  645   2.586   3.924   3.021
    1C        C  646   2.527   3.723   3.147
    1C        C  647   2.565   3.859   3.145
    1C        C  648   2.513   3.657   3.271
    1C        C  649   2.520   3.731   3.391
    1C        C  650   2.505   3.520   3.517
    1C        C  651   2.508   3.662   3.514
    1C        C  652   2.513   3.452   3.640
    1C        C  653   2.511   3.522   3.763
    1C        C  654   2.526   3.313   3.888
    1C        C  655   2.507   3.453   3.886
    1C        C  656   2.554   3.251   4.012
    1C        C  657   2.538   3.319   4.135
    1C        C  658   2.610   3.121   4.258
    1C        C  659   2.559   3.252   4.258
    1C        C  660   2.637   3.057   4.381
    1C        C  661   2.607   3.120   4.504
    1C        C  662   2.710   2.934   4.624
    1C        C  663   2.633   3.053   4.626
    1C        C  664   2.753   2.876   4.746
    1C        C  665   2.700   2.929   4.867
    1C        C  666   2.744   2.867   4.984
    1C        C  667   2.675   4.025   2.051
    1C        C  668   2.685   4.101   2.168
    1C        C  669   2.586   3.909   2.292
    1C        C  670   2.640   4.041   2.288
    1C        C  671   2.560   3.846   2.415
    1C        C  672   2.584   3.917   2.535
    1C        C  673   2.516   3.718   2.658
    1C        C  674   2.558   3.852   2.658
    1C        C  675   2.498   3.649   2.780
    1C        C  676   2.519   3.719   2.901
    1C        C  677   2.498   3.512   3.029
    1C        C  678   2.511   3.653   3.025
    1C        C  679   2.503   3.444   3.153
    1C        C  680   2.502   3.516   3.274
    1C        C  681   2.526   3.306   3.399
    1C        C  682   2.505   3.446   3.397
    1C        C  683   2.552   3.243   3.523
    1C        C  684   2.536   3.313   3.645
    1C        C  685   2.609   3.116   3.771
    1C        C  686   2.549   3.244   3.767
    1C        C  687   2.640   3.054   3.894
    1C        C  688   2.610   3.122   4.015
    1C        C  689   2.716   2.937   4.137
    1C        C  690   2.641   3.057   4.136
    1C        C  691   2.759   2.881   4.260
    1C        C  692   2.709   2.935   4.380
    1C        C  693   2.753   2.879   4.502
    1C        C  694   2.624   3.894   2.057
    1C        C  695   2.523   3.703   2.174
    1C        C  696   2.574   3.834   2.173
    1C        C  697   2.507   3.636   2.297
    1C        C  698   2.517   3.711   2.416
    1C        C  699   2.489   3.503   2.539
    1C        C  700   2.498   3.644   2.539
    1C        C  701   2.496   3.435   2.663
    1C        C  702   2.493   3.508   2.785
    1C        C  703   2.523   3.300   2.911
    1C        C  704   2.501   3.439   2.908
    1C        C  705   2.540   3.233   3.034
    1C        C  706   2.528   3.305   3.155
    1C        C  707   2.598   3.105   3.279
    1C        C  708   2.547   3.237   3.278
    1C        C  709   2.633   3.047   3.403
    1C        C  710   2.605   3.112   3.526
    1C        C  711   2.719   2.936   3.648
    1C        C  712   2.636   3.051   3.649
    1C        C  713   2.765   2.882   3.770
    1C        C  714   2.717   2.935   3.892
    1C        C  715   2.757   2.879   4.015
    1C        C  716   2.444   3.499   2.062
    1C        C  717   2.493   3.630   2.058
    1C        C  718   2.465   3.418   2.179
    1C        C  719   2.482   3.496   2.297
    1C        C  720   2.517   3.289   2.424
    1C        C  721   2.493   3.428   2.420
    1C        C  722   2.540   3.224   2.547
    1C        C  723   2.527   3.298   2.667
    1C        C  724   2.594   3.099   2.789
    1C        C  725   2.541   3.229   2.790
    1C        C  726   2.625   3.037   2.912
    1C        C  727   2.592   3.101   3.034
    1C        C  728   2.713   2.929   3.158
    1C        C  729   2.626   3.040   3.156
    1C        C  730   2.758   2.876   3.281
    1C        C  731   2.713   2.931   3.403
    1C        C  732   2.757   2.877   3.526
    1C        C  733   2.493   3.198   2.069
    1C        C  734   2.485   3.277   2.184
    1C        C  735   2.588   3.085   2.303
    1C        C  736   2.527   3.214   2.304
    1C        C  737   2.619   3.022   2.425
    1C        C  738   2.593   3.093   2.545
    1C        C  739   2.702   2.913   2.671
    1C        C  740   2.627   3.033   2.668
    1C        C  741   2.751   2.863   2.794
    1C        C  742   2.701   2.918   2.915
    1C        C  743   2.751   2.868   3.037
    1C        C  744   2.546   3.069   2.071
    1C        C  745   2.686   2.896   2.187
    1C        C  746   2.611   3.015   2.183
    1C        C  747   2.732   2.839   2.307
    1C        C  748   2.697   2.905   2.427
    1C        C  749   2.744   2.853   2.550
    1C        C  750   2.737   2.841   2.068
    1C        C  751   3.666   2.329   1.971
    1C        O  752   3.674   2.205   1.993
    1C        O  753   3.692   2.393   1.849
    1C        C  754   4.642   3.045   1.987
    1C        O  755   4.608   3.008   1.872
    1C        O  756   4.757   2.990   2.045
    1C        C  757   4.442   4.214   1.953
    1C        O  758   4.505   4.320   1.980
    1C        O  759   4.394   4.228   1.822
    1C        C  760   3.593   4.673   1.952
    1C        O  761   3.638   4.790   1.965
    1C        O  762   3.502   4.663   1.845
    1C        C  763   2.878   4.516   1.975
    1C        O  764   2.888   4.517   1.850
    1C        O  765   2.783   4.611   2.015
    1C        C  766   2.325   3.482   1.976
    1C        O  767   2.330   3.485   1.850
    1C        O  768   2.207   3.429   2.029
    1C        C  769   4.701   3.586   5.048
    1C        O  770   4.700   3.628   5.167
    1C        O  771   4.833   3.591   5.002
    1C        C  772   4.271   4.464   5.037
    1C        O  773   4.288   4.421   5.154
    1C        O  774   4.382   4.536   4.990
    1C        C  775   4.146   2.503   5.046
    1C        O  776   4.191   2.396   4.998
    1C        O  777   4.170   2.511   5.184
    1C        C  778   2.870   4.548   5.050
    1C        O  779   2.781   4.634   5.032
    1C        O  780   2.933   4.556   5.175
    1C        C  781   2.466   3.041   5.074
    1C        O  782   2.389   2.951   5.031
    1C        O  783   2.510   3.018   5.204
    1C        C  784   2.412   4.009   5.041
    1C        O  785   2.318   4.089   5.014
    1C        O  786   2.403   3.940   5.162
    1C        C  787   2.946   2.417   2.010
    1C        O  788   2.942   2.416   1.884
    1C        O  789   2.888   2.311   2.079
    1C        C  790   3.182   2.390   5.083
    1C        O  791   3.193   2.270   5.045
    1C        O  792   3.161   2.421   5.218
    1C        H  793   4.323   3.002   5.071
    1C        H  794   4.185   2.809   5.073
    1C        H  795   4.525   3.125   5.054
    1C        H  796   4.463   3.372   5.049
    1C        H  797   4.596   3.817   5.027
    1C        H  798   4.445   3.986   5.050
    1C        H  799   4.249   4.150   5.037
    1C        H  800   4.026   4.530   5.030
    1C        H  801   3.817   4.600   5.041
    1C        H  802   3.591   4.646   5.039
    1C        H  803   3.394   4.490   5.041
    1C        H  804   3.167   4.440   5.047
    1C        H  805   3.895   2.469   5.055
    1C        H  806   3.666   2.463   5.078
    1C        H  807   2.986   2.536   5.051
    1C        H  808   3.440   2.519   5.070
    1C        H  809   2.856   2.712   5.076
    1C        H  810   2.708   2.899   5.080
    1C        H  811   2.509   3.297   5.069
    1C        H  812   2.477   3.512   5.064
    1C        H  813   2.566   3.724   5.067
    1C        H  814   2.609   4.168   5.050
    1C        H  815   2.735   4.337   5.044
    1C        H  816   2.745   2.901   1.980
    1C        H  817   2.826   2.669   1.985
    1C        H  818   3.206   2.415   1.990
    1C        H  819   3.439   2.474   1.981
    1C        H  820   3.842   2.543   1.971
    1C        H  821   4.080   2.581   1.980
    1C        H  822   4.223   2.761   1.966
    1C        H  823   4.377   2.922   1.968
    1C        H  824   4.553   3.310   1.965
    1C        H  825   4.466   3.518   1.964
    1C        H  826   4.463   3.743   1.961
    1C        H  827   3.812   4.545   1.964
    1C        H  828   3.970   4.392   1.949
    1C        H  829   4.184   4.309   1.962
    1C        H  830   4.504   3.968   1.967
    1C        H  831   2.621   3.844   1.963
    1C        H  832   2.740   4.041   1.968
    1C        H  833   2.761   4.259   1.953
    1C        H  834   3.376   4.486   1.947
    1C        H  835   3.163   4.364   1.970
    1C        H  836   2.533   3.010   1.983
    1C        H  837   2.417   3.218   1.996
    1C        H  838   2.514   3.674   1.962
    2V3OU   H29  839   2.807   3.545   5.043
    2V3OU   C27  840   2.777   3.503   5.142
    2V3OU   H27  841   2.731   3.573   5.216
    2V3OU   H28  842   2.731   3.401   5.132
    2V3OU   O11  843   2.904   3.472   5.201
    2V3OU   C15  844   2.919   3.396   5.315
    2V3OU   C13  845   3.051   3.382   5.364
    2V3OU   C14  846   3.074   3.270   5.445
    2V3OU   C16  847   2.971   3.190   5.494
    2V3OU    H6  848   2.994   3.108   5.563
    2V3OU   C12  849   3.214   3.225   5.457
    2V3OU    O2  850   3.238   3.119   5.517
    2V3OU   C10  851   3.322   3.304   5.396
    2V3OU    C8  852   3.456   3.268   5.407
    2V3OU   O10  853   3.487   3.148   5.465
    2V3OU   H26  854   3.403   3.122   5.506
    2V3OU    C6  855   3.563   3.345   5.353
    2V3OU    C5  856   3.539   3.468   5.291
    2V3OU    C4  857   3.704   3.296   5.356
    2V3OU    H4  858   3.725   3.230   5.445
    2V3OU    H5  859   3.715   3.226   5.268
    2V3OU    C2  860   3.821   3.395   5.356
    2V3OU    O6  861   3.801   3.479   5.471
    2V3OU   H21  862   3.759   3.553   5.425
    2V3OU    C3  863   3.784   3.494   5.245
    2V3OU    H2  864   3.864   3.568   5.223
    2V3OU    H3  865   3.782   3.433   5.151
    2V3OU   C25  866   3.956   3.330   5.332
    2V3OU    O7  867   3.996   3.300   5.219
    2V3OU   C26  868   4.032   3.291   5.458
    2V3OU   H22  869   4.066   3.386   5.508
    2V3OU   H23  870   4.119   3.226   5.432
    2V3OU    O8  871   3.966   3.208   5.551
    2V3OU   H24  872   3.922   3.258   5.622
    2V3OU    C1  873   3.649   3.563   5.255
    2V3OU    H1  874   3.627   3.611   5.155
    2V3OU    O3  875   3.650   3.658   5.362
    2V3OU   C19  876   3.617   3.797   5.350
    2V3OU    H9  877   3.521   3.809   5.292
    2V3OU    O4  878   3.713   3.849   5.260
    2V3OU   C20  879   3.844   3.874   5.311
    2V3OU   H10  880   3.898   3.776   5.321
    2V3OU   C24  881   3.608   3.854   5.491
    2V3OU   H16  882   3.542   3.789   5.554
    2V3OU   H17  883   3.563   3.957   5.481
    2V3OU   C23  884   3.749   3.875   5.547
    2V3OU   H15  885   3.790   3.771   5.565
    2V3OU    N1  886   3.736   3.954   5.668
    2V3OU   H19  887   3.811   3.927   5.729
    2V3OU   H20  888   3.648   3.939   5.714
    2V3OU   C21  889   3.842   3.948   5.445
    2V3OU   H11  890   3.947   3.927   5.481
    2V3OU    O5  891   3.823   4.088   5.446
    2V3OU   H18  892   3.783   4.102   5.534
    2V3OU   C22  893   3.910   3.951   5.198
    2V3OU   H12  894   3.858   4.049   5.185
    2V3OU   H13  895   3.906   3.892   5.103
    2V3OU   H14  896   4.019   3.962   5.222
    2V3OU   C11  897   3.159   3.475   5.328
    2V3OU    O1  898   3.137   3.592   5.291
    2V3OU    C9  899   3.299   3.426   5.327
    2V3OU    C7  900   3.402   3.503   5.274
    2V3OU    O9  901   3.385   3.618   5.200
    2V3OU   H25  902   3.290   3.633   5.209
    2V3OU   C17  903   2.816   3.311   5.360
    2V3OU    H7  904   2.713   3.341   5.341
    2V3OU   C18  905   2.839   3.212   5.455
    2V3OU    H8  906   2.752   3.152   5.488
    3SOL     OW  907   3.993   3.773   4.323
    3SOL    HW1  908   4.004   3.838   4.398
    3SOL    HW2  909   3.962   3.685   4.359
    4SOL     OW  910   6.335   0.014   0.467
    4SOL    HW1  911   6.253   0.054   0.509
    4SOL    HW2  912   6.308   6.972   0.396
    5SOL     OW  913   4.277   1.110   1.181
    5SOL    HW1  914   4.221   1.123   1.262
    5SOL    HW2  915   4.343   1.036   1.198
    6SOL     OW  916   5.521   0.136   1.960
    6SOL    HW1  917   5.574   0.189   1.894
    6SOL    HW2  918   5.424   0.158   1.951
    7SOL     OW  919   2.379   4.335   3.618
    7SOL    HW1  920   2.437   4.401   3.570
    7SOL    HW2  921   2.370   4.362   3.714
    8SOL     OW  922   2.021   3.007   5.706
    8SOL    HW1  923   1.926   3.034   5.721
    8SOL    HW2  924   2.032   2.910   5.726
    9SOL     OW  925   6.063   1.193   6.515
    9SOL    HW1  926   6.074   1.233   6.424
    9SOL    HW2  927   6.058   1.266   6.583
   10SOL     OW  928   4.715   5.061   3.299
   10SOL    HW1  929   4.710   5.008   3.384
   10SOL    HW2  930   4.632   5.045   3.245
   11SOL     OW  931   1.975   0.912   0.592
   11SOL    HW1  932   1.916   0.839   0.556
   11SOL    HW2  933   2.059   0.871   0.629
   12SOL     OW  934   2.995   5.197   3.569
   12SOL    HW1  935   3.066   5.128   3.553
   12SOL    HW2  936   2.905   5.157   3.555
   13SOL     OW  937   4.567   6.021   1.748
   13SOL    HW1  938   4.598   6.095   1.807
   13SOL    HW2  939   4.621   5.938   1.767
   14SOL     OW  940   4.320   5.138   4.934
   14SOL    HW1  941   4.290   5.174   4.846
   14SOL    HW2  942   4.382   5.203   4.978
   15SOL     OW  943   6.907   5.603   6.197
   15SOL    HW1  944   6.874   5.696   6.213
   15SOL    HW2  945   6.866   5.567   6.114
   16SOL     OW  946   0.284   3.955   5.296
   16SOL    HW1  947   0.374   3.998   5.308
   16SOL    HW2  948   0.268   3.891   5.371
   17SOL     OW  949   6.191   1.245   5.520
   17SOL    HW1  950   6.185   1.277   5.615
   17SOL    HW2  951   6.280   1.203   5.505
   18SOL     OW  952   3.535   0.883   5.695
   18SOL    HW1  953   3.578   0.830   5.769
   18SOL    HW2  954   3.438   0.897   5.716
   19SOL     OW  955   1.393   1.567   3.200
   19SOL    HW1  956   1.350   1.657   3.196
   19SOL    HW2  957   1.440   1.548   3.113
   20SOL     OW  958   5.748   1.896   5.407
   20SOL    HW1  959   5.718   1.803   5.430
   20SOL    HW2  960   5.668   1.954   5.392
   21SOL     OW  961   2.860   5.575   2.471
   21SOL    HW1  962   2.837   5.618   2.384
   21SOL    HW2  963   2.777   5.562   2.525
   22SOL     OW  964   2.079   6.253   5.442
   22SOL    HW1  965   2.092   6.350   5.462
   22SOL    HW2  966   2.009   6.215   5.502
   23SOL     OW  967   5.417   4.129   1.890
   23SOL    HW1  968   5.338   4.081   1.928
   23SOL    HW2  969   5.410   4.227   1.911
   24SOL     OW  970   4.479   0.714   1.670
   24SOL    HW1  971   4.380   0.730   1.666
   24SOL    HW2  972   4.508   0.707   1.766
   25SOL     OW  973   2.479   0.361   4.142
   25SOL    HW1  974   2.483   0.278   4.198
   25SOL    HW2  975   2.521   0.343   4.053
   26SOL     OW  976   0.721   3.274   7.006
   26SOL    HW1  977   0.792   3.342   7.020
   26SOL    HW2  978   0.754   3.203   6.944
   27SOL     OW  979   6.390   1.424   0.974
   27SOL    HW1  980   6.341   1.511   0.981
   27SOL    HW2  981   6.400   1.384   1.065
   28SOL     OW  982   2.808   0.765   4.473
   28SOL    HW1  983   2.861   0.681   4.482
   28SOL    HW2  984   2.831   0.827   4.549
   29SOL     OW  985   6.937   0.511   0.487
   29SOL    HW1  986   6.874   0.571   0.437
   29SOL    HW2  987   7.004   0.474   0.423
   30SOL     OW  988   4.058   0.606   5.346
   30SOL    HW1  989   3.999   0.531   5.317
   30SOL    HW2  990   4.073   0.601   5.444
   31SOL     OW  991   0.940   3.018   5.026
   31SOL    HW1  992   1.015   3.083   5.038
   31SOL    HW2  993   0.857   3.068   5.000
   32SOL     OW  994   1.881   0.095   1.225
   32SOL    HW1  995   1.887   0.113   1.323
   32SOL    HW2  996   1.887   0.181   1.175
   33SOL     OW  997   0.472   5.083   6.035
   33SOL    HW1  998   0.501   4.988   6.020
   33SOL    HW2  999   0.535   5.145   5.989
   34SOL     OW 1000   2.270   5.004   5.403
   34SOL    HW1 1001   2.235   5.088   5.363
   34SOL    HW2 1002   2.195   4.950   5.440
   35SOL     OW 1003   3.452   2.996   0.402
   35SOL    HW1 1004   3.391   2.942   0.344
   35SOL    HW2 1005   3.430   2.980   0.498
   36SOL     OW 1006   4.931   0.626   4.284
   36SOL    HW1 1007   4.979   0.664   4.364
   36SOL    HW2 1008   4.870   0.553   4.313
   37SOL     OW 1009   2.147   1.182   3.544
   37SOL    HW1 1010   2.150   1.092   3.587
   37SOL    HW2 1011   2.147   1.171   3.445
   38SOL     OW 1012   0.530   4.671   2.433
   38SOL    HW1 1013   0.528   4.641   2.338
   38SOL    HW2 1014   0.624   4.671   2.466
   39SOL     OW 1015   6.818   5.288   6.153
   39SOL    HW1 1016   6.768   5.224   6.096
   39SOL    HW2 1017   6.782   5.380   6.139
   40SOL     OW 1018   4.058   0.802   6.275
   40SOL    HW1 1019   3.978   0.768   6.324
   40SOL    HW2 1020   4.040   0.894   6.240
   41SOL     OW 1021   6.387   3.889   1.632
   41SOL    HW1 1022   6.308   3.940   1.598
   41SOL    HW2 1023   6.467   3.948   1.635
   42SOL     OW 1024   2.270   5.867   5.932
   42SOL    HW1 1025   2.236   5.904   5.846
   42SOL    HW2 1026   2.351   5.919   5.962
   43SOL     OW 1027   4.757   6.610   4.445
   43SOL    HW1 1028   4.760   6.512   4.466
   43SOL    HW2 1029   4.839   6.654   4.482
   44SOL     OW 1030   6.143   2.041   5.873
   44SOL    HW1 1031   6.128   2.061   5.776
   44SOL    HW2 1032   6.055   2.036   5.920
   45SOL     OW 1033   3.694   4.823   0.203
   45SOL    HW1 1034   3.717   4.821   0.300
   45SOL    HW2 1035   3.759   4.883   0.155
   46SOL     OW 1036   0.675   3.012   4.465
   46SOL    HW1 1037   0.597   2.997   4.404
   46SOL    HW2 1038   0.726   3.093   4.434
   47SOL     OW 1039   5.916   2.983   1.418
   47SOL    HW1 1040   5.968   2.927   1.483
   47SOL    HW2 1041   5.924   2.944   1.326
   48SOL     OW 1042   6.577   3.824   0.458
   48SOL    HW1 1043   6.605   3.735   0.423
   48SOL    HW2 1044   6.480   3.821   0.484
   49SOL     OW 1045   3.892   2.977   0.001
   49SOL    HW1 1046   3.859   3.066   6.991
   49SOL    HW2 1047   3.815   2.914   0.006
   50SOL     OW 1048   6.234   3.622   6.600
   50SOL    HW1 1049   6.170   3.551   6.570
   50SOL    HW2 1050   6.286   3.655   6.521
   51SOL     OW 1051   2.399   5.902   2.890
   51SOL    HW1 1052   2.492   5.939   2.897
   51SOL    HW2 1053   2.350   5.919   2.976
   52SOL     OW 1054   5.845   2.407   1.655
   52SOL    HW1 1055   5.770   2.468   1.681
   52SOL    HW2 1056   5.816   2.312   1.669
   53SOL     OW 1057   3.691   0.704   2.419
   53SOL    HW1 1058   3.765   0.678   2.357
   53SOL    HW2 1059   3.724   0.699   2.514
   54SOL     OW 1060   5.466   6.970   0.217
   54SOL    HW1 1061   5.387   6.935   0.266
   54SOL    HW2 1062   5.508   0.022   0.268
   55SOL     OW 1063   1.490   3.465   6.229
   55SOL    HW1 1064   1.509   3.440   6.135
   55SOL    HW2 1065   1.436   3.550   6.231
   56SOL     OW 1066   1.298   2.218   6.666
   56SOL    HW1 1067   1.227   2.173   6.721
   56SOL    HW2 1068   1.335   2.153   6.600
   57SOL     OW 1069   4.535   0.845   6.880
   57SOL    HW1 1070   4.457   0.837   6.818
   57SOL    HW2 1071   4.505   0.832   6.974
   58SOL     OW 1072   0.837   0.564   6.336
   58SOL    HW1 1073   0.920   0.537   6.385
   58SOL    HW2 1074   0.856   0.564   6.237
   59SOL     OW 1075   5.362   3.596   5.894
   59SOL    HW1 1076   5.365   3.644   5.982
   59SOL    HW2 1077   5.267   3.577   5.870
   60SOL     OW 1078   5.237   0.389   2.685
   60SOL    HW1 1079   5.322   0.439   2.670
   60SOL    HW2 1080   5.226   0.373   2.784
   61SOL     OW 1081   6.929   0.162   4.995
   61SOL    HW1 1082   6.949   0.071   5.032
   61SOL    HW2 1083   6.837   0.190   5.024
   62SOL     OW 1084   0.171   1.961   2.297
   62SOL    HW1 1085   0.081   1.969   2.254
   62SOL    HW2 1086   0.199   2.051   2.331
   63SOL     OW 1087   4.409   6.316   4.978
   63SOL    HW1 1088   4.485   6.262   5.015
   63SOL    HW2 1089   4.354   6.259   4.918
   64SOL     OW 1090   0.930   4.561   0.407
   64SOL    HW1 1091   0.864   4.536   0.477
   64SOL    HW2 1092   1.023   4.549   0.443
   65SOL     OW 1093   0.635   0.512   5.455
   65SOL    HW1 1094   0.610   0.604   5.486
   65SOL    HW2 1095   0.648   0.453   5.535
   66SOL     OW 1096   4.251   0.713   2.192
   66SOL    HW1 1097   4.263   0.807   2.161
   66SOL    HW2 1098   4.332   0.685   2.243
   67SOL     OW 1099   0.744   2.062   1.085
   67SOL    HW1 1100   0.688   2.114   1.019
   67SOL    HW2 1101   0.839   2.062   1.054
   68SOL     OW 1102   6.669   2.620   5.871
   68SOL    HW1 1103   6.658   2.594   5.775
   68SOL    HW2 1104   6.736   2.694   5.878
   69SOL     OW 1105   0.952   4.717   6.077
   69SOL    HW1 1106   0.949   4.676   6.168
   69SOL    HW2 1107   1.016   4.793   6.077
   70SOL     OW 1108   5.360   3.099   4.529
   70SOL    HW1 1109   5.348   3.049   4.443
   70SOL    HW2 1110   5.411   3.183   4.512
   71SOL     OW 1111   4.396   1.557   4.288
   71SOL    HW1 1112   4.339   1.619   4.342
   71SOL    HW2 1113   4.466   1.516   4.347
   72SOL     OW 1114   0.373   0.698   3.463
   72SOL    HW1 1115   0.411   0.661   3.548
   72SOL    HW2 1116   0.429   0.775   3.432
   73SOL     OW 1117   2.597   0.771   0.996
   73SOL    HW1 1118   2.529   0.842   0.980
   73SOL    HW2 1119   2.586   0.699   0.928
   74SOL     OW 1120   1.865   2.248   0.149
   74SOL    HW1 1121   1.921   2.194   0.211
   74SOL    HW2 1122   1.768   2.225   0.162
   75SOL     OW 1123   4.000   2.301   0.558
   75SOL    HW1 1124   4.030   2.384   0.510
   75SOL    HW2 1125   4.074   2.234   0.558
   76SOL     OW 1126   3.261   4.698   5.407
   76SOL    HW1 1127   3.244   4.795   5.425
   76SOL    HW2 1128   3.195   4.665   5.339
   77SOL     OW 1129   1.979   4.200   4.020
   77SOL    HW1 1130   1.968   4.275   3.955
   77SOL    HW2 1131   1.890   4.157   4.037
   78SOL     OW 1132   4.491   1.796   0.920
   78SOL    HW1 1133   4.544   1.867   0.965
   78SOL    HW2 1134   4.549   1.716   0.904
   79SOL     OW 1135   1.926   5.286   2.442
   79SOL    HW1 1136   1.930   5.252   2.536
   79SOL    HW2 1137   2.012   5.266   2.395
   80SOL     OW 1138   4.605   1.838   4.934
   80SOL    HW1 1139   4.686   1.795   4.974
   80SOL    HW2 1140   4.634   1.901   4.862
   81SOL     OW 1141   3.145   5.852   1.476
   81SOL    HW1 1142   3.098   5.924   1.526
   81SOL    HW2 1143   3.088   5.821   1.400
   82SOL     OW 1144   1.381   6.277   1.462
   82SOL    HW1 1145   1.383   6.204   1.394
   82SOL    HW2 1146   1.288   6.313   1.469
   83SOL     OW 1147   5.216   1.217   4.720
   83SOL    HW1 1148   5.163   1.136   4.695
   83SOL    HW2 1149   5.168   1.267   4.792
   84SOL     OW 1150   5.807   2.660   2.904
   84SOL    HW1 1151   5.861   2.640   2.822
   84SOL    HW2 1152   5.841   2.607   2.981
   85SOL     OW 1153   2.305   0.506   4.003
   85SOL    HW1 1154   2.364   0.442   4.052
   85SOL    HW2 1155   2.271   0.575   4.067
   86SOL     OW 1156   5.608   0.759   6.601
   86SOL    HW1 1157   5.517   0.770   6.640
   86SOL    HW2 1158   5.677   0.785   6.669
   87SOL     OW 1159   2.957   4.355   6.807
   87SOL    HW1 1160   3.000   4.270   6.837
   87SOL    HW2 1161   2.879   4.334   6.748
   88SOL     OW 1162   2.903   3.740   7.000
   88SOL    HW1 1163   2.878   3.718   0.071
   88SOL    HW2 1164   2.937   3.834   6.996
   89SOL     OW 1165   2.900   3.742   3.073
   89SOL    HW1 1166   2.904   3.678   2.996
   89SOL    HW2 1167   2.866   3.694   3.154
   90SOL     OW 1168   5.095   4.080   3.114
   90SOL    HW1 1169   5.058   4.067   3.022
   90SOL    HW2 1170   5.127   3.992   3.150
   91SOL     OW 1171   5.263   5.125   5.945
   91SOL    HW1 1172   5.310   5.145   6.031
   91SOL    HW2 1173   5.205   5.202   5.921
   92SOL     OW 1174   5.434   4.105   6.588
   92SOL    HW1 1175   5.344   4.121   6.630
   92SOL    HW2 1176   5.504   4.107   6.660
   93SOL     OW 1177   2.868   3.359   2.311
   93SOL    HW1 1178   2.938   3.288   2.317
   93SOL    HW2 1179   2.778   3.319   2.328
   94SOL     OW 1180   3.473   1.532   5.978
   94SOL    HW1 1181   3.481   1.534   5.878
   94SOL    HW2 1182   3.392   1.479   6.003
   95SOL     OW 1183   0.204   0.761   4.356
   95SOL    HW1 1184   0.207   0.790   4.452
   95SOL    HW2 1185   0.134   0.691   4.345
   96SOL     OW 1186   4.529   5.052   0.468
   96SOL    HW1 1187   4.615   5.089   0.504
   96SOL    HW2 1188   4.520   4.956   0.495
   97SOL     OW 1189   2.103   5.206   5.326
   97SOL    HW1 1190   2.087   5.224   5.423
   97SOL    HW2 1191   2.034   5.143   5.292
   98SOL     OW 1192   0.852   2.950   3.180
   98SOL    HW1 1193   0.882   2.855   3.189
   98SOL    HW2 1194   0.931   3.011   3.190
   99SOL     OW 1195   4.018   3.116   4.383
   99SOL    HW1 1196   4.037   3.035   4.327
   99SOL    HW2 1197   4.032   3.198   4.328
  100SOL     OW 1198   7.000   0.159   3.593
  100SOL    HW1 1199   7.008   0.103   3.675
  100SOL    HW2 1200   7.013   0.255   3.617
  101SOL     OW 1201   0.061   3.516   2.638
  101SOL    HW1 1202   0.052   3.449   2.711
  101SOL    HW2 1203   0.144   3.496   2.584
  102SOL     OW 1204   2.626   6.996   0.791
  102SOL    HW1 1205   2.698   6.990   0.722
  102SOL    HW2 1206   2.623   0.067   0.827
  103SOL     OW 1207   2.109   0.567   1.512
  103SOL    HW1 1208   2.091   0.656   1.471
  103SOL    HW2 1209   2.163   0.579   1.596
  104SOL     OW 1210   0.812   4.788   1.432
  104SOL    HW1 1211   0.847   4.874   1.467
  104SOL    HW2 1212   0.845   4.712   1.489
  105SOL     OW 1213   5.112   1.556   6.035
  105SOL    HW1 1214   5.163   1.513   6.109
  105SOL    HW2 1215   5.146   1.649   6.022
  106SOL     OW 1216   5.699   5.289   2.089
  106SOL    HW1 1217   5.674   5.244   2.175
  106SOL    HW2 1218   5.792   5.262   2.063
  107SOL     OW 1219   6.142   0.476   0.980
  107SOL    HW1 1220   6.176   0.397   0.928
  107SOL    HW2 1221   6.050   0.499   0.949
  108SOL     OW 1222   2.097   0.876   5.989
  108SOL    HW1 1223   2.074   0.847   5.896
  108SOL    HW2 1224   2.085   0.975   5.997
  109SOL     OW 1225   2.160   1.201   3.906
  109SOL    HW1 1226   2.255   1.170   3.909
  109SOL    HW2 1227   2.151   1.277   3.843
  110SOL     OW 1228   2.991   4.408   5.762
  110SOL    HW1 1229   2.975   4.311   5.747
  110SOL    HW2 1230   3.084   4.432   5.734
  111SOL     OW 1231   6.769   1.909   1.739
  111SOL    HW1 1232   6.669   1.910   1.740
  111SOL    HW2 1233   6.803   1.897   1.833
  112SOL     OW 1234   4.742   0.425   6.931
  112SOL    HW1 1235   4.808   0.373   6.984
  112SOL    HW2 1236   4.736   0.518   6.967
  113SOL     OW 1237   6.427   5.791   1.741
  113SOL    HW1 1238   6.448   5.874   1.689
  113SOL    HW2 1239   6.350   5.743   1.699
  114SOL     OW 1240   0.461   3.789   3.151
  114SOL    HW1 1241   0.514   3.723   3.096
  114SOL    HW2 1242   0.405   3.846   3.090
  115SOL     OW 1243   6.135   0.838   3.212
  115SOL    HW1 1244   6.076   0.784   3.151
  115SOL    HW2 1245   6.147   0.930   3.173
  116SOL     OW 1246   1.168   4.848   0.580
  116SOL    HW1 1247   1.201   4.907   0.506
  116SOL    HW2 1248   1.190   4.753   0.559
  117SOL     OW 1249   2.471   1.386   0.064
  117SOL    HW1 1250   2.471   1.485   0.046
  117SOL    HW2 1251   2.543   1.365   0.130
  118SOL     OW 1252   1.366   1.541   4.285
  118SOL    HW1 1253   1.316   1.460   4.314
  118SOL    HW2 1254   1.417   1.520   4.201
  119SOL     OW 1255   6.859   5.900   6.384
  119SOL    HW1 1256   6.817   5.877   6.296
  119SOL    HW2 1257   6.813   5.850   6.457
  120SOL     OW 1258   4.542   2.334   4.493
  120SOL    HW1 1259   4.492   2.361   4.411
  120SOL    HW2 1260   4.577   2.416   4.539
  121SOL     OW 1261   1.371   3.839   6.606
  121SOL    HW1 1262   1.406   3.926   6.642
  121SOL    HW2 1263   1.435   3.804   6.537
  122SOL     OW 1264   0.871   4.078   6.954
  122SOL    HW1 1265   0.835   4.007   6.895
  122SOL    HW2 1266   0.965   4.055   6.982
  123SOL     OW 1267   1.253   1.049   1.602
  123SOL    HW1 1268   1.322   1.008   1.541
  123SOL    HW2 1269   1.299   1.091   1.681
  124SOL     OW 1270   2.107   2.720   0.770
  124SOL    HW1 1271   2.140   2.633   0.806
  124SOL    HW2 1272   2.177   2.761   0.712
  125SOL     OW 1273   3.655   3.412   0.366
  125SOL    HW1 1274   3.568   3.455   0.388
  125SOL    HW2 1275   3.640   3.329   0.312
  126SOL     OW 1276   3.688   3.271   4.364
  126SOL    HW1 1277   3.617   3.342   4.363
  126SOL    HW2 1278   3.735   3.271   4.276
  127SOL     OW 1279   0.260   6.283   6.138
  127SOL    HW1 1280   0.301   6.225   6.067
  127SOL    HW2 1281   0.207   6.226   6.201
  128SOL     OW 1282   5.019   3.785   0.818
  128SOL    HW1 1283   4.967   3.705   0.848
  128SOL    HW2 1284   5.075   3.760   0.739
  129SOL     OW 1285   2.156   5.937   1.034
  129SOL    HW1 1286   2.167   5.851   0.985
  129SOL    HW2 1287   2.068   5.938   1.082
  130SOL     OW 1288   5.481   2.404   4.759
  130SOL    HW1 1289   5.540   2.468   4.808
  130SOL    HW2 1290   5.408   2.373   4.820
  131SOL     OW 1291   6.828   2.626   3.680
  131SOL    HW1 1292   6.832   2.545   3.740
  131SOL    HW2 1293   6.832   2.597   3.585
  132SOL     OW 1294   3.634   3.828   2.074
  132SOL    HW1 1295   3.629   3.778   1.987
  132SOL    HW2 1296   3.609   3.924   2.058
  133SOL     OW 1297   5.501   6.853   5.703
  133SOL    HW1 1298   5.406   6.878   5.682
  133SOL    HW2 1299   5.503   6.767   5.753
  134SOL     OW 1300   5.481   0.763   1.666
  134SOL    HW1 1301   5.568   0.726   1.698
  134SOL    HW2 1302   5.471   0.746   1.568
  135SOL     OW 1303   4.959   3.808   4.407
  135SOL    HW1 1304   4.961   3.775   4.312
  135SOL    HW2 1305   4.869   3.847   4.427
  136SOL     OW 1306   3.696   6.870   5.555
  136SOL    HW1 1307   3.750   6.888   5.637
  136SOL    HW2 1308   3.619   6.933   5.551
  137SOL     OW 1309   3.007   2.278   5.434
  137SOL    HW1 1310   3.069   2.203   5.457
  137SOL    HW2 1311   3.049   2.335   5.364
  138SOL     OW 1312   0.492   6.053   5.732
  138SOL    HW1 1313   0.572   6.113   5.730
  138SOL    HW2 1314   0.454   6.045   5.640
  139SOL     OW 1315   2.075   6.122   6.980
  139SOL    HW1 1316   2.040   6.140   6.888
  139SOL    HW2 1317   2.052   6.198   0.017
  140SOL     OW 1318   2.377   0.144   2.615
  140SOL    HW1 1319   2.351   0.095   2.532
  140SOL    HW2 1320   2.399   0.239   2.593
  141SOL     OW 1321   6.853   4.298   0.231
  141SOL    HW1 1322   6.936   4.258   0.193
  141SOL    HW2 1323   6.833   4.385   0.186
  142SOL     OW 1324   1.551   4.356   2.436
  142SOL    HW1 1325   1.527   4.262   2.414
  142SOL    HW2 1326   1.642   4.377   2.401
  143SOL     OW 1327   4.544   6.563   1.660
  143SOL    HW1 1328   4.627   6.548   1.713
  143SOL    HW2 1329   4.567   6.580   1.565
  144SOL     OW 1330   3.459   4.951   3.496
  144SOL    HW1 1331   3.501   4.915   3.579
  144SOL    HW2 1332   3.509   4.918   3.416
  145SOL     OW 1333   6.954   4.778   3.091
  145SOL    HW1 1334   6.886   4.756   3.021
  145SOL    HW2 1335   0.015   4.810   3.046
  146SOL     OW 1336   5.746   1.687   6.380
  146SOL    HW1 1337   5.845   1.696   6.370
  146SOL    HW2 1338   5.718   1.719   6.470
  147SOL     OW 1339   4.907   1.198   5.221
  147SOL    HW1 1340   4.990   1.234   5.178
  147SOL    HW2 1341   4.881   1.256   5.298
  148SOL     OW 1342   1.204   5.316   0.471
  148SOL    HW1 1343   1.236   5.405   0.437
  148SOL    HW2 1344   1.107   5.306   0.452
  149SOL     OW 1345   1.793   2.703   5.580
  149SOL    HW1 1346   1.855   2.734   5.651
  149SOL    HW2 1347   1.845   2.683   5.497
  150SOL     OW 1348   4.193   1.772   4.705
  150SOL    HW1 1349   4.247   1.757   4.788
  150SOL    HW2 1350   4.102   1.733   4.717
  151SOL     OW 1351   4.424   2.464   0.534
  151SOL    HW1 1352   4.511   2.512   0.544
  151SOL    HW2 1353   4.360   2.495   0.604
  152SOL     OW 1354   0.719   1.283   0.225
  152SOL    HW1 1355   0.748   1.295   0.130
  152SOL    HW2 1356   0.728   1.370   0.273
  153SOL     OW 1357   3.208   1.166   3.863
  153SOL    HW1 1358   3.256   1.101   3.804
  153SOL    HW2 1359   3.227   1.145   3.959
  154SOL     OW 1360   5.846   1.796   1.456
  154SOL    HW1 1361   5.857   1.699   1.479
  154SOL    HW2 1362   5.780   1.805   1.382
  155SOL     OW 1363   1.752   0.001   1.949
  155SOL    HW1 1364   1.738   6.969   2.031
  155SOL    HW2 1365   1.759   0.098   1.974
  156SOL     OW 1366   5.368   2.409   0.504
  156SOL    HW1 1367   5.363   2.318   0.463
  156SOL    HW2 1368   5.307   2.413   0.584
  157SOL     OW 1369   4.621   5.058   0.148
  157SOL    HW1 1370   4.685   5.015   0.084
  157SOL    HW2 1371   4.579   4.989   0.206
  158SOL     OW 1372   0.261   3.031   3.015
  158SOL    HW1 1373   0.223   3.112   2.970
  158SOL    HW2 1374   0.231   3.031   3.111
  159SOL     OW 1375   5.502   5.446   0.533
  159SOL    HW1 1376   5.485   5.400   0.621
  159SOL    HW2 1377   5.431   5.420   0.468
  160SOL     OW 1378   6.051   6.834   1.044
  160SOL    HW1 1379   6.151   6.824   1.042
  160SOL    HW2 1380   6.020   6.874   0.957
  161SOL     OW 1381   0.171   6.470   0.250
  161SOL    HW1 1382   0.203   6.540   0.314
  161SOL    HW2 1383   0.234   6.392   0.251
  162SOL     OW 1384   4.017   6.847   0.404
  162SOL    HW1 1385   4.082   6.891   0.465
  162SOL    HW2 1386   4.065   6.812   0.323
  163SOL     OW 1387   6.897   3.911   3.551
  163SOL    HW1 1388   6.873   3.866   3.637
  163SOL    HW2 1389   6.989   3.884   3.523
  164SOL     OW 1390   1.941   1.692   3.248
  164SOL    HW1 1391   1.843   1.684   3.233
  164SOL    HW2 1392   1.968   1.788   3.240
  165SOL     OW 1393   0.822   5.800   3.507
  165SOL    HW1 1394   0.801   5.726   3.570
  165SOL    HW2 1395   0.821   5.765   3.413
  166SOL     OW 1396   6.830   3.630   3.011
  166SOL    HW1 1397   6.895   3.586   3.073
  166SOL    HW2 1398   6.851   3.727   3.003
  167SOL     OW 1399   4.718   2.278   6.688
  167SOL    HW1 1400   4.649   2.343   6.657
  167SOL    HW2 1401   4.739   2.213   6.614
  168SOL     OW 1402   4.937   3.917   2.156
  168SOL    HW1 1403   4.873   3.937   2.082
  168SOL    HW2 1404   4.985   4.001   2.181
  169SOL     OW 1405   6.220   2.617   0.960
  169SOL    HW1 1406   6.267   2.700   0.931
  169SOL    HW2 1407   6.271   2.572   1.032
  170SOL     OW 1408   0.399   5.302   2.995
  170SOL    HW1 1409   0.463   5.362   3.044
  170SOL    HW2 1410   0.450   5.240   2.935
  171SOL     OW 1411   2.919   3.716   0.651
  171SOL    HW1 1412   2.883   3.773   0.577
  171SOL    HW2 1413   3.008   3.679   0.624
  172SOL     OW 1414   6.209   2.124   0.286
  172SOL    HW1 1415   6.218   2.083   0.196
  172SOL    HW2 1416   6.149   2.067   0.343
  173SOL     OW 1417   6.686   2.197   5.613
  173SOL    HW1 1418   6.712   2.105   5.583
  173SOL    HW2 1419   6.698   2.262   5.537
  174SOL     OW 1420   6.196   5.098   5.445
  174SOL    HW1 1421   6.251   5.016   5.430
  174SOL    HW2 1422   6.171   5.103   5.542
  175SOL     OW 1423   0.935   7.008   0.787
  175SOL    HW1 1424   1.000   0.062   0.790
  175SOL    HW2 1425   0.841   0.021   0.788
  176SOL     OW 1426   5.503   4.653   2.610
  176SOL    HW1 1427   5.433   4.694   2.667
  176SOL    HW2 1428   5.592   4.660   2.655
  177SOL     OW 1429   5.669   2.240   4.369
  177SOL    HW1 1430   5.692   2.142   4.371
  177SOL    HW2 1431   5.694   2.282   4.455
  178SOL     OW 1432   1.723   6.538   5.253
  178SOL    HW1 1433   1.815   6.559   5.218
  178SOL    HW2 1434   1.672   6.488   5.183
  179SOL     OW 1435   3.665   5.021   0.996
  179SOL    HW1 1436   3.623   4.969   0.921
  179SOL    HW2 1437   3.734   5.084   0.959
  180SOL     OW 1438   4.375   1.835   0.630
  180SOL    HW1 1439   4.448   1.819   0.697
  180SOL    HW2 1440   4.304   1.766   0.642
  181SOL     OW 1441   3.355   2.317   5.606
  181SOL    HW1 1442   3.425   2.384   5.584
  181SOL    HW2 1443   3.340   2.258   5.527
  182SOL     OW 1444   4.661   2.297   6.336
  182SOL    HW1 1445   4.650   2.254   6.247
  182SOL    HW2 1446   4.731   2.247   6.388
  183SOL     OW 1447   3.409   1.747   3.561
  183SOL    HW1 1448   3.419   1.756   3.660
  183SOL    HW2 1449   3.313   1.729   3.539
  184SOL     OW 1450   6.537   6.254   3.435
  184SOL    HW1 1451   6.485   6.216   3.358
  184SOL    HW2 1452   6.489   6.234   3.520
  185SOL     OW 1453   0.383   1.147   4.155
  185SOL    HW1 1454   0.375   1.140   4.056
  185SOL    HW2 1455   0.476   1.122   4.182
  186SOL     OW 1456   4.579   5.744   3.555
  186SOL    HW1 1457   4.512   5.712   3.488
  186SOL    HW2 1458   4.650   5.675   3.567
  187SOL     OW 1459   4.274   6.540   1.881
  187SOL    HW1 1460   4.354   6.600   1.887
  187SOL    HW2 1461   4.259   6.515   1.785
  188SOL     OW 1462   1.994   2.794   3.233
  188SOL    HW1 1463   2.093   2.784   3.247
  188SOL    HW2 1464   1.975   2.882   3.192
  189SOL     OW 1465   6.336   5.060   6.384
  189SOL    HW1 1466   6.316   5.055   6.482
  189SOL    HW2 1467   6.256   5.029   6.332
  190SOL     OW 1468   6.418   0.204   0.264
  190SOL    HW1 1469   6.371   0.148   0.332
  190SOL    HW2 1470   6.435   0.149   0.182
  191SOL     OW 1471   6.516   1.008   5.828
  191SOL    HW1 1472   6.471   0.979   5.913
  191SOL    HW2 1473   6.615   1.013   5.843
  192SOL     OW 1474   0.749   5.616   0.702
  192SOL    HW1 1475   0.847   5.604   0.711
  192SOL    HW2 1476   0.717   5.567   0.621
  193SOL     OW 1477   2.725   5.442   6.255
  193SOL    HW1 1478   2.637   5.402   6.282
  193SOL    HW2 1479   2.796   5.372   6.259
  194SOL     OW 1480   3.693   6.914   2.303
  194SOL    HW1 1481   3.709   6.976   2.380
  194SOL    HW2 1482   3.749   6.941   2.225
  195SOL     OW 1483   3.197   1.140   1.498
  195SOL    HW1 1484   3.203   1.062   1.560
  195SOL    HW2 1485   3.285   1.153   1.452
  196SOL     OW 1486   1.815   1.236   0.064
  196SOL    HW1 1487   1.774   1.318   0.025
  196SOL    HW2 1488   1.768   1.155   0.029
  197SOL     OW 1489   2.069   5.810   0.392
  197SOL    HW1 1490   2.002   5.854   0.332
  197SOL    HW2 1491   2.116   5.880   0.446
  198SOL     OW 1492   4.382   6.394   0.220
  198SOL    HW1 1493   4.358   6.427   0.311
  198SOL    HW2 1494   4.300   6.391   0.163
  199SOL     OW 1495   6.185   6.569   3.117
  199SOL    HW1 1496   6.118   6.505   3.079
  199SOL    HW2 1497   6.201   6.546   3.213
  200SOL     OW 1498   0.506   4.136   3.019
  200SOL    HW1 1499   0.568   4.206   3.055
  200SOL    HW2 1500   0.554   4.048   3.015
  201SOL     OW 1501   3.082   0.926   0.097
  201SOL    HW1 1502   3.091   0.955   0.193
  201SOL    HW2 1503   3.024   0.991   0.048
  202SOL     OW 1504   3.907   0.306   3.324
  202SOL    HW1 1505   3.947   0.383   3.374
  202SOL    HW2 1506   3.840   0.259   3.382
  203SOL     OW 1507   5.392   3.722   6.135
  203SOL    HW1 1508   5.348   3.765   6.214
  203SOL    HW2 1509   5.479   3.767   6.117
  204SOL     OW 1510   2.358   6.870   0.444
  204SOL    HW1 1511   2.317   6.795   0.496
  204SOL    HW2 1512   2.409   6.832   0.366
  205SOL     OW 1513   6.000   1.881   0.751
  205SOL    HW1 1514   6.080   1.899   0.808
  205SOL    HW2 1515   5.917   1.896   0.805
  206SOL     OW 1516   0.434   4.865   2.018
  206SOL    HW1 1517   0.463   4.866   2.114
  206SOL    HW2 1518   0.443   4.772   1.982
  207SOL     OW 1519   4.722   0.871   5.631
  207SOL    HW1 1520   4.674   0.884   5.544
  207SOL    HW2 1521   4.743   0.774   5.643
  208SOL     OW 1522   5.058   5.889   6.157
  208SOL    HW1 1523   5.109   5.968   6.124
  208SOL    HW2 1524   4.973   5.920   6.200
  209SOL     OW 1525   6.548   5.359   5.579
  209SOL    HW1 1526   6.588   5.271   5.603
  209SOL    HW2 1527   6.478   5.347   5.509
  210SOL     OW 1528   3.923   2.537   1.120
  210SOL    HW1 1529   4.006   2.586   1.092
  210SOL    HW2 1530   3.857   2.537   1.044
  211SOL     OW 1531   0.986   1.371   0.785
  211SOL    HW1 1532   0.963   1.469   0.792
  211SOL    HW2 1533   0.962   1.339   0.693
  212SOL     OW 1534   0.832   5.183   3.854
  212SOL    HW1 1535   0.822   5.097   3.903
  212SOL    HW2 1536   0.924   5.189   3.816
  213SOL     OW 1537   5.139   2.351   6.611
  213SOL    HW1 1538   5.224   2.317   6.571
  213SOL    HW2 1539   5.068   2.354   6.541
  214SOL     OW 1540   1.066   6.732   2.207
  214SOL    HW1 1541   1.006   6.658   2.238
  214SOL    HW2 1542   1.044   6.816   2.257
  215SOL     OW 1543   3.530   3.265   2.629
  215SOL    HW1 1544   3.623   3.270   2.593
  215SOL    HW2 1545   3.488   3.356   2.624
  216SOL     OW 1546   0.988   0.380   5.526
  216SOL    HW1 1547   1.087   0.376   5.535
  216SOL    HW2 1548   0.963   0.382   5.429
  217SOL     OW 1549   1.088   3.246   3.862
  217SOL    HW1 1550   1.107   3.259   3.959
  217SOL    HW2 1551   0.993   3.215   3.850
  218SOL     OW 1552   1.404   3.423   5.256
  218SOL    HW1 1553   1.489   3.455   5.215
  218SOL    HW2 1554   1.360   3.498   5.305
  219SOL     OW 1555   4.555   4.754   0.483
  219SOL    HW1 1556   4.488   4.739   0.556
  219SOL    HW2 1557   4.644   4.720   0.514
  220SOL     OW 1558   2.587   5.062   0.046
  220SOL    HW1 1559   2.518   5.123   0.084
  220SOL    HW2 1560   2.645   5.113   7.005
  221SOL     OW 1561   5.209   2.163   4.120
  221SOL    HW1 1562   5.254   2.106   4.189
  221SOL    HW2 1563   5.239   2.135   4.029
  222SOL     OW 1564   0.319   5.777   5.703
  222SOL    HW1 1565   0.338   5.818   5.792
  222SOL    HW2 1566   0.288   5.682   5.716
  223SOL     OW 1567   0.137   3.785   1.921
  223SOL    HW1 1568   0.144   3.844   2.001
  223SOL    HW2 1569   0.069   3.822   1.858
  224SOL     OW 1570   2.728   2.138   1.968
  224SOL    HW1 1571   2.794   2.178   2.032
  224SOL    HW2 1572   2.690   2.211   1.911
  225SOL     OW 1573   5.748   0.768   6.810
  225SOL    HW1 1574   5.720   0.764   6.906
  225SOL    HW2 1575   5.833   0.821   6.803
  226SOL     OW 1576   0.558   5.790   0.739
  226SOL    HW1 1577   0.636   5.728   0.727
  226SOL    HW2 1578   0.561   5.860   0.667
  227SOL     OW 1579   1.282   3.413   3.796
  227SOL    HW1 1580   1.341   3.362   3.734
  227SOL    HW2 1581   1.217   3.350   3.840
  228SOL     OW 1582   4.814   6.659   3.635
  228SOL    HW1 1583   4.862   6.747   3.636
  228SOL    HW2 1584   4.786   6.638   3.541
  229SOL     OW 1585   6.303   6.270   2.180
  229SOL    HW1 1586   6.236   6.211   2.226
  229SOL    HW2 1587   6.348   6.328   2.247
  230SOL     OW 1588   2.320   4.352   5.033
  230SOL    HW1 1589   2.381   4.405   4.973
  230SOL    HW2 1590   2.335   4.254   5.018
  231SOL     OW 1591   0.838   3.140   6.108
  231SOL    HW1 1592   0.936   3.121   6.109
  231SOL    HW2 1593   0.799   3.121   6.198
  232SOL     OW 1594   1.591   3.734   6.851
  232SOL    HW1 1595   1.565   3.638   6.863
  232SOL    HW2 1596   1.643   3.743   6.766
  233SOL     OW 1597   2.575   1.360   5.564
  233SOL    HW1 1598   2.530   1.408   5.488
  233SOL    HW2 1599   2.555   1.408   5.650
  234SOL     OW 1600   2.738   5.219   6.911
  234SOL    HW1 1601   2.836   5.209   6.894
  234SOL    HW2 1602   2.718   5.314   6.936
  235SOL     OW 1603   3.160   3.434   4.350
  235SOL    HW1 1604   3.221   3.422   4.428
  235SOL    HW2 1605   3.105   3.517   4.363
  236SOL     OW 1606   6.822   2.398   5.416
  236SOL    HW1 1607   6.789   2.361   5.329
  236SOL    HW2 1608   6.915   2.434   5.404
  237SOL     OW 1609   0.406   0.035   1.331
  237SOL    HW1 1610   0.434   0.116   1.279
  237SOL    HW2 1611   0.370   6.989   1.268
  238SOL     OW 1612   5.592   2.981   2.644
  238SOL    HW1 1613   5.638   3.017   2.562
  238SOL    HW2 1614   5.598   3.048   2.718
  239SOL     OW 1615   6.772   5.822   6.833
  239SOL    HW1 1616   6.777   5.747   6.898
  239SOL    HW2 1617   6.864   5.842   6.798
  240SOL     OW 1618   0.487   4.068   6.006
  240SOL    HW1 1619   0.416   4.116   6.057
  240SOL    HW2 1620   0.544   4.135   5.958
  241SOL     OW 1621   0.222   0.552   2.735
  241SOL    HW1 1622   0.182   0.596   2.816
  241SOL    HW2 1623   0.230   0.618   2.661
  242SOL     OW 1624   1.621   3.844   4.340
  242SOL    HW1 1625   1.643   3.792   4.422
  242SOL    HW2 1626   1.590   3.782   4.268
  243SOL     OW 1627   5.866   6.781   5.250
  243SOL    HW1 1628   5.820   6.704   5.207
  243SOL    HW2 1629   5.869   6.858   5.187
  244SOL     OW 1630   5.741   2.139   5.204
  244SOL    HW1 1631   5.822   2.179   5.160
  244SOL    HW2 1632   5.735   2.042   5.180
  245SOL     OW 1633   5.885   2.483   4.181
  245SOL    HW1 1634   5.848   2.392   4.162
  245SOL    HW2 1635   5.850   2.549   4.114
  246SOL     OW 1636   5.102   3.685   3.342
  246SOL    HW1 1637   5.171   3.754   3.321
  246SOL    HW2 1638   5.016   3.729   3.366
  247SOL     OW 1639   1.986   1.374   3.265
  247SOL    HW1 1640   1.958   1.408   3.354
  247SOL    HW2 1641   2.006   1.451   3.204
  248SOL     OW 1642   6.152   1.472   3.505
  248SOL    HW1 1643   6.219   1.403   3.480
  248SOL    HW2 1644   6.095   1.494   3.426
  249SOL     OW 1645   3.781   6.918   4.159
  249SOL    HW1 1646   3.835   6.939   4.078
  249SOL    HW2 1647   3.722   6.996   4.180
  250SOL     OW 1648   5.610   3.529   5.809
  250SOL    HW1 1649   5.513   3.507   5.814
  250SOL    HW2 1650   5.623   3.627   5.821
  251SOL     OW 1651   4.286   2.616   6.846
  251SOL    HW1 1652   4.277   2.517   6.836
  251SOL    HW2 1653   4.201   2.653   6.882
  252SOL     OW 1654   0.302   0.276   5.969
  252SOL    HW1 1655   0.260   0.281   5.878
  252SOL    HW2 1656   0.390   0.229   5.963
  253SOL     OW 1657   3.055   3.294   0.180
  253SOL    HW1 1658   2.975   3.306   0.121
  253SOL    HW2 1659   3.027   3.260   0.269
  254SOL     OW 1660   6.091   2.668   5.170
  254SOL    HW1 1661   6.086   2.713   5.080
  254SOL    HW2 1662   6.008   2.615   5.186
  255SOL     OW 1663   2.838   1.777   3.201
  255SOL    HW1 1664   2.786   1.796   3.118
  255SOL    HW2 1665   2.783   1.723   3.264
  256SOL     OW 1666   5.386   5.101   0.432
  256SOL    HW1 1667   5.411   5.156   0.352
  256SOL    HW2 1668   5.321   5.153   0.488
  257SOL     OW 1669   3.089   5.727   6.057
  257SOL    HW1 1670   3.099   5.815   6.011
  257SOL    HW2 1671   2.996   5.719   6.093
  258SOL     OW 1672   5.671   4.417   4.429
  258SOL    HW1 1673   5.645   4.322   4.443
  258SOL    HW2 1674   5.691   4.433   4.333
  259SOL     OW 1675   1.511   1.954   2.544
  259SOL    HW1 1676   1.531   1.863   2.579
  259SOL    HW2 1677   1.450   1.946   2.464
  260SOL     OW 1678   5.814   0.196   5.902
  260SOL    HW1 1679   5.755   0.116   5.915
  260SOL    HW2 1680   5.909   0.170   5.921
  261SOL     OW 1681   0.739   4.025   2.212
  261SOL    HW1 1682   0.721   4.085   2.134
  261SOL    HW2 1683   0.667   3.957   2.220
  262SOL     OW 1684   0.640   4.153   1.982
  262SOL    HW1 1685   0.648   4.250   1.956
  262SOL    HW2 1686   0.552   4.118   1.950
  263SOL     OW 1687   0.876   1.895   4.198
  263SOL    HW1 1688   0.829   1.902   4.110
  263SOL    HW2 1689   0.815   1.854   4.265
  264SOL     OW 1690   2.373   4.502   6.601
  264SOL    HW1 1691   2.276   4.478   6.598
  264SOL    HW2 1692   2.427   4.424   6.569
  265SOL     OW 1693   5.424   4.509   4.557
  265SOL    HW1 1694   5.361   4.497   4.480
  265SOL    HW2 1695   5.517   4.490   4.527
  266SOL     OW 1696   3.997   1.687   0.817
  266SOL    HW1 1697   4.035   1.715   0.729
  266SOL    HW2 1698   4.011   1.761   0.883
  267SOL     OW 1699   1.577   2.039   5.957
  267SOL    HW1 1700   1.490   2.083   5.935
  267SOL    HW2 1701   1.604   2.063   6.051
  268SOL     OW 1702   4.092   4.907   4.610
  268SOL    HW1 1703   4.112   5.004   4.597
  268SOL    HW2 1704   4.125   4.855   4.532
  269SOL     OW 1705   0.801   2.072   5.683
  269SOL    HW1 1706   0.771   2.070   5.778
  269SOL    HW2 1707   0.875   2.006   5.670
  270SOL     OW 1708   5.285   1.111   2.881
  270SOL    HW1 1709   5.309   1.104   2.784
  270SOL    HW2 1710   5.361   1.152   2.932
  271SOL     OW 1711   1.418   0.760   6.500
  271SOL    HW1 1712   1.319   0.754   6.488
  271SOL    HW2 1713   1.448   0.852   6.475
  272SOL     OW 1714   3.402   6.212   3.364
  272SOL    HW1 1715   3.458   6.279   3.412
  272SOL    HW2 1716   3.407   6.228   3.266
  273SOL     OW 1717   2.582   6.335   5.128
  273SOL    HW1 1718   2.663   6.378   5.090
  273SOL    HW2 1719   2.608   6.256   5.184
  274SOL     OW 1720   6.445   2.378   2.314
  274SOL    HW1 1721   6.522   2.437   2.340
  274SOL    HW2 1722   6.376   2.381   2.387
  275SOL     OW 1723   6.619   5.729   5.147
  275SOL    HW1 1724   6.626   5.757   5.051
  275SOL    HW2 1725   6.527   5.696   5.165
  276SOL     OW 1726   6.443   6.359   3.711
  276SOL    HW1 1727   6.517   6.309   3.756
  276SOL    HW2 1728   6.357   6.308   3.721
  277SOL     OW 1729   4.289   1.460   5.220
  277SOL    HW1 1730   4.321   1.471   5.314
  277SOL    HW2 1731   4.353   1.402   5.170
  278SOL     OW 1732   6.001   3.578   2.641
  278SOL    HW1 1733   5.983   3.676   2.632
  278SOL    HW2 1734   5.955   3.529   2.567
  279SOL     OW 1735   0.110   2.706   3.834
  279SOL    HW1 1736   0.025   2.681   3.787
  279SOL    HW2 1737   0.173   2.629   3.830
  280SOL     OW 1738   3.658   0.497   4.155
  280SOL    HW1 1739   3.608   0.426   4.204
  280SOL    HW2 1740   3.686   0.462   4.065
  281SOL     OW 1741   4.915   6.231   3.929
  281SOL    HW1 1742   4.836   6.177   3.958
  281SOL    HW2 1743   4.999   6.182   3.953
  282SOL     OW 1744   4.184   1.937   0.122
  282SOL    HW1 1745   4.149   1.865   0.182
  282SOL    HW2 1746   4.132   1.938   0.037
  283SOL     OW 1747   6.370   1.713   4.903
  283SOL    HW1 1748   6.385   1.628   4.953
  283SOL    HW2 1749   6.370   1.694   4.804
  284SOL     OW 1750   5.889   5.465   3.982
  284SOL    HW1 1751   5.865   5.386   3.926
  284SOL    HW2 1752   5.952   5.523   3.931
  285SOL     OW 1753   4.303   0.930   6.356
  285SOL    HW1 1754   4.358   0.857   6.314
  285SOL    HW2 1755   4.209   0.924   6.322
  286SOL     OW 1756   3.439   4.958   5.022
  286SOL    HW1 1757   3.357   4.910   4.992
  286SOL    HW2 1758   3.423   5.057   5.023
  287SOL     OW 1759   2.879   6.613   5.988
  287SOL    HW1 1760   2.830   6.529   6.010
  287SOL    HW2 1761   2.825   6.668   5.925
  288SOL     OW 1762   3.225   0.832   0.656
  288SOL    HW1 1763   3.168   0.754   0.682
  288SOL    HW2 1764   3.303   0.839   0.717
  289SOL     OW 1765   7.000   6.160   4.053
  289SOL    HW1 1766   0.075   6.171   4.071
  289SOL    HW2 1767   6.954   6.130   4.137
  290SOL     OW 1768   3.332   0.946   4.651
  290SOL    HW1 1769   3.381   0.931   4.737
  290SOL    HW2 1770   3.251   1.001   4.668
  291SOL     OW 1771   4.125   0.488   5.014
  291SOL    HW1 1772   4.222   0.477   4.993
  291SOL    HW2 1773   4.071   0.475   4.931
  292SOL     OW 1774   3.954   0.542   3.625
  292SOL    HW1 1775   3.982   0.566   3.532
  292SOL    HW2 1776   4.016   0.472   3.661
  293SOL     OW 1777   6.098   0.127   2.579
  293SOL    HW1 1778   6.186   0.147   2.536
  293SOL    HW2 1779   6.074   0.031   2.562
  294SOL     OW 1780   6.380   0.916   6.043
  294SOL    HW1 1781   6.301   0.921   6.104
  294SOL    HW2 1782   6.428   0.830   6.058
  295SOL     OW 1783   0.995   1.799   5.154
  295SOL    HW1 1784   1.028   1.726   5.215
  295SOL    HW2 1785   1.048   1.882   5.171
  296SOL     OW 1786   0.279   1.831   1.500
  296SOL    HW1 1787   0.347   1.828   1.574
  296SOL    HW2 1788   0.219   1.751   1.507
  297SOL     OW 1789   5.717   3.794   3.712
  297SOL    HW1 1790   5.680   3.717   3.765
  297SOL    HW2 1791   5.726   3.767   3.616
  298SOL     OW 1792   3.489   1.143   6.745
  298SOL    HW1 1793   3.457   1.230   6.783
  298SOL    HW2 1794   3.493   1.074   6.818
  299SOL     OW 1795   2.588   1.830   6.444
  299SOL    HW1 1796   2.489   1.815   6.443
  299SOL    HW2 1797   2.629   1.767   6.510
  300SOL     OW 1798   3.768   0.719   2.680
  300SOL    HW1 1799   3.760   0.814   2.709
  300SOL    HW2 1800   3.865   0.693   2.677
  301SOL     OW 1801   6.297   5.638   1.085
  301SOL    HW1 1802   6.199   5.652   1.069
  301SOL    HW2 1803   6.321   5.542   1.069
  302SOL     OW 1804   5.807   6.098   0.886
  302SOL    HW1 1805   5.789   6.001   0.867
  302SOL    HW2 1806   5.721   6.144   0.909
  303SOL     OW 1807   5.729   5.652   2.226
  303SOL    HW1 1808   5.699   5.578   2.166
  303SOL    HW2 1809   5.763   5.613   2.312
  304SOL     OW 1810   1.378   7.014   5.262
  304SOL    HW1 1811   1.444   0.065   5.247
  304SOL    HW2 1812   1.318   0.014   5.338
  305SOL     OW 1813   1.358   2.603   2.430
  305SOL    HW1 1814   1.454   2.607   2.406
  305SOL    HW2 1815   1.302   2.634   2.353
  306SOL     OW 1816   6.652   0.466   2.614
  306SOL    HW1 1817   6.592   0.395   2.652
  306SOL    HW2 1818   6.744   0.455   2.652
  307SOL     OW 1819   3.538   3.262   2.912
  307SOL    HW1 1820   3.534   3.249   2.813
  307SOL    HW2 1821   3.483   3.342   2.938
  308SOL     OW 1822   5.769   1.545   4.099
  308SOL    HW1 1823   5.710   1.486   4.154
  308SOL    HW2 1824   5.714   1.615   4.053
  309SOL     OW 1825   0.817   6.090   6.445
  309SOL    HW1 1826   0.809   6.189   6.454
  309SOL    HW2 1827   0.815   6.048   6.536
  310SOL     OW 1828   5.502   6.508   5.028
  310SOL    HW1 1829   5.596   6.540   5.015
  310SOL    HW2 1830   5.501   6.436   5.097
  311SOL     OW 1831   1.864   5.498   2.880
  311SOL    HW1 1832   1.951   5.546   2.867
  311SOL    HW2 1833   1.830   5.466   2.792
  312SOL     OW 1834   4.734   1.983   2.950
  312SOL    HW1 1835   4.781   1.941   3.028
  312SOL    HW2 1836   4.712   1.913   2.882
  313SOL     OW 1837   3.974   3.077   3.679
  313SOL    HW1 1838   3.979   3.176   3.686
  313SOL    HW2 1839   3.967   3.051   3.583
  314SOL     OW 1840   2.532   6.635   5.691
  314SOL    HW1 1841   2.618   6.675   5.723
  314SOL    HW2 1842   2.465   6.637   5.766
  315SOL     OW 1843   6.639   1.383   3.685
  315SOL    HW1 1844   6.554   1.353   3.730
  315SOL    HW2 1845   6.629   1.375   3.586
  316SOL     OW 1846   3.626   1.462   5.155
  316SOL    HW1 1847   3.701   1.402   5.131
  316SOL    HW2 1848   3.553   1.409   5.198
  317SOL     OW 1849   1.079   1.071   1.403
  317SOL    HW1 1850   1.029   0.988   1.377
  317SOL    HW2 1851   1.136   1.051   1.483
  318SOL     OW 1852   0.025   0.580   5.345
  318SOL    HW1 1853   0.120   0.607   5.356
  318SOL    HW2 1854   6.999   0.651   5.295
  319SOL     OW 1855   1.755   2.191   2.223
  319SOL    HW1 1856   1.686   2.119   2.214
  319SOL    HW2 1857   1.721   2.261   2.287
  320SOL     OW 1858   6.051   2.825   6.794
  320SOL    HW1 1859   6.010   2.760   6.859
  320SOL    HW2 1860   6.092   2.775   6.718
  321SOL     OW 1861   4.245   2.957   1.200
  321SOL    HW1 1862   4.183   3.018   1.151
  321SOL    HW2 1863   4.340   2.984   1.181
  322SOL     OW 1864   4.022   3.617   6.297
  322SOL    HW1 1865   4.033   3.529   6.252
  322SOL    HW2 1866   3.961   3.608   6.376
  323SOL     OW 1867   0.303   3.427   3.487
  323SOL    HW1 1868   0.333   3.479   3.567
  323SOL    HW2 1869   0.204   3.419   3.487
  324SOL     OW 1870   0.746   6.685   3.511
  324SOL    HW1 1871   0.717   6.781   3.509
  324SOL    HW2 1872   0.816   6.672   3.581
  325SOL     OW 1873   0.575   3.752   2.717
  325SOL    HW1 1874   0.499   3.801   2.758
  325SOL    HW2 1875   0.659   3.773   2.767
  326SOL     OW 1876   1.437   6.378   6.467
  326SOL    HW1 1877   1.477   6.325   6.392
  326SOL    HW2 1878   1.371   6.443   6.431
  327SOL     OW 1879   4.212   5.331   3.670
  327SOL    HW1 1880   4.249   5.278   3.594
  327SOL    HW2 1881   4.116   5.353   3.652
  328SOL     OW 1882   2.264   4.466   2.203
  328SOL    HW1 1883   2.304   4.463   2.111
  328SOL    HW2 1884   2.335   4.449   2.271
  329SOL     OW 1885   3.310   4.056   1.712
  329SOL    HW1 1886   3.383   4.064   1.645
  329SOL    HW2 1887   3.344   4.007   1.792
  330SOL     OW 1888   3.787   5.029   0.480
  330SOL    HW1 1889   3.824   4.936   0.479
  330SOL    HW2 1890   3.861   5.094   0.499
  331SOL     OW 1891   5.214   5.846   6.892
  331SOL    HW1 1892   5.278   5.869   6.964
  331SOL    HW2 1893   5.128   5.815   6.932
  332SOL     OW 1894   5.320   2.098   3.201
  332SOL    HW1 1895   5.303   2.191   3.167
  332SOL    HW2 1896   5.257   2.034   3.157
  333SOL     OW 1897   3.787   1.144   6.048
  333SOL    HW1 1898   3.723   1.212   6.013
  333SOL    HW2 1899   3.799   1.158   6.146
  334SOL     OW 1900   3.476   4.031   3.848
  334SOL    HW1 1901   3.414   4.089   3.901
  334SOL    HW2 1902   3.570   4.065   3.858
  335SOL     OW 1903   3.508   0.524   6.249
  335SOL    HW1 1904   3.602   0.509   6.219
  335SOL    HW2 1905   3.452   0.445   6.225
  336SOL     OW 1906   3.071   1.890   3.246
  336SOL    HW1 1907   2.978   1.855   3.237
  336SOL    HW2 1908   3.072   1.987   3.223
  337SOL     OW 1909   2.053   1.413   5.886
  337SOL    HW1 1910   2.140   1.407   5.935
  337SOL    HW2 1911   2.069   1.404   5.788
  338SOL     OW 1912   4.629   2.153   1.992
  338SOL    HW1 1913   4.697   2.134   2.063
  338SOL    HW2 1914   4.573   2.231   2.020
  339SOL     OW 1915   3.891   4.977   4.781
  339SOL    HW1 1916   3.952   4.932   4.716
  339SOL    HW2 1917   3.923   5.071   4.797
  340SOL     OW 1918   4.531   2.111   4.185
  340SOL    HW1 1919   4.552   2.079   4.277
  340SOL    HW2 1920   4.613   2.107   4.128
  341SOL     OW 1921   5.935   6.587   3.431
  341SOL    HW1 1922   5.850   6.614   3.387
  341SOL    HW2 1923   5.965   6.659   3.493
  342SOL     OW 1924   4.778   2.144   1.740
  342SOL    HW1 1925   4.734   2.151   1.830
  342SOL    HW2 1926   4.782   2.048   1.712
  343SOL     OW 1927   1.340   5.263   3.433
  343SOL    HW1 1928   1.325   5.165   3.445
  343SOL    HW2 1929   1.379   5.279   3.342
  344SOL     OW 1930   1.855   1.250   1.431
  344SOL    HW1 1931   1.860   1.262   1.332
  344SOL    HW2 1932   1.839   1.153   1.452
  345SOL     OW 1933   6.170   3.158   4.306
  345SOL    HW1 1934   6.164   3.090   4.233
  345SOL    HW2 1935   6.106   3.134   4.379
  346SOL     OW 1936   1.691   0.088   2.834
  346SOL    HW1 1937   1.716   0.156   2.765
  346SOL    HW2 1938   1.677   0.133   2.922
  347SOL     OW 1939   2.686   4.881   0.429
  347SOL    HW1 1940   2.704   4.951   0.360
  347SOL    HW2 1941   2.707   4.917   0.520
  348SOL     OW 1942   5.094   5.580   2.197
  348SOL    HW1 1943   5.104   5.637   2.279
  348SOL    HW2 1944   5.172   5.594   2.137
  349SOL     OW 1945   0.161   3.807   1.093
  349SOL    HW1 1946   0.150   3.907   1.096
  349SOL    HW2 1947   0.091   3.767   1.034
  350SOL     OW 1948   3.391   2.900   0.128
  350SOL    HW1 1949   3.428   2.890   0.036
  350SOL    HW2 1950   3.334   2.983   0.131
  351SOL     OW 1951   3.626   4.377   0.891
  351SOL    HW1 1952   3.676   4.460   0.863
  351SOL    HW2 1953   3.528   4.396   0.890
  352SOL     OW 1954   4.188   6.472   3.290
  352SOL    HW1 1955   4.090   6.477   3.308
  352SOL    HW2 1956   4.212   6.381   3.257
  353SOL     OW 1957   2.562   6.423   6.430
  353SOL    HW1 1958   2.644   6.376   6.462
  353SOL    HW2 1959   2.529   6.486   6.501
  354SOL     OW 1960   6.418   2.727   0.659
  354SOL    HW1 1961   6.320   2.726   0.637
  354SOL    HW2 1962   6.430   2.746   0.756
  355SOL     OW 1963   1.995   2.392   2.284
  355SOL    HW1 1964   1.938   2.454   2.232
  355SOL    HW2 1965   1.988   2.414   2.381
  356SOL     OW 1966   1.442   0.192   5.872
  356SOL    HW1 1967   1.516   0.155   5.929
  356SOL    HW2 1968   1.431   0.135   5.791
  357SOL     OW 1969   5.818   0.010   4.692
  357SOL    HW1 1970   5.891   6.997   4.752
  357SOL    HW2 1971   5.828   6.993   4.601
  358SOL     OW 1972   5.096   6.018   0.732
  358SOL    HW1 1973   5.028   6.086   0.759
  358SOL    HW2 1974   5.188   6.058   0.739
  359SOL     OW 1975   3.268   2.049   2.195
  359SOL    HW1 1976   3.342   2.013   2.138
  359SOL    HW2 1977   3.190   2.074   2.137
  360SOL     OW 1978   1.139   4.690   3.991
  360SOL    HW1 1979   1.230   4.655   4.012
  360SOL    HW2 1980   1.141   4.739   3.904
  361SOL     OW 1981   6.731   5.918   3.369
  361SOL    HW1 1982   6.729   5.981   3.446
  361SOL    HW2 1983   6.778   5.834   3.396
  362SOL     OW 1984   3.999   4.308   1.022
  362SOL    HW1 1985   4.093   4.317   1.055
  362SOL    HW2 1986   3.994   4.338   0.926
  363SOL     OW 1987   6.250   5.160   2.358
  363SOL    HW1 1988   6.323   5.094   2.368
  363SOL    HW2 1989   6.164   5.112   2.339
  364SOL     OW 1990   0.878   5.397   6.982
  364SOL    HW1 1991   0.946   5.351   0.015
  364SOL    HW2 1992   0.823   5.458   0.016
  365SOL     OW 1993   3.552   1.293   2.146
  365SOL    HW1 1994   3.497   1.372   2.173
  365SOL    HW2 1995   3.538   1.273   2.049
  366SOL     OW 1996   6.015   3.038   0.320
  366SOL    HW1 1997   5.999   3.136   0.315
  366SOL    HW2 1998   6.063   3.015   0.404
  367SOL     OW 1999   4.459   1.919   5.800
  367SOL    HW1 2000   4.415   1.984   5.862
  367SOL    HW2 2001   4.400   1.904   5.721
  368SOL     OW 2002   6.490   2.150   6.333
  368SOL    HW1 2003   6.537   2.173   6.248
  368SOL    HW2 2004   6.450   2.233   6.372
  369SOL     OW 2005   5.763   3.433   2.998
  369SOL    HW1 2006   5.687   3.414   2.936
  369SOL    HW2 2007   5.844   3.457   2.944
  370SOL     OW 2008   1.992   2.338   4.163
  370SOL    HW1 2009   2.083   2.370   4.135
  370SOL    HW2 2010   2.001   2.269   4.235
  371SOL     OW 2011   2.152   4.146   6.789
  371SOL    HW1 2012   2.085   4.072   6.784
  371SOL    HW2 2013   2.244   4.108   6.776
  372SOL     OW 2014   2.760   6.739   5.778
  372SOL    HW1 2015   2.750   6.827   5.823
  372SOL    HW2 2016   2.842   6.738   5.721
  373SOL     OW 2017   6.180   6.677   4.555
  373SOL    HW1 2018   6.098   6.622   4.569
  373SOL    HW2 2019   6.260   6.618   4.546
  374SOL     OW 2020   2.852   1.677   2.616
  374SOL    HW1 2021   2.839   1.627   2.701
  374SOL    HW2 2022   2.795   1.637   2.544
  375SOL     OW 2023   0.821   4.984   4.962
  375SOL    HW1 2024   0.827   5.038   5.046
  375SOL    HW2 2025   0.912   4.948   4.939
  376SOL     OW 2026   2.825   0.934   4.171
  376SOL    HW1 2027   2.889   0.901   4.241
  376SOL    HW2 2028   2.758   0.863   4.151
  377SOL     OW 2029   1.572   2.170   6.768
  377SOL    HW1 2030   1.590   2.129   6.678
  377SOL    HW2 2031   1.477   2.156   6.793
  378SOL     OW 2032   2.755   1.599   0.850
  378SOL    HW1 2033   2.841   1.621   0.896
  378SOL    HW2 2034   2.720   1.680   0.803
  379SOL     OW 2035   5.879   2.627   6.389
  379SOL    HW1 2036   5.911   2.718   6.417
  379SOL    HW2 2037   5.821   2.588   6.460
  380SOL     OW 2038   3.441   1.577   1.461
  380SOL    HW1 2039   3.371   1.635   1.502
  380SOL    HW2 2040   3.412   1.550   1.369
  381SOL     OW 2041   1.546   4.415   3.627
  381SOL    HW1 2042   1.542   4.371   3.537
  381SOL    HW2 2043   1.608   4.363   3.686
  382SOL     OW 2044   6.661   0.935   0.295
  382SOL    HW1 2045   6.614   0.961   0.210
  382SOL    HW2 2046   6.613   0.976   0.373
  383SOL     OW 2047   3.880   3.038   1.331
  383SOL    HW1 2048   3.850   3.057   1.237
  383SOL    HW2 2049   3.882   3.124   1.382
  384SOL     OW 2050   6.520   3.536   4.529
  384SOL    HW1 2051   6.571   3.457   4.564
  384SOL    HW2 2052   6.437   3.504   4.483
  385SOL     OW 2053   4.308   5.013   6.616
  385SOL    HW1 2054   4.220   5.026   6.570
  385SOL    HW2 2055   4.293   4.964   6.702
  386SOL     OW 2056   4.377   0.360   4.914
  386SOL    HW1 2057   4.455   0.297   4.915
  386SOL    HW2 2058   4.310   0.329   4.847
  387SOL     OW 2059   2.578   5.398   3.469
  387SOL    HW1 2060   2.482   5.407   3.492
  387SOL    HW2 2061   2.611   5.308   3.497
  388SOL     OW 2062   1.776   2.527   6.396
  388SOL    HW1 2063   1.841   2.470   6.447
  388SOL    HW2 2064   1.824   2.607   6.359
  389SOL     OW 2065   3.046   3.804   3.395
  389SOL    HW1 2066   2.954   3.764   3.408
  389SOL    HW2 2067   3.093   3.754   3.322
  390SOL     OW 2068   2.598   1.450   4.223
  390SOL    HW1 2069   2.619   1.402   4.138
  390SOL    HW2 2070   2.669   1.518   4.240
  391SOL     OW 2071   1.523   2.674   0.346
  391SOL    HW1 2072   1.534   2.661   0.444
  391SOL    HW2 2073   1.605   2.642   0.299
  392SOL     OW 2074   2.273   5.147   1.561
  392SOL    HW1 2075   2.201   5.117   1.499
  392SOL    HW2 2076   2.319   5.227   1.522
  393SOL     OW 2077   5.961   4.615   5.261
  393SOL    HW1 2078   6.037   4.556   5.235
  393SOL    HW2 2079   5.884   4.600   5.198
  394SOL     OW 2080   0.041   6.585   0.052
  394SOL    HW1 2081   6.967   6.568   0.037
  394SOL    HW2 2082   0.071   6.538   0.135
  395SOL     OW 2083   4.943   3.747   2.362
  395SOL    HW1 2084   4.874   3.681   2.331
  395SOL    HW2 2085   4.951   3.821   2.295
  396SOL     OW 2086   3.309   3.734   2.939
  396SOL    HW1 2087   3.252   3.813   2.960
  396SOL    HW2 2088   3.397   3.766   2.904
  397SOL     OW 2089   4.605   2.315   5.440
  397SOL    HW1 2090   4.647   2.396   5.398
  397SOL    HW2 2091   4.559   2.342   5.525
  398SOL     OW 2092   0.762   5.546   2.437
  398SOL    HW1 2093   0.685   5.606   2.458
  398SOL    HW2 2094   0.848   5.597   2.446
  399SOL     OW 2095   4.524   5.524   1.596
  399SOL    HW1 2096   4.532   5.514   1.497
  399SOL    HW2 2097   4.615   5.521   1.637
  400SOL     OW 2098   0.026   0.023   5.202
  400SOL    HW1 2099   0.064   6.964   5.158
  400SOL    HW2 2100   0.100   0.087   5.221
  401SOL     OW 2101   4.763   1.245   6.284
  401SOL    HW1 2102   4.674   1.204   6.308
  401SOL    HW2 2103   4.753   1.297   6.200
  402SOL     OW 2104   6.419   6.395   2.535
  402SOL    HW1 2105   6.472   6.311   2.546
  402SOL    HW2 2106   6.324   6.378   2.559
  403SOL     OW 2107   4.616   2.459   5.994
  403SOL    HW1 2108   4.711   2.434   6.013
  403SOL    HW2 2109   4.569   2.475   6.081
  404SOL     OW 2110   1.322   6.561   3.415
  404SOL    HW1 2111   1.257   6.597   3.348
  404SOL    HW2 2112   1.344   6.632   3.482
  405SOL     OW 2113   1.689   2.470   1.150
  405SOL    HW1 2114   1.707   2.538   1.079
  405SOL    HW2 2115   1.750   2.391   1.136
  406SOL     OW 2116   0.951   2.876   3.920
  406SOL    HW1 2117   0.886   2.816   3.967
  406SOL    HW2 2118   0.955   2.852   3.823
  407SOL     OW 2119   2.968   0.075   4.920
  407SOL    HW1 2120   3.059   0.066   4.959
  407SOL    HW2 2121   2.938   7.010   4.884
  408SOL     OW 2122   1.351   0.343   3.270
  408SOL    HW1 2123   1.330   0.408   3.342
  408SOL    HW2 2124   1.367   0.392   3.184
  409SOL     OW 2125   6.095   3.223   2.813
  409SOL    HW1 2126   6.095   3.182   2.722
  409SOL    HW2 2127   6.084   3.152   2.882
  410SOL     OW 2128   2.350   0.376   0.478
  410SOL    HW1 2129   2.325   0.383   0.382
  410SOL    HW2 2130   2.406   0.295   0.493
  411SOL     OW 2131   5.754   5.657   6.813
  411SOL    HW1 2132   5.725   5.738   6.763
  411SOL    HW2 2133   5.854   5.652   6.815
  412SOL     OW 2134   3.599   6.498   3.142
  412SOL    HW1 2135   3.506   6.527   3.121
  412SOL    HW2 2136   3.648   6.478   3.058
  413SOL     OW 2137   3.397   5.423   0.461
  413SOL    HW1 2138   3.468   5.356   0.443
  413SOL    HW2 2139   3.398   5.449   0.557
  414SOL     OW 2140   4.289   4.999   1.821
  414SOL    HW1 2141   4.302   5.076   1.758
  414SOL    HW2 2142   4.239   5.030   1.902
  415SOL     OW 2143   1.279   5.915   0.492
  415SOL    HW1 2144   1.358   5.940   0.435
  415SOL    HW2 2145   1.196   5.956   0.454
  416SOL     OW 2146   4.218   5.628   4.937
  416SOL    HW1 2147   4.181   5.670   5.020
  416SOL    HW2 2148   4.143   5.608   4.874
  417SOL     OW 2149   3.222   6.539   1.536
  417SOL    HW1 2150   3.223   6.604   1.611
  417SOL    HW2 2151   3.129   6.504   1.524
  418SOL     OW 2152   4.866   6.215   0.346
  418SOL    HW1 2153   4.801   6.223   0.421
  418SOL    HW2 2154   4.946   6.163   0.376
  419SOL     OW 2155   0.771   0.500   1.135
  419SOL    HW1 2156   0.683   0.511   1.089
  419SOL    HW2 2157   0.793   0.584   1.184
  420SOL     OW 2158   6.182   3.786   1.335
  420SOL    HW1 2159   6.262   3.726   1.334
  420SOL    HW2 2160   6.209   3.878   1.364
  421SOL     OW 2161   1.227   4.721   6.228
  421SOL    HW1 2162   1.263   4.700   6.319
  421SOL    HW2 2163   1.158   4.793   6.236
  422SOL     OW 2164   5.775   4.785   0.667
  422SOL    HW1 2165   5.872   4.763   0.656
  422SOL    HW2 2166   5.749   4.769   0.763
  423SOL     OW 2167   6.269   3.402   0.662
  423SOL    HW1 2168   6.236   3.378   0.571
  423SOL    HW2 2169   6.260   3.501   0.675
  424SOL     OW 2170   3.254   3.645   0.279
  424SOL    HW1 2171   3.251   3.597   0.191
  424SOL    HW2 2172   3.345   3.637   0.318
  425SOL     OW 2173   5.372   1.477   1.939
  425SOL    HW1 2174   5.396   1.381   1.954
  425SOL    HW2 2175   5.333   1.515   2.023
  426SOL     OW 2176   5.451   2.585   5.385
  426SOL    HW1 2177   5.425   2.490   5.368
  426SOL    HW2 2178   5.374   2.645   5.362
  427SOL     OW 2179   5.365   4.373   2.118
  427SOL    HW1 2180   5.356   4.357   2.216
  427SOL    HW2 2181   5.276   4.362   2.074
  428SOL     OW 2182   4.342   0.456   5.521
  428SOL    HW1 2183   4.361   0.476   5.424
  428SOL    HW2 2184   4.243   0.449   5.534
  429SOL     OW 2185   2.346   5.056   0.713
  429SOL    HW1 2186   2.348   5.156   0.716
  429SOL    HW2 2187   2.379   5.019   0.800
  430SOL     OW 2188   1.983   6.411   4.494
  430SOL    HW1 2189   1.959   6.318   4.520
  430SOL    HW2 2190   1.913   6.474   4.526
  431SOL     OW 2191   3.250   1.416   6.899
  431SOL    HW1 2192   3.309   1.350   6.945
  431SOL    HW2 2193   3.306   1.475   6.841
  432SOL     OW 2194   6.943   2.322   0.427
  432SOL    HW1 2195   6.862   2.292   0.479
  432SOL    HW2 2196   6.942   2.278   0.337
  433SOL     OW 2197   2.477   0.148   4.323
  433SOL    HW1 2198   2.418   0.151   4.403
  433SOL    HW2 2199   2.509   0.055   4.308
  434SOL     OW 2200   5.439   5.097   1.479
  434SOL    HW1 2201   5.416   5.018   1.422
  434SOL    HW2 2202   5.525   5.136   1.449
  435SOL     OW 2203   3.747   2.945   5.381
  435SOL    HW1 2204   3.753   3.000   5.464
  435SOL    HW2 2205   3.821   2.971   5.319
  436SOL     OW 2206   1.710   7.010   0.775
  436SOL    HW1 2207   1.757   6.974   0.855
  436SOL    HW2 2208   1.777   0.025   0.711
  437SOL     OW 2209   0.198   0.351   6.510
  437SOL    HW1 2210   0.130   0.358   6.583
  437SOL    HW2 2211   0.153   0.323   6.426
  438SOL     OW 2212   2.193   2.731   1.997
  438SOL    HW1 2213   2.288   2.708   2.017
  438SOL    HW2 2214   2.141   2.738   2.083
  439SOL     OW 2215   6.084   4.523   3.396
  439SOL    HW1 2216   6.114   4.618   3.399
  439SOL    HW2 2217   5.991   4.516   3.432
  440SOL     OW 2218   1.203   2.038   4.528
  440SOL    HW1 2219   1.175   1.974   4.599
  440SOL    HW2 2220   1.249   2.116   4.570
  441SOL     OW 2221   0.696   1.978   2.965
  441SOL    HW1 2222   0.616   1.922   2.945
  441SOL    HW2 2223   0.776   1.919   2.973
  442SOL     OW 2224   0.968   4.319   0.239
  442SOL    HW1 2225   0.915   4.236   0.258
  442SOL    HW2 2226   0.907   4.399   0.240
  443SOL     OW 2227   1.198   4.398   4.664
  443SOL    HW1 2228   1.295   4.386   4.646
  443SOL    HW2 2229   1.185   4.455   4.745
  444SOL     OW 2230   4.872   3.073   6.130
  444SOL    HW1 2231   4.818   3.034   6.205
  444SOL    HW2 2232   4.831   3.160   6.102
  445SOL     OW 2233   1.803   5.376   3.124
  445SOL    HW1 2234   1.880   5.400   3.183
  445SOL    HW2 2235   1.811   5.424   3.037
  446SOL     OW 2236   4.015   5.042   3.440
  446SOL    HW1 2237   3.959   5.068   3.520
  446SOL    HW2 2238   4.106   5.081   3.450
  447SOL     OW 2239   0.534   4.376   6.763
  447SOL    HW1 2240   0.547   4.474   6.745
  447SOL    HW2 2241   0.621   4.328   6.753
  448SOL     OW 2242   3.561   0.507   4.967
  448SOL    HW1 2243   3.595   0.532   4.877
  448SOL    HW2 2244   3.634   0.518   5.035
  449SOL     OW 2245   4.899   0.958   5.348
  449SOL    HW1 2246   4.826   0.957   5.416
  449SOL    HW2 2247   4.930   1.053   5.334
  450SOL     OW 2248   0.322   5.831   3.267
  450SOL    HW1 2249   0.291   5.923   3.290
  450SOL    HW2 2250   0.283   5.766   3.332
  451SOL     OW 2251   0.877   2.216   2.520
  451SOL    HW1 2252   0.861   2.310   2.551
  451SOL    HW2 2253   0.922   2.218   2.431
  452SOL     OW 2254   6.749   6.106   0.550
  452SOL    HW1 2255   6.827   6.169   0.552
  452SOL    HW2 2256   6.664   6.158   0.540
  453SOL     OW 2257   2.947   0.594   6.403
  453SOL    HW1 2258   2.993   0.511   6.433
  453SOL    HW2 2259   2.985   0.624   6.316
  454SOL     OW 2260   6.820   6.031   5.958
  454SOL    HW1 2261   6.773   6.119   5.955
  454SOL    HW2 2262   6.919   6.046   5.949
  455SOL     OW 2263   6.773   0.427   4.083
  455SOL    HW1 2264   6.804   0.352   4.141
  455SOL    HW2 2265   6.842   0.500   4.083
  456SOL     OW 2266   4.522   6.115   5.287
  456SOL    HW1 2267   4.464   6.034   5.281
  456SOL    HW2 2268   4.467   6.192   5.319
  457SOL     OW 2269   2.049   3.572   3.408
  457SOL    HW1 2270   2.068   3.654   3.353
  457SOL    HW2 2271   2.081   3.491   3.359
  458SOL     OW 2272   5.143   5.529   5.128
  458SOL    HW1 2273   5.210   5.455   5.136
  458SOL    HW2 2274   5.058   5.502   5.175
  459SOL     OW 2275   1.450   0.130   3.949
  459SOL    HW1 2276   1.516   0.054   3.952
  459SOL    HW2 2277   1.487   0.208   4.001
  460SOL     OW 2278   0.312   1.040   2.451
  460SOL    HW1 2279   0.259   0.998   2.525
  460SOL    HW2 2280   0.300   0.988   2.367
  461SOL     OW 2281   5.280   6.839   4.507
  461SOL    HW1 2282   5.341   6.816   4.430
  461SOL    HW2 2283   5.314   6.794   4.590
  462SOL     OW 2284   4.160   2.261   5.817
  462SOL    HW1 2285   4.156   2.361   5.818
  462SOL    HW2 2286   4.085   2.225   5.763
  463SOL     OW 2287   6.067   6.028   2.953
  463SOL    HW1 2288   6.092   6.109   3.006
  463SOL    HW2 2289   6.112   6.032   2.864
  464SOL     OW 2290   3.016   1.985   6.238
  464SOL    HW1 2291   3.026   2.084   6.241
  464SOL    HW2 2292   3.091   1.945   6.185
  465SOL     OW 2293   1.362   1.984   4.317
  465SOL    HW1 2294   1.300   2.001   4.394
  465SOL    HW2 2295   1.431   2.055   4.313
  466SOL     OW 2296   6.978   5.821   3.422
  466SOL    HW1 2297   6.993   5.764   3.341
  466SOL    HW2 2298   6.951   5.763   3.499
  467SOL     OW 2299   1.185   0.324   6.295
  467SOL    HW1 2300   1.222   0.294   6.207
  467SOL    HW2 2301   1.237   0.280   6.369
  468SOL     OW 2302   3.247   6.043   0.652
  468SOL    HW1 2303   3.197   6.105   0.593
  468SOL    HW2 2304   3.276   5.963   0.600
  469SOL     OW 2305   2.995   4.547   0.666
  469SOL    HW1 2306   2.991   4.618   0.736
  469SOL    HW2 2307   2.952   4.581   0.582
  470SOL     OW 2308   3.141   0.687   2.567
  470SOL    HW1 2309   3.156   0.669   2.664
  470SOL    HW2 2310   3.048   0.661   2.542
  471SOL     OW 2311   1.538   2.200   4.406
  471SOL    HW1 2312   1.469   2.217   4.477
  471SOL    HW2 2313   1.608   2.272   4.410
  472SOL     OW 2314   4.703   3.561   6.858
  472SOL    HW1 2315   4.767   3.637   6.869
  472SOL    HW2 2316   4.651   3.573   6.773
  473SOL     OW 2317   0.200   2.590   1.408
  473SOL    HW1 2318   0.292   2.609   1.444
  473SOL    HW2 2319   0.207   2.542   1.321
  474SOL     OW 2320   4.470   5.267   3.945
  474SOL    HW1 2321   4.565   5.292   3.927
  474SOL    HW2 2322   4.409   5.335   3.905
  475SOL     OW 2323   6.273   0.858   6.853
  475SOL    HW1 2324   6.359   0.906   6.834
  475SOL    HW2 2325   6.292   0.775   6.905
  476SOL     OW 2326   0.107   3.705   2.353
  476SOL    HW1 2327   0.142   3.777   2.412
  476SOL    HW2 2328   0.009   3.693   2.369
  477SOL     OW 2329   2.309   4.604   5.147
  477SOL    HW1 2330   2.306   4.532   5.077
  477SOL    HW2 2331   2.403   4.636   5.158
  478SOL     OW 2332   3.125   6.230   2.268
  478SOL    HW1 2333   3.124   6.254   2.365
  478SOL    HW2 2334   3.063   6.154   2.251
  479SOL     OW 2335   4.235   2.327   6.864
  479SOL    HW1 2336   4.194   2.299   6.952
  479SOL    HW2 2337   4.277   2.248   6.821
  480SOL     OW 2338   2.075   0.397   6.992
  480SOL    HW1 2339   1.998   0.339   6.966
  480SOL    HW2 2340   2.066   0.486   6.946
  481SOL     OW 2341   1.991   6.785   0.683
  481SOL    HW1 2342   1.943   6.859   0.636
  481SOL    HW2 2343   2.009   6.812   0.778
  482SOL     OW 2344   4.547   4.404   2.836
  482SOL    HW1 2345   4.486   4.480   2.814
  482SOL    HW2 2346   4.539   4.381   2.933
  483SOL     OW 2347   5.822   2.459   1.296
  483SOL    HW1 2348   5.921   2.464   1.309
  483SOL    HW2 2349   5.800   2.462   1.199
  484SOL     OW 2350   1.211   2.717   4.855
  484SOL    HW1 2351   1.291   2.680   4.807
  484SOL    HW2 2352   1.137   2.731   4.790
  485SOL     OW 2353   4.109   5.641   2.090
  485SOL    HW1 2354   4.191   5.697   2.078
  485SOL    HW2 2355   4.124   5.576   2.165
  486SOL     OW 2356   0.344   2.034   0.947
  486SOL    HW1 2357   0.338   1.961   1.016
  486SOL    HW2 2358   0.347   1.993   0.856
  487SOL     OW 2359   0.676   1.915   6.898
  487SOL    HW1 2360   0.672   1.966   6.812
  487SOL    HW2 2361   0.754   1.852   6.896
  488SOL     OW 2362   0.633   1.222   1.679
  488SOL    HW1 2363   0.540   1.254   1.700
  488SOL    HW2 2364   0.630   1.125   1.654
  489SOL     OW 2365   3.690   5.778   6.992
  489SOL    HW1 2366   3.758   5.846   6.963
  489SOL    HW2 2367   3.622   5.821   0.028
  490SOL     OW 2368   6.604   6.115   4.032
  490SOL    HW1 2369   6.650   6.088   4.116
  490SOL    HW2 2370   6.510   6.080   4.032
  491SOL     OW 2371   0.130   2.491   2.984
  491SOL    HW1 2372   0.155   2.418   3.048
  491SOL    HW2 2373   0.038   2.474   2.949
  492SOL     OW 2374   3.204   0.205   5.130
  492SOL    HW1 2375   3.226   0.154   5.213
  492SOL    HW2 2376   3.107   0.230   5.131
  493SOL     OW 2377   5.660   5.946   5.953
  493SOL    HW1 2378   5.567   5.960   5.989
  493SOL    HW2 2379   5.659   5.870   5.888
  494SOL     OW 2380   0.458   6.697   6.986
  494SOL    HW1 2381   0.377   6.734   6.941
  494SOL    HW2 2382   0.465   6.734   0.055
  495SOL     OW 2383   5.304   6.069   3.249
  495SOL    HW1 2384   5.259   6.088   3.162
  495SOL    HW2 2385   5.360   5.986   3.241
  496SOL     OW 2386   5.144   3.531   2.914
  496SOL    HW1 2387   5.172   3.461   2.848
  496SOL    HW2 2388   5.091   3.601   2.866
  497SOL     OW 2389   3.459   1.560   5.686
  497SOL    HW1 2390   3.426   1.609   5.605
  497SOL    HW2 2391   3.416   1.469   5.690
  498SOL     OW 2392   1.780   4.165   1.925
  498SOL    HW1 2393   1.761   4.167   2.023
  498SOL    HW2 2394   1.877   4.180   1.909
  499SOL     OW 2395   2.972   0.546   4.184
  499SOL    HW1 2396   2.933   0.511   4.269
  499SOL    HW2 2397   2.973   0.646   4.186
  500SOL     OW 2398   0.959   4.078   2.935
  500SOL    HW1 2399   0.959   4.114   2.841
  500SOL    HW2 2400   1.005   3.990   2.937
  501SOL     OW 2401   3.276   0.471   0.512
  501SOL    HW1 2402   3.190   0.472   0.562
  501SOL    HW2 2403   3.297   0.564   0.481
  502SOL     OW 2404   6.260   4.417   6.538
  502SOL    HW1 2405   6.196   4.358   6.587
  502SOL    HW2 2406   6.346   4.368   6.525
  503SOL     OW 2407   5.578   5.626   6.078
  503SOL    HW1 2408   5.675   5.613   6.098
  503SOL    HW2 2409   5.536   5.683   6.149
  504SOL     OW 2410   2.893   6.212   3.553
  504SOL    HW1 2411   2.846   6.288   3.508
  504SOL    HW2 2412   2.920   6.144   3.484
  505SOL     OW 2413   3.625   0.349   5.991
  505SOL    HW1 2414   3.652   0.433   6.038
  505SOL    HW2 2415   3.525   0.343   5.986
  506SOL     OW 2416   1.823   5.315   4.688
  506SOL    HW1 2417   1.864   5.345   4.774
  506SOL    HW2 2418   1.770   5.390   4.648
  507SOL     OW 2419   3.884   0.310   4.307
  507SOL    HW1 2420   3.858   0.407   4.311
  507SOL    HW2 2421   3.983   0.302   4.294
  508SOL     OW 2422   6.451   4.092   3.107
  508SOL    HW1 2423   6.361   4.099   3.062
  508SOL    HW2 2424   6.513   4.158   3.065
  509SOL     OW 2425   2.918   1.222   1.501
  509SOL    HW1 2426   2.920   1.294   1.432
  509SOL    HW2 2427   3.011   1.190   1.520
  510SOL     OW 2428   6.630   5.095   5.999
  510SOL    HW1 2429   6.688   5.077   5.920
  510SOL    HW2 2430   6.536   5.065   5.980
  511SOL     OW 2431   0.219   6.414   6.938
  511SOL    HW1 2432   0.157   6.466   6.997
  511SOL    HW2 2433   0.307   6.401   6.985
  512SOL     OW 2434   0.259   3.292   0.344
  512SOL    HW1 2435   0.296   3.241   0.422
  512SOL    HW2 2436   0.295   3.253   0.259
  513SOL     OW 2437   6.002   6.373   3.043
  513SOL    HW1 2438   5.931   6.402   3.106
  513SOL    HW2 2439   5.960   6.333   2.961
  514SOL     OW 2440   6.428   2.432   4.094
  514SOL    HW1 2441   6.427   2.375   4.012
  514SOL    HW2 2442   6.500   2.501   4.086
  515SOL     OW 2443   1.992   0.112   6.158
  515SOL    HW1 2444   2.032   0.148   6.243
  515SOL    HW2 2445   2.060   0.056   6.110
  516SOL     OW 2446   2.649   4.568   1.723
  516SOL    HW1 2447   2.731   4.558   1.781
  516SOL    HW2 2448   2.569   4.583   1.781
  517SOL     OW 2449   5.024   6.183   2.161
  517SOL    HW1 2450   5.048   6.111   2.226
  517SOL    HW2 2451   4.957   6.147   2.095
  518SOL     OW 2452   3.081   2.147   2.019
  518SOL    HW1 2453   3.029   2.222   2.059
  518SOL    HW2 2454   3.090   2.162   1.920
  519SOL     OW 2455   0.018   0.856   4.625
  519SOL    HW1 2456   6.985   0.848   4.543
  519SOL    HW2 2457   0.002   0.777   4.685
  520SOL     OW 2458   5.876   4.739   6.627
  520SOL    HW1 2459   5.928   4.703   6.549
  520SOL    HW2 2460   5.857   4.836   6.612
  521SOL     OW 2461   6.126   2.722   6.547
  521SOL    HW1 2462   6.148   2.638   6.596
  521SOL    HW2 2463   6.179   2.726   6.462
  522SOL     OW 2464   4.003   2.992   5.270
  522SOL    HW1 2465   4.021   2.895   5.287
  522SOL    HW2 2466   4.086   3.045   5.291
  523SOL     OW 2467   0.341   4.865   3.445
  523SOL    HW1 2468   0.339   4.859   3.345
  523SOL    HW2 2469   0.257   4.908   3.477
  524SOL     OW 2470   2.309   1.092   6.676
  524SOL    HW1 2471   2.343   1.150   6.751
  524SOL    HW2 2472   2.252   1.147   6.615
  525SOL     OW 2473   2.813   3.326   6.445
  525SOL    HW1 2474   2.731   3.360   6.400
  525SOL    HW2 2475   2.825   3.229   6.424
  526SOL     OW 2476   2.782   6.940   5.111
  526SOL    HW1 2477   2.850   6.940   5.038
  526SOL    HW2 2478   2.819   6.986   5.192
  527SOL     OW 2479   5.772   3.061   6.394
  527SOL    HW1 2480   5.812   3.022   6.477
  527SOL    HW2 2481   5.845   3.102   6.338
  528SOL     OW 2482   1.278   1.929   3.815
  528SOL    HW1 2483   1.265   1.835   3.782
  528SOL    HW2 2484   1.348   1.974   3.760
  529SOL     OW 2485   0.298   5.716   4.551
  529SOL    HW1 2486   0.370   5.662   4.507
  529SOL    HW2 2487   0.268   5.670   4.635
  530SOL     OW 2488   2.716   2.923   5.354
  530SOL    HW1 2489   2.671   2.933   5.443
  530SOL    HW2 2490   2.656   2.959   5.282
  531SOL     OW 2491   0.248   0.902   1.584
  531SOL    HW1 2492   0.308   0.901   1.664
  531SOL    HW2 2493   0.278   0.975   1.522
  532SOL     OW 2494   0.517   2.945   6.172
  532SOL    HW1 2495   0.556   2.853   6.171
  532SOL    HW2 2496   0.538   2.991   6.086
  533SOL     OW 2497   4.856   5.581   4.146
  533SOL    HW1 2498   4.947   5.591   4.187
  533SOL    HW2 2499   4.788   5.567   4.218
  534SOL     OW 2500   5.218   5.080   3.626
  534SOL    HW1 2501   5.123   5.083   3.593
  534SOL    HW2 2502   5.268   5.158   3.590
  535SOL     OW 2503   1.048   4.188   4.601
  535SOL    HW1 2504   0.966   4.241   4.578
  535SOL    HW2 2505   1.129   4.247   4.594
  536SOL     OW 2506   6.893   4.985   2.171
  536SOL    HW1 2507   6.898   5.078   2.207
  536SOL    HW2 2508   6.808   4.942   2.203
  537SOL     OW 2509   2.198   6.323   3.869
  537SOL    HW1 2510   2.101   6.348   3.865
  537SOL    HW2 2511   2.233   6.339   3.961
  538SOL     OW 2512   1.919   5.927   3.850
  538SOL    HW1 2513   1.893   5.964   3.939
  538SOL    HW2 2514   1.917   6.000   3.782
  539SOL     OW 2515   0.559   5.911   0.246
  539SOL    HW1 2516   0.546   5.818   0.212
  539SOL    HW2 2517   0.523   5.976   0.178
  540SOL     OW 2518   0.563   1.545   1.852
  540SOL    HW1 2519   0.661   1.560   1.865
  540SOL    HW2 2520   0.544   1.531   1.755
  541SOL     OW 2521   2.671   6.425   4.393
  541SOL    HW1 2522   2.694   6.387   4.304
  541SOL    HW2 2523   2.707   6.365   4.465
  542SOL     OW 2524   6.646   6.742   0.027
  542SOL    HW1 2525   6.716   6.767   6.984
  542SOL    HW2 2526   6.605   6.825   0.065
  543SOL     OW 2527   0.399   5.031   5.408
  543SOL    HW1 2528   0.317   5.045   5.353
  543SOL    HW2 2529   0.388   5.076   5.497
  544SOL     OW 2530   1.505   4.556   0.949
  544SOL    HW1 2531   1.603   4.550   0.929
  544SOL    HW2 2532   1.487   4.519   1.040
  545SOL     OW 2533   3.852   1.541   3.158
  545SOL    HW1 2534   3.867   1.500   3.068
  545SOL    HW2 2535   3.755   1.534   3.182
  546SOL     OW 2536   1.676   3.255   1.497
  546SOL    HW1 2537   1.776   3.258   1.502
  546SOL    HW2 2538   1.638   3.307   1.574
  547SOL     OW 2539   2.484   1.518   6.768
  547SOL    HW1 2540   2.464   1.580   6.844
  547SOL    HW2 2541   2.555   1.454   6.796
  548SOL     OW 2542   3.737   3.100   2.827
  548SOL    HW1 2543   3.816   3.153   2.798
  548SOL    HW2 2544   3.681   3.155   2.889
  549SOL     OW 2545   4.447   3.807   1.685
  549SOL    HW1 2546   4.458   3.812   1.586
  549SOL    HW2 2547   4.351   3.787   1.707
  550SOL     OW 2548   6.989   3.368   3.201
  550SOL    HW1 2549   6.976   3.312   3.283
  550SOL    HW2 2550   0.040   3.434   3.217
  551SOL     OW 2551   0.179   1.604   0.887
  551SOL    HW1 2552   0.200   1.619   0.983
  551SOL    HW2 2553   0.261   1.574   0.839
  552SOL     OW 2554   3.939   5.553   0.979
  552SOL    HW1 2555   4.038   5.554   0.971
  552SOL    HW2 2556   3.912   5.496   1.056
  553SOL     OW 2557   1.792   6.344   3.047
  553SOL    HW1 2558   1.847   6.364   3.128
  553SOL    HW2 2559   1.842   6.281   2.987
  554SOL     OW 2560   5.268   0.272   6.386
  554SOL    HW1 2561   5.209   0.267   6.467
  554SOL    HW2 2562   5.249   0.195   6.326
  555SOL     OW 2563   2.255   5.501   4.193
  555SOL    HW1 2564   2.194   5.572   4.158
  555SOL    HW2 2565   2.314   5.540   4.264
  556SOL     OW 2566   6.243   2.168   4.474
  556SOL    HW1 2567   6.197   2.093   4.519
  556SOL    HW2 2568   6.195   2.254   4.493
  557SOL     OW 2569   0.260   5.650   6.633
  557SOL    HW1 2570   0.214   5.584   6.692
  557SOL    HW2 2571   0.234   5.635   6.538
  558SOL     OW 2572   4.065   3.749   4.999
  558SOL    HW1 2573   4.116   3.796   4.926
  558SOL    HW2 2574   4.012   3.674   4.959
  559SOL     OW 2575   6.392   6.213   6.436
  559SOL    HW1 2576   6.447   6.241   6.515
  559SOL    HW2 2577   6.313   6.274   6.427
  560SOL     OW 2578   3.835   6.398   0.767
  560SOL    HW1 2579   3.805   6.419   0.860
  560SOL    HW2 2580   3.915   6.453   0.745
  561SOL     OW 2581   6.053   0.159   6.298
  561SOL    HW1 2582   5.960   0.193   6.285
  561SOL    HW2 2583   6.065   0.072   6.250
  562SOL     OW 2584   4.705   0.816   6.398
  562SOL    HW1 2585   4.662   0.905   6.412
  562SOL    HW2 2586   4.722   0.801   6.301
  563SOL     OW 2587   3.014   6.838   3.483
  563SOL    HW1 2588   2.967   6.760   3.444
  563SOL    HW2 2589   3.005   6.836   3.583
  564SOL     OW 2590   2.075   2.289   5.978
  564SOL    HW1 2591   2.057   2.295   5.880
  564SOL    HW2 2592   2.104   2.378   6.012
  565SOL     OW 2593   4.726   3.109   5.348
  565SOL    HW1 2594   4.739   3.080   5.253
  565SOL    HW2 2595   4.739   3.030   5.409
  566SOL     OW 2596   4.501   4.495   3.755
  566SOL    HW1 2597   4.426   4.471   3.694
  566SOL    HW2 2598   4.563   4.559   3.709
  567SOL     OW 2599   3.225   3.494   4.018
  567SOL    HW1 2600   3.285   3.426   4.059
  567SOL    HW2 2601   3.276   3.579   4.004
  568SOL     OW 2602   3.553   2.308   1.234
  568SOL    HW1 2603   3.648   2.313   1.202
  568SOL    HW2 2604   3.502   2.386   1.199
  569SOL     OW 2605   1.483   3.103   0.556
  569SOL    HW1 2606   1.561   3.050   0.524
  569SOL    HW2 2607   1.399   3.065   0.518
  570SOL     OW 2608   1.081   6.561   7.007
  570SOL    HW1 2609   1.138   6.558   6.926
  570SOL    HW2 2610   0.985   6.550   6.981
  571SOL     OW 2611   3.142   6.174   2.537
  571SOL    HW1 2612   3.073   6.102   2.542
  571SOL    HW2 2613   3.111   6.253   2.589
  572SOL     OW 2614   2.521   4.439   5.859
  572SOL    HW1 2615   2.554   4.506   5.792
  572SOL    HW2 2616   2.426   4.458   5.882
  573SOL     OW 2617   3.266   1.601   5.230
  573SOL    HW1 2618   3.238   1.601   5.134
  573SOL    HW2 2619   3.200   1.548   5.283
  574SOL     OW 2620   2.144   2.391   4.557
  574SOL    HW1 2621   2.083   2.327   4.510
  574SOL    HW2 2622   2.176   2.460   4.492
  575SOL     OW 2623   6.027   3.863   0.228
  575SOL    HW1 2624   6.116   3.822   0.208
  575SOL    HW2 2625   5.986   3.816   0.306
  576SOL     OW 2626   1.180   2.086   1.913
  576SOL    HW1 2627   1.195   1.987   1.910
  576SOL    HW2 2628   1.098   2.109   1.860
  577SOL     OW 2629   2.426   1.419   3.504
  577SOL    HW1 2630   2.362   1.429   3.580
  577SOL    HW2 2631   2.447   1.322   3.492
  578SOL     OW 2632   6.908   3.402   3.698
  578SOL    HW1 2633   6.826   3.455   3.680
  578SOL    HW2 2634   6.915   3.384   3.796
  579SOL     OW 2635   3.866   2.037   1.278
  579SOL    HW1 2636   3.829   1.945   1.287
  579SOL    HW2 2637   3.834   2.094   1.353
  580SOL     OW 2638   0.736   4.784   5.894
  580SOL    HW1 2639   0.814   4.746   5.943
  580SOL    HW2 2640   0.653   4.773   5.949
  581SOL     OW 2641   3.855   2.938   3.149
  581SOL    HW1 2642   3.913   2.959   3.071
  581SOL    HW2 2643   3.763   2.916   3.116
  582SOL     OW 2644   5.889   4.018   2.175
  582SOL    HW1 2645   5.899   3.964   2.091
  582SOL    HW2 2646   5.792   4.032   2.194
  583SOL     OW 2647   2.630   4.618   0.228
  583SOL    HW1 2648   2.551   4.618   0.167
  583SOL    HW2 2649   2.614   4.681   0.303
  584SOL     OW 2650   0.140   4.872   5.515
  584SOL    HW1 2651   0.041   4.861   5.512
  584SOL    HW2 2652   0.168   4.893   5.609
  585SOL     OW 2653   6.771   2.872   6.195
  585SOL    HW1 2654   6.813   2.951   6.150
  585SOL    HW2 2655   6.837   2.797   6.198
  586SOL     OW 2656   3.111   6.635   0.251
  586SOL    HW1 2657   3.027   6.584   0.271
  586SOL    HW2 2658   3.171   6.634   0.331
  587SOL     OW 2659   2.020   1.912   4.998
  587SOL    HW1 2660   1.935   1.926   4.946
  587SOL    HW2 2661   2.000   1.914   5.096
  588SOL     OW 2662   3.562   0.050   1.281
  588SOL    HW1 2663   3.486   0.058   1.217
  588SOL    HW2 2664   3.648   0.064   1.232
  589SOL     OW 2665   3.839   5.009   1.736
  589SOL    HW1 2666   3.833   5.091   1.678
  589SOL    HW2 2667   3.899   4.942   1.692
  590SOL     OW 2668   0.338   2.454   2.484
  590SOL    HW1 2669   0.369   2.509   2.407
  590SOL    HW2 2670   0.275   2.383   2.451
  591SOL     OW 2671   4.196   0.269   3.504
  591SOL    HW1 2672   4.202   0.261   3.405
  591SOL    HW2 2673   4.128   0.204   3.539
  592SOL     OW 2674   4.896   1.229   0.435
  592SOL    HW1 2675   4.967   1.259   0.500
  592SOL    HW2 2676   4.847   1.309   0.400
  593SOL     OW 2677   4.305   2.319   3.873
  593SOL    HW1 2678   4.226   2.331   3.813
  593SOL    HW2 2679   4.323   2.221   3.885
  594SOL     OW 2680   4.421   2.930   6.504
  594SOL    HW1 2681   4.497   2.873   6.471
  594SOL    HW2 2682   4.335   2.882   6.490
  595SOL     OW 2683   4.383   6.823   4.430
  595SOL    HW1 2684   4.310   6.884   4.458
  595SOL    HW2 2685   4.464   6.838   4.487
  596SOL     OW 2686   1.084   3.695   2.306
  596SOL    HW1 2687   1.080   3.777   2.248
  596SOL    HW2 2688   1.003   3.639   2.289
  597SOL     OW 2689   4.050   6.779   6.874
  597SOL    HW1 2690   4.080   6.802   6.781
  597SOL    HW2 2691   3.951   6.767   6.875
  598SOL     OW 2692   4.236   4.740   0.561
  598SOL    HW1 2693   4.265   4.677   0.633
  598SOL    HW2 2694   4.214   4.829   0.601
  599SOL     OW 2695   0.438   0.300   2.298
  599SOL    HW1 2696   0.405   0.206   2.303
  599SOL    HW2 2697   0.461   0.322   2.203
  600SOL     OW 2698   0.928   6.493   0.951
  600SOL    HW1 2699   1.007   6.432   0.953
  600SOL    HW2 2700   0.959   6.587   0.936
  601SOL     OW 2701   3.201   5.861   3.675
  601SOL    HW1 2702   3.275   5.840   3.739
  601SOL    HW2 2703   3.147   5.779   3.657
  602SOL     OW 2704   1.069   0.543   0.253
  602SOL    HW1 2705   1.021   0.533   0.166
  602SOL    HW2 2706   1.130   0.465   0.267
  603SOL     OW 2707   4.003   1.810   3.404
  603SOL    HW1 2708   4.046   1.784   3.491
  603SOL    HW2 2709   3.946   1.735   3.372
  604SOL     OW 2710   1.227   2.886   7.012
  604SOL    HW1 2711   1.216   2.831   6.929
  604SOL    HW2 2712   1.307   2.854   0.040
  605SOL     OW 2713   7.008   6.075   3.368
  605SOL    HW1 2714   7.004   5.977   3.391
  605SOL    HW2 2715   6.920   6.105   3.332
  606SOL     OW 2716   4.630   0.871   4.865
  606SOL    HW1 2717   4.539   0.910   4.859
  606SOL    HW2 2718   4.671   0.895   4.953
  607SOL     OW 2719   5.791   1.250   3.918
  607SOL    HW1 2720   5.772   1.328   3.858
  607SOL    HW2 2721   5.862   1.275   3.983
  608SOL     OW 2722   2.990   0.185   1.147
  608SOL    HW1 2723   2.989   0.124   1.067
  608SOL    HW2 2724   2.952   0.274   1.121
  609SOL     OW 2725   3.258   2.968   4.686
  609SOL    HW1 2726   3.319   2.899   4.725
  609SOL    HW2 2727   3.242   2.946   4.590
  610SOL     OW 2728   5.558   2.356   3.583
  610SOL    HW1 2729   5.516   2.374   3.493
  610SOL    HW2 2730   5.488   2.320   3.645
  611SOL     OW 2731   0.377   0.501   6.959
  611SOL    HW1 2732   0.412   0.594   6.947
  611SOL    HW2 2733   0.375   0.455   6.871
  612SOL     OW 2734   3.694   5.524   6.000
  612SOL    HW1 2735   3.612   5.482   5.960
  612SOL    HW2 2736   3.775   5.493   5.951
  613SOL     OW 2737   4.242   1.406   5.700
  613SOL    HW1 2738   4.338   1.401   5.727
  613SOL    HW2 2739   4.230   1.366   5.609
  614SOL     OW 2740   5.819   5.096   0.744
  614SOL    HW1 2741   5.913   5.071   0.766
  614SOL    HW2 2742   5.796   5.062   0.653
  615SOL     OW 2743   0.779   0.250   6.763
  615SOL    HW1 2744   0.707   0.259   6.832
  615SOL    HW2 2745   0.738   0.259   6.672
  616SOL     OW 2746   5.778   1.967   4.368
  616SOL    HW1 2747   5.721   1.955   4.287
  616SOL    HW2 2748   5.845   1.892   4.374
  617SOL     OW 2749   0.255   4.500   5.820
  617SOL    HW1 2750   0.183   4.436   5.846
  617SOL    HW2 2751   0.225   4.555   5.743
  618SOL     OW 2752   6.391   3.311   1.622
  618SOL    HW1 2753   6.321   3.304   1.551
  618SOL    HW2 2754   6.359   3.373   1.694
  619SOL     OW 2755   2.900   0.698   0.151
  619SOL    HW1 2756   2.955   0.781   0.155
  619SOL    HW2 2757   2.841   0.701   0.070
  620SOL     OW 2758   5.674   3.711   2.120
  620SOL    HW1 2759   5.611   3.720   2.043
  620SOL    HW2 2760   5.768   3.729   2.089
  621SOL     OW 2761   2.952   6.904   6.047
  621SOL    HW1 2762   2.930   6.806   6.041
  621SOL    HW2 2763   2.892   6.955   5.985
  622SOL     OW 2764   1.148   2.563   5.303
  622SOL    HW1 2765   1.061   2.602   5.334
  622SOL    HW2 2766   1.183   2.502   5.374
  623SOL     OW 2767   6.405   6.535   4.526
  623SOL    HW1 2768   6.472   6.577   4.464
  623SOL    HW2 2769   6.450   6.464   4.581
  624SOL     OW 2770   6.306   1.589   6.662
  624SOL    HW1 2771   6.238   1.647   6.706
  624SOL    HW2 2772   6.355   1.537   6.731
  625SOL     OW 2773   2.353   0.909   0.261
  625SOL    HW1 2774   2.334   1.007   0.266
  625SOL    HW2 2775   2.311   0.871   0.178
  626SOL     OW 2776   1.337   5.678   3.896
  626SOL    HW1 2777   1.418   5.664   3.838
  626SOL    HW2 2778   1.284   5.754   3.861
  627SOL     OW 2779   6.430   6.183   0.028
  627SOL    HW1 2780   6.390   6.185   6.959
  627SOL    HW2 2781   6.357   6.184   0.096
  628SOL     OW 2782   5.405   3.968   5.475
  628SOL    HW1 2783   5.395   3.906   5.553
  628SOL    HW2 2784   5.425   4.060   5.508
  629SOL     OW 2785   0.271   0.800   0.001
  629SOL    HW1 2786   0.352   0.841   6.983
  629SOL    HW2 2787   0.206   0.776   6.952
  630SOL     OW 2788   6.645   0.986   0.972
  630SOL    HW1 2789   6.549   1.004   0.955
  630SOL    HW2 2790   6.679   0.920   0.905
  631SOL     OW 2791   2.574   2.492   4.976
  631SOL    HW1 2792   2.545   2.587   4.991
  631SOL    HW2 2793   2.547   2.436   5.055
  632SOL     OW 2794   4.824   3.121   0.802
  632SOL    HW1 2795   4.781   3.170   0.726
  632SOL    HW2 2796   4.922   3.112   0.784
  633SOL     OW 2797   1.688   5.155   0.937
  633SOL    HW1 2798   1.618   5.118   0.877
  633SOL    HW2 2799   1.777   5.115   0.913
  634SOL     OW 2800   3.369   3.655   3.735
  634SOL    HW1 2801   3.323   3.730   3.689
  634SOL    HW2 2802   3.389   3.681   3.830
  635SOL     OW 2803   5.022   1.026   6.839
  635SOL    HW1 2804   4.927   1.009   6.865
  635SOL    HW2 2805   5.081   1.011   6.919
  636SOL     OW 2806   3.020   0.352   5.962
  636SOL    HW1 2807   3.053   0.411   5.888
  636SOL    HW2 2808   3.055   0.259   5.949
  637SOL     OW 2809   6.419   1.486   2.207
  637SOL    HW1 2810   6.481   1.446   2.275
  637SOL    HW2 2811   6.325   1.461   2.228
  638SOL     OW 2812   6.061   3.523   4.026
  638SOL    HW1 2813   6.075   3.582   3.946
  638SOL    HW2 2814   6.089   3.430   4.004
  639SOL     OW 2815   5.575   5.326   2.931
  639SOL    HW1 2816   5.483   5.334   2.969
  639SOL    HW2 2817   5.641   5.359   2.998
  640SOL     OW 2818   6.929   3.178   2.790
  640SOL    HW1 2819   6.964   3.103   2.735
  640SOL    HW2 2820   6.846   3.215   2.747
  641SOL     OW 2821   1.880   4.753   5.571
  641SOL    HW1 2822   1.868   4.684   5.499
  641SOL    HW2 2823   1.827   4.726   5.651
  642SOL     OW 2824   0.879   3.643   4.370
  642SOL    HW1 2825   0.907   3.654   4.465
  642SOL    HW2 2826   0.910   3.721   4.316
  643SOL     OW 2827   5.830   6.750   6.841
  643SOL    HW1 2828   5.824   6.700   6.928
  643SOL    HW2 2829   5.801   6.844   6.855
  644SOL     OW 2830   0.468   0.472   4.490
  644SOL    HW1 2831   0.554   0.521   4.480
  644SOL    HW2 2832   0.416   0.511   4.566
  645SOL     OW 2833   3.830   4.898   2.982
  645SOL    HW1 2834   3.819   4.903   2.883
  645SOL    HW2 2835   3.740   4.894   3.025
  646SOL     OW 2836   3.536   0.915   5.288
  646SOL    HW1 2837   3.578   0.907   5.198
  646SOL    HW2 2838   3.567   0.840   5.346
  647SOL     OW 2839   4.866   1.880   4.488
  647SOL    HW1 2840   4.816   1.826   4.420
  647SOL    HW2 2841   4.827   1.972   4.492
  648SOL     OW 2842   6.358   2.092   2.843
  648SOL    HW1 2843   6.380   2.006   2.797
  648SOL    HW2 2844   6.261   2.112   2.833
  649SOL     OW 2845   2.462   4.692   0.503
  649SOL    HW1 2846   2.503   4.606   0.533
  649SOL    HW2 2847   2.533   4.763   0.502
  650SOL     OW 2848   6.463   5.626   0.758
  650SOL    HW1 2849   6.400   5.700   0.735
  650SOL    HW2 2850   6.483   5.573   0.676
  651SOL     OW 2851   1.543   0.487   5.560
  651SOL    HW1 2852   1.624   0.490   5.502
  651SOL    HW2 2853   1.565   0.525   5.650
  652SOL     OW 2854   4.334   0.985   2.147
  652SOL    HW1 2855   4.385   1.056   2.099
  652SOL    HW2 2856   4.236   1.002   2.137
  653SOL     OW 2857   6.528   6.336   0.766
  653SOL    HW1 2858   6.540   6.245   0.806
  653SOL    HW2 2859   6.596   6.399   0.805
  654SOL     OW 2860   6.735   6.388   5.443
  654SOL    HW1 2861   6.643   6.365   5.410
  654SOL    HW2 2862   6.785   6.303   5.462
  655SOL     OW 2863   6.960   4.934   1.907
  655SOL    HW1 2864   6.956   5.023   1.861
  655SOL    HW2 2865   6.921   4.943   1.999
  656SOL     OW 2866   3.495   6.113   0.773
  656SOL    HW1 2867   3.474   6.211   0.768
  656SOL    HW2 2868   3.417   6.061   0.737
  657SOL     OW 2869   3.704   3.267   1.898
  657SOL    HW1 2870   3.689   3.205   1.975
  657SOL    HW2 2871   3.781   3.234   1.843
  658SOL     OW 2872   2.146   3.882   4.582
  658SOL    HW1 2873   2.105   3.862   4.671
  658SOL    HW2 2874   2.082   3.855   4.509
  659SOL     OW 2875   3.805   6.255   5.496
  659SOL    HW1 2876   3.815   6.177   5.557
  659SOL    HW2 2877   3.719   6.303   5.516
  660SOL     OW 2878   5.018   4.579   2.546
  660SOL    HW1 2879   5.045   4.489   2.582
  660SOL    HW2 2880   4.927   4.601   2.579
  661SOL     OW 2881   5.087   4.370   4.219
  661SOL    HW1 2882   5.107   4.272   4.231
  661SOL    HW2 2883   5.009   4.380   4.157
  662SOL     OW 2884   4.540   2.479   6.529
  662SOL    HW1 2885   4.546   2.449   6.434
  662SOL    HW2 2886   4.455   2.530   6.542
  663SOL     OW 2887   6.917   4.513   0.016
  663SOL    HW1 2888   7.007   4.554   7.021
  663SOL    HW2 2889   6.856   4.531   6.962
  664SOL     OW 2890   1.719   5.765   6.079
  664SOL    HW1 2891   1.691   5.850   6.035
  664SOL    HW2 2892   1.785   5.718   6.020
  665SOL     OW 2893   3.766   5.464   1.549
  665SOL    HW1 2894   3.798   5.371   1.537
  665SOL    HW2 2895   3.666   5.465   1.549
  666SOL     OW 2896   3.687   1.925   0.334
  666SOL    HW1 2897   3.766   1.892   0.385
  666SOL    HW2 2898   3.625   1.974   0.396
  667SOL     OW 2899   0.234   2.810   4.073
  667SOL    HW1 2900   0.206   2.756   4.153
  667SOL    HW2 2901   0.197   2.769   3.990
  668SOL     OW 2902   4.640   6.468   0.090
  668SOL    HW1 2903   4.572   6.402   0.057
  668SOL    HW2 2904   4.614   6.560   0.060
  669SOL     OW 2905   1.179   6.840   3.026
  669SOL    HW1 2906   1.112   6.894   3.078
  669SOL    HW2 2907   1.133   6.796   2.949
  670SOL     OW 2908   3.366   3.474   2.626
  670SOL    HW1 2909   3.303   3.452   2.551
  670SOL    HW2 2910   3.390   3.571   2.622
  671SOL     OW 2911   1.586   6.034   5.982
  671SOL    HW1 2912   1.591   6.131   5.959
  671SOL    HW2 2913   1.507   5.993   5.937
  672SOL     OW 2914   0.925   2.868   4.481
  672SOL    HW1 2915   0.844   2.927   4.477
  672SOL    HW2 2916   0.937   2.835   4.575
  673SOL     OW 2917   4.742   0.693   7.012
  673SOL    HW1 2918   4.704   0.758   6.946
  673SOL    HW2 2919   4.749   0.738   0.079
  674SOL     OW 2920   0.417   3.032   4.022
  674SOL    HW1 2921   0.455   3.033   4.115
  674SOL    HW2 2922   0.328   2.986   4.023
  675SOL     OW 2923   0.529   2.335   4.622
  675SOL    HW1 2924   0.598   2.269   4.592
  675SOL    HW2 2925   0.482   2.300   4.703
  676SOL     OW 2926   3.023   4.869   4.578
  676SOL    HW1 2927   2.955   4.815   4.529
  676SOL    HW2 2928   3.002   4.868   4.676
  677SOL     OW 2929   6.425   0.440   0.516
  677SOL    HW1 2930   6.499   0.439   0.449
  677SOL    HW2 2931   6.458   0.408   0.604
  678SOL     OW 2932   2.622   1.043   5.639
  678SOL    HW1 2933   2.566   1.076   5.563
  678SOL    HW2 2934   2.716   1.029   5.607
  679SOL     OW 2935   3.662   1.303   3.369
  679SOL    HW1 2936   3.737   1.337   3.425
  679SOL    HW2 2937   3.611   1.379   3.330
  680SOL     OW 2938   5.929   4.181   5.936
  680SOL    HW1 2939   5.991   4.125   5.990
  680SOL    HW2 2940   5.847   4.128   5.914
  681SOL     OW 2941   6.729   6.208   1.056
  681SOL    HW1 2942   6.640   6.163   1.043
  681SOL    HW2 2943   6.748   6.267   0.978
  682SOL     OW 2944   2.066   6.755   0.256
  682SOL    HW1 2945   2.063   6.724   0.161
  682SOL    HW2 2946   2.011   6.838   0.266
  683SOL     OW 2947   4.059   1.353   5.902
  683SOL    HW1 2948   3.978   1.337   5.846
  683SOL    HW2 2949   4.119   1.417   5.855
  684SOL     OW 2950   0.327   0.054   6.501
  684SOL    HW1 2951   0.232   0.024   6.512
  684SOL    HW2 2952   0.333   0.114   6.421
  685SOL     OW 2953   4.793   0.161   6.296
  685SOL    HW1 2954   4.733   0.158   6.216
  685SOL    HW2 2955   4.746   0.204   6.372
  686SOL     OW 2956   5.326   3.011   3.356
  686SOL    HW1 2957   5.247   3.070   3.340
  686SOL    HW2 2958   5.325   2.935   3.290
  687SOL     OW 2959   6.824   3.432   6.535
  687SOL    HW1 2960   6.725   3.422   6.544
  687SOL    HW2 2961   6.846   3.466   6.443
  688SOL     OW 2962   1.883   3.667   7.006
  688SOL    HW1 2963   1.916   3.636   0.072
  688SOL    HW2 2964   1.790   3.633   6.992
  689SOL     OW 2965   0.648   4.446   6.204
  689SOL    HW1 2966   0.575   4.417   6.141
  689SOL    HW2 2967   0.733   4.460   6.153
  690SOL     OW 2968   0.999   1.995   3.826
  690SOL    HW1 2969   1.034   1.987   3.919
  690SOL    HW2 2970   1.066   1.957   3.762
  691SOL     OW 2971   1.288   2.413   6.020
  691SOL    HW1 2972   1.221   2.487   6.016
  691SOL    HW2 2973   1.379   2.451   6.034
  692SOL     OW 2974   2.746   0.018   3.504
  692SOL    HW1 2975   2.676   6.971   3.496
  692SOL    HW2 2976   2.832   7.007   3.467
  693SOL     OW 2977   6.635   1.829   2.539
  693SOL    HW1 2978   6.652   1.797   2.446
  693SOL    HW2 2979   6.638   1.929   2.540
  694SOL     OW 2980   3.505   5.665   1.194
  694SOL    HW1 2981   3.446   5.739   1.228
  694SOL    HW2 2982   3.549   5.695   1.109
  695SOL     OW 2983   5.179   5.445   4.843
  695SOL    HW1 2984   5.237   5.520   4.874
  695SOL    HW2 2985   5.089   5.453   4.887
  696SOL     OW 2986   3.209   5.228   2.479
  696SOL    HW1 2987   3.172   5.283   2.405
  696SOL    HW2 2988   3.171   5.136   2.474
  697SOL     OW 2989   1.121   3.232   5.056
  697SOL    HW1 2990   1.117   3.328   5.026
  697SOL    HW2 2991   1.212   3.214   5.093
  698SOL     OW 2992   4.887   0.370   3.897
  698SOL    HW1 2993   4.928   0.421   3.822
  698SOL    HW2 2994   4.788   0.361   3.882
  699SOL     OW 2995   1.546   4.840   0.698
  699SOL    HW1 2996   1.520   4.935   0.719
  699SOL    HW2 2997   1.645   4.831   0.703
  700SOL     OW 2998   2.712   2.341   3.976
  700SOL    HW1 2999   2.671   2.424   3.939
  700SOL    HW2 3000   2.659   2.261   3.948
  701SOL     OW 3001   1.453   4.389   0.332
  701SOL    HW1 3002   1.441   4.294   0.361
  701SOL    HW2 3003   1.480   4.445   0.410
  702SOL     OW 3004   5.337   6.688   5.139
  702SOL    HW1 3005   5.400   6.621   5.101
  702SOL    HW2 3006   5.281   6.727   5.065
  703SOL     OW 3007   4.528   3.364   6.625
  703SOL    HW1 3008   4.593   3.344   6.698
  703SOL    HW2 3009   4.512   3.462   6.620
  704SOL     OW 3010   0.931   1.166   6.041
  704SOL    HW1 3011   0.904   1.086   5.986
  704SOL    HW2 3012   1.019   1.148   6.084
  705SOL     OW 3013   4.795   0.726   3.772
  705SOL    HW1 3014   4.848   0.692   3.850
  705SOL    HW2 3015   4.700   0.738   3.799
  706SOL     OW 3016   3.597   1.774   4.126
  706SOL    HW1 3017   3.534   1.828   4.183
  706SOL    HW2 3018   3.657   1.836   4.075
  707SOL     OW 3019   4.754   0.271   1.635
  707SOL    HW1 3020   4.763   0.189   1.579
  707SOL    HW2 3021   4.694   0.336   1.589
  708SOL     OW 3022   4.715   0.185   1.155
  708SOL    HW1 3023   4.636   0.183   1.094
  708SOL    HW2 3024   4.795   0.216   1.104
  709SOL     OW 3025   1.189   4.884   1.186
  709SOL    HW1 3026   1.117   4.821   1.158
  709SOL    HW2 3027   1.261   4.887   1.116
  710SOL     OW 3028   3.570   4.124   2.466
  710SOL    HW1 3029   3.549   4.221   2.449
  710SOL    HW2 3030   3.561   4.105   2.564
  711SOL     OW 3031   6.749   2.701   5.300
  711SOL    HW1 3032   6.703   2.622   5.259
  711SOL    HW2 3033   6.832   2.670   5.347
  712SOL     OW 3034   1.084   3.586   0.930
  712SOL    HW1 3035   1.138   3.669   0.912
  712SOL    HW2 3036   1.024   3.602   1.008
  713SOL     OW 3037   3.760   3.554   2.130
  713SOL    HW1 3038   3.740   3.462   2.163
  713SOL    HW2 3039   3.758   3.555   2.030
  714SOL     OW 3040   5.584   4.524   5.309
  714SOL    HW1 3041   5.519   4.465   5.261
  714SOL    HW2 3042   5.602   4.487   5.400
  715SOL     OW 3043   4.403   5.879   6.855
  715SOL    HW1 3044   4.431   5.892   6.760
  715SOL    HW2 3045   4.326   5.815   6.859
  716SOL     OW 3046   0.639   5.049   1.461
  716SOL    HW1 3047   0.639   5.068   1.560
  716SOL    HW2 3048   0.642   5.135   1.411
  717SOL     OW 3049   5.926   4.621   0.121
  717SOL    HW1 3050   5.874   4.568   0.188
  717SOL    HW2 3051   5.971   4.697   0.166
  718SOL     OW 3052   4.037   2.538   5.920
  718SOL    HW1 3053   3.967   2.500   5.860
  718SOL    HW2 3054   4.119   2.560   5.866
  719SOL     OW 3055   7.020   3.043   1.429
  719SOL    HW1 3056   7.022   3.130   1.477
  719SOL    HW2 3057   6.946   2.986   1.465
  720SOL     OW 3058   2.473   1.646   5.132
  720SOL    HW1 3059   2.541   1.706   5.090
  720SOL    HW2 3060   2.382   1.685   5.118
  721SOL     OW 3061   1.333   0.711   5.219
  721SOL    HW1 3062   1.284   0.636   5.176
  721SOL    HW2 3063   1.291   0.798   5.193
  722SOL     OW 3064   4.366   6.636   4.915
  722SOL    HW1 3065   4.356   6.653   4.817
  722SOL    HW2 3066   4.424   6.706   4.956
  723SOL     OW 3067   2.394   2.579   2.339
  723SOL    HW1 3068   2.443   2.511   2.285
  723SOL    HW2 3069   2.451   2.660   2.353
  724SOL     OW 3070   0.688   1.759   5.431
  724SOL    HW1 3071   0.663   1.667   5.400
  724SOL    HW2 3072   0.647   1.827   5.370
  725SOL     OW 3073   2.989   5.202   2.013
  725SOL    HW1 3074   3.018   5.170   1.923
  725SOL    HW2 3075   3.070   5.226   2.067
  726SOL     OW 3076   3.080   4.765   6.435
  726SOL    HW1 3077   3.141   4.692   6.467
  726SOL    HW2 3078   2.988   4.750   6.471
  727SOL     OW 3079   3.576   5.854   4.230
  727SOL    HW1 3080   3.485   5.892   4.250
  727SOL    HW2 3081   3.646   5.917   4.263
  728SOL     OW 3082   6.861   4.015   5.350
  728SOL    HW1 3083   6.888   4.101   5.307
  728SOL    HW2 3084   6.936   3.949   5.342
  729SOL     OW 3085   1.603   0.769   0.389
  729SOL    HW1 3086   1.512   0.785   0.427
  729SOL    HW2 3087   1.659   0.851   0.402
  730SOL     OW 3088   5.939   0.752   3.050
  730SOL    HW1 3089   5.866   0.806   3.007
  730SOL    HW2 3090   5.950   0.666   3.001
  731SOL     OW 3091   5.722   2.947   5.096
  731SOL    HW1 3092   5.649   2.893   5.136
  731SOL    HW2 3093   5.684   3.027   5.049
  732SOL     OW 3094   0.470   2.574   1.516
  732SOL    HW1 3095   0.492   2.659   1.564
  732SOL    HW2 3096   0.542   2.554   1.450
  733SOL     OW 3097   5.053   3.951   3.918
  733SOL    HW1 3098   5.019   3.902   3.838
  733SOL    HW2 3099   5.097   4.036   3.888
  734SOL     OW 3100   0.600   4.766   1.757
  734SOL    HW1 3101   0.545   4.688   1.787
  734SOL    HW2 3102   0.563   4.802   1.672
  735SOL     OW 3103   2.108   3.479   0.722
  735SOL    HW1 3104   2.069   3.412   0.784
  735SOL    HW2 3105   2.184   3.526   0.767
  736SOL     OW 3106   6.449   6.662   2.586
  736SOL    HW1 3107   6.459   6.563   2.572
  736SOL    HW2 3108   6.365   6.694   2.542
  737SOL     OW 3109   4.905   3.777   1.572
  737SOL    HW1 3110   4.916   3.735   1.662
  737SOL    HW2 3111   4.994   3.783   1.527
  738SOL     OW 3112   0.847   4.694   4.065
  738SOL    HW1 3113   0.821   4.635   4.142
  738SOL    HW2 3114   0.944   4.684   4.047
  739SOL     OW 3115   4.564   6.759   6.109
  739SOL    HW1 3116   4.530   6.852   6.118
  739SOL    HW2 3117   4.652   6.759   6.061
  740SOL     OW 3118   5.683   0.471   1.023
  740SOL    HW1 3119   5.612   0.455   0.954
  740SOL    HW2 3120   5.641   0.482   1.113
  741SOL     OW 3121   1.522   5.909   3.331
  741SOL    HW1 3122   1.583   5.971   3.282
  741SOL    HW2 3123   1.429   5.946   3.331
  742SOL     OW 3124   2.096   6.663   3.420
  742SOL    HW1 3125   2.085   6.758   3.393
  742SOL    HW2 3126   2.191   6.645   3.444
  743SOL     OW 3127   1.361   3.961   4.063
  743SOL    HW1 3128   1.410   3.874   4.068
  743SOL    HW2 3129   1.358   3.993   3.968
  744SOL     OW 3130   0.096   6.308   6.711
  744SOL    HW1 3131   0.156   6.262   6.646
  744SOL    HW2 3132   0.152   6.355   6.780
  745SOL     OW 3133   0.806   5.428   4.343
  745SOL    HW1 3134   0.845   5.357   4.285
  745SOL    HW2 3135   0.760   5.386   4.421
  746SOL     OW 3136   0.278   6.599   5.388
  746SOL    HW1 3137   0.245   6.587   5.294
  746SOL    HW2 3138   0.239   6.683   5.426
  747SOL     OW 3139   4.470   4.990   3.859
  747SOL    HW1 3140   4.488   5.087   3.874
  747SOL    HW2 3141   4.540   4.935   3.906
  748SOL     OW 3142   4.566   4.828   1.433
  748SOL    HW1 3143   4.572   4.867   1.525
  748SOL    HW2 3144   4.516   4.741   1.437
  749SOL     OW 3145   0.407   2.879   5.074
  749SOL    HW1 3146   0.329   2.942   5.069
  749SOL    HW2 3147   0.480   2.921   5.127
  750SOL     OW 3148   2.954   3.318   0.484
  750SOL    HW1 3149   2.940   3.375   0.565
  750SOL    HW2 3150   3.038   3.265   0.495
  751SOL     OW 3151   4.175   2.218   0.085
  751SOL    HW1 3152   4.194   2.119   0.089
  751SOL    HW2 3153   4.226   2.265   0.157
  752SOL     OW 3154   4.449   2.490   1.768
  752SOL    HW1 3155   4.485   2.580   1.745
  752SOL    HW2 3156   4.470   2.425   1.695
  753SOL     OW 3157   1.741   3.197   4.795
  753SOL    HW1 3158   1.823   3.168   4.745
  753SOL    HW2 3159   1.668   3.129   4.782
  754SOL     OW 3160   5.562   3.727   6.520
  754SOL    HW1 3161   5.624   3.798   6.488
  754SOL    HW2 3162   5.605   3.677   6.595
  755SOL     OW 3163   1.050   5.639   6.970
  755SOL    HW1 3164   1.032   5.632   0.046
  755SOL    HW2 3165   1.038   5.550   6.928
  756SOL     OW 3166   5.027   0.770   1.921
  756SOL    HW1 3167   5.063   0.824   1.997
  756SOL    HW2 3168   5.078   0.792   1.838
  757SOL     OW 3169   0.771   6.310   3.374
  757SOL    HW1 3170   0.841   6.377   3.398
  757SOL    HW2 3171   0.682   6.356   3.371
  758SOL     OW 3172   3.666   1.531   1.621
  758SOL    HW1 3173   3.577   1.532   1.576
  758SOL    HW2 3174   3.679   1.618   1.669
  759SOL     OW 3175   7.003   1.184   0.343
  759SOL    HW1 3176   6.991   1.127   0.262
  759SOL    HW2 3177   6.983   1.130   0.425
  760SOL     OW 3178   5.170   1.541   6.347
  760SOL    HW1 3179   5.092   1.598   6.323
  760SOL    HW2 3180   5.137   1.460   6.396
  761SOL     OW 3181   5.816   3.697   0.067
  761SOL    HW1 3182   5.853   3.789   0.054
  761SOL    HW2 3183   5.774   3.665   7.005
  762SOL     OW 3184   1.968   5.977   3.418
  762SOL    HW1 3185   2.034   6.022   3.479
  762SOL    HW2 3186   1.960   5.881   3.443
  763SOL     OW 3187   4.085   5.636   6.954
  763SOL    HW1 3188   4.011   5.576   6.923
  763SOL    HW2 3189   4.172   5.589   6.946
  764SOL     OW 3190   3.074   1.252   3.540
  764SOL    HW1 3191   3.007   1.178   3.530
  764SOL    HW2 3192   3.100   1.260   3.636
  765SOL     OW 3193   0.978   6.411   1.196
  765SOL    HW1 3194   0.989   6.312   1.184
  765SOL    HW2 3195   0.968   6.454   1.106
  766SOL     OW 3196   6.918   1.108   6.768
  766SOL    HW1 3197   6.895   1.100   6.671
  766SOL    HW2 3198   6.966   1.194   6.784
  767SOL     OW 3199   1.168   6.641   1.983
  767SOL    HW1 3200   1.140   6.692   2.064
  767SOL    HW2 3201   1.101   6.656   1.910
  768SOL     OW 3202   2.120   0.523   2.726
  768SOL    HW1 3203   2.203   0.574   2.751
  768SOL    HW2 3204   2.062   0.513   2.807
  769SOL     OW 3205   3.081   0.200   4.446
  769SOL    HW1 3206   3.098   0.145   4.527
  769SOL    HW2 3207   3.092   0.144   4.364
  770SOL     OW 3208   2.769   5.566   3.369
  770SOL    HW1 3209   2.707   5.498   3.407
  770SOL    HW2 3210   2.812   5.530   3.286
  771SOL     OW 3211   1.732   5.511   2.629
  771SOL    HW1 3212   1.815   5.560   2.603
  771SOL    HW2 3213   1.735   5.419   2.590
  772SOL     OW 3214   6.670   4.820   0.550
  772SOL    HW1 3215   6.698   4.909   0.513
  772SOL    HW2 3216   6.720   4.802   0.634
  773SOL     OW 3217   6.968   3.052   3.605
  773SOL    HW1 3218   0.007   2.990   3.652
  773SOL    HW2 3219   6.907   3.095   3.671
  774SOL     OW 3220   1.919   2.027   1.827
  774SOL    HW1 3221   1.992   1.973   1.869
  774SOL    HW2 3222   1.830   1.990   1.856
  775SOL     OW 3223   1.464   2.076   3.694
  775SOL    HW1 3224   1.464   2.136   3.774
  775SOL    HW2 3225   1.450   2.131   3.611
  776SOL     OW 3226   0.538   0.159   6.025
  776SOL    HW1 3227   0.605   0.232   6.012
  776SOL    HW2 3228   0.585   0.071   6.023
  777SOL     OW 3229   3.670   0.715   1.051
  777SOL    HW1 3230   3.719   0.794   1.014
  777SOL    HW2 3231   3.623   0.668   0.978
  778SOL     OW 3232   4.113   0.899   3.866
  778SOL    HW1 3233   4.076   0.806   3.859
  778SOL    HW2 3234   4.060   0.951   3.933
  779SOL     OW 3235   0.414   1.768   1.922
  779SOL    HW1 3236   0.335   1.777   1.860
  779SOL    HW2 3237   0.448   1.674   1.918
  780SOL     OW 3238   5.699   2.992   4.446
  780SOL    HW1 3239   5.691   2.901   4.488
  780SOL    HW2 3240   5.796   3.012   4.429
  781SOL     OW 3241   5.958   1.437   5.949
  781SOL    HW1 3242   6.009   1.367   5.900
  781SOL    HW2 3243   5.920   1.503   5.883
  782SOL     OW 3244   1.063   3.786   0.687
  782SOL    HW1 3245   0.984   3.833   0.727
  782SOL    HW2 3246   1.140   3.791   0.751
  783SOL     OW 3247   3.264   5.075   0.173
  783SOL    HW1 3248   3.319   5.019   0.235
  783SOL    HW2 3249   3.317   5.096   0.091
  784SOL     OW 3250   4.561   0.713   5.175
  784SOL    HW1 3251   4.518   0.696   5.086
  784SOL    HW2 3252   4.629   0.786   5.166
  785SOL     OW 3253   6.375   1.848   2.661
  785SOL    HW1 3254   6.446   1.903   2.617
  785SOL    HW2 3255   6.368   1.760   2.615
  786SOL     OW 3256   0.307   0.367   0.182
  786SOL    HW1 3257   0.297   0.268   0.169
  786SOL    HW2 3258   0.339   0.409   0.097
  787SOL     OW 3259   2.859   1.225   6.174
  787SOL    HW1 3260   2.925   1.150   6.176
  787SOL    HW2 3261   2.885   1.291   6.103
  788SOL     OW 3262   1.756   3.005   4.278
  788SOL    HW1 3263   1.726   2.965   4.364
  788SOL    HW2 3264   1.745   3.104   4.280
  789SOL     OW 3265   6.596   4.105   2.217
  789SOL    HW1 3266   6.575   4.008   2.206
  789SOL    HW2 3267   6.689   4.123   2.185
  790SOL     OW 3268   2.298   1.468   4.168
  790SOL    HW1 3269   2.391   1.502   4.183
  790SOL    HW2 3270   2.282   1.459   4.069
  791SOL     OW 3271   4.117   0.304   4.174
  791SOL    HW1 3272   4.157   0.370   4.109
  791SOL    HW2 3273   4.182   0.230   4.189
  792SOL     OW 3274   6.108   0.067   1.466
  792SOL    HW1 3275   6.039   0.001   1.495
  792SOL    HW2 3276   6.174   0.082   1.539
  793SOL     OW 3277   4.656   6.204   1.908
  793SOL    HW1 3278   4.743   6.161   1.929
  793SOL    HW2 3279   4.612   6.234   1.993
  794SOL     OW 3280   2.564   5.039   5.401
  794SOL    HW1 3281   2.581   4.985   5.483
  794SOL    HW2 3282   2.465   5.045   5.385
  795SOL     OW 3283   3.151   5.161   5.794
  795SOL    HW1 3284   3.150   5.231   5.866
  795SOL    HW2 3285   3.224   5.095   5.813
  796SOL     OW 3286   0.207   2.096   5.982
  796SOL    HW1 3287   0.268   2.173   5.965
  796SOL    HW2 3288   0.228   2.055   6.071
  797SOL     OW 3289   4.839   2.527   2.444
  797SOL    HW1 3290   4.893   2.495   2.366
  797SOL    HW2 3291   4.840   2.458   2.516
  798SOL     OW 3292   4.420   0.469   0.981
  798SOL    HW1 3293   4.513   0.459   1.014
  798SOL    HW2 3294   4.357   0.421   1.043
  799SOL     OW 3295   6.730   1.888   3.515
  799SOL    HW1 3296   6.758   1.822   3.446
  799SOL    HW2 3297   6.631   1.903   3.509
  800SOL     OW 3298   5.453   0.548   2.509
  800SOL    HW1 3299   5.414   0.549   2.417
  800SOL    HW2 3300   5.457   0.642   2.545
  801SOL     OW 3301   1.260   2.856   3.285
  801SOL    HW1 3302   1.207   2.827   3.205
  801SOL    HW2 3303   1.263   2.781   3.351
  802SOL     OW 3304   4.768   1.432   0.263
  802SOL    HW1 3305   4.832   1.482   0.205
  802SOL    HW2 3306   4.736   1.350   0.214
  803SOL     OW 3307   5.960   6.470   4.541
  803SOL    HW1 3308   6.042   6.469   4.483
  803SOL    HW2 3309   5.938   6.376   4.568
  804SOL     OW 3310   6.438   6.510   0.186
  804SOL    HW1 3311   6.510   6.451   0.222
  804SOL    HW2 3312   6.442   6.511   0.086
  805SOL     OW 3313   4.726   2.904   5.504
  805SOL    HW1 3314   4.639   2.870   5.539
  805SOL    HW2 3315   4.801   2.860   5.552
  806SOL     OW 3316   3.776   1.687   5.247
  806SOL    HW1 3317   3.790   1.712   5.151
  806SOL    HW2 3318   3.745   1.592   5.253
  807SOL     OW 3319   1.296   0.937   3.643
  807SOL    HW1 3320   1.282   0.862   3.708
  807SOL    HW2 3321   1.388   0.931   3.604
  808SOL     OW 3322   4.928   3.522   6.080
  808SOL    HW1 3323   4.985   3.515   6.162
  808SOL    HW2 3324   4.853   3.587   6.097
  809SOL     OW 3325   1.325   4.831   0.944
  809SOL    HW1 3326   1.363   4.920   0.919
  809SOL    HW2 3327   1.392   4.760   0.924
  810SOL     OW 3328   4.506   3.127   0.801
  810SOL    HW1 3329   4.560   3.053   0.759
  810SOL    HW2 3330   4.431   3.153   0.740
  811SOL     OW 3331   4.410   5.854   3.762
  811SOL    HW1 3332   4.469   5.799   3.702
  811SOL    HW2 3333   4.432   5.950   3.749
  812SOL     OW 3334   6.663   0.780   1.196
  812SOL    HW1 3335   6.583   0.834   1.173
  812SOL    HW2 3336   6.695   0.805   1.287
  813SOL     OW 3337   4.117   6.085   3.125
  813SOL    HW1 3338   4.050   6.108   3.196
  813SOL    HW2 3339   4.074   6.025   3.058
  814SOL     OW 3340   5.352   6.572   2.857
  814SOL    HW1 3341   5.375   6.517   2.937
  814SOL    HW2 3342   5.291   6.646   2.884
  815SOL     OW 3343   6.179   2.560   2.051
  815SOL    HW1 3344   6.237   2.630   2.092
  815SOL    HW2 3345   6.229   2.513   1.978
  816SOL     OW 3346   6.639   6.393   0.356
  816SOL    HW1 3347   6.582   6.319   0.392
  816SOL    HW2 3348   6.704   6.423   0.425
  817SOL     OW 3349   1.804   4.414   2.307
  817SOL    HW1 3350   1.884   4.392   2.252
  817SOL    HW2 3351   1.829   4.480   2.377
  818SOL     OW 3352   6.344   3.198   0.399
  818SOL    HW1 3353   6.268   3.262   0.390
  818SOL    HW2 3354   6.343   3.135   0.322
  819SOL     OW 3355   6.319   2.916   4.619
  819SOL    HW1 3356   6.375   2.998   4.631
  819SOL    HW2 3357   6.267   2.924   4.534
  820SOL     OW 3358   1.254   2.945   5.232
  820SOL    HW1 3359   1.181   2.902   5.179
  820SOL    HW2 3360   1.294   3.020   5.179
  821SOL     OW 3361   2.236   4.817   0.607
  821SOL    HW1 3362   2.304   4.770   0.551
  821SOL    HW2 3363   2.270   4.908   0.632
  822SOL     OW 3364   1.012   4.920   4.645
  822SOL    HW1 3365   1.061   4.906   4.731
  822SOL    HW2 3366   1.005   5.018   4.626
  823SOL     OW 3367   4.960   4.280   6.696
  823SOL    HW1 3368   4.930   4.290   6.791
  823SOL    HW2 3369   4.882   4.251   6.640
  824SOL     OW 3370   4.841   1.352   4.979
  824SOL    HW1 3371   4.781   1.430   4.994
  824SOL    HW2 3372   4.827   1.284   5.052
  825SOL     OW 3373   2.070   2.889   2.467
  825SOL    HW1 3374   2.092   2.857   2.559
  825SOL    HW2 3375   2.115   2.830   2.400
  826SOL     OW 3376   5.964   4.193   0.694
  826SOL    HW1 3377   5.888   4.157   0.639
  826SOL    HW2 3378   5.938   4.194   0.790
  827SOL     OW 3379   3.351   5.632   5.909
  827SOL    HW1 3380   3.364   5.649   6.007
  827SOL    HW2 3381   3.268   5.579   5.895
  828SOL     OW 3382   5.754   0.686   4.894
  828SOL    HW1 3383   5.825   0.732   4.842
  828SOL    HW2 3384   5.684   0.752   4.922
  829SOL     OW 3385   2.943   3.461   4.007
  829SOL    HW1 3386   2.897   3.511   3.934
  829SOL    HW2 3387   3.041   3.473   3.999
  830SOL     OW 3388   5.257   4.769   5.628
  830SOL    HW1 3389   5.207   4.707   5.568
  830SOL    HW2 3390   5.317   4.716   5.688
  831SOL     OW 3391   6.819   6.341   4.633
  831SOL    HW1 3392   6.805   6.439   4.642
  831SOL    HW2 3393   6.913   6.318   4.656
  832SOL     OW 3394   2.299   1.176   0.225
  832SOL    HW1 3395   2.354   1.193   0.144
  832SOL    HW2 3396   2.338   1.225   0.303
  833SOL     OW 3397   6.408   6.111   6.103
  833SOL    HW1 3398   6.470   6.190   6.107
  833SOL    HW2 3399   6.360   6.103   6.190
  834SOL     OW 3400   3.720   3.578   2.969
  834SOL    HW1 3401   3.811   3.597   2.932
  834SOL    HW2 3402   3.653   3.634   2.920
  835SOL     OW 3403   4.071   0.039   3.620
  835SOL    HW1 3404   4.061   6.971   3.580
  835SOL    HW2 3405   3.987   0.091   3.605
  836SOL     OW 3406   3.701   6.527   6.877
  836SOL    HW1 3407   3.607   6.551   6.902
  836SOL    HW2 3408   3.719   6.432   6.902
  837SOL     OW 3409   5.208   0.641   0.166
  837SOL    HW1 3410   5.298   0.635   0.122
  837SOL    HW2 3411   5.220   0.673   0.260
  838SOL     OW 3412   0.653   0.001   5.242
  838SOL    HW1 3413   0.707   6.946   5.211
  838SOL    HW2 3414   0.597   0.035   5.166
  839SOL     OW 3415   2.641   1.651   3.357
  839SOL    HW1 3416   2.672   1.703   3.436
  839SOL    HW2 3417   2.546   1.674   3.336
  840SOL     OW 3418   0.313   1.074   6.381
  840SOL    HW1 3419   0.264   1.057   6.466
  840SOL    HW2 3420   0.249   1.102   6.310
  841SOL     OW 3421   5.867   3.979   0.043
  841SOL    HW1 3422   5.899   4.027   6.984
  841SOL    HW2 3423   5.946   3.954   0.100
  842SOL     OW 3424   3.956   5.406   3.655
  842SOL    HW1 3425   3.914   5.443   3.572
  842SOL    HW2 3426   3.982   5.482   3.715
  843SOL     OW 3427   6.022   2.562   0.155
  843SOL    HW1 3428   5.976   2.613   0.228
  843SOL    HW2 3429   6.033   2.466   0.182
  844SOL     OW 3430   4.823   6.080   0.821
  844SOL    HW1 3431   4.806   6.145   0.896
  844SOL    HW2 3432   4.757   6.005   0.826
  845SOL     OW 3433   6.337   2.925   5.557
  845SOL    HW1 3434   6.272   2.871   5.504
  845SOL    HW2 3435   6.417   2.869   5.579
  846SOL     OW 3436   6.046   1.579   7.004
  846SOL    HW1 3437   5.948   1.594   7.001
  846SOL    HW2 3438   6.093   1.651   6.952
  847SOL     OW 3439   5.993   3.543   0.990
  847SOL    HW1 3440   6.036   3.599   0.919
  847SOL    HW2 3441   6.025   3.449   0.983
  848SOL     OW 3442   6.229   0.793   6.310
  848SOL    HW1 3443   6.144   0.836   6.281
  848SOL    HW2 3444   6.229   0.780   6.409
  849SOL     OW 3445   0.259   5.887   5.170
  849SOL    HW1 3446   0.265   5.904   5.269
  849SOL    HW2 3447   0.351   5.870   5.135
  850SOL     OW 3448   4.614   0.588   3.540
  850SOL    HW1 3449   4.698   0.583   3.595
  850SOL    HW2 3450   4.638   0.598   3.444
  851SOL     OW 3451   0.294   1.526   6.814
  851SOL    HW1 3452   0.333   1.435   6.819
  851SOL    HW2 3453   0.271   1.557   6.907
  852SOL     OW 3454   2.271   2.410   6.795
  852SOL    HW1 3455   2.341   2.448   6.735
  852SOL    HW2 3456   2.303   2.325   6.836
  853SOL     OW 3457   0.738   3.190   3.036
  853SOL    HW1 3458   0.755   3.096   3.066
  853SOL    HW2 3459   0.823   3.228   2.999
  854SOL     OW 3460   5.521   6.746   2.733
  854SOL    HW1 3461   5.451   6.805   2.693
  854SOL    HW2 3462   5.477   6.673   2.785
  855SOL     OW 3463   5.581   0.360   1.806
  855SOL    HW1 3464   5.557   0.426   1.877
  855SOL    HW2 3465   5.680   0.364   1.789
  856SOL     OW 3466   1.595   0.649   5.151
  856SOL    HW1 3467   1.504   0.686   5.172
  856SOL    HW2 3468   1.660   0.725   5.140
  857SOL     OW 3469   6.029   4.595   1.133
  857SOL    HW1 3470   5.972   4.513   1.124
  857SOL    HW2 3471   6.081   4.590   1.219
  858SOL     OW 3472   2.752   4.872   1.933
  858SOL    HW1 3473   2.671   4.872   1.873
  858SOL    HW2 3474   2.767   4.780   1.968
  859SOL     OW 3475   5.488   4.812   6.533
  859SOL    HW1 3476   5.522   4.817   6.627
  859SOL    HW2 3477   5.461   4.904   6.503
  860SOL     OW 3478   3.699   4.251   6.718
  860SOL    HW1 3479   3.681   4.192   6.797
  860SOL    HW2 3480   3.797   4.264   6.707
  861SOL     OW 3481   3.100   6.745   5.015
  861SOL    HW1 3482   3.189   6.777   5.047
  861SOL    HW2 3483   3.113   6.672   4.948
  862SOL     OW 3484   6.155   4.461   5.136
  862SOL    HW1 3485   6.144   4.364   5.113
  862SOL    HW2 3486   6.208   4.506   5.064
  863SOL     OW 3487   0.904   0.317   0.707
  863SOL    HW1 3488   0.994   0.286   0.738
  863SOL    HW2 3489   0.834   0.256   0.744
  864SOL     OW 3490   5.073   4.158   3.396
  864SOL    HW1 3491   5.079   4.133   3.299
  864SOL    HW2 3492   5.029   4.084   3.447
  865SOL     OW 3493   1.148   6.842   4.182
  865SOL    HW1 3494   1.089   6.917   4.151
  865SOL    HW2 3495   1.095   6.757   4.183
  866SOL     OW 3496   2.670   1.349   2.242
  866SOL    HW1 3497   2.645   1.253   2.233
  866SOL    HW2 3498   2.588   1.406   2.234
  867SOL     OW 3499   3.083   2.781   0.128
  867SOL    HW1 3500   3.096   2.850   0.057
  867SOL    HW2 3501   3.169   2.732   0.144
  868SOL     OW 3502   5.864   0.227   2.428
  868SOL    HW1 3503   5.911   0.175   2.499
  868SOL    HW2 3504   5.930   0.285   2.380
  869SOL     OW 3505   6.623   5.838   2.514
  869SOL    HW1 3506   6.577   5.803   2.596
  869SOL    HW2 3507   6.722   5.840   2.530
  870SOL     OW 3508   0.122   3.048   1.706
  870SOL    HW1 3509   0.031   3.066   1.669
  870SOL    HW2 3510   0.160   3.132   1.743
  871SOL     OW 3511   6.996   2.719   2.140
  871SOL    HW1 3512   0.056   2.737   2.193
  871SOL    HW2 3513   6.917   2.722   2.200
  872SOL     OW 3514   6.261   2.593   4.553
  872SOL    HW1 3515   6.223   2.686   4.554
  872SOL    HW2 3516   6.354   2.596   4.516
  873SOL     OW 3517   3.840   0.122   3.093
  873SOL    HW1 3518   3.907   0.160   3.029
  873SOL    HW2 3519   3.853   0.164   3.183
  874SOL     OW 3520   1.946   4.546   5.389
  874SOL    HW1 3521   1.874   4.540   5.320
  874SOL    HW2 3522   2.033   4.518   5.347
  875SOL     OW 3523   5.397   4.353   0.820
  875SOL    HW1 3524   5.428   4.301   0.900
  875SOL    HW2 3525   5.378   4.447   0.846
  876SOL     OW 3526   6.660   3.611   2.556
  876SOL    HW1 3527   6.591   3.633   2.487
  876SOL    HW2 3528   6.615   3.577   2.639
  877SOL     OW 3529   5.112   5.164   0.282
  877SOL    HW1 3530   5.013   5.173   0.293
  877SOL    HW2 3531   5.145   5.093   0.344
  878SOL     OW 3532   3.454   5.157   6.839
  878SOL    HW1 3533   3.509   5.164   6.923
  878SOL    HW2 3534   3.418   5.063   6.832
  879SOL     OW 3535   4.839   1.985   2.588
  879SOL    HW1 3536   4.771   2.037   2.640
  879SOL    HW2 3537   4.794   1.944   2.508
  880SOL     OW 3538   3.802   4.511   0.326
  880SOL    HW1 3539   3.729   4.465   0.377
  880SOL    HW2 3540   3.789   4.497   0.228
  881SOL     OW 3541   4.206   4.758   4.398
  881SOL    HW1 3542   4.286   4.715   4.440
  881SOL    HW2 3543   4.129   4.694   4.401
  882SOL     OW 3544   1.342   0.667   4.477
  882SOL    HW1 3545   1.400   0.617   4.413
  882SOL    HW2 3546   1.288   0.735   4.426
  883SOL     OW 3547   3.648   4.911   6.050
  883SOL    HW1 3548   3.556   4.945   6.068
  883SOL    HW2 3549   3.705   4.923   6.132
  884SOL     OW 3550   6.406   3.606   1.584
  884SOL    HW1 3551   6.386   3.702   1.602
  884SOL    HW2 3552   6.358   3.549   1.651
  885SOL     OW 3553   5.578   6.455   0.329
  885SOL    HW1 3554   5.580   6.456   0.429
  885SOL    HW2 3555   5.494   6.499   0.298
  886SOL     OW 3556   3.770   0.994   6.721
  886SOL    HW1 3557   3.676   1.018   6.745
  886SOL    HW2 3558   3.773   0.901   6.685
  887SOL     OW 3559   4.178   0.334   6.562
  887SOL    HW1 3560   4.205   0.429   6.545
  887SOL    HW2 3561   4.107   0.308   6.497
  888SOL     OW 3562   0.146   6.547   3.650
  888SOL    HW1 3563   0.098   6.514   3.731
  888SOL    HW2 3564   0.206   6.475   3.615
  889SOL     OW 3565   0.029   6.180   5.426
  889SOL    HW1 3566   0.063   6.231   5.347
  889SOL    HW2 3567   6.952   6.174   5.422
  890SOL     OW 3568   2.762   4.698   2.263
  890SOL    HW1 3569   2.705   4.779   2.250
  890SOL    HW2 3570   2.767   4.647   2.177
  891SOL     OW 3571   5.657   2.943   1.347
  891SOL    HW1 3572   5.678   2.927   1.250
  891SOL    HW2 3573   5.741   2.965   1.396
  892SOL     OW 3574   2.564   3.980   0.751
  892SOL    HW1 3575   2.622   3.908   0.789
  892SOL    HW2 3576   2.469   3.961   0.773
  893SOL     OW 3577   1.314   0.643   6.926
  893SOL    HW1 3578   1.408   0.668   6.904
  893SOL    HW2 3579   1.296   0.663   7.022
  894SOL     OW 3580   1.039   5.411   4.085
  894SOL    HW1 3581   1.023   5.315   4.110
  894SOL    HW2 3582   1.007   5.427   3.991
  895SOL     OW 3583   2.026   0.083   4.752
  895SOL    HW1 3584   2.094   0.043   4.814
  895SOL    HW2 3585   2.023   0.030   4.667
  896SOL     OW 3586   6.204   6.243   3.733
  896SOL    HW1 3587   6.117   6.195   3.723
  896SOL    HW2 3588   6.188   6.338   3.758
  897SOL     OW 3589   5.396   2.632   6.830
  897SOL    HW1 3590   5.379   2.550   6.884
  897SOL    HW2 3591   5.437   2.703   6.887
  898SOL     OW 3592   4.913   6.282   3.670
  898SOL    HW1 3593   4.889   6.193   3.632
  898SOL    HW2 3594   4.921   6.274   3.770
  899SOL     OW 3595   0.574   4.978   6.611
  899SOL    HW1 3596   0.494   4.950   6.663
  899SOL    HW2 3597   0.651   4.918   6.632
  900SOL     OW 3598   0.624   6.128   3.119
  900SOL    HW1 3599   0.716   6.118   3.158
  900SOL    HW2 3600   0.586   6.037   3.100
  901SOL     OW 3601   6.465   1.087   4.375
  901SOL    HW1 3602   6.422   1.119   4.459
  901SOL    HW2 3603   6.432   0.995   4.354
  902SOL     OW 3604   6.883   0.489   6.086
  902SOL    HW1 3605   6.786   0.503   6.065
  902SOL    HW2 3606   6.906   0.393   6.070
  903SOL     OW 3607   0.160   4.209   0.826
  903SOL    HW1 3608   0.228   4.139   0.848
  903SOL    HW2 3609   0.192   4.298   0.859
  904SOL     OW 3610   1.646   0.903   3.287
  904SOL    HW1 3611   1.626   0.915   3.190
  904SOL    HW2 3612   1.669   0.993   3.327
  905SOL     OW 3613   5.169   2.275   6.019
  905SOL    HW1 3614   5.221   2.219   5.954
  905SOL    HW2 3615   5.186   2.371   6.001
  906SOL     OW 3616   0.203   4.453   6.337
  906SOL    HW1 3617   0.178   4.467   6.432
  906SOL    HW2 3618   0.120   4.439   6.282
  907SOL     OW 3619   6.174   2.416   2.703
  907SOL    HW1 3620   6.243   2.466   2.755
  907SOL    HW2 3621   6.155   2.329   2.749
  908SOL     OW 3622   1.887   6.878   4.135
  908SOL    HW1 3623   1.825   6.880   4.214
  908SOL    HW2 3624   1.946   6.797   4.142
  909SOL     OW 3625   2.983   0.800   1.060
  909SOL    HW1 3626   2.955   0.823   0.967
  909SOL    HW2 3627   2.903   0.790   1.118
  910SOL     OW 3628   1.535   0.934   0.161
  910SOL    HW1 3629   1.529   0.895   0.253
  910SOL    HW2 3630   1.443   0.945   0.123
  911SOL     OW 3631   0.871   4.530   1.536
  911SOL    HW1 3632   0.970   4.528   1.520
  911SOL    HW2 3633   0.832   4.441   1.514
  912SOL     OW 3634   0.300   1.692   5.818
  912SOL    HW1 3635   0.285   1.790   5.805
  912SOL    HW2 3636   0.344   1.655   5.736
  913SOL     OW 3637   2.480   0.797   3.176
  913SOL    HW1 3638   2.529   0.841   3.101
  913SOL    HW2 3639   2.448   0.867   3.240
  914SOL     OW 3640   2.813   5.868   3.999
  914SOL    HW1 3641   2.901   5.839   3.963
  914SOL    HW2 3642   2.799   5.965   3.980
  915SOL     OW 3643   0.644   3.003   0.111
  915SOL    HW1 3644   0.713   2.931   0.098
  915SOL    HW2 3645   0.690   3.091   0.122
  916SOL     OW 3646   2.565   2.087   2.892
  916SOL    HW1 3647   2.658   2.124   2.891
  916SOL    HW2 3648   2.543   2.050   2.802
  917SOL     OW 3649   3.836   1.008   1.299
  917SOL    HW1 3650   3.792   1.064   1.369
  917SOL    HW2 3651   3.808   1.040   1.209
  918SOL     OW 3652   2.711   6.006   6.166
  918SOL    HW1 3653   2.702   5.910   6.192
  918SOL    HW2 3654   2.678   6.019   6.073
  919SOL     OW 3655   1.316   5.292   1.585
  919SOL    HW1 3656   1.247   5.230   1.623
  919SOL    HW2 3657   1.378   5.321   1.659
  920SOL     OW 3658   2.590   0.601   2.776
  920SOL    HW1 3659   2.559   0.696   2.773
  920SOL    HW2 3660   2.613   0.576   2.870
  921SOL     OW 3661   5.794   4.861   4.604
  921SOL    HW1 3662   5.800   4.923   4.527
  921SOL    HW2 3663   5.879   4.867   4.658
  922SOL     OW 3664   2.820   3.318   0.021
  922SOL    HW1 3665   2.740   3.265   7.017
  922SOL    HW2 3666   2.798   3.374   0.101
  923SOL     OW 3667   2.877   6.146   6.859
  923SOL    HW1 3668   2.860   6.215   6.930
  923SOL    HW2 3669   2.799   6.083   6.855
  924SOL     OW 3670   6.064   3.527   3.162
  924SOL    HW1 3671   6.090   3.444   3.212
  924SOL    HW2 3672   6.018   3.502   3.078
  925SOL     OW 3673   0.162   2.032   5.490
  925SOL    HW1 3674   0.248   2.051   5.537
  925SOL    HW2 3675   0.095   2.103   5.513
  926SOL     OW 3676   5.027   6.431   0.611
  926SOL    HW1 3677   5.022   6.406   0.515
  926SOL    HW2 3678   5.067   6.522   0.620
  927SOL     OW 3679   4.461   4.645   4.462
  927SOL    HW1 3680   4.474   4.602   4.551
  927SOL    HW2 3681   4.461   4.575   4.390
  928SOL     OW 3682   1.515   0.298   0.484
  928SOL    HW1 3683   1.552   0.219   0.436
  928SOL    HW2 3684   1.523   0.379   0.425
  929SOL     OW 3685   0.561   2.824   2.421
  929SOL    HW1 3686   0.645   2.854   2.466
  929SOL    HW2 3687   0.484   2.835   2.483
  930SOL     OW 3688   5.047   4.855   4.537
  930SOL    HW1 3689   5.132   4.806   4.556
  930SOL    HW2 3690   5.011   4.826   4.448
  931SOL     OW 3691   0.881   2.281   2.968
  931SOL    HW1 3692   0.795   2.283   2.918
  931SOL    HW2 3693   0.884   2.200   3.027
  932SOL     OW 3694   4.195   5.781   1.085
  932SOL    HW1 3695   4.154   5.801   1.174
  932SOL    HW2 3696   4.176   5.856   1.022
  933SOL     OW 3697   1.435   5.001   2.581
  933SOL    HW1 3698   1.456   5.045   2.493
  933SOL    HW2 3699   1.377   5.061   2.636
  934SOL     OW 3700   3.526   1.221   5.220
  934SOL    HW1 3701   3.562   1.205   5.312
  934SOL    HW2 3702   3.469   1.143   5.194
  935SOL     OW 3703   4.147   3.270   5.913
  935SOL    HW1 3704   4.203   3.334   5.862
  935SOL    HW2 3705   4.202   3.189   5.936
  936SOL     OW 3706   0.399   0.260   1.179
  936SOL    HW1 3707   0.308   0.296   1.197
  936SOL    HW2 3708   0.413   0.252   1.081
  937SOL     OW 3709   4.262   1.762   4.406
  937SOL    HW1 3710   4.216   1.751   4.494
  937SOL    HW2 3711   4.227   1.844   4.361
  938SOL     OW 3712   0.116   3.104   6.003
  938SOL    HW1 3713   0.056   3.124   5.926
  938SOL    HW2 3714   0.203   3.066   5.969
  939SOL     OW 3715   5.397   1.288   5.973
  939SOL    HW1 3716   5.431   1.209   6.025
  939SOL    HW2 3717   5.376   1.363   6.036
  940SOL     OW 3718   6.671   0.521   3.135
  940SOL    HW1 3719   6.717   0.502   3.222
  940SOL    HW2 3720   6.711   0.464   3.063
  941SOL     OW 3721   5.867   1.567   3.840
  941SOL    HW1 3722   5.831   1.571   3.933
  941SOL    HW2 3723   5.967   1.571   3.842
  942SOL     OW 3724   5.221   6.850   5.599
  942SOL    HW1 3725   5.280   6.881   5.524
  942SOL    HW2 3726   5.128   6.882   5.584
  943SOL     OW 3727   6.162   3.032   2.312
  943SOL    HW1 3728   6.217   2.951   2.332
  943SOL    HW2 3729   6.205   3.084   2.238
  944SOL     OW 3730   5.592   3.300   4.749
  944SOL    HW1 3731   5.684   3.338   4.750
  944SOL    HW2 3732   5.575   3.254   4.662
  945SOL     OW 3733   4.802   4.544   4.227
  945SOL    HW1 3734   4.703   4.558   4.227
  945SOL    HW2 3735   4.831   4.515   4.136
  946SOL     OW 3736   5.869   3.120   6.030
  946SOL    HW1 3737   5.863   3.029   5.989
  946SOL    HW2 3738   5.777   3.159   6.039
  947SOL     OW 3739   3.346   2.461   6.679
  947SOL    HW1 3740   3.325   2.387   6.615
  947SOL    HW2 3741   3.366   2.423   6.769
  948SOL     OW 3742   3.712   1.368   0.813
  948SOL    HW1 3743   3.794   1.392   0.864
  948SOL    HW2 3744   3.657   1.303   0.866
  949SOL     OW 3745   6.157   5.311   6.646
  949SOL    HW1 3746   6.064   5.332   6.673
  949SOL    HW2 3747   6.162   5.216   6.613
  950SOL     OW 3748   4.165   5.033   1.079
  950SOL    HW1 3749   4.189   4.946   1.036
  950SOL    HW2 3750   4.246   5.071   1.125
  951SOL     OW 3751   0.734   0.723   1.486
  951SOL    HW1 3752   0.806   0.661   1.515
  951SOL    HW2 3753   0.757   0.762   1.396
  952SOL     OW 3754   5.024   0.784   2.931
  952SOL    HW1 3755   5.108   0.796   2.985
  952SOL    HW2 3756   5.039   0.711   2.864
  953SOL     OW 3757   4.490   5.941   5.634
  953SOL    HW1 3758   4.548   5.955   5.715
  953SOL    HW2 3759   4.547   5.914   5.557
  954SOL     OW 3760   6.202   6.819   1.367
  954SOL    HW1 3761   6.167   6.910   1.347
  954SOL    HW2 3762   6.128   6.752   1.362
  955SOL     OW 3763   0.358   5.372   3.371
  955SOL    HW1 3764   0.416   5.364   3.452
  955SOL    HW2 3765   0.338   5.281   3.335
  956SOL     OW 3766   1.389   1.390   1.104
  956SOL    HW1 3767   1.419   1.347   1.190
  956SOL    HW2 3768   1.295   1.424   1.115
  957SOL     OW 3769   1.593   4.703   5.505
  957SOL    HW1 3770   1.617   4.659   5.419
  957SOL    HW2 3771   1.663   4.769   5.531
  958SOL     OW 3772   5.247   1.739   1.263
  958SOL    HW1 3773   5.267   1.836   1.251
  958SOL    HW2 3774   5.307   1.685   1.205
  959SOL     OW 3775   2.771   4.715   2.835
  959SOL    HW1 3776   2.686   4.718   2.781
  959SOL    HW2 3777   2.846   4.752   2.781
  960SOL     OW 3778   2.312   5.886   4.683
  960SOL    HW1 3779   2.353   5.813   4.738
  960SOL    HW2 3780   2.274   5.847   4.599
  961SOL     OW 3781   3.957   6.955   2.169
  961SOL    HW1 3782   3.983   6.958   2.073
  961SOL    HW2 3783   3.913   0.018   2.195
  962SOL     OW 3784   1.591   0.610   3.241
  962SOL    HW1 3785   1.586   0.709   3.243
  962SOL    HW2 3786   1.508   0.571   3.281
  963SOL     OW 3787   6.332   0.629   1.375
  963SOL    HW1 3788   6.354   0.555   1.438
  963SOL    HW2 3789   6.249   0.607   1.324
  964SOL     OW 3790   5.715   3.746   1.366
  964SOL    HW1 3791   5.662   3.760   1.450
  964SOL    HW2 3792   5.725   3.833   1.318
  965SOL     OW 3793   6.964   1.795   0.476
  965SOL    HW1 3794   6.872   1.830   0.461
  965SOL    HW2 3795   7.004   1.840   0.556
  966SOL     OW 3796   6.567   1.587   2.641
  966SOL    HW1 3797   6.638   1.522   2.614
  966SOL    HW2 3798   6.588   1.677   2.602
  967SOL     OW 3799   1.371   5.548   0.400
  967SOL    HW1 3800   1.348   5.620   0.334
  967SOL    HW2 3801   1.402   5.467   0.351
  968SOL     OW 3802   4.754   2.632   2.176
  968SOL    HW1 3803   4.736   2.666   2.083
  968SOL    HW2 3804   4.798   2.704   2.229
  969SOL     OW 3805   4.121   6.544   6.365
  969SOL    HW1 3806   4.210   6.583   6.342
  969SOL    HW2 3807   4.130   6.484   6.444
  970SOL     OW 3808   4.509   1.703   5.278
  970SOL    HW1 3809   4.477   1.655   5.197
  970SOL    HW2 3810   4.508   1.641   5.356
  971SOL     OW 3811   6.788   1.527   2.133
  971SOL    HW1 3812   6.764   1.494   2.042
  971SOL    HW2 3813   6.881   1.497   2.157
  972SOL     OW 3814   6.353   5.087   0.743
  972SOL    HW1 3815   6.361   5.101   0.842
  972SOL    HW2 3816   6.266   5.125   0.711
  973SOL     OW 3817   6.613   4.749   6.399
  973SOL    HW1 3818   6.544   4.684   6.365
  973SOL    HW2 3819   6.621   4.825   6.334
  974SOL     OW 3820   3.197   0.136   2.906
  974SOL    HW1 3821   3.287   0.164   2.873
  974SOL    HW2 3822   3.202   0.115   3.004
  975SOL     OW 3823   2.929   6.057   5.819
  975SOL    HW1 3824   3.017   6.031   5.859
  975SOL    HW2 3825   2.897   6.142   5.861
  976SOL     OW 3826   6.982   2.746   2.871
  976SOL    HW1 3827   6.940   2.824   2.826
  976SOL    HW2 3828   7.008   2.771   2.964
  977SOL     OW 3829   1.476   0.966   3.911
  977SOL    HW1 3830   1.507   0.871   3.913
  977SOL    HW2 3831   1.554   1.027   3.897
  978SOL     OW 3832   5.773   4.029   4.654
  978SOL    HW1 3833   5.865   4.050   4.620
  978SOL    HW2 3834   5.705   4.059   4.587
  979SOL     OW 3835   5.912   1.124   3.018
  979SOL    HW1 3836   5.845   1.138   3.090
  979SOL    HW2 3837   5.966   1.208   3.006
  980SOL     OW 3838   5.417   2.244   3.813
  980SOL    HW1 3839   5.363   2.325   3.836
  980SOL    HW2 3840   5.358   2.163   3.816
  981SOL     OW 3841   1.087   1.743   4.307
  981SOL    HW1 3842   1.032   1.824   4.287
  981SOL    HW2 3843   1.174   1.749   4.259
  982SOL     OW 3844   0.774   2.434   1.604
  982SOL    HW1 3845   0.853   2.379   1.575
  982SOL    HW2 3846   0.749   2.497   1.531
  983SOL     OW 3847   6.250   2.035   3.243
  983SOL    HW1 3848   6.226   2.026   3.147
  983SOL    HW2 3849   6.221   2.124   3.277
  984SOL     OW 3850   4.613   0.900   5.391
  984SOL    HW1 3851   4.546   0.973   5.374
  984SOL    HW2 3852   4.576   0.814   5.358
  985SOL     OW 3853   3.616   5.635   0.692
  985SOL    HW1 3854   3.633   5.662   0.597
  985SOL    HW2 3855   3.607   5.535   0.697
  986SOL     OW 3856   5.383   5.316   6.378
  986SOL    HW1 3857   5.406   5.257   6.300
  986SOL    HW2 3858   5.434   5.401   6.371
  987SOL     OW 3859   2.709   6.527   1.598
  987SOL    HW1 3860   2.658   6.592   1.655
  987SOL    HW2 3861   2.648   6.488   1.530
  988SOL     OW 3862   3.833   2.909   0.833
  988SOL    HW1 3863   3.801   2.912   0.739
  988SOL    HW2 3864   3.897   2.833   0.844
  989SOL     OW 3865   0.906   0.274   6.374
  989SOL    HW1 3866   0.995   0.269   6.328
  989SOL    HW2 3867   0.856   0.355   6.343
  990SOL     OW 3868   5.131   0.507   4.092
  990SOL    HW1 3869   5.032   0.512   4.107
  990SOL    HW2 3870   5.155   0.561   4.011
  991SOL     OW 3871   1.367   2.238   4.603
  991SOL    HW1 3872   1.372   2.338   4.607
  991SOL    HW2 3873   1.380   2.200   4.694
  992SOL     OW 3874   0.321   3.000   6.342
  992SOL    HW1 3875   0.230   2.988   6.305
  992SOL    HW2 3876   0.385   3.024   6.269
  993SOL     OW 3877   2.938   4.932   2.662
  993SOL    HW1 3878   2.937   5.017   2.714
  993SOL    HW2 3879   3.007   4.937   2.590
  994SOL     OW 3880   3.803   4.010   2.648
  994SOL    HW1 3881   3.812   3.925   2.699
  994SOL    HW2 3882   3.891   4.033   2.605
  995SOL     OW 3883   2.059   3.237   6.293
  995SOL    HW1 3884   1.983   3.297   6.267
  995SOL    HW2 3885   2.058   3.224   6.392
  996SOL     OW 3886   1.722   3.343   3.115
  996SOL    HW1 3887   1.703   3.422   3.174
  996SOL    HW2 3888   1.757   3.376   3.027
  997SOL     OW 3889   0.566   0.997   1.143
  997SOL    HW1 3890   0.557   1.054   1.225
  997SOL    HW2 3891   0.663   0.991   1.118
  998SOL     OW 3892   3.818   6.233   2.461
  998SOL    HW1 3893   3.724   6.205   2.441
  998SOL    HW2 3894   3.880   6.186   2.398
  999SOL     OW 3895   5.657   5.607   1.252
  999SOL    HW1 3896   5.716   5.640   1.326
  999SOL    HW2 3897   5.567   5.584   1.288
 1000SOL     OW 3898   2.060   1.933   2.916
 1000SOL    HW1 3899   2.086   2.009   2.857
 1000SOL    HW2 3900   2.112   1.851   2.889
 1001SOL     OW 3901   4.584   6.828   0.017
 1001SOL    HW1 3902   4.648   6.854   6.968
 1001SOL    HW2 3903   4.490   6.841   7.007
 1002SOL     OW 3904   5.612   1.748   6.616
 1002SOL    HW1 3905   5.577   1.773   6.706
 1002SOL    HW2 3906   5.597   1.651   6.600
 1003SOL     OW 3907   2.195   6.414   3.026
 1003SOL    HW1 3908   2.228   6.335   2.975
 1003SOL    HW2 3909   2.216   6.402   3.123
 1004SOL     OW 3910   6.820   0.065   6.685
 1004SOL    HW1 3911   6.875   0.067   6.601
 1004SOL    HW2 3912   6.870   0.114   6.757
 1005SOL     OW 3913   0.327   0.052   2.296
 1005SOL    HW1 3914   0.227   0.058   2.298
 1005SOL    HW2 3915   0.355   7.005   2.230
 1006SOL     OW 3916   2.332   5.129   1.822
 1006SOL    HW1 3917   2.309   5.037   1.854
 1006SOL    HW2 3918   2.303   5.139   1.727
 1007SOL     OW 3919   6.931   0.967   3.695
 1007SOL    HW1 3920   6.881   0.936   3.614
 1007SOL    HW2 3921   6.897   1.056   3.725
 1008SOL     OW 3922   0.909   2.484   3.823
 1008SOL    HW1 3923   0.989   2.543   3.806
 1008SOL    HW2 3924   0.875   2.501   3.916
 1009SOL     OW 3925   6.574   5.649   4.028
 1009SOL    HW1 3926   6.497   5.703   4.063
 1009SOL    HW2 3927   6.549   5.553   4.026
 1010SOL     OW 3928   3.963   1.981   6.993
 1010SOL    HW1 3929   3.954   1.982   0.069
 1010SOL    HW2 3930   3.946   2.073   6.957
 1011SOL     OW 3931   2.920   5.674   4.216
 1011SOL    HW1 3932   2.876   5.616   4.147
 1011SOL    HW2 3933   2.970   5.748   4.171
 1012SOL     OW 3934   6.671   5.150   0.981
 1012SOL    HW1 3935   6.652   5.248   0.966
 1012SOL    HW2 3936   6.718   5.138   1.068
 1013SOL     OW 3937   0.637   1.204   6.777
 1013SOL    HW1 3938   0.665   1.148   6.855
 1013SOL    HW2 3939   0.716   1.220   6.718
 1014SOL     OW 3940   4.922   5.572   6.105
 1014SOL    HW1 3941   4.876   5.565   6.193
 1014SOL    HW2 3942   4.855   5.577   6.031
 1015SOL     OW 3943   4.104   6.930   4.723
 1015SOL    HW1 3944   4.004   6.924   4.730
 1015SOL    HW2 3945   4.130   6.949   4.629
 1016SOL     OW 3946   3.039   2.948   1.435
 1016SOL    HW1 3947   3.123   2.905   1.466
 1016SOL    HW2 3948   2.973   2.877   1.409
 1017SOL     OW 3949   4.967   2.521   1.004
 1017SOL    HW1 3950   5.024   2.451   1.047
 1017SOL    HW2 3951   4.953   2.597   1.067
 1018SOL     OW 3952   1.782   3.161   4.014
 1018SOL    HW1 3953   1.848   3.090   3.989
 1018SOL    HW2 3954   1.700   3.150   3.958
 1019SOL     OW 3955   0.392   1.328   0.120
 1019SOL    HW1 3956   0.300   1.364   0.135
 1019SOL    HW2 3957   0.454   1.403   0.096
 1020SOL     OW 3958   1.704   0.270   0.876
 1020SOL    HW1 3959   1.785   0.275   0.933
 1020SOL    HW2 3960   1.691   0.176   0.844
 1021SOL     OW 3961   6.153   1.151   2.094
 1021SOL    HW1 3962   6.064   1.131   2.053
 1021SOL    HW2 3963   6.224   1.144   2.023
 1022SOL     OW 3964   4.425   4.000   6.204
 1022SOL    HW1 3965   4.396   4.096   6.199
 1022SOL    HW2 3966   4.396   3.961   6.291
 1023SOL     OW 3967   5.654   0.064   2.187
 1023SOL    HW1 3968   5.712   7.006   2.181
 1023SOL    HW2 3969   5.618   0.087   2.096
 1024SOL     OW 3970   6.488   2.062   4.131
 1024SOL    HW1 3971   6.486   2.157   4.098
 1024SOL    HW2 3972   6.582   2.035   4.149
 1025SOL     OW 3973   3.520   4.455   0.619
 1025SOL    HW1 3974   3.545   4.365   0.584
 1025SOL    HW2 3975   3.425   4.454   0.649
 1026SOL     OW 3976   1.774   1.181   0.784
 1026SOL    HW1 3977   1.737   1.241   0.854
 1026SOL    HW2 3978   1.699   1.136   0.735
 1027SOL     OW 3979   3.382   5.899   1.337
 1027SOL    HW1 3980   3.365   5.990   1.300
 1027SOL    HW2 3981   3.304   5.870   1.392
 1028SOL     OW 3982   2.283   6.360   0.066
 1028SOL    HW1 3983   2.283   6.280   0.127
 1028SOL    HW2 3984   2.269   6.443   0.120
 1029SOL     OW 3985   1.930   0.139   6.831
 1029SOL    HW1 3986   1.908   0.114   6.926
 1029SOL    HW2 3987   1.852   0.186   6.790
 1030SOL     OW 3988   3.637   2.852   4.541
 1030SOL    HW1 3989   3.603   2.815   4.627
 1030SOL    HW2 3990   3.560   2.864   4.478
 1031SOL     OW 3991   3.435   5.325   1.624
 1031SOL    HW1 3992   3.392   5.359   1.540
 1031SOL    HW2 3993   3.489   5.398   1.666
 1032SOL     OW 3994   2.321   1.128   5.568
 1032SOL    HW1 3995   2.298   1.179   5.485
 1032SOL    HW2 3996   2.397   1.173   5.615
 1033SOL     OW 3997   1.714   5.740   1.421
 1033SOL    HW1 3998   1.747   5.779   1.507
 1033SOL    HW2 3999   1.614   5.736   1.421
 1034SOL     OW 4000   2.103   6.254   4.173
 1034SOL    HW1 4001   2.190   6.289   4.138
 1034SOL    HW2 4002   2.121   6.178   4.235
 1035SOL     OW 4003   2.812   1.883   4.279
 1035SOL    HW1 4004   2.890   1.937   4.311
 1035SOL    HW2 4005   2.761   1.935   4.211
 1036SOL     OW 4006   3.861   0.903   0.965
 1036SOL    HW1 4007   3.894   0.996   0.950
 1036SOL    HW2 4008   3.938   0.839   0.966
 1037SOL     OW 4009   0.844   1.079   0.623
 1037SOL    HW1 4010   0.830   0.993   0.671
 1037SOL    HW2 4011   0.776   1.089   0.550
 1038SOL     OW 4012   0.923   1.442   5.693
 1038SOL    HW1 4013   0.875   1.359   5.719
 1038SOL    HW2 4014   0.933   1.445   5.593
 1039SOL     OW 4015   3.951   1.668   4.698
 1039SOL    HW1 4016   3.883   1.704   4.634
 1039SOL    HW2 4017   3.906   1.607   4.763
 1040SOL     OW 4018   5.821   3.449   3.369
 1040SOL    HW1 4019   5.788   3.516   3.303
 1040SOL    HW2 4020   5.828   3.360   3.324
 1041SOL     OW 4021   6.569   0.341   3.869
 1041SOL    HW1 4022   6.645   0.336   3.934
 1041SOL    HW2 4023   6.571   0.429   3.822
 1042SOL     OW 4024   4.578   5.028   1.643
 1042SOL    HW1 4025   4.585   5.079   1.729
 1042SOL    HW2 4026   4.518   5.077   1.580
 1043SOL     OW 4027   3.885   1.349   6.480
 1043SOL    HW1 4028   3.892   1.395   6.391
 1043SOL    HW2 4029   3.806   1.385   6.529
 1044SOL     OW 4030   3.427   2.247   1.472
 1044SOL    HW1 4031   3.505   2.216   1.527
 1044SOL    HW2 4032   3.460   2.284   1.385
 1045SOL     OW 4033   2.979   0.931   1.923
 1045SOL    HW1 4034   2.939   0.857   1.977
 1045SOL    HW2 4035   3.017   0.892   1.838
 1046SOL     OW 4036   2.571   6.521   0.045
 1046SOL    HW1 4037   2.506   6.465   7.017
 1046SOL    HW2 4038   2.625   6.576   7.005
 1047SOL     OW 4039   1.637   5.074   3.299
 1047SOL    HW1 4040   1.659   5.150   3.238
 1047SOL    HW2 4041   1.663   4.988   3.255
 1048SOL     OW 4042   5.204   5.259   5.280
 1048SOL    HW1 4043   5.139   5.208   5.224
 1048SOL    HW2 4044   5.194   5.233   5.376
 1049SOL     OW 4045   0.074   3.903   5.117
 1049SOL    HW1 4046   0.133   3.936   5.191
 1049SOL    HW2 4047   0.098   3.808   5.095
 1050SOL     OW 4048   3.870   6.941   0.110
 1050SOL    HW1 4049   3.956   6.942   0.162
 1050SOL    HW2 4050   3.888   6.971   0.017
 1051SOL     OW 4051   4.148   4.709   0.278
 1051SOL    HW1 4052   4.165   4.708   0.376
 1051SOL    HW2 4053   4.050   4.717   0.261
 1052SOL     OW 4054   3.969   0.571   4.778
 1052SOL    HW1 4055   3.927   0.629   4.848
 1052SOL    HW2 4056   3.917   0.581   4.693
 1053SOL     OW 4057   4.943   6.009   3.624
 1053SOL    HW1 4058   4.997   5.976   3.701
 1053SOL    HW2 4059   4.960   5.950   3.544
 1054SOL     OW 4060   2.902   4.873   5.559
 1054SOL    HW1 4061   2.811   4.912   5.576
 1054SOL    HW2 4062   2.906   4.780   5.596
 1055SOL     OW 4063   5.443   5.404   4.655
 1055SOL    HW1 4064   5.475   5.451   4.574
 1055SOL    HW2 4065   5.390   5.467   4.712
 1056SOL     OW 4066   1.408   6.449   5.167
 1056SOL    HW1 4067   1.362   6.538   5.171
 1056SOL    HW2 4068   1.444   6.434   5.075
 1057SOL     OW 4069   2.963   3.428   3.171
 1057SOL    HW1 4070   3.041   3.479   3.206
 1057SOL    HW2 4071   2.955   3.444   3.072
 1058SOL     OW 4072   4.219   1.680   2.247
 1058SOL    HW1 4073   4.181   1.616   2.181
 1058SOL    HW2 4074   4.277   1.746   2.199
 1059SOL     OW 4075   4.059   0.936   2.100
 1059SOL    HW1 4076   3.972   0.983   2.107
 1059SOL    HW2 4077   4.064   0.888   2.012
 1060SOL     OW 4078   0.286   3.679   5.855
 1060SOL    HW1 4079   0.311   3.719   5.943
 1060SOL    HW2 4080   0.369   3.647   5.809
 1061SOL     OW 4081   3.284   4.871   1.282
 1061SOL    HW1 4082   3.234   4.839   1.363
 1061SOL    HW2 4083   3.325   4.960   1.302
 1062SOL     OW 4084   6.842   5.699   5.302
 1062SOL    HW1 4085   6.765   5.728   5.245
 1062SOL    HW2 4086   6.922   5.754   5.279
 1063SOL     OW 4087   1.084   3.557   1.226
 1063SOL    HW1 4088   1.165   3.614   1.214
 1063SOL    HW2 4089   1.061   3.552   1.323
 1064SOL     OW 4090   1.567   3.089   2.367
 1064SOL    HW1 4091   1.548   3.172   2.315
 1064SOL    HW2 4092   1.485   3.034   2.374
 1065SOL     OW 4093   5.464   7.012   3.828
 1065SOL    HW1 4094   5.464   0.081   3.867
 1065SOL    HW2 4095   5.542   6.960   3.864
 1066SOL     OW 4096   5.258   0.644   4.298
 1066SOL    HW1 4097   5.209   0.599   4.372
 1066SOL    HW2 4098   5.223   0.611   4.210
 1067SOL     OW 4099   1.665   2.526   1.411
 1067SOL    HW1 4100   1.677   2.524   1.312
 1067SOL    HW2 4101   1.753   2.545   1.455
 1068SOL     OW 4102   0.436   3.700   1.947
 1068SOL    HW1 4103   0.405   3.772   1.885
 1068SOL    HW2 4104   0.360   3.673   2.006
 1069SOL     OW 4105   4.269   4.226   0.840
 1069SOL    HW1 4106   4.360   4.254   0.810
 1069SOL    HW2 4107   4.262   4.235   0.940
 1070SOL     OW 4108   2.067   0.626   0.236
 1070SOL    HW1 4109   2.038   0.656   0.327
 1070SOL    HW2 4110   2.116   0.540   0.244
 1071SOL     OW 4111   4.052   6.846   2.864
 1071SOL    HW1 4112   4.015   6.753   2.870
 1071SOL    HW2 4113   4.010   6.894   2.787
 1072SOL     OW 4114   2.829   6.327   2.416
 1072SOL    HW1 4115   2.774   6.282   2.486
 1072SOL    HW2 4116   2.838   6.266   2.337
 1073SOL     OW 4117   3.160   4.934   2.470
 1073SOL    HW1 4118   3.253   4.964   2.445
 1073SOL    HW2 4119   3.119   4.889   2.391
 1074SOL     OW 4120   1.596   5.216   1.988
 1074SOL    HW1 4121   1.653   5.243   2.066
 1074SOL    HW2 4122   1.629   5.129   1.951
 1075SOL     OW 4123   5.411   4.991   3.138
 1075SOL    HW1 4124   5.461   4.974   3.223
 1075SOL    HW2 4125   5.342   5.062   3.153
 1076SOL     OW 4126   0.883   4.614   4.943
 1076SOL    HW1 4127   0.832   4.676   4.884
 1076SOL    HW2 4128   0.940   4.553   4.887
 1077SOL     OW 4129   5.808   0.109   0.779
 1077SOL    HW1 4130   5.729   0.133   0.835
 1077SOL    HW2 4131   5.777   0.081   0.688
 1078SOL     OW 4132   1.516   1.586   1.805
 1078SOL    HW1 4133   1.542   1.562   1.898
 1078SOL    HW2 4134   1.472   1.508   1.760
 1079SOL     OW 4135   2.652   6.069   3.768
 1079SOL    HW1 4136   2.696   6.095   3.682
 1079SOL    HW2 4137   2.557   6.100   3.768
 1080SOL     OW 4138   2.566   5.790   3.745
 1080SOL    HW1 4139   2.628   5.868   3.756
 1080SOL    HW2 4140   2.608   5.709   3.785
 1081SOL     OW 4141   1.590   1.315   5.974
 1081SOL    HW1 4142   1.574   1.237   6.035
 1081SOL    HW2 4143   1.662   1.373   6.011
 1082SOL     OW 4144   1.562   0.219   5.469
 1082SOL    HW1 4145   1.546   0.305   5.517
 1082SOL    HW2 4146   1.609   0.155   5.529
 1083SOL     OW 4147   3.287   3.416   2.310
 1083SOL    HW1 4148   3.271   3.514   2.297
 1083SOL    HW2 4149   3.386   3.399   2.308
 1084SOL     OW 4150   5.907   5.257   1.093
 1084SOL    HW1 4151   5.914   5.170   1.144
 1084SOL    HW2 4152   5.975   5.258   1.020
 1085SOL     OW 4153   2.090   5.126   4.065
 1085SOL    HW1 4154   2.076   5.041   4.116
 1085SOL    HW2 4155   2.184   5.157   4.077
 1086SOL     OW 4156   5.584   5.447   3.537
 1086SOL    HW1 4157   5.541   5.530   3.502
 1086SOL    HW2 4158   5.648   5.410   3.470
 1087SOL     OW 4159   5.048   2.988   5.203
 1087SOL    HW1 4160   5.081   2.901   5.239
 1087SOL    HW2 4161   5.118   3.059   5.218
 1088SOL     OW 4162   4.935   4.567   3.217
 1088SOL    HW1 4163   5.003   4.504   3.179
 1088SOL    HW2 4164   4.850   4.517   3.235
 1089SOL     OW 4165   0.149   0.650   4.785
 1089SOL    HW1 4166   0.168   0.589   4.862
 1089SOL    HW2 4167   0.137   0.595   4.702
 1090SOL     OW 4168   2.258   1.297   5.374
 1090SOL    HW1 4169   2.180   1.291   5.312
 1090SOL    HW2 4170   2.280   1.393   5.391
 1091SOL     OW 4171   1.735   1.805   4.288
 1091SOL    HW1 4172   1.646   1.766   4.265
 1091SOL    HW2 4173   1.784   1.741   4.348
 1092SOL     OW 4174   2.115   4.021   1.202
 1092SOL    HW1 4175   2.088   4.027   1.298
 1092SOL    HW2 4176   2.123   4.113   1.164
 1093SOL     OW 4177   1.455   2.596   2.003
 1093SOL    HW1 4178   1.541   2.586   2.053
 1093SOL    HW2 4179   1.423   2.505   1.974
 1094SOL     OW 4180   0.332   6.647   1.655
 1094SOL    HW1 4181   0.315   6.607   1.745
 1094SOL    HW2 4182   0.429   6.638   1.633
 1095SOL     OW 4183   5.906   2.948   6.598
 1095SOL    HW1 4184   5.990   2.930   6.650
 1095SOL    HW2 4185   5.841   2.873   6.612
 1096SOL     OW 4186   3.402   5.099   1.043
 1096SOL    HW1 4187   3.348   5.075   0.963
 1096SOL    HW2 4188   3.492   5.054   1.037
 1097SOL     OW 4189   1.721   5.155   4.971
 1097SOL    HW1 4190   1.817   5.184   4.965
 1097SOL    HW2 4191   1.689   5.126   4.880
 1098SOL     OW 4192   4.776   2.014   0.960
 1098SOL    HW1 4193   4.853   1.951   0.968
 1098SOL    HW2 4194   4.782   2.083   1.032
 1099SOL     OW 4195   4.071   2.238   4.263
 1099SOL    HW1 4196   3.979   2.231   4.226
 1099SOL    HW2 4197   4.069   2.294   4.346
 1100SOL     OW 4198   1.197   1.105   6.087
 1100SOL    HW1 4199   1.291   1.136   6.069
 1100SOL    HW2 4200   1.184   1.094   6.185
 1101SOL     OW 4201   5.397   3.418   1.035
 1101SOL    HW1 4202   5.369   3.386   0.944
 1101SOL    HW2 4203   5.472   3.483   1.026
 1102SOL     OW 4204   0.475   4.584   4.104
 1102SOL    HW1 4205   0.517   4.552   4.189
 1102SOL    HW2 4206   0.519   4.540   4.026
 1103SOL     OW 4207   1.417   1.821   1.706
 1103SOL    HW1 4208   1.484   1.754   1.736
 1103SOL    HW2 4209   1.463   1.905   1.678
 1104SOL     OW 4210   2.508   4.668   6.376
 1104SOL    HW1 4211   2.437   4.636   6.438
 1104SOL    HW2 4212   2.515   4.606   6.298
 1105SOL     OW 4213   4.911   4.354   7.009
 1105SOL    HW1 4214   4.989   4.404   0.024
 1105SOL    HW2 4215   4.935   4.258   6.998
 1106SOL     OW 4216   6.758   2.510   6.111
 1106SOL    HW1 4217   6.719   2.551   6.028
 1106SOL    HW2 4218   6.734   2.413   6.114
 1107SOL     OW 4219   0.806   0.175   0.171
 1107SOL    HW1 4220   0.840   0.217   0.255
 1107SOL    HW2 4221   0.878   0.177   0.102
 1108SOL     OW 4222   2.540   1.181   6.144
 1108SOL    HW1 4223   2.463   1.118   6.130
 1108SOL    HW2 4224   2.614   1.132   6.190
 1109SOL     OW 4225   4.082   5.941   4.366
 1109SOL    HW1 4226   4.007   5.889   4.407
 1109SOL    HW2 4227   4.047   5.999   4.293
 1110SOL     OW 4228   2.858   2.805   1.659
 1110SOL    HW1 4229   2.850   2.891   1.710
 1110SOL    HW2 4230   2.955   2.778   1.655
 1111SOL     OW 4231   5.662   0.271   0.170
 1111SOL    HW1 4232   5.755   0.277   0.208
 1111SOL    HW2 4233   5.604   0.220   0.233
 1112SOL     OW 4234   6.112   0.405   2.334
 1112SOL    HW1 4235   6.186   0.471   2.351
 1112SOL    HW2 4236   6.147   0.329   2.279
 1113SOL     OW 4237   6.724   3.290   2.645
 1113SOL    HW1 4238   6.711   3.305   2.547
 1113SOL    HW2 4239   6.702   3.373   2.695
 1114SOL     OW 4240   4.919   0.486   6.465
 1114SOL    HW1 4241   4.922   0.544   6.546
 1114SOL    HW2 4242   4.826   0.487   6.427
 1115SOL     OW 4243   3.859   2.865   0.365
 1115SOL    HW1 4244   3.836   2.849   0.269
 1115SOL    HW2 4245   3.863   2.963   0.383
 1116SOL     OW 4246   4.822   5.775   3.964
 1116SOL    HW1 4247   4.750   5.730   3.912
 1116SOL    HW2 4248   4.852   5.716   4.038
 1117SOL     OW 4249   2.493   2.720   1.744
 1117SOL    HW1 4250   2.462   2.804   1.700
 1117SOL    HW2 4251   2.586   2.698   1.712
 1118SOL     OW 4252   2.293   5.127   2.762
 1118SOL    HW1 4253   2.310   5.173   2.675
 1118SOL    HW2 4254   2.348   5.170   2.834
 1119SOL     OW 4255   4.239   4.018   1.729
 1119SOL    HW1 4256   4.293   4.095   1.763
 1119SOL    HW2 4257   4.193   3.973   1.806
 1120SOL     OW 4258   5.431   0.182   6.602
 1120SOL    HW1 4259   5.354   0.200   6.540
 1120SOL    HW2 4260   5.413   0.099   6.654
 1121SOL     OW 4261   5.029   2.869   2.022
 1121SOL    HW1 4262   5.025   2.789   1.961
 1121SOL    HW2 4263   4.940   2.914   2.022
 1122SOL     OW 4264   5.809   3.161   6.776
 1122SOL    HW1 4265   5.763   3.083   6.820
 1122SOL    HW2 4266   5.752   3.196   6.702
 1123SOL     OW 4267   4.509   1.426   2.189
 1123SOL    HW1 4268   4.493   1.350   2.253
 1123SOL    HW2 4269   4.494   1.394   2.095
 1124SOL     OW 4270   6.881   3.617   5.617
 1124SOL    HW1 4271   6.898   3.587   5.523
 1124SOL    HW2 4272   6.790   3.657   5.624
 1125SOL     OW 4273   2.992   2.899   5.289
 1125SOL    HW1 4274   2.981   2.807   5.325
 1125SOL    HW2 4275   2.905   2.948   5.294
 1126SOL     OW 4276   4.590   0.335   0.341
 1126SOL    HW1 4277   4.526   0.328   0.418
 1126SOL    HW2 4278   4.558   0.404   0.277
 1127SOL     OW 4279   2.799   4.650   0.476
 1127SOL    HW1 4280   2.761   4.740   0.454
 1127SOL    HW2 4281   2.740   4.604   0.542
 1128SOL     OW 4282   3.894   2.085   3.717
 1128SOL    HW1 4283   3.983   2.126   3.697
 1128SOL    HW2 4284   3.832   2.155   3.753
 1129SOL     OW 4285   4.143   0.885   0.180
 1129SOL    HW1 4286   4.131   0.903   0.278
 1129SOL    HW2 4287   4.117   0.791   0.161
 1130SOL     OW 4288   1.573   4.054   0.754
 1130SOL    HW1 4289   1.561   4.102   0.840
 1130SOL    HW2 4290   1.566   3.956   0.769
 1131SOL     OW 4291   0.107   6.271   5.687
 1131SOL    HW1 4292   0.073   6.229   5.603
 1131SOL    HW2 4293   0.186   6.330   5.665
 1132SOL     OW 4294   5.014   6.950   5.973
 1132SOL    HW1 4295   4.996   0.020   6.003
 1132SOL    HW2 4296   4.963   6.930   5.889
 1133SOL     OW 4297   0.354   2.334   1.429
 1133SOL    HW1 4298   0.417   2.406   1.457
 1133SOL    HW2 4299   0.391   2.287   1.349
 1134SOL     OW 4300   5.630   2.651   0.058
 1134SOL    HW1 4301   5.601   2.557   0.073
 1134SOL    HW2 4302   5.710   2.671   0.114
 1135SOL     OW 4303   3.116   2.145   3.427
 1135SOL    HW1 4304   3.057   2.209   3.476
 1135SOL    HW2 4305   3.110   2.163   3.329
 1136SOL     OW 4306   2.677   5.812   3.474
 1136SOL    HW1 4307   2.705   5.724   3.434
 1136SOL    HW2 4308   2.622   5.796   3.556
 1137SOL     OW 4309   1.361   1.933   6.179
 1137SOL    HW1 4310   1.341   1.960   6.085
 1137SOL    HW2 4311   1.365   1.833   6.184
 1138SOL     OW 4312   2.447   3.620   6.019
 1138SOL    HW1 4313   2.495   3.535   6.037
 1138SOL    HW2 4314   2.450   3.640   5.921
 1139SOL     OW 4315   1.117   6.297   2.918
 1139SOL    HW1 4316   1.074   6.367   2.861
 1139SOL    HW2 4317   1.140   6.337   3.007
 1140SOL     OW 4318   3.610   1.597   3.230
 1140SOL    HW1 4319   3.511   1.599   3.213
 1140SOL    HW2 4320   3.628   1.615   3.326
 1141SOL     OW 4321   5.870   5.707   5.564
 1141SOL    HW1 4322   5.917   5.685   5.649
 1141SOL    HW2 4323   5.904   5.794   5.528
 1142SOL     OW 4324   5.544   0.547   4.287
 1142SOL    HW1 4325   5.596   0.608   4.228
 1142SOL    HW2 4326   5.446   0.562   4.273
 1143SOL     OW 4327   4.114   2.232   2.732
 1143SOL    HW1 4328   4.085   2.145   2.693
 1143SOL    HW2 4329   4.110   2.227   2.832
 1144SOL     OW 4330   0.329   4.046   4.046
 1144SOL    HW1 4331   0.369   4.134   4.022
 1144SOL    HW2 4332   0.390   3.998   4.110
 1145SOL     OW 4333   6.475   5.353   4.001
 1145SOL    HW1 4334   6.461   5.255   3.987
 1145SOL    HW2 4335   6.453   5.402   3.916
 1146SOL     OW 4336   6.008   2.445   0.883
 1146SOL    HW1 4337   6.082   2.508   0.905
 1146SOL    HW2 4338   5.947   2.436   0.962
 1147SOL     OW 4339   0.654   3.539   2.194
 1147SOL    HW1 4340   0.585   3.501   2.134
 1147SOL    HW2 4341   0.639   3.505   2.287
 1148SOL     OW 4342   3.575   6.129   6.259
 1148SOL    HW1 4343   3.607   6.222   6.273
 1148SOL    HW2 4344   3.652   6.069   6.239
 1149SOL     OW 4345   6.367   3.536   2.834
 1149SOL    HW1 4346   6.320   3.598   2.897
 1149SOL    HW2 4347   6.328   3.546   2.742
 1150SOL     OW 4348   2.067   4.986   1.034
 1150SOL    HW1 4349   2.040   5.038   1.116
 1150SOL    HW2 4350   2.023   5.025   0.954
 1151SOL     OW 4351   5.621   5.480   6.369
 1151SOL    HW1 4352   5.687   5.531   6.314
 1151SOL    HW2 4353   5.611   5.523   6.459
 1152SOL     OW 4354   1.077   7.005   4.924
 1152SOL    HW1 4355   1.152   0.026   4.876
 1152SOL    HW2 4356   1.027   0.050   4.978
 1153SOL     OW 4357   2.152   6.101   2.783
 1153SOL    HW1 4358   2.234   6.148   2.815
 1153SOL    HW2 4359   2.148   6.009   2.824
 1154SOL     OW 4360   0.579   3.810   2.190
 1154SOL    HW1 4361   0.518   3.809   2.110
 1154SOL    HW2 4362   0.616   3.718   2.204
 1155SOL     OW 4363   2.986   6.253   0.807
 1155SOL    HW1 4364   3.052   6.216   0.873
 1155SOL    HW2 4365   3.036   6.292   0.730
 1156SOL     OW 4366   2.578   0.880   3.639
 1156SOL    HW1 4367   2.540   0.834   3.558
 1156SOL    HW2 4368   2.537   0.842   3.722
 1157SOL     OW 4369   6.825   2.322   4.612
 1157SOL    HW1 4370   6.815   2.237   4.561
 1157SOL    HW2 4371   6.914   2.363   4.593
 1158SOL     OW 4372   5.787   4.616   6.263
 1158SOL    HW1 4373   5.800   4.528   6.218
 1158SOL    HW2 4374   5.801   4.605   6.362
 1159SOL     OW 4375   3.347   5.848   2.776
 1159SOL    HW1 4376   3.255   5.809   2.776
 1159SOL    HW2 4377   3.414   5.775   2.763
 1160SOL     OW 4378   3.899   3.713   2.432
 1160SOL    HW1 4379   3.925   3.685   2.524
 1160SOL    HW2 4380   3.979   3.713   2.373
 1161SOL     OW 4381   5.578   0.276   4.012
 1161SOL    HW1 4382   5.569   0.373   4.034
 1161SOL    HW2 4383   5.570   0.222   4.096
 1162SOL     OW 4384   3.127   3.431   1.859
 1162SOL    HW1 4385   3.216   3.399   1.891
 1162SOL    HW2 4386   3.060   3.421   1.933
 1163SOL     OW 4387   4.800   1.884   1.634
 1163SOL    HW1 4388   4.832   1.900   1.541
 1163SOL    HW2 4389   4.838   1.799   1.669
 1164SOL     OW 4390   5.476   3.277   2.747
 1164SOL    HW1 4391   5.387   3.321   2.756
 1164SOL    HW2 4392   5.477   3.191   2.798
 1165SOL     OW 4393   0.655   3.375   3.290
 1165SOL    HW1 4394   0.714   3.296   3.272
 1165SOL    HW2 4395   0.563   3.356   3.255
 1166SOL     OW 4396   4.196   2.167   6.184
 1166SOL    HW1 4397   4.114   2.217   6.156
 1166SOL    HW2 4398   4.178   2.120   6.270
 1167SOL     OW 4399   3.954   0.849   5.320
 1167SOL    HW1 4400   3.905   0.855   5.407
 1167SOL    HW2 4401   3.993   0.757   5.311
 1168SOL     OW 4402   6.958   6.271   3.000
 1168SOL    HW1 4403   7.017   6.191   3.009
 1168SOL    HW2 4404   7.008   6.353   3.029
 1169SOL     OW 4405   0.417   3.261   1.469
 1169SOL    HW1 4406   0.420   3.162   1.483
 1169SOL    HW2 4407   0.507   3.301   1.487
 1170SOL     OW 4408   3.683   1.289   2.910
 1170SOL    HW1 4409   3.674   1.248   2.820
 1170SOL    HW2 4410   3.660   1.221   2.980
 1171SOL     OW 4411   3.221   6.203   1.293
 1171SOL    HW1 4412   3.269   6.249   1.368
 1171SOL    HW2 4413   3.122   6.219   1.303
 1172SOL     OW 4414   3.687   3.728   3.995
 1172SOL    HW1 4415   3.776   3.769   4.012
 1172SOL    HW2 4416   3.663   3.668   4.071
 1173SOL     OW 4417   3.097   0.566   5.811
 1173SOL    HW1 4418   3.190   0.574   5.777
 1173SOL    HW2 4419   3.076   0.644   5.870
 1174SOL     OW 4420   2.525   5.715   0.560
 1174SOL    HW1 4421   2.492   5.764   0.641
 1174SOL    HW2 4422   2.453   5.714   0.491
 1175SOL     OW 4423   5.885   4.467   6.730
 1175SOL    HW1 4424   5.930   4.539   6.678
 1175SOL    HW2 4425   5.937   4.450   6.814
 1176SOL     OW 4426   5.371   4.621   0.981
 1176SOL    HW1 4427   5.411   4.700   1.028
 1176SOL    HW2 4428   5.367   4.640   0.883
 1177SOL     OW 4429   6.574   3.212   5.655
 1177SOL    HW1 4430   6.574   3.176   5.748
 1177SOL    HW2 4431   6.507   3.286   5.648
 1178SOL     OW 4432   5.487   3.594   2.272
 1178SOL    HW1 4433   5.561   3.655   2.247
 1178SOL    HW2 4434   5.424   3.585   2.195
 1179SOL     OW 4435   1.910   3.807   0.711
 1179SOL    HW1 4436   1.927   3.868   0.789
 1179SOL    HW2 4437   1.888   3.716   0.745
 1180SOL     OW 4438   2.114   1.384   3.717
 1180SOL    HW1 4439   2.119   1.323   3.639
 1180SOL    HW2 4440   2.019   1.411   3.732
 1181SOL     OW 4441   1.387   4.585   4.044
 1181SOL    HW1 4442   1.417   4.655   4.108
 1181SOL    HW2 4443   1.378   4.497   4.092
 1182SOL     OW 4444   2.225   4.115   3.698
 1182SOL    HW1 4445   2.283   4.183   3.653
 1182SOL    HW2 4446   2.253   4.107   3.794
 1183SOL     OW 4447   4.310   5.935   1.753
 1183SOL    HW1 4448   4.400   5.978   1.751
 1183SOL    HW2 4449   4.312   5.852   1.697
 1184SOL     OW 4450   3.277   2.844   5.188
 1184SOL    HW1 4451   3.188   2.850   5.233
 1184SOL    HW2 4452   3.264   2.850   5.089
 1185SOL     OW 4453   2.196   0.056   0.275
 1185SOL    HW1 4454   2.212   0.154   0.283
 1185SOL    HW2 4455   2.253   0.007   0.341
 1186SOL     OW 4456   6.231   0.545   4.791
 1186SOL    HW1 4457   6.267   0.452   4.781
 1186SOL    HW2 4458   6.132   0.540   4.808
 1187SOL     OW 4459   5.924   6.530   4.839
 1187SOL    HW1 4460   5.955   6.517   4.745
 1187SOL    HW2 4461   6.000   6.561   4.895
 1188SOL     OW 4462   2.068   6.482   5.860
 1188SOL    HW1 4463   2.043   6.419   5.934
 1188SOL    HW2 4464   2.085   6.573   5.898
 1189SOL     OW 4465   5.806   0.871   1.474
 1189SOL    HW1 4466   5.818   0.933   1.552
 1189SOL    HW2 4467   5.891   0.867   1.421
 1190SOL     OW 4468   3.780   5.202   3.700
 1190SOL    HW1 4469   3.839   5.280   3.678
 1190SOL    HW2 4470   3.836   5.120   3.711
 1191SOL     OW 4471   3.060   5.575   5.707
 1191SOL    HW1 4472   3.039   5.514   5.630
 1191SOL    HW2 4473   2.983   5.637   5.723
 1192SOL     OW 4474   5.818   5.081   3.083
 1192SOL    HW1 4475   5.806   5.143   3.160
 1192SOL    HW2 4476   5.886   5.119   3.020
 1193SOL     OW 4477   5.164   0.068   4.437
 1193SOL    HW1 4478   5.177   0.094   4.342
 1193SOL    HW2 4479   5.186   6.994   4.448
 1194SOL     OW 4480   6.188   0.058   0.888
 1194SOL    HW1 4481   6.237   0.056   0.974
 1194SOL    HW2 4482   6.196   0.148   0.846
 1195SOL     OW 4483   6.086   0.962   6.108
 1195SOL    HW1 4484   6.095   0.997   6.015
 1195SOL    HW2 4485   6.012   0.895   6.112
 1196SOL     OW 4486   0.072   4.821   2.677
 1196SOL    HW1 4487   0.136   4.834   2.600
 1196SOL    HW2 4488   0.091   4.734   2.721
 1197SOL     OW 4489   4.089   6.394   5.758
 1197SOL    HW1 4490   4.030   6.354   5.828
 1197SOL    HW2 4491   4.183   6.362   5.771
 1198SOL     OW 4492   3.511   2.085   3.129
 1198SOL    HW1 4493   3.557   2.057   3.213
 1198SOL    HW2 4494   3.433   2.143   3.152
 1199SOL     OW 4495   2.964   3.724   2.156
 1199SOL    HW1 4496   3.054   3.688   2.179
 1199SOL    HW2 4497   2.968   3.824   2.151
 1200SOL     OW 4498   4.699   4.179   5.832
 1200SOL    HW1 4499   4.669   4.235   5.910
 1200SOL    HW2 4500   4.656   4.089   5.838
 1201SOL     OW 4501   1.345   1.683   4.872
 1201SOL    HW1 4502   1.324   1.672   4.969
 1201SOL    HW2 4503   1.298   1.612   4.819
 1202SOL     OW 4504   5.416   0.284   5.442
 1202SOL    HW1 4505   5.502   0.288   5.391
 1202SOL    HW2 4506   5.423   0.217   5.516
 1203SOL     OW 4507   5.444   0.780   0.978
 1203SOL    HW1 4508   5.474   0.815   1.066
 1203SOL    HW2 4509   5.504   0.814   0.906
 1204SOL     OW 4510   3.460   1.266   0.528
 1204SOL    HW1 4511   3.486   1.171   0.543
 1204SOL    HW2 4512   3.433   1.307   0.616
 1205SOL     OW 4513   5.945   2.347   6.072
 1205SOL    HW1 4514   5.873   2.380   6.011
 1205SOL    HW2 4515   5.951   2.248   6.066
 1206SOL     OW 4516   1.536   1.440   4.643
 1206SOL    HW1 4517   1.611   1.493   4.682
 1206SOL    HW2 4518   1.478   1.500   4.589
 1207SOL     OW 4519   6.088   0.098   0.531
 1207SOL    HW1 4520   6.077   0.087   0.630
 1207SOL    HW2 4521   6.015   0.047   0.484
 1208SOL     OW 4522   3.345   3.459   2.919
 1208SOL    HW1 4523   3.312   3.431   2.829
 1208SOL    HW2 4524   3.332   3.557   2.930
 1209SOL     OW 4525   5.983   6.240   5.397
 1209SOL    HW1 4526   5.924   6.209   5.471
 1209SOL    HW2 4527   6.076   6.254   5.431
 1210SOL     OW 4528   3.740   0.035   2.703
 1210SOL    HW1 4529   3.826   7.020   2.669
 1210SOL    HW2 4530   3.681   0.059   2.625
 1211SOL     OW 4531   1.734   3.706   3.939
 1211SOL    HW1 4532   1.681   3.769   3.882
 1211SOL    HW2 4533   1.733   3.615   3.897
 1212SOL     OW 4534   1.205   3.838   4.792
 1212SOL    HW1 4535   1.269   3.905   4.754
 1212SOL    HW2 4536   1.180   3.865   4.885
 1213SOL     OW 4537   0.082   2.713   5.141
 1213SOL    HW1 4538   0.141   2.761   5.206
 1213SOL    HW2 4539   0.029   2.780   5.089
 1214SOL     OW 4540   1.683   3.476   4.736
 1214SOL    HW1 4541   1.724   3.479   4.645
 1214SOL    HW2 4542   1.701   3.388   4.778
 1215SOL     OW 4543   2.582   4.694   3.052
 1215SOL    HW1 4544   2.616   4.676   2.960
 1215SOL    HW2 4545   2.530   4.615   3.085
 1216SOL     OW 4546   1.348   6.727   1.592
 1216SOL    HW1 4547   1.382   6.802   1.650
 1216SOL    HW2 4548   1.267   6.757   1.542
 1217SOL     OW 4549   1.153   6.401   0.274
 1217SOL    HW1 4550   1.227   6.462   0.247
 1217SOL    HW2 4551   1.078   6.408   0.209
 1218SOL     OW 4552   0.431   3.625   4.885
 1218SOL    HW1 4553   0.491   3.704   4.868
 1218SOL    HW2 4554   0.471   3.568   4.957
 1219SOL     OW 4555   3.997   5.367   0.774
 1219SOL    HW1 4556   4.073   5.428   0.797
 1219SOL    HW2 4557   3.911   5.408   0.804
 1220SOL     OW 4558   5.584   2.685   2.714
 1220SOL    HW1 4559   5.587   2.780   2.682
 1220SOL    HW2 4560   5.620   2.681   2.808
 1221SOL     OW 4561   5.657   3.522   0.455
 1221SOL    HW1 4562   5.618   3.477   0.536
 1221SOL    HW2 4563   5.644   3.621   0.463
 1222SOL     OW 4564   6.850   6.430   0.542
 1222SOL    HW1 4565   6.829   6.524   0.569
 1222SOL    HW2 4566   6.941   6.406   0.577
 1223SOL     OW 4567   6.031   6.953   6.674
 1223SOL    HW1 4568   5.989   0.020   6.680
 1223SOL    HW2 4569   5.977   6.896   6.611
 1224SOL     OW 4570   4.134   5.769   0.476
 1224SOL    HW1 4571   4.147   5.712   0.557
 1224SOL    HW2 4572   4.056   5.735   0.424
 1225SOL     OW 4573   4.134   1.998   0.539
 1225SOL    HW1 4574   4.211   1.933   0.540
 1225SOL    HW2 4575   4.149   2.067   0.610
 1226SOL     OW 4576   6.176   6.388   1.146
 1226SOL    HW1 4577   6.259   6.406   1.095
 1226SOL    HW2 4578   6.194   6.321   1.217
 1227SOL     OW 4579   5.547   4.405   5.653
 1227SOL    HW1 4580   5.463   4.355   5.630
 1227SOL    HW2 4581   5.621   4.375   5.592
 1228SOL     OW 4582   3.950   3.044   2.126
 1228SOL    HW1 4583   4.042   3.082   2.137
 1228SOL    HW2 4584   3.942   3.002   2.035
 1229SOL     OW 4585   1.975   6.015   2.389
 1229SOL    HW1 4586   1.906   5.980   2.452
 1229SOL    HW2 4587   1.934   6.027   2.298
 1230SOL     OW 4588   5.162   5.103   2.441
 1230SOL    HW1 4589   5.111   5.017   2.441
 1230SOL    HW2 4590   5.217   5.109   2.525
 1231SOL     OW 4591   1.366   2.265   6.308
 1231SOL    HW1 4592   1.323   2.213   6.235
 1231SOL    HW2 4593   1.334   2.359   6.306
 1232SOL     OW 4594   3.291   0.577   5.218
 1232SOL    HW1 4595   3.226   0.504   5.197
 1232SOL    HW2 4596   3.330   0.612   5.133
 1233SOL     OW 4597   0.617   4.731   3.607
 1233SOL    HW1 4598   0.545   4.789   3.569
 1233SOL    HW2 4599   0.606   4.724   3.706
 1234SOL     OW 4600   0.025   3.469   6.703
 1234SOL    HW1 4601   6.987   3.434   6.632
 1234SOL    HW2 4602   7.012   3.444   6.793
 1235SOL     OW 4603   5.739   4.568   0.401
 1235SOL    HW1 4604   5.736   4.665   0.428
 1235SOL    HW2 4605   5.794   4.517   0.467
 1236SOL     OW 4606   2.311   0.817   0.510
 1236SOL    HW1 4607   2.367   0.873   0.571
 1236SOL    HW2 4608   2.318   0.854   0.417
 1237SOL     OW 4609   1.447   0.518   4.670
 1237SOL    HW1 4610   1.500   0.577   4.731
 1237SOL    HW2 4611   1.411   0.572   4.594
 1238SOL     OW 4612   0.427   0.163   3.453
 1238SOL    HW1 4613   0.435   0.125   3.361
 1238SOL    HW2 4614   0.465   0.099   3.519
 1239SOL     OW 4615   6.078   5.429   4.336
 1239SOL    HW1 4616   6.079   5.445   4.435
 1239SOL    HW2 4617   5.990   5.456   4.298
 1240SOL     OW 4618   5.893   5.425   2.801
 1240SOL    HW1 4619   5.806   5.453   2.760
 1240SOL    HW2 4620   5.906   5.475   2.887
 1241SOL     OW 4621   5.697   5.232   4.269
 1241SOL    HW1 4622   5.673   5.206   4.176
 1241SOL    HW2 4623   5.727   5.327   4.271
 1242SOL     OW 4624   1.581   3.328   0.376
 1242SOL    HW1 4625   1.548   3.266   0.304
 1242SOL    HW2 4626   1.634   3.402   0.334
 1243SOL     OW 4627   1.366   3.985   5.070
 1243SOL    HW1 4628   1.399   3.950   5.158
 1243SOL    HW2 4629   1.419   3.944   4.996
 1244SOL     OW 4630   5.911   0.022   5.135
 1244SOL    HW1 4631   5.947   0.064   5.053
 1244SOL    HW2 4632   5.937   0.076   5.215
 1245SOL     OW 4633   5.013   6.163   1.051
 1245SOL    HW1 4634   5.005   6.068   1.081
 1245SOL    HW2 4635   4.923   6.206   1.054
 1246SOL     OW 4636   4.642   1.556   0.873
 1246SOL    HW1 4637   4.662   1.514   0.785
 1246SOL    HW2 4638   4.566   1.508   0.917
 1247SOL     OW 4639   6.992   6.461   3.403
 1247SOL    HW1 4640   0.055   6.445   3.451
 1247SOL    HW2 4641   6.923   6.496   3.467
 1248SOL     OW 4642   0.107   0.194   4.763
 1248SOL    HW1 4643   0.184   0.253   4.786
 1248SOL    HW2 4644   0.045   0.188   4.842
 1249SOL     OW 4645   0.596   4.612   1.387
 1249SOL    HW1 4646   0.623   4.518   1.370
 1249SOL    HW2 4647   0.676   4.666   1.411
 1250SOL     OW 4648   5.679   3.164   5.359
 1250SOL    HW1 4649   5.616   3.099   5.402
 1250SOL    HW2 4650   5.750   3.190   5.425
 1251SOL     OW 4651   2.906   0.587   2.461
 1251SOL    HW1 4652   2.830   0.636   2.504
 1251SOL    HW2 4653   2.898   0.592   2.362
 1252SOL     OW 4654   2.441   5.882   6.798
 1252SOL    HW1 4655   2.436   5.886   6.698
 1252SOL    HW2 4656   2.534   5.907   6.827
 1253SOL     OW 4657   3.558   0.548   0.868
 1253SOL    HW1 4658   3.616   0.488   0.812
 1253SOL    HW2 4659   3.532   0.501   0.952
 1254SOL     OW 4660   6.433   1.745   2.151
 1254SOL    HW1 4661   6.342   1.771   2.183
 1254SOL    HW2 4662   6.437   1.645   2.141
 1255SOL     OW 4663   5.567   1.909   5.117
 1255SOL    HW1 4664   5.492   1.972   5.102
 1255SOL    HW2 4665   5.632   1.916   5.041
 1256SOL     OW 4666   6.905   5.938   3.878
 1256SOL    HW1 4667   6.994   5.892   3.871
 1256SOL    HW2 4668   6.912   6.014   3.944
 1257SOL     OW 4669   0.093   4.536   3.424
 1257SOL    HW1 4670   0.033   4.568   3.496
 1257SOL    HW2 4671   0.188   4.549   3.452
 1258SOL     OW 4672   3.002   6.533   4.567
 1258SOL    HW1 4673   3.061   6.493   4.497
 1258SOL    HW2 4674   2.981   6.628   4.542
 1259SOL     OW 4675   4.724   0.467   5.265
 1259SOL    HW1 4676   4.802   0.520   5.296
 1259SOL    HW2 4677   4.663   0.526   5.212
 1260SOL     OW 4678   2.127   0.364   2.212
 1260SOL    HW1 4679   2.142   0.384   2.116
 1260SOL    HW2 4680   2.116   0.265   2.224
 1261SOL     OW 4681   0.308   4.207   6.798
 1261SOL    HW1 4682   0.337   4.131   6.856
 1261SOL    HW2 4683   0.388   4.265   6.778
 1262SOL     OW 4684   4.832   5.044   0.805
 1262SOL    HW1 4685   4.863   5.092   0.886
 1262SOL    HW2 4686   4.732   5.036   0.807
 1263SOL     OW 4687   6.802   2.355   0.812
 1263SOL    HW1 4688   6.871   2.426   0.802
 1263SOL    HW2 4689   6.785   2.313   0.722
 1264SOL     OW 4690   0.911   3.592   2.959
 1264SOL    HW1 4691   0.855   3.614   3.039
 1264SOL    HW2 4692   0.923   3.493   2.952
 1265SOL     OW 4693   6.904   3.766   4.925
 1265SOL    HW1 4694   6.840   3.813   4.864
 1265SOL    HW2 4695   6.987   3.822   4.936
 1266SOL     OW 4696   3.074   1.642   5.559
 1266SOL    HW1 4697   3.104   1.722   5.508
 1266SOL    HW2 4698   3.093   1.560   5.506
 1267SOL     OW 4699   6.826   5.462   3.203
 1267SOL    HW1 4700   6.763   5.465   3.280
 1267SOL    HW2 4701   6.916   5.495   3.232
 1268SOL     OW 4702   5.420   2.615   6.557
 1268SOL    HW1 4703   5.389   2.707   6.534
 1268SOL    HW2 4704   5.436   2.608   6.655
 1269SOL     OW 4705   6.614   6.238   4.769
 1269SOL    HW1 4706   6.693   6.265   4.715
 1269SOL    HW2 4707   6.533   6.230   4.710
 1270SOL     OW 4708   2.045   3.790   4.812
 1270SOL    HW1 4709   1.963   3.742   4.844
 1270SOL    HW2 4710   2.108   3.802   4.889
 1271SOL     OW 4711   3.198   1.735   3.034
 1271SOL    HW1 4712   3.287   1.779   3.043
 1271SOL    HW2 4713   3.132   1.780   3.094
 1272SOL     OW 4714   6.980   5.353   0.929
 1272SOL    HW1 4715   0.028   5.415   0.896
 1272SOL    HW2 4716   6.942   5.302   0.852
 1273SOL     OW 4717   2.866   4.587   6.905
 1273SOL    HW1 4718   2.815   4.613   6.823
 1273SOL    HW2 4719   2.896   4.492   6.896
 1274SOL     OW 4720   0.074   2.558   1.938
 1274SOL    HW1 4721   0.032   2.628   1.996
 1274SOL    HW2 4722   0.018   2.475   1.943
 1275SOL     OW 4723   4.734   0.835   4.282
 1275SOL    HW1 4724   4.775   0.744   4.287
 1275SOL    HW2 4725   4.635   0.826   4.277
 1276SOL     OW 4726   6.815   0.450   1.941
 1276SOL    HW1 4727   6.721   0.471   1.968
 1276SOL    HW2 4728   6.871   0.533   1.948
 1277SOL     OW 4729   0.234   1.195   4.767
 1277SOL    HW1 4730   0.276   1.171   4.680
 1277SOL    HW2 4731   0.182   1.280   4.758
 1278SOL     OW 4732   1.858   2.166   5.116
 1278SOL    HW1 4733   1.951   2.196   5.097
 1278SOL    HW2 4734   1.798   2.196   5.041
 1279SOL     OW 4735   2.954   6.494   0.948
 1279SOL    HW1 4736   3.047   6.511   0.980
 1279SOL    HW2 4737   2.951   6.407   0.898
 1280SOL     OW 4738   2.002   0.222   2.862
 1280SOL    HW1 4739   1.977   0.311   2.900
 1280SOL    HW2 4740   1.989   0.151   2.931
 1281SOL     OW 4741   1.665   6.124   3.198
 1281SOL    HW1 4742   1.749   6.080   3.166
 1281SOL    HW2 4743   1.642   6.201   3.138
 1282SOL     OW 4744   0.536   1.340   0.915
 1282SOL    HW1 4745   0.521   1.260   0.857
 1282SOL    HW2 4746   0.473   1.338   0.992
 1283SOL     OW 4747   5.571   4.258   6.217
 1283SOL    HW1 4748   5.560   4.159   6.206
 1283SOL    HW2 4749   5.659   4.286   6.180
 1284SOL     OW 4750   2.755   2.560   1.739
 1284SOL    HW1 4751   2.786   2.645   1.698
 1284SOL    HW2 4752   2.832   2.514   1.782
 1285SOL     OW 4753   5.010   2.890   6.274
 1285SOL    HW1 4754   4.994   2.979   6.231
 1285SOL    HW2 4755   4.966   2.887   6.363
 1286SOL     OW 4756   5.330   4.116   2.336
 1286SOL    HW1 4757   5.287   4.082   2.252
 1286SOL    HW2 4758   5.283   4.199   2.366
 1287SOL     OW 4759   5.981   5.076   6.641
 1287SOL    HW1 4760   5.925   5.099   6.721
 1287SOL    HW2 4761   5.926   5.026   6.575
 1288SOL     OW 4762   0.761   2.733   0.046
 1288SOL    HW1 4763   0.743   2.743   6.971
 1288SOL    HW2 4764   0.839   2.789   0.072
 1289SOL     OW 4765   0.166   6.199   2.422
 1289SOL    HW1 4766   0.250   6.213   2.475
 1289SOL    HW2 4767   0.173   6.114   2.371
 1290SOL     OW 4768   0.433   0.480   6.631
 1290SOL    HW1 4769   0.509   0.439   6.580
 1290SOL    HW2 4770   0.348   0.431   6.608
 1291SOL     OW 4771   1.918   5.042   6.208
 1291SOL    HW1 4772   2.009   5.005   6.226
 1291SOL    HW2 4773   1.875   4.990   6.134
 1292SOL     OW 4774   7.020   4.458   1.837
 1292SOL    HW1 4775   0.026   4.553   1.853
 1292SOL    HW2 4776   6.927   4.445   1.870
 1293SOL     OW 4777   2.246   1.424   6.637
 1293SOL    HW1 4778   2.328   1.439   6.693
 1293SOL    HW2 4779   2.261   1.461   6.545
 1294SOL     OW 4780   0.445   3.374   2.055
 1294SOL    HW1 4781   0.456   3.292   2.112
 1294SOL    HW2 4782   0.378   3.435   2.097
 1295SOL     OW 4783   5.862   3.411   2.452
 1295SOL    HW1 4784   5.877   3.313   2.441
 1295SOL    HW2 4785   5.764   3.429   2.456
 1296SOL     OW 4786   3.388   2.307   6.320
 1296SOL    HW1 4787   3.485   2.321   6.343
 1296SOL    HW2 4788   3.339   2.275   6.401
 1297SOL     OW 4789   6.109   1.627   5.564
 1297SOL    HW1 4790   6.061   1.686   5.629
 1297SOL    HW2 4791   6.206   1.622   5.589
 1298SOL     OW 4792   5.739   3.080   3.516
 1298SOL    HW1 4793   5.652   3.129   3.509
 1298SOL    HW2 4794   5.815   3.146   3.516
 1299SOL     OW 4795   1.983   4.148   3.508
 1299SOL    HW1 4796   2.056   4.092   3.548
 1299SOL    HW2 4797   1.932   4.093   3.441
 1300SOL     OW 4798   3.432   3.571   1.915
 1300SOL    HW1 4799   3.373   3.651   1.907
 1300SOL    HW2 4800   3.522   3.591   1.875
 1301SOL     OW 4801   0.949   6.629   3.701
 1301SOL    HW1 4802   0.859   6.628   3.743
 1301SOL    HW2 4803   1.018   6.655   3.768
 1302SOL     OW 4804   2.229   6.611   5.263
 1302SOL    HW1 4805   2.280   6.696   5.245
 1302SOL    HW2 4806   2.294   6.537   5.283
 1303SOL     OW 4807   3.930   1.456   0.964
 1303SOL    HW1 4808   3.955   1.540   0.916
 1303SOL    HW2 4809   3.964   1.461   1.058
 1304SOL     OW 4810   1.702   0.444   6.049
 1304SOL    HW1 4811   1.682   0.372   6.115
 1304SOL    HW2 4812   1.798   0.437   6.020
 1305SOL     OW 4813   5.388   6.164   4.851
 1305SOL    HW1 4814   5.320   6.153   4.923
 1305SOL    HW2 4815   5.390   6.260   4.821
 1306SOL     OW 4816   0.914   3.677   4.668
 1306SOL    HW1 4817   0.994   3.693   4.726
 1306SOL    HW2 4818   0.858   3.604   4.707
 1307SOL     OW 4819   1.536   3.001   4.735
 1307SOL    HW1 4820   1.465   2.983   4.668
 1307SOL    HW2 4821   1.521   2.946   4.817
 1308SOL     OW 4822   4.586   5.714   4.200
 1308SOL    HW1 4823   4.575   5.647   4.273
 1308SOL    HW2 4824   4.682   5.741   4.194
 1309SOL     OW 4825   5.890   2.941   5.422
 1309SOL    HW1 4826   5.819   2.961   5.489
 1309SOL    HW2 4827   5.847   2.913   5.336
 1310SOL     OW 4828   5.739   3.766   4.782
 1310SOL    HW1 4829   5.669   3.730   4.719
 1310SOL    HW2 4830   5.755   3.862   4.762
 1311SOL     OW 4831   5.870   0.023   3.854
 1311SOL    HW1 4832   5.968   0.002   3.853
 1311SOL    HW2 4833   5.853   0.104   3.797
 1312SOL     OW 4834   0.402   0.901   6.764
 1312SOL    HW1 4835   0.464   0.930   6.837
 1312SOL    HW2 4836   0.370   0.982   6.714
 1313SOL     OW 4837   3.455   5.956   5.068
 1313SOL    HW1 4838   3.476   6.054   5.073
 1313SOL    HW2 4839   3.356   5.943   5.078
 1314SOL     OW 4840   1.375   1.422   5.335
 1314SOL    HW1 4841   1.343   1.404   5.242
 1314SOL    HW2 4842   1.416   1.340   5.373
 1315SOL     OW 4843   1.383   1.305   0.691
 1315SOL    HW1 4844   1.307   1.299   0.626
 1315SOL    HW2 4845   1.352   1.279   0.782
 1316SOL     OW 4846   1.889   0.174   3.598
 1316SOL    HW1 4847   1.812   0.125   3.639
 1316SOL    HW2 4848   1.856   0.255   3.550
 1317SOL     OW 4849   0.888   4.514   4.310
 1317SOL    HW1 4850   0.844   4.442   4.364
 1317SOL    HW2 4851   0.987   4.511   4.325
 1318SOL     OW 4852   0.053   0.737   0.297
 1318SOL    HW1 4853   0.041   0.741   0.397
 1318SOL    HW2 4854   0.147   0.713   0.276
 1319SOL     OW 4855   6.654   0.852   0.698
 1319SOL    HW1 4856   6.575   0.830   0.755
 1319SOL    HW2 4857   6.627   0.916   0.627
 1320SOL     OW 4858   5.563   4.493   7.011
 1320SOL    HW1 4859   5.573   4.548   0.070
 1320SOL    HW2 4860   5.644   4.434   7.001
 1321SOL     OW 4861   4.439   3.048   6.983
 1321SOL    HW1 4862   4.370   2.999   6.931
 1321SOL    HW2 4863   4.527   3.043   6.935
 1322SOL     OW 4864   6.388   0.893   3.090
 1322SOL    HW1 4865   6.320   0.825   3.118
 1322SOL    HW2 4866   6.466   0.846   3.048
 1323SOL     OW 4867   5.524   1.757   5.661
 1323SOL    HW1 4868   5.500   1.699   5.738
 1323SOL    HW2 4869   5.547   1.699   5.582
 1324SOL     OW 4870   1.397   2.209   1.243
 1324SOL    HW1 4871   1.381   2.298   1.199
 1324SOL    HW2 4872   1.477   2.165   1.202
 1325SOL     OW 4873   1.631   6.651   3.427
 1325SOL    HW1 4874   1.553   6.606   3.385
 1325SOL    HW2 4875   1.612   6.749   3.436
 1326SOL     OW 4876   4.752   2.139   4.488
 1326SOL    HW1 4877   4.819   2.154   4.415
 1326SOL    HW2 4878   4.668   2.189   4.467
 1327SOL     OW 4879   2.673   5.224   2.963
 1327SOL    HW1 4880   2.666   5.250   2.867
 1327SOL    HW2 4881   2.637   5.298   3.020
 1328SOL     OW 4882   1.315   2.507   6.456
 1328SOL    HW1 4883   1.336   2.599   6.423
 1328SOL    HW2 4884   1.280   2.514   6.550
 1329SOL     OW 4885   0.065   1.538   0.437
 1329SOL    HW1 4886   0.043   1.631   0.467
 1329SOL    HW2 4887   0.157   1.514   0.469
 1330SOL     OW 4888   6.340   0.426   1.155
 1330SOL    HW1 4889   6.264   0.450   1.094
 1330SOL    HW2 4890   6.310   0.358   1.221
 1331SOL     OW 4891   5.731   1.152   2.706
 1331SOL    HW1 4892   5.741   1.070   2.762
 1331SOL    HW2 4893   5.722   1.127   2.610
 1332SOL     OW 4894   4.053   1.527   1.229
 1332SOL    HW1 4895   4.060   1.471   1.311
 1332SOL    HW2 4896   4.132   1.589   1.224
 1333SOL     OW 4897   3.607   4.144   5.281
 1333SOL    HW1 4898   3.681   4.111   5.340
 1333SOL    HW2 4899   3.636   4.141   5.186
 1334SOL     OW 4900   1.599   3.629   5.233
 1334SOL    HW1 4901   1.622   3.717   5.273
 1334SOL    HW2 4902   1.672   3.601   5.170
 1335SOL     OW 4903   2.210   6.547   2.742
 1335SOL    HW1 4904   2.306   6.520   2.730
 1335SOL    HW2 4905   2.182   6.529   2.836
 1336SOL     OW 4906   1.079   1.366   6.635
 1336SOL    HW1 4907   1.125   1.361   6.546
 1336SOL    HW2 4908   1.027   1.451   6.641
 1337SOL     OW 4909   2.040   2.709   6.425
 1337SOL    HW1 4910   2.043   2.611   6.441
 1337SOL    HW2 4911   2.120   2.752   6.469
 1338SOL     OW 4912   4.224   4.333   6.505
 1338SOL    HW1 4913   4.309   4.321   6.555
 1338SOL    HW2 4914   4.161   4.388   6.560
 1339SOL     OW 4915   6.938   4.883   6.548
 1339SOL    HW1 4916   6.900   4.809   6.493
 1339SOL    HW2 4917   0.011   4.897   6.523
 1340SOL     OW 4918   1.120   2.287   0.497
 1340SOL    HW1 4919   1.174   2.235   0.564
 1340SOL    HW2 4920   1.159   2.275   0.406
 1341SOL     OW 4921   3.866   0.884   4.614
 1341SOL    HW1 4922   3.904   0.966   4.569
 1341SOL    HW2 4923   3.896   0.802   4.565
 1342SOL     OW 4924   1.207   6.158   5.934
 1342SOL    HW1 4925   1.189   6.109   6.019
 1342SOL    HW2 4926   1.293   6.207   5.941
 1343SOL     OW 4927   3.449   6.404   2.543
 1343SOL    HW1 4928   3.541   6.431   2.572
 1343SOL    HW2 4929   3.455   6.325   2.482
 1344SOL     OW 4930   6.239   1.795   2.933
 1344SOL    HW1 4931   6.275   1.820   2.843
 1344SOL    HW2 4932   6.163   1.856   2.957
 1345SOL     OW 4933   0.715   1.074   2.963
 1345SOL    HW1 4934   0.684   1.094   2.870
 1345SOL    HW2 4935   0.767   1.151   2.998
 1346SOL     OW 4936   0.956   6.484   3.439
 1346SOL    HW1 4937   0.914   6.568   3.473
 1346SOL    HW2 4938   1.032   6.458   3.498
 1347SOL     OW 4939   6.655   6.665   3.255
 1347SOL    HW1 4940   6.610   6.622   3.334
 1347SOL    HW2 4941   6.753   6.673   3.273
 1348SOL     OW 4942   5.541   4.649   3.953
 1348SOL    HW1 4943   5.558   4.588   3.875
 1348SOL    HW2 4944   5.597   4.620   4.030
 1349SOL     OW 4945   4.237   2.588   0.198
 1349SOL    HW1 4946   4.300   2.666   0.197
 1349SOL    HW2 4947   4.164   2.605   0.131
 1350SOL     OW 4948   3.401   4.873   6.860
 1350SOL    HW1 4949   3.344   4.798   6.895
 1350SOL    HW2 4950   3.443   4.845   6.774
 1351SOL     OW 4951   0.402   0.098   2.923
 1351SOL    HW1 4952   0.489   0.142   2.898
 1351SOL    HW2 4953   0.328   0.140   2.871
 1352SOL     OW 4954   6.503   0.502   3.493
 1352SOL    HW1 4955   6.453   0.576   3.448
 1352SOL    HW2 4956   6.538   0.533   3.581
 1353SOL     OW 4957   6.784   4.031   4.858
 1353SOL    HW1 4958   6.751   4.101   4.795
 1353SOL    HW2 4959   6.868   4.062   4.902
 1354SOL     OW 4960   0.354   0.899   0.875
 1354SOL    HW1 4961   0.282   0.848   0.922
 1354SOL    HW2 4962   0.400   0.839   0.809
 1355SOL     OW 4963   5.139   4.376   0.355
 1355SOL    HW1 4964   5.072   4.304   0.338
 1355SOL    HW2 4965   5.139   4.399   0.453
 1356SOL     OW 4966   3.310   4.007   2.745
 1356SOL    HW1 4967   3.396   4.044   2.712
 1356SOL    HW2 4968   3.292   4.042   2.837
 1357SOL     OW 4969   2.883   3.075   6.404
 1357SOL    HW1 4970   2.940   3.038   6.331
 1357SOL    HW2 4971   2.828   3.002   6.444
 1358SOL     OW 4972   2.248   2.773   6.622
 1358SOL    HW1 4973   2.224   2.773   6.720
 1358SOL    HW2 4974   2.303   2.693   6.601
 1359SOL     OW 4975   5.962   3.699   1.533
 1359SOL    HW1 4976   5.895   3.710   1.459
 1359SOL    HW2 4977   6.053   3.722   1.499
 1360SOL     OW 4978   3.963   3.898   3.079
 1360SOL    HW1 4979   3.980   3.932   3.172
 1360SOL    HW2 4980   3.879   3.940   3.044
 1361SOL     OW 4981   1.026   7.022   6.049
 1361SOL    HW1 4982   0.969   6.990   5.973
 1361SOL    HW2 4983   0.980   7.002   6.136
 1362SOL     OW 4984   2.967   3.252   5.938
 1362SOL    HW1 4985   3.013   3.257   5.850
 1362SOL    HW2 4986   2.936   3.343   5.965
 1363SOL     OW 4987   6.802   6.052   3.128
 1363SOL    HW1 4988   6.801   5.996   3.210
 1363SOL    HW2 4989   6.781   6.147   3.152
 1364SOL     OW 4990   0.260   3.548   0.518
 1364SOL    HW1 4991   0.184   3.613   0.515
 1364SOL    HW2 4992   0.291   3.529   0.425
 1365SOL     OW 4993   1.312   3.410   5.744
 1365SOL    HW1 4994   1.220   3.445   5.758
 1365SOL    HW2 4995   1.367   3.477   5.695
 1366SOL     OW 4996   0.012   3.025   0.806
 1366SOL    HW1 4997   0.073   3.058   0.734
 1366SOL    HW2 4998   0.030   3.075   0.891
 1367SOL     OW 4999   1.317   4.530   3.718
 1367SOL    HW1 5000   1.394   4.480   3.680
 1367SOL    HW2 5001   1.251   4.466   3.756
 1368SOL     OW 5002   6.638   6.556   4.273
 1368SOL    HW1 5003   6.713   6.505   4.229
 1368SOL    HW2 5004   6.557   6.553   4.214
 1369SOL     OW 5005   1.644   5.868   2.053
 1369SOL    HW1 5006   1.552   5.830   2.063
 1369SOL    HW2 5007   1.649   5.920   1.968
 1370SOL     OW 5008   0.106   2.329   3.771
 1370SOL    HW1 5009   0.127   2.267   3.695
 1370SOL    HW2 5010   0.173   2.403   3.772
 1371SOL     OW 5011   6.184   0.967   4.657
 1371SOL    HW1 5012   6.280   0.970   4.630
 1371SOL    HW2 5013   6.161   1.048   4.710
 1372SOL     OW 5014   6.622   2.786   0.505
 1372SOL    HW1 5015   6.692   2.770   0.575
 1372SOL    HW2 5016   6.531   2.772   0.544
 1373SOL     OW 5017   4.511   2.303   1.592
 1373SOL    HW1 5018   4.512   2.229   1.660
 1373SOL    HW2 5019   4.605   2.321   1.561
 1374SOL     OW 5020   5.410   3.694   0.696
 1374SOL    HW1 5021   5.390   3.716   0.601
 1374SOL    HW2 5022   5.367   3.762   0.756
 1375SOL     OW 5023   6.744   5.639   5.761
 1375SOL    HW1 5024   6.716   5.734   5.778
 1375SOL    HW2 5025   6.700   5.607   5.677
 1376SOL     OW 5026   2.933   4.966   6.682
 1376SOL    HW1 5027   3.003   4.894   6.680
 1376SOL    HW2 5028   2.852   4.932   6.730
 1377SOL     OW 5029   0.939   3.154   3.597
 1377SOL    HW1 5030   0.895   3.147   3.687
 1377SOL    HW2 5031   1.032   3.118   3.602
 1378SOL     OW 5032   4.155   2.163   4.872
 1378SOL    HW1 5033   4.221   2.146   4.799
 1378SOL    HW2 5034   4.151   2.261   4.892
 1379SOL     OW 5035   4.837   5.464   2.147
 1379SOL    HW1 5036   4.773   5.468   2.224
 1379SOL    HW2 5037   4.925   5.503   2.174
 1380SOL     OW 5038   6.204   6.090   1.752
 1380SOL    HW1 5039   6.287   6.108   1.804
 1380SOL    HW2 5040   6.224   6.099   1.654
 1381SOL     OW 5041   5.597   2.319   6.119
 1381SOL    HW1 5042   5.631   2.362   6.036
 1381SOL    HW2 5043   5.534   2.381   6.166
 1382SOL     OW 5044   4.541   2.884   1.425
 1382SOL    HW1 5045   4.572   2.970   1.385
 1382SOL    HW2 5046   4.564   2.808   1.364
 1383SOL     OW 5047   1.674   6.314   1.710
 1383SOL    HW1 5048   1.738   6.368   1.764
 1383SOL    HW2 5049   1.604   6.374   1.671
 1384SOL     OW 5050   4.396   0.840   0.483
 1384SOL    HW1 5051   4.310   0.844   0.433
 1384SOL    HW2 5052   4.389   0.772   0.556
 1385SOL     OW 5053   1.863   4.730   3.561
 1385SOL    HW1 5054   1.880   4.656   3.497
 1385SOL    HW2 5055   1.776   4.713   3.609
 1386SOL     OW 5056   3.146   6.192   4.121
 1386SOL    HW1 5057   3.100   6.277   4.094
 1386SOL    HW2 5058   3.238   6.191   4.081
 1387SOL     OW 5059   3.658   5.799   1.743
 1387SOL    HW1 5060   3.681   5.839   1.654
 1387SOL    HW2 5061   3.560   5.811   1.761
 1388SOL     OW 5062   5.932   6.896   1.578
 1388SOL    HW1 5063   5.949   6.798   1.562
 1388SOL    HW2 5064   5.845   6.921   1.535
 1389SOL     OW 5065   5.725   1.220   3.181
 1389SOL    HW1 5066   5.802   1.226   3.244
 1389SOL    HW2 5067   5.645   1.265   3.222
 1390SOL     OW 5068   0.909   3.281   6.667
 1390SOL    HW1 5069   0.861   3.248   6.748
 1390SOL    HW2 5070   1.007   3.259   6.674
 1391SOL     OW 5071   6.788   0.754   3.794
 1391SOL    HW1 5072   6.764   0.793   3.883
 1391SOL    HW2 5073   6.831   0.824   3.738
 1392SOL     OW 5074   5.468   5.634   5.829
 1392SOL    HW1 5075   5.400   5.706   5.844
 1392SOL    HW2 5076   5.529   5.628   5.909
 1393SOL     OW 5077   6.169   5.520   5.366
 1393SOL    HW1 5078   6.212   5.431   5.376
 1393SOL    HW2 5079   6.194   5.578   5.444
 1394SOL     OW 5080   3.023   5.911   5.238
 1394SOL    HW1 5081   3.049   5.841   5.304
 1394SOL    HW2 5082   2.935   5.888   5.198
 1395SOL     OW 5083   2.515   4.459   6.198
 1395SOL    HW1 5084   2.430   4.408   6.184
 1395SOL    HW2 5085   2.593   4.402   6.172
 1396SOL     OW 5086   1.901   0.630   3.803
 1396SOL    HW1 5087   1.963   0.654   3.877
 1396SOL    HW2 5088   1.811   0.669   3.821
 1397SOL     OW 5089   0.370   0.657   4.082
 1397SOL    HW1 5090   0.436   0.729   4.061
 1397SOL    HW2 5091   0.329   0.675   4.172
 1398SOL     OW 5092   1.889   1.103   5.709
 1398SOL    HW1 5093   1.925   1.097   5.802
 1398SOL    HW2 5094   1.801   1.152   5.710
 1399SOL     OW 5095   4.080   6.491   1.099
 1399SOL    HW1 5096   4.006   6.424   1.103
 1399SOL    HW2 5097   4.049   6.577   1.139
 1400SOL     OW 5098   0.078   1.876   2.537
 1400SOL    HW1 5099   0.110   1.886   2.443
 1400SOL    HW2 5100   0.147   1.913   2.600
 1401SOL     OW 5101   0.104   1.664   5.167
 1401SOL    HW1 5102   0.169   1.630   5.099
 1401SOL    HW2 5103   0.152   1.720   5.234
 1402SOL     OW 5104   0.524   4.451   0.129
 1402SOL    HW1 5105   0.548   4.419   0.220
 1402SOL    HW2 5106   0.433   4.416   0.105
 1403SOL     OW 5107   2.922   1.649   1.557
 1403SOL    HW1 5108   2.979   1.624   1.636
 1403SOL    HW2 5109   2.957   1.604   1.475
 1404SOL     OW 5110   5.384   0.409   0.401
 1404SOL    HW1 5111   5.334   0.333   0.444
 1404SOL    HW2 5112   5.337   0.435   0.317
 1405SOL     OW 5113   2.215   3.820   1.066
 1405SOL    HW1 5114   2.184   3.894   1.126
 1405SOL    HW2 5115   2.283   3.765   1.115
 1406SOL     OW 5116   1.427   4.937   1.756
 1406SOL    HW1 5117   1.496   4.995   1.799
 1406SOL    HW2 5118   1.340   4.985   1.754
 1407SOL     OW 5119   0.507   1.927   1.648
 1407SOL    HW1 5120   0.579   1.871   1.690
 1407SOL    HW2 5121   0.545   2.014   1.617
 1408SOL     OW 5122   5.509   0.879   5.961
 1408SOL    HW1 5123   5.506   0.909   5.866
 1408SOL    HW2 5124   5.574   0.804   5.971
 1409SOL     OW 5125   0.758   0.111   5.451
 1409SOL    HW1 5126   0.712   0.062   5.377
 1409SOL    HW2 5127   0.748   0.209   5.438
 1410SOL     OW 5128   2.244   3.759   6.450
 1410SOL    HW1 5129   2.304   3.741   6.528
 1410SOL    HW2 5130   2.299   3.791   6.373
 1411SOL     OW 5131   2.972   6.189   2.918
 1411SOL    HW1 5132   3.007   6.117   2.977
 1411SOL    HW2 5133   3.019   6.275   2.938
 1412SOL     OW 5134   0.496   2.548   6.955
 1412SOL    HW1 5135   0.440   2.581   0.009
 1412SOL    HW2 5136   0.494   2.616   6.881
 1413SOL     OW 5137   1.926   1.378   4.577
 1413SOL    HW1 5138   1.959   1.411   4.489
 1413SOL    HW2 5139   1.834   1.340   4.565
 1414SOL     OW 5140   2.113   0.870   1.485
 1414SOL    HW1 5141   2.020   0.903   1.501
 1414SOL    HW2 5142   2.128   0.859   1.386
 1415SOL     OW 5143   2.466   0.439   4.693
 1415SOL    HW1 5144   2.512   0.514   4.741
 1415SOL    HW2 5145   2.489   0.442   4.596
 1416SOL     OW 5146   4.516   4.456   4.265
 1416SOL    HW1 5147   4.461   4.500   4.193
 1416SOL    HW2 5148   4.553   4.370   4.230
 1417SOL     OW 5149   2.293   2.060   0.334
 1417SOL    HW1 5150   2.217   2.114   0.296
 1417SOL    HW2 5151   2.353   2.120   0.387
 1418SOL     OW 5152   3.103   3.088   3.579
 1418SOL    HW1 5153   3.030   3.096   3.511
 1418SOL    HW2 5154   3.191   3.079   3.533
 1419SOL     OW 5155   3.099   6.542   4.824
 1419SOL    HW1 5156   3.087   6.535   4.725
 1419SOL    HW2 5157   3.111   6.451   4.863
 1420SOL     OW 5158   1.840   6.129   1.586
 1420SOL    HW1 5159   1.747   6.132   1.622
 1420SOL    HW2 5160   1.837   6.146   1.487
 1421SOL     OW 5161   2.164   3.111   3.221
 1421SOL    HW1 5162   2.112   3.057   3.287
 1421SOL    HW2 5163   2.139   3.084   3.128
 1422SOL     OW 5164   2.255   4.373   1.440
 1422SOL    HW1 5165   2.156   4.355   1.433
 1422SOL    HW2 5166   2.296   4.369   1.349
 1423SOL     OW 5167   4.720   6.409   2.621
 1423SOL    HW1 5168   4.798   6.363   2.578
 1423SOL    HW2 5169   4.720   6.390   2.719
 1424SOL     OW 5170   6.405   4.129   4.846
 1424SOL    HW1 5171   6.449   4.193   4.784
 1424SOL    HW2 5172   6.308   4.152   4.855
 1425SOL     OW 5173   1.427   6.047   4.354
 1425SOL    HW1 5174   1.380   5.960   4.363
 1425SOL    HW2 5175   1.526   6.032   4.356
 1426SOL     OW 5176   1.339   2.501   5.716
 1426SOL    HW1 5177   1.276   2.523   5.790
 1426SOL    HW2 5178   1.433   2.519   5.747
 1427SOL     OW 5179   0.211   6.926   2.953
 1427SOL    HW1 5180   0.299   6.964   2.925
 1427SOL    HW2 5181   0.198   6.837   2.909
 1428SOL     OW 5182   5.837   2.804   0.902
 1428SOL    HW1 5183   5.937   2.814   0.897
 1428SOL    HW2 5184   5.797   2.822   0.812
 1429SOL     OW 5185   6.038   1.891   0.020
 1429SOL    HW1 5186   6.038   1.973   6.986
 1429SOL    HW2 5187   5.977   1.904   0.098
 1430SOL     OW 5188   1.746   4.693   4.142
 1430SOL    HW1 5189   1.781   4.720   4.053
 1430SOL    HW2 5190   1.816   4.642   4.192
 1431SOL     OW 5191   1.815   1.550   0.910
 1431SOL    HW1 5192   1.903   1.503   0.901
 1431SOL    HW2 5193   1.759   1.531   0.829
 1432SOL     OW 5194   3.027   1.413   3.045
 1432SOL    HW1 5195   3.108   1.385   3.098
 1432SOL    HW2 5196   2.959   1.451   3.108
 1433SOL     OW 5197   4.682   1.286   3.871
 1433SOL    HW1 5198   4.626   1.309   3.951
 1433SOL    HW2 5199   4.765   1.239   3.900
 1434SOL     OW 5200   6.810   0.800   5.709
 1434SOL    HW1 5201   6.774   0.869   5.771
 1434SOL    HW2 5202   6.760   0.803   5.622
 1435SOL     OW 5203   5.657   1.057   2.462
 1435SOL    HW1 5204   5.734   1.096   2.411
 1435SOL    HW2 5205   5.644   0.962   2.435
 1436SOL     OW 5206   5.450   4.117   0.473
 1436SOL    HW1 5207   5.441   4.077   0.565
 1436SOL    HW2 5208   5.521   4.188   0.475
 1437SOL     OW 5209   2.555   2.536   3.638
 1437SOL    HW1 5210   2.493   2.579   3.704
 1437SOL    HW2 5211   2.573   2.599   3.563
 1438SOL     OW 5212   3.317   6.603   1.242
 1438SOL    HW1 5213   3.268   6.589   1.328
 1438SOL    HW2 5214   3.332   6.701   1.229
 1439SOL     OW 5215   0.062   5.510   1.485
 1439SOL    HW1 5216   0.094   5.421   1.453
 1439SOL    HW2 5217   0.103   5.583   1.430
 1440SOL     OW 5218   3.198   3.820   1.343
 1440SOL    HW1 5219   3.172   3.893   1.406
 1440SOL    HW2 5220   3.141   3.826   1.261
 1441SOL     OW 5221   5.690   0.404   2.331
 1441SOL    HW1 5222   5.621   0.434   2.397
 1441SOL    HW2 5223   5.742   0.328   2.370
 1442SOL     OW 5224   6.517   5.574   0.242
 1442SOL    HW1 5225   6.462   5.656   0.226
 1442SOL    HW2 5226   6.599   5.598   0.294
 1443SOL     OW 5227   0.790   2.461   2.592
 1443SOL    HW1 5228   0.796   2.531   2.520
 1443SOL    HW2 5229   0.742   2.499   2.671
 1444SOL     OW 5230   5.021   0.591   0.664
 1444SOL    HW1 5231   5.083   0.650   0.613
 1444SOL    HW2 5232   5.061   0.500   0.672
 1445SOL     OW 5233   1.096   3.121   2.356
 1445SOL    HW1 5234   1.102   3.024   2.378
 1445SOL    HW2 5235   1.147   3.174   2.424
 1446SOL     OW 5236   6.546   0.803   6.833
 1446SOL    HW1 5237   6.604   0.852   6.768
 1446SOL    HW2 5238   6.528   0.711   6.798
 1447SOL     OW 5239   6.147   5.152   4.030
 1447SOL    HW1 5240   6.158   5.195   3.941
 1447SOL    HW2 5241   6.069   5.193   4.077
 1448SOL     OW 5242   6.417   2.771   4.843
 1448SOL    HW1 5243   6.403   2.790   4.746
 1448SOL    HW2 5244   6.501   2.815   4.874
 1449SOL     OW 5245   1.170   4.150   5.185
 1449SOL    HW1 5246   1.203   4.244   5.198
 1449SOL    HW2 5247   1.234   4.100   5.127
 1450SOL     OW 5248   1.090   2.343   6.360
 1450SOL    HW1 5249   1.177   2.375   6.398
 1450SOL    HW2 5250   1.066   2.255   6.401
 1451SOL     OW 5251   1.360   5.915   2.563
 1451SOL    HW1 5252   1.278   5.965   2.533
 1451SOL    HW2 5253   1.395   5.954   2.648
 1452SOL     OW 5254   4.328   2.627   5.340
 1452SOL    HW1 5255   4.261   2.582   5.280
 1452SOL    HW2 5256   4.281   2.665   5.419
 1453SOL     OW 5257   0.366   4.321   5.618
 1453SOL    HW1 5258   0.270   4.306   5.592
 1453SOL    HW2 5259   0.369   4.374   5.703
 1454SOL     OW 5260   1.898   1.790   2.536
 1454SOL    HW1 5261   1.886   1.885   2.509
 1454SOL    HW2 5262   1.902   1.731   2.455
 1455SOL     OW 5263   1.729   6.545   2.554
 1455SOL    HW1 5264   1.653   6.506   2.605
 1455SOL    HW2 5265   1.813   6.496   2.576
 1456SOL     OW 5266   6.485   6.339   5.680
 1456SOL    HW1 5267   6.535   6.323   5.595
 1456SOL    HW2 5268   6.407   6.277   5.685
 1457SOL     OW 5269   1.621   4.465   0.116
 1457SOL    HW1 5270   1.626   4.563   0.098
 1457SOL    HW2 5271   1.554   4.447   0.188
 1458SOL     OW 5272   5.460   5.063   5.366
 1458SOL    HW1 5273   5.402   5.060   5.447
 1458SOL    HW2 5274   5.491   4.971   5.343
 1459SOL     OW 5275   4.315   0.037   6.312
 1459SOL    HW1 5276   4.388   0.049   6.379
 1459SOL    HW2 5277   4.227   0.028   6.359
 1460SOL     OW 5278   1.762   6.929   4.864
 1460SOL    HW1 5279   1.800   7.021   4.859
 1460SOL    HW2 5280   1.724   6.913   4.955
 1461SOL     OW 5281   0.257   4.209   2.963
 1461SOL    HW1 5282   0.218   4.119   2.977
 1461SOL    HW2 5283   0.355   4.206   2.979
 1462SOL     OW 5284   0.911   0.481   6.818
 1462SOL    HW1 5285   0.859   0.525   6.745
 1462SOL    HW2 5286   0.891   0.383   6.819
 1463SOL     OW 5287   0.789   4.672   5.653
 1463SOL    HW1 5288   0.751   4.705   5.739
 1463SOL    HW2 5289   0.717   4.629   5.599
 1464SOL     OW 5290   6.520   4.716   2.952
 1464SOL    HW1 5291   6.511   4.633   3.007
 1464SOL    HW2 5292   6.615   4.727   2.924
 1465SOL     OW 5293   2.344   1.758   3.977
 1465SOL    HW1 5294   2.333   1.659   3.970
 1465SOL    HW2 5295   2.395   1.792   3.898
 1466SOL     OW 5296   3.938   1.870   2.044
 1466SOL    HW1 5297   3.925   1.964   2.075
 1466SOL    HW2 5298   3.990   1.819   2.112
 1467SOL     OW 5299   2.112   1.367   4.344
 1467SOL    HW1 5300   2.160   1.347   4.429
 1467SOL    HW2 5301   2.177   1.399   4.276
 1468SOL     OW 5302   2.060   5.326   1.811
 1468SOL    HW1 5303   2.021   5.249   1.861
 1468SOL    HW2 5304   2.153   5.344   1.844
 1469SOL     OW 5305   6.662   6.054   2.767
 1469SOL    HW1 5306   6.738   5.997   2.797
 1469SOL    HW2 5307   6.669   6.145   2.809
 1470SOL     OW 5308   7.018   2.306   1.730
 1470SOL    HW1 5309   6.977   2.229   1.682
 1470SOL    HW2 5310   6.971   2.320   1.818
 1471SOL     OW 5311   1.085   0.304   0.093
 1471SOL    HW1 5312   1.123   0.278   0.181
 1471SOL    HW2 5313   1.065   0.222   0.039
 1472SOL     OW 5314   2.955   5.862   0.444
 1472SOL    HW1 5315   2.881   5.913   0.487
 1472SOL    HW2 5316   3.043   5.901   0.471
 1473SOL     OW 5317   2.694   5.765   4.971
 1473SOL    HW1 5318   2.729   5.824   5.043
 1473SOL    HW2 5319   2.706   5.809   4.882
 1474SOL     OW 5320   4.268   4.353   1.092
 1474SOL    HW1 5321   4.266   4.316   1.184
 1474SOL    HW2 5322   4.339   4.424   1.086
 1475SOL     OW 5323   5.136   1.524   6.888
 1475SOL    HW1 5324   5.077   1.605   6.883
 1475SOL    HW2 5325   5.086   1.444   6.855
 1476SOL     OW 5326   2.406   1.332   1.316
 1476SOL    HW1 5327   2.375   1.359   1.407
 1476SOL    HW2 5328   2.435   1.236   1.318
 1477SOL     OW 5329   3.691   6.875   0.390
 1477SOL    HW1 5330   3.783   6.884   0.351
 1477SOL    HW2 5331   3.674   6.779   0.412
 1478SOL     OW 5332   5.656   6.343   5.366
 1478SOL    HW1 5333   5.720   6.268   5.380
 1478SOL    HW2 5334   5.591   6.319   5.294
 1479SOL     OW 5335   3.385   3.306   1.933
 1479SOL    HW1 5336   3.403   3.403   1.916
 1479SOL    HW2 5337   3.459   3.268   1.988
 1480SOL     OW 5338   2.597   0.142   6.581
 1480SOL    HW1 5339   2.647   0.066   6.540
 1480SOL    HW2 5340   2.597   0.219   6.517
 1481SOL     OW 5341   5.852   3.124   5.717
 1481SOL    HW1 5342   5.880   3.063   5.792
 1481SOL    HW2 5343   5.772   3.086   5.672
 1482SOL     OW 5344   4.303   0.674   0.669
 1482SOL    HW1 5345   4.237   0.600   0.680
 1482SOL    HW2 5346   4.396   0.636   0.669
 1483SOL     OW 5347   5.646   2.696   5.667
 1483SOL    HW1 5348   5.703   2.614   5.657
 1483SOL    HW2 5349   5.558   2.682   5.621
 1484SOL     OW 5350   4.780   5.200   3.623
 1484SOL    HW1 5351   4.756   5.287   3.579
 1484SOL    HW2 5352   4.801   5.216   3.719
 1485SOL     OW 5353   5.225   0.715   3.952
 1485SOL    HW1 5354   5.290   0.764   3.894
 1485SOL    HW2 5355   5.144   0.771   3.966
 1486SOL     OW 5356   4.848   6.893   3.395
 1486SOL    HW1 5357   4.924   6.865   3.336
 1486SOL    HW2 5358   4.770   6.919   3.339
 1487SOL     OW 5359   0.528   1.550   6.625
 1487SOL    HW1 5360   0.452   1.549   6.690
 1487SOL    HW2 5361   0.516   1.476   6.558
 1488SOL     OW 5362   5.240   0.777   3.325
 1488SOL    HW1 5363   5.286   0.812   3.244
 1488SOL    HW2 5364   5.142   0.767   3.305
 1489SOL     OW 5365   4.247   4.272   5.910
 1489SOL    HW1 5366   4.256   4.175   5.888
 1489SOL    HW2 5367   4.153   4.290   5.941
 1490SOL     OW 5368   0.671   3.287   0.622
 1490SOL    HW1 5369   0.714   3.361   0.674
 1490SOL    HW2 5370   0.728   3.205   0.627
 1491SOL     OW 5371   6.495   4.242   2.467
 1491SOL    HW1 5372   6.571   4.177   2.477
 1491SOL    HW2 5373   6.469   4.247   2.371
 1492SOL     OW 5374   6.619   0.210   2.296
 1492SOL    HW1 5375   6.643   0.199   2.200
 1492SOL    HW2 5376   6.664   0.138   2.350
 1493SOL     OW 5377   3.816   0.746   6.629
 1493SOL    HW1 5378   3.836   0.729   6.532
 1493SOL    HW2 5379   3.857   0.673   6.684
 1494SOL     OW 5380   5.507   2.858   6.933
 1494SOL    HW1 5381   5.560   2.799   6.994
 1494SOL    HW2 5382   5.464   2.931   6.985
 1495SOL     OW 5383   6.633   4.024   4.448
 1495SOL    HW1 5384   6.629   4.034   4.349
 1495SOL    HW2 5385   6.608   3.930   4.473
 1496SOL     OW 5386   0.155   0.137   0.444
 1496SOL    HW1 5387   0.255   0.129   0.436
 1496SOL    HW2 5388   0.130   0.148   0.540
 1497SOL     OW 5389   5.089   3.052   2.446
 1497SOL    HW1 5390   5.160   2.997   2.491
 1497SOL    HW2 5391   5.094   3.146   2.480
 1498SOL     OW 5392   2.784   4.245   1.154
 1498SOL    HW1 5393   2.753   4.159   1.112
 1498SOL    HW2 5394   2.868   4.228   1.206
 1499SOL     OW 5395   0.961   3.700   6.433
 1499SOL    HW1 5396   0.902   3.706   6.353
 1499SOL    HW2 5397   1.048   3.746   6.414
 1500SOL     OW 5398   0.925   5.844   6.280
 1500SOL    HW1 5399   0.956   5.842   6.184
 1500SOL    HW2 5400   0.905   5.938   6.306
 1501SOL     OW 5401   5.954   2.066   6.541
 1501SOL    HW1 5402   6.042   2.114   6.538
 1501SOL    HW2 5403   5.920   2.052   6.448
 1502SOL     OW 5404   5.498   1.770   6.334
 1502SOL    HW1 5405   5.450   1.752   6.420
 1502SOL    HW2 5406   5.590   1.732   6.338
 1503SOL     OW 5407   0.460   2.857   2.987
 1503SOL    HW1 5408   0.517   2.878   3.067
 1503SOL    HW2 5409   0.394   2.931   2.973
 1504SOL     OW 5410   0.763   0.156   3.253
 1504SOL    HW1 5411   0.840   0.177   3.312
 1504SOL    HW2 5412   0.736   0.238   3.203
 1505SOL     OW 5413   5.050   0.053   5.535
 1505SOL    HW1 5414   5.100   0.139   5.534
 1505SOL    HW2 5415   5.034   0.022   5.441
 1506SOL     OW 5416   1.259   0.371   6.925
 1506SOL    HW1 5417   1.279   0.467   6.907
 1506SOL    HW2 5418   1.185   0.364   6.992
 1507SOL     OW 5419   6.993   1.886   4.602
 1507SOL    HW1 5420   6.921   1.933   4.653
 1507SOL    HW2 5421   6.956   1.854   4.515
 1508SOL     OW 5422   0.301   1.875   1.156
 1508SOL    HW1 5423   0.274   1.780   1.142
 1508SOL    HW2 5424   0.251   1.913   1.233
 1509SOL     OW 5425   4.515   1.749   4.645
 1509SOL    HW1 5426   4.432   1.705   4.679
 1509SOL    HW2 5427   4.595   1.713   4.694
 1510SOL     OW 5428   4.983   6.822   4.510
 1510SOL    HW1 5429   5.081   6.835   4.520
 1510SOL    HW2 5430   4.934   6.893   4.561
 1511SOL     OW 5431   3.612   3.545   4.180
 1511SOL    HW1 5432   3.594   3.448   4.167
 1511SOL    HW2 5433   3.554   3.580   4.253
 1512SOL     OW 5434   6.303   5.290   1.515
 1512SOL    HW1 5435   6.284   5.199   1.479
 1512SOL    HW2 5436   6.309   5.286   1.615
 1513SOL     OW 5437   3.113   0.020   4.666
 1513SOL    HW1 5438   3.174   6.967   4.646
 1513SOL    HW2 5439   3.148   0.071   4.745
 1514SOL     OW 5440   3.388   2.244   5.883
 1514SOL    HW1 5441   3.310   2.254   5.945
 1514SOL    HW2 5442   3.363   2.276   5.792
 1515SOL     OW 5443   6.748   1.138   2.317
 1515SOL    HW1 5444   6.689   1.095   2.249
 1515SOL    HW2 5445   6.699   1.214   2.360
 1516SOL     OW 5446   5.810   5.594   5.323
 1516SOL    HW1 5447   5.838   5.629   5.413
 1516SOL    HW2 5448   5.880   5.616   5.256
 1517SOL     OW 5449   4.308   6.414   2.969
 1517SOL    HW1 5450   4.209   6.404   2.954
 1517SOL    HW2 5451   4.323   6.487   3.036
 1518SOL     OW 5452   5.961   3.691   0.447
 1518SOL    HW1 5453   5.972   3.770   0.508
 1518SOL    HW2 5454   5.985   3.608   0.496
 1519SOL     OW 5455   6.832   4.066   1.161
 1519SOL    HW1 5456   6.826   4.089   1.064
 1519SOL    HW2 5457   6.754   4.009   1.188
 1520SOL     OW 5458   1.131   4.503   1.588
 1520SOL    HW1 5459   1.102   4.423   1.640
 1520SOL    HW2 5460   1.186   4.562   1.646
 1521SOL     OW 5461   1.712   4.735   0.039
 1521SOL    HW1 5462   1.747   4.696   6.977
 1521SOL    HW2 5463   1.635   4.795   0.018
 1522SOL     OW 5464   5.784   5.602   4.539
 1522SOL    HW1 5465   5.755   5.536   4.608
 1522SOL    HW2 5466   5.733   5.586   4.454
 1523SOL     OW 5467   3.790   6.789   6.831
 1523SOL    HW1 5468   3.776   6.690   6.834
 1523SOL    HW2 5469   3.702   6.835   6.829
 1524SOL     OW 5470   2.821   1.939   2.658
 1524SOL    HW1 5471   2.833   1.840   2.660
 1524SOL    HW2 5472   2.766   1.965   2.578
 1525SOL     OW 5473   5.532   3.105   1.045
 1525SOL    HW1 5474   5.597   3.165   0.998
 1525SOL    HW2 5475   5.496   3.151   1.126
 1526SOL     OW 5476   0.096   0.711   6.463
 1526SOL    HW1 5477   0.153   0.701   6.381
 1526SOL    HW2 5478   0.155   0.709   6.544
 1527SOL     OW 5479   3.646   0.788   4.756
 1527SOL    HW1 5480   3.595   0.723   4.699
 1527SOL    HW2 5481   3.722   0.825   4.703
 1528SOL     OW 5482   4.010   4.829   1.574
 1528SOL    HW1 5483   3.970   4.738   1.562
 1528SOL    HW2 5484   4.035   4.867   1.485
 1529SOL     OW 5485   4.991   1.301   6.810
 1529SOL    HW1 5486   4.898   1.316   6.844
 1529SOL    HW2 5487   5.013   1.203   6.816
 1530SOL     OW 5488   3.117   1.055   1.215
 1530SOL    HW1 5489   3.063   0.971   1.214
 1530SOL    HW2 5490   3.122   1.091   1.308
 1531SOL     OW 5491   4.674   0.563   4.819
 1531SOL    HW1 5492   4.726   0.503   4.879
 1531SOL    HW2 5493   4.691   0.658   4.843
 1532SOL     OW 5494   3.706   4.419   5.560
 1532SOL    HW1 5495   3.738   4.502   5.514
 1532SOL    HW2 5496   3.627   4.441   5.618
 1533SOL     OW 5497   5.069   5.649   0.317
 1533SOL    HW1 5498   5.066   5.696   0.405
 1533SOL    HW2 5499   5.098   5.714   0.246
 1534SOL     OW 5500   3.498   5.230   6.587
 1534SOL    HW1 5501   3.411   5.239   6.539
 1534SOL    HW2 5502   3.481   5.194   6.679
 1535SOL     OW 5503   5.636   6.038   4.835
 1535SOL    HW1 5504   5.635   5.946   4.797
 1535SOL    HW2 5505   5.542   6.069   4.851
 1536SOL     OW 5506   3.865   5.082   6.537
 1536SOL    HW1 5507   3.823   5.142   6.469
 1536SOL    HW2 5508   3.809   5.083   6.621
 1537SOL     OW 5509   4.362   5.690   3.374
 1537SOL    HW1 5510   4.292   5.672   3.444
 1537SOL    HW2 5511   4.331   5.762   3.313
 1538SOL     OW 5512   2.991   0.381   6.589
 1538SOL    HW1 5513   3.021   0.317   6.660
 1538SOL    HW2 5514   2.944   0.459   6.631
 1539SOL     OW 5515   4.863   2.899   2.329
 1539SOL    HW1 5516   4.812   2.932   2.249
 1539SOL    HW2 5517   4.947   2.953   2.339
 1540SOL     OW 5518   0.142   6.809   5.478
 1540SOL    HW1 5519   0.171   6.775   5.568
 1540SOL    HW2 5520   0.044   6.792   5.467
 1541SOL     OW 5521   3.107   3.941   4.110
 1541SOL    HW1 5522   3.152   3.918   4.197
 1541SOL    HW2 5523   3.169   3.996   4.054
 1542SOL     OW 5524   6.662   6.829   1.845
 1542SOL    HW1 5525   6.593   6.884   1.893
 1542SOL    HW2 5526   6.676   6.865   1.753
 1543SOL     OW 5527   3.513   5.516   5.702
 1543SOL    HW1 5528   3.457   5.588   5.744
 1543SOL    HW2 5529   3.535   5.447   5.771
 1544SOL     OW 5530   2.868   3.593   3.764
 1544SOL    HW1 5531   2.935   3.522   3.740
 1544SOL    HW2 5532   2.917   3.677   3.788
 1545SOL     OW 5533   5.084   0.649   2.702
 1545SOL    HW1 5534   5.000   0.646   2.647
 1545SOL    HW2 5535   5.106   0.557   2.735
 1546SOL     OW 5536   5.495   6.425   6.120
 1546SOL    HW1 5537   5.502   6.342   6.064
 1546SOL    HW2 5538   5.500   6.401   6.217
 1547SOL     OW 5539   1.372   3.595   1.446
 1547SOL    HW1 5540   1.432   3.517   1.465
 1547SOL    HW2 5541   1.278   3.571   1.468
 1548SOL     OW 5542   5.075   3.727   0.191
 1548SOL    HW1 5543   5.049   3.635   0.161
 1548SOL    HW2 5544   4.992   3.778   0.216
 1549SOL     OW 5545   4.259   1.332   2.920
 1549SOL    HW1 5546   4.314   1.412   2.945
 1549SOL    HW2 5547   4.268   1.262   2.990
 1550SOL     OW 5548   3.705   3.606   1.543
 1550SOL    HW1 5549   3.631   3.543   1.522
 1550SOL    HW2 5550   3.791   3.570   1.507
 1551SOL     OW 5551   1.617   4.748   6.680
 1551SOL    HW1 5552   1.663   4.828   6.643
 1551SOL    HW2 5553   1.542   4.722   6.619
 1552SOL     OW 5554   1.502   5.656   0.690
 1552SOL    HW1 5555   1.460   5.617   0.608
 1552SOL    HW2 5556   1.551   5.740   0.665
 1553SOL     OW 5557   6.830   1.774   6.408
 1553SOL    HW1 5558   6.743   1.821   6.390
 1553SOL    HW2 5559   6.903   1.819   6.356
 1554SOL     OW 5560   3.040   1.941   3.613
 1554SOL    HW1 5561   3.076   1.853   3.580
 1554SOL    HW2 5562   3.041   2.008   3.539
 1555SOL     OW 5563   5.753   3.282   7.012
 1555SOL    HW1 5564   5.654   3.290   7.019
 1555SOL    HW2 5565   5.776   3.229   6.930
 1556SOL     OW 5566   1.825   1.705   6.103
 1556SOL    HW1 5567   1.765   1.750   6.037
 1556SOL    HW2 5568   1.920   1.717   6.074
 1557SOL     OW 5569   2.146   4.284   5.931
 1557SOL    HW1 5570   2.155   4.322   5.839
 1557SOL    HW2 5571   2.050   4.281   5.957
 1558SOL     OW 5572   6.219   0.674   4.365
 1558SOL    HW1 5573   6.255   0.721   4.285
 1558SOL    HW2 5574   6.294   0.628   4.413
 1559SOL     OW 5575   1.758   3.340   6.284
 1559SOL    HW1 5576   1.782   3.270   6.352
 1559SOL    HW2 5577   1.661   3.361   6.290
 1560SOL     OW 5578   6.995   0.254   5.991
 1560SOL    HW1 5579   0.019   0.197   6.058
 1560SOL    HW2 5580   0.032   0.269   5.912
 1561SOL     OW 5581   5.082   6.534   3.658
 1561SOL    HW1 5582   5.056   6.439   3.671
 1561SOL    HW2 5583   5.001   6.592   3.668
 1562SOL     OW 5584   4.967   6.274   2.585
 1562SOL    HW1 5585   5.036   6.325   2.636
 1562SOL    HW2 5586   4.950   6.186   2.630
 1563SOL     OW 5587   3.090   0.525   5.488
 1563SOL    HW1 5588   3.056   0.619   5.494
 1563SOL    HW2 5589   3.183   0.521   5.525
 1564SOL     OW 5590   1.163   0.146   3.271
 1564SOL    HW1 5591   1.219   0.227   3.255
 1564SOL    HW2 5592   1.144   0.102   3.183
 1565SOL     OW 5593   4.748   4.185   3.003
 1565SOL    HW1 5594   4.723   4.110   2.942
 1565SOL    HW2 5595   4.818   4.242   2.958
 1566SOL     OW 5596   5.719   3.983   3.211
 1566SOL    HW1 5597   5.688   4.078   3.213
 1566SOL    HW2 5598   5.646   3.925   3.177
 1567SOL     OW 5599   6.034   6.143   0.509
 1567SOL    HW1 5600   6.106   6.168   0.445
 1567SOL    HW2 5601   6.055   6.179   0.600
 1568SOL     OW 5602   1.158   0.100   0.313
 1568SOL    HW1 5603   1.188   0.140   0.400
 1568SOL    HW2 5604   1.083   0.037   0.329
 1569SOL     OW 5605   4.355   6.212   3.244
 1569SOL    HW1 5606   4.290   6.145   3.209
 1569SOL    HW2 5607   4.427   6.165   3.296
 1570SOL     OW 5608   2.301   0.573   0.672
 1570SOL    HW1 5609   2.314   0.650   0.610
 1570SOL    HW2 5610   2.308   0.487   0.620
 1571SOL     OW 5611   5.730   3.319   1.003
 1571SOL    HW1 5612   5.824   3.289   0.990
 1571SOL    HW2 5613   5.721   3.363   1.092
 1572SOL     OW 5614   0.733   0.205   2.090
 1572SOL    HW1 5615   0.776   0.115   2.102
 1572SOL    HW2 5616   0.728   0.252   2.178
 1573SOL     OW 5617   4.763   1.269   1.658
 1573SOL    HW1 5618   4.779   1.255   1.560
 1573SOL    HW2 5619   4.837   1.227   1.710
 1574SOL     OW 5620   6.978   1.803   1.527
 1574SOL    HW1 5621   6.912   1.733   1.555
 1574SOL    HW2 5622   6.930   1.886   1.501
 1575SOL     OW 5623   2.107   1.745   0.589
 1575SOL    HW1 5624   2.072   1.667   0.538
 1575SOL    HW2 5625   2.190   1.779   0.546
 1576SOL     OW 5626   6.164   6.254   4.088
 1576SOL    HW1 5627   6.194   6.349   4.091
 1576SOL    HW2 5628   6.067   6.250   4.066
 1577SOL     OW 5629   2.733   1.469   4.545
 1577SOL    HW1 5630   2.739   1.429   4.636
 1577SOL    HW2 5631   2.666   1.418   4.491
 1578SOL     OW 5632   6.365   3.399   5.643
 1578SOL    HW1 5633   6.290   3.464   5.656
 1578SOL    HW2 5634   6.328   3.308   5.623
 1579SOL     OW 5635   0.169   1.343   3.239
 1579SOL    HW1 5636   0.082   1.319   3.281
 1579SOL    HW2 5637   0.244   1.304   3.292
 1580SOL     OW 5638   2.953   4.110   5.263
 1580SOL    HW1 5639   3.044   4.145   5.244
 1580SOL    HW2 5640   2.891   4.186   5.284
 1581SOL     OW 5641   0.024   4.465   4.504
 1581SOL    HW1 5642   7.007   4.557   4.496
 1581SOL    HW2 5643   0.110   4.462   4.452
 1582SOL     OW 5644   1.507   6.148   4.594
 1582SOL    HW1 5645   1.517   6.049   4.601
 1582SOL    HW2 5646   1.451   6.170   4.514
 1583SOL     OW 5647   1.740   2.333   4.012
 1583SOL    HW1 5648   1.815   2.338   4.078
 1583SOL    HW2 5649   1.686   2.251   4.029
 1584SOL     OW 5650   2.138   6.903   4.896
 1584SOL    HW1 5651   2.066   6.834   4.891
 1584SOL    HW2 5652   2.227   6.860   4.878
 1585SOL     OW 5653   5.464   1.634   3.510
 1585SOL    HW1 5654   5.471   1.729   3.479
 1585SOL    HW2 5655   5.530   1.618   3.583
 1586SOL     OW 5656   4.075   3.757   2.202
 1586SOL    HW1 5657   4.168   3.742   2.236
 1586SOL    HW2 5658   4.078   3.807   2.116
 1587SOL     OW 5659   2.889   5.225   6.314
 1587SOL    HW1 5660   2.854   5.142   6.270
 1587SOL    HW2 5661   2.977   5.251   6.274
 1588SOL     OW 5662   4.948   1.609   3.560
 1588SOL    HW1 5663   5.013   1.680   3.585
 1588SOL    HW2 5664   4.971   1.572   3.470
 1589SOL     OW 5665   5.720   4.063   3.618
 1589SOL    HW1 5666   5.724   3.966   3.644
 1589SOL    HW2 5667   5.775   4.078   3.536
 1590SOL     OW 5668   1.719   6.742   6.966
 1590SOL    HW1 5669   1.806   6.788   6.980
 1590SOL    HW2 5670   1.726   6.648   7.000
 1591SOL     OW 5671   1.175   5.059   3.219
 1591SOL    HW1 5672   1.262   5.040   3.264
 1591SOL    HW2 5673   1.149   4.980   3.163
 1592SOL     OW 5674   2.520   4.090   1.634
 1592SOL    HW1 5675   2.436   4.129   1.669
 1592SOL    HW2 5676   2.564   4.154   1.572
 1593SOL     OW 5677   0.998   6.630   4.228
 1593SOL    HW1 5678   0.977   6.561   4.158
 1593SOL    HW2 5679   0.964   6.599   4.317
 1594SOL     OW 5680   0.437   5.118   3.550
 1594SOL    HW1 5681   0.477   5.053   3.615
 1594SOL    HW2 5682   0.371   5.071   3.492
 1595SOL     OW 5683   0.373   4.578   6.581
 1595SOL    HW1 5684   0.341   4.619   6.495
 1595SOL    HW2 5685   0.295   4.542   6.632
 1596SOL     OW 5686   1.379   3.936   5.346
 1596SOL    HW1 5687   1.308   4.002   5.321
 1596SOL    HW2 5688   1.432   3.971   5.423
 1597SOL     OW 5689   2.567   5.460   0.594
 1597SOL    HW1 5690   2.538   5.554   0.575
 1597SOL    HW2 5691   2.489   5.408   0.629
 1598SOL     OW 5692   0.638   3.852   0.233
 1598SOL    HW1 5693   0.686   3.770   0.201
 1598SOL    HW2 5694   0.638   3.921   0.160
 1599SOL     OW 5695   4.635   3.518   5.664
 1599SOL    HW1 5696   4.703   3.589   5.651
 1599SOL    HW2 5697   4.679   3.428   5.659
 1600SOL     OW 5698   5.143   1.925   4.496
 1600SOL    HW1 5699   5.049   1.895   4.508
 1600SOL    HW2 5700   5.191   1.918   4.583
 1601SOL     OW 5701   1.472   4.665   4.753
 1601SOL    HW1 5702   1.528   4.582   4.744
 1601SOL    HW2 5703   1.475   4.697   4.847
 1602SOL     OW 5704   1.541   5.771   4.141
 1602SOL    HW1 5705   1.611   5.701   4.157
 1602SOL    HW2 5706   1.504   5.760   4.049
 1603SOL     OW 5707   1.417   6.129   1.983
 1603SOL    HW1 5708   1.387   6.060   2.049
 1603SOL    HW2 5709   1.474   6.196   2.030
 1604SOL     OW 5710   5.803   5.170   6.817
 1604SOL    HW1 5711   5.730   5.195   6.754
 1604SOL    HW2 5712   5.774   5.094   6.875
 1605SOL     OW 5713   6.315   0.304   1.915
 1605SOL    HW1 5714   6.371   0.372   1.962
 1605SOL    HW2 5715   6.224   0.341   1.899
 1606SOL     OW 5716   4.083   1.087   5.405
 1606SOL    HW1 5717   4.077   1.174   5.355
 1606SOL    HW2 5718   4.033   1.016   5.356
 1607SOL     OW 5719   5.270   2.548   1.191
 1607SOL    HW1 5720   5.221   2.464   1.212
 1607SOL    HW2 5721   5.208   2.626   1.203
 1608SOL     OW 5722   1.642   0.929   5.979
 1608SOL    HW1 5723   1.655   1.011   5.923
 1608SOL    HW2 5724   1.668   0.848   5.927
 1609SOL     OW 5725   5.879   2.026   6.234
 1609SOL    HW1 5726   5.976   2.048   6.235
 1609SOL    HW2 5727   5.861   1.956   6.165
 1610SOL     OW 5728   5.875   4.164   5.365
 1610SOL    HW1 5729   5.931   4.206   5.294
 1610SOL    HW2 5730   5.805   4.106   5.323
 1611SOL     OW 5731   4.155   3.259   2.007
 1611SOL    HW1 5732   4.245   3.249   1.964
 1611SOL    HW2 5733   4.085   3.264   1.936
 1612SOL     OW 5734   2.875   1.100   5.503
 1612SOL    HW1 5735   2.801   1.168   5.506
 1612SOL    HW2 5736   2.868   1.048   5.418
 1613SOL     OW 5737   2.443   5.311   0.972
 1613SOL    HW1 5738   2.406   5.272   1.057
 1613SOL    HW2 5739   2.508   5.383   0.994
 1614SOL     OW 5740   6.862   3.824   0.343
 1614SOL    HW1 5741   6.927   3.889   0.304
 1614SOL    HW2 5742   6.777   3.871   0.364
 1615SOL     OW 5743   6.980   4.687   1.408
 1615SOL    HW1 5744   0.035   4.624   1.406
 1615SOL    HW2 5745   7.005   4.769   1.458
 1616SOL     OW 5746   4.101   1.669   5.880
 1616SOL    HW1 5747   4.190   1.685   5.837
 1616SOL    HW2 5748   4.065   1.756   5.914
 1617SOL     OW 5749   5.672   0.554   2.087
 1617SOL    HW1 5750   5.763   0.553   2.044
 1617SOL    HW2 5751   5.677   0.507   2.176
 1618SOL     OW 5752   0.385   3.861   1.288
 1618SOL    HW1 5753   0.323   3.924   1.335
 1618SOL    HW2 5754   0.368   3.865   1.189
 1619SOL     OW 5755   1.580   3.067   3.733
 1619SOL    HW1 5756   1.641   2.988   3.728
 1619SOL    HW2 5757   1.520   3.056   3.812
 1620SOL     OW 5758   2.107   5.370   0.655
 1620SOL    HW1 5759   2.051   5.289   0.636
 1620SOL    HW2 5760   2.076   5.446   0.598
 1621SOL     OW 5761   0.255   0.673   6.718
 1621SOL    HW1 5762   0.323   0.615   6.674
 1621SOL    HW2 5763   0.295   0.762   6.739
 1622SOL     OW 5764   1.637   1.980   4.889
 1622SOL    HW1 5765   1.673   1.954   4.979
 1622SOL    HW2 5766   1.698   1.947   4.818
 1623SOL     OW 5767   2.587   2.827   6.440
 1623SOL    HW1 5768   2.535   2.896   6.389
 1623SOL    HW2 5769   2.539   2.739   6.434
 1624SOL     OW 5770   2.360   0.844   6.534
 1624SOL    HW1 5771   2.308   0.920   6.572
 1624SOL    HW2 5772   2.441   0.880   6.487
 1625SOL     OW 5773   1.104   5.511   2.591
 1625SOL    HW1 5774   1.186   5.480   2.543
 1625SOL    HW2 5775   1.045   5.432   2.610
 1626SOL     OW 5776   2.289   2.030   6.670
 1626SOL    HW1 5777   2.311   2.065   6.761
 1626SOL    HW2 5778   2.191   2.009   6.665
 1627SOL     OW 5779   6.505   1.400   4.537
 1627SOL    HW1 5780   6.595   1.437   4.560
 1627SOL    HW2 5781   6.495   1.397   4.437
 1628SOL     OW 5782   3.864   5.034   0.162
 1628SOL    HW1 5783   3.834   5.119   0.207
 1628SOL    HW2 5784   3.947   5.052   0.110
 1629SOL     OW 5785   2.593   2.409   4.486
 1629SOL    HW1 5786   2.512   2.428   4.542
 1629SOL    HW2 5787   2.653   2.346   4.535
 1630SOL     OW 5788   0.450   5.976   5.446
 1630SOL    HW1 5789   0.523   5.908   5.445
 1630SOL    HW2 5790   0.363   5.931   5.467
 1631SOL     OW 5791   6.979   0.573   5.838
 1631SOL    HW1 5792   6.961   0.550   5.934
 1631SOL    HW2 5793   6.911   0.639   5.807
 1632SOL     OW 5794   0.036   1.318   6.838
 1632SOL    HW1 5795   0.039   1.415   6.861
 1632SOL    HW2 5796   0.054   1.263   6.920
 1633SOL     OW 5797   6.110   3.105   2.579
 1633SOL    HW1 5798   6.051   3.025   2.567
 1633SOL    HW2 5799   6.169   3.115   2.499
 1634SOL     OW 5800   4.163   6.236   6.083
 1634SOL    HW1 5801   4.072   6.252   6.043
 1634SOL    HW2 5802   4.233   6.259   6.016
 1635SOL     OW 5803   6.519   5.809   4.526
 1635SOL    HW1 5804   6.535   5.727   4.472
 1635SOL    HW2 5805   6.448   5.792   4.594
 1636SOL     OW 5806   2.612   4.737   1.534
 1636SOL    HW1 5807   2.651   4.677   1.604
 1636SOL    HW2 5808   2.544   4.797   1.576
 1637SOL     OW 5809   6.926   1.989   2.840
 1637SOL    HW1 5810   7.015   1.944   2.837
 1637SOL    HW2 5811   6.899   2.004   2.935
 1638SOL     OW 5812   0.357   3.823   3.849
 1638SOL    HW1 5813   0.387   3.768   3.927
 1638SOL    HW2 5814   0.310   3.905   3.883
 1639SOL     OW 5815   5.239   6.019   2.984
 1639SOL    HW1 5816   5.206   5.940   2.932
 1639SOL    HW2 5817   5.301   6.073   2.927
 1640SOL     OW 5818   5.756   2.348   0.350
 1640SOL    HW1 5819   5.700   2.419   0.392
 1640SOL    HW2 5820   5.846   2.386   0.327
 1641SOL     OW 5821   5.707   3.037   3.920
 1641SOL    HW1 5822   5.613   3.003   3.923
 1641SOL    HW2 5823   5.751   3.004   3.836
 1642SOL     OW 5824   6.946   3.353   6.923
 1642SOL    HW1 5825   6.855   3.385   6.948
 1642SOL    HW2 5826   6.985   3.302   7.000
 1643SOL     OW 5827   3.745   6.378   4.700
 1643SOL    HW1 5828   3.781   6.403   4.610
 1643SOL    HW2 5829   3.645   6.385   4.698
 1644SOL     OW 5830   2.573   2.875   1.385
 1644SOL    HW1 5831   2.632   2.794   1.378
 1644SOL    HW2 5832   2.585   2.917   1.475
 1645SOL     OW 5833   3.280   6.376   5.747
 1645SOL    HW1 5834   3.199   6.432   5.761
 1645SOL    HW2 5835   3.257   6.296   5.692
 1646SOL     OW 5836   2.797   4.858   1.372
 1646SOL    HW1 5837   2.723   4.818   1.427
 1646SOL    HW2 5838   2.826   4.791   1.303
 1647SOL     OW 5839   6.123   2.524   3.249
 1647SOL    HW1 5840   6.143   2.432   3.284
 1647SOL    HW2 5841   6.182   2.591   3.293
 1648SOL     OW 5842   5.293   6.390   1.612
 1648SOL    HW1 5843   5.305   6.295   1.584
 1648SOL    HW2 5844   5.361   6.447   1.565
 1649SOL     OW 5845   3.407   0.176   3.287
 1649SOL    HW1 5846   3.459   0.261   3.299
 1649SOL    HW2 5847   3.341   0.187   3.213
 1650SOL     OW 5848   2.918   6.804   4.552
 1650SOL    HW1 5849   2.969   6.886   4.579
 1650SOL    HW2 5850   2.871   6.822   4.466
 1651SOL     OW 5851   0.425   0.139   0.392
 1651SOL    HW1 5852   0.459   0.083   0.317
 1651SOL    HW2 5853   0.456   0.234   0.379
 1652SOL     OW 5854   1.776   1.805   0.992
 1652SOL    HW1 5855   1.799   1.709   0.975
 1652SOL    HW2 5856   1.710   1.837   0.923
 1653SOL     OW 5857   0.474   4.842   1.514
 1653SOL    HW1 5858   0.531   4.915   1.475
 1653SOL    HW2 5859   0.485   4.759   1.460
 1654SOL     OW 5860   0.000   2.650   2.615
 1654SOL    HW1 5861   0.029   2.727   2.559
 1654SOL    HW2 5862   0.008   2.674   2.712
 1655SOL     OW 5863   5.575   3.984   6.178
 1655SOL    HW1 5864   5.606   3.966   6.271
 1655SOL    HW2 5865   5.611   3.915   6.116
 1656SOL     OW 5866   1.459   4.120   3.559
 1656SOL    HW1 5867   1.431   4.186   3.489
 1656SOL    HW2 5868   1.546   4.078   3.533
 1657SOL     OW 5869   0.740   1.052   5.492
 1657SOL    HW1 5870   0.703   0.959   5.494
 1657SOL    HW2 5871   0.756   1.079   5.397
 1658SOL     OW 5872   6.613   6.668   2.821
 1658SOL    HW1 5873   6.539   6.666   2.889
 1658SOL    HW2 5874   6.575   6.688   2.731
 1659SOL     OW 5875   3.680   2.349   6.377
 1659SOL    HW1 5876   3.704   2.395   6.292
 1659SOL    HW2 5877   3.650   2.416   6.444
 1660SOL     OW 5878   0.948   5.668   4.176
 1660SOL    HW1 5879   0.988   5.578   4.156
 1660SOL    HW2 5880   0.880   5.659   4.248
 1661SOL     OW 5881   3.573   1.959   2.438
 1661SOL    HW1 5882   3.571   2.030   2.508
 1661SOL    HW2 5883   3.489   1.963   2.384
 1662SOL     OW 5884   6.649   1.364   3.406
 1662SOL    HW1 5885   6.708   1.354   3.326
 1662SOL    HW2 5886   6.553   1.363   3.376
 1663SOL     OW 5887   2.836   0.147   3.090
 1663SOL    HW1 5888   2.746   0.110   3.115
 1663SOL    HW2 5889   2.894   0.074   3.055
 1664SOL     OW 5890   1.774   6.877   4.405
 1664SOL    HW1 5891   1.735   6.785   4.417
 1664SOL    HW2 5892   1.700   6.942   4.385
 1665SOL     OW 5893   0.091   1.160   2.972
 1665SOL    HW1 5894   0.080   1.163   2.873
 1665SOL    HW2 5895   0.101   1.254   3.007
 1666SOL     OW 5896   6.381   2.922   0.283
 1666SOL    HW1 5897   6.460   2.872   0.249
 1666SOL    HW2 5898   6.301   2.862   0.282
 1667SOL     OW 5899   5.491   0.528   0.600
 1667SOL    HW1 5900   5.438   0.475   0.533
 1667SOL    HW2 5901   5.566   0.575   0.553
 1668SOL     OW 5902   5.067   6.829   4.813
 1668SOL    HW1 5903   5.067   6.822   4.913
 1668SOL    HW2 5904   4.981   6.870   4.782
 1669SOL     OW 5905   5.980   6.476   0.293
 1669SOL    HW1 5906   6.052   6.406   0.298
 1669SOL    HW2 5907   5.992   6.541   0.368
 1670SOL     OW 5908   6.513   5.817   5.543
 1670SOL    HW1 5909   6.573   5.742   5.516
 1670SOL    HW2 5910   6.553   5.865   5.621
 1671SOL     OW 5911   4.187   2.704   1.111
 1671SOL    HW1 5912   4.261   2.636   1.120
 1671SOL    HW2 5913   4.215   2.789   1.156
 1672SOL     OW 5914   2.125   4.216   2.755
 1672SOL    HW1 5915   2.048   4.274   2.779
 1672SOL    HW2 5916   2.099   4.156   2.679
 1673SOL     OW 5917   6.985   2.927   4.678
 1673SOL    HW1 5918   7.011   2.840   4.720
 1673SOL    HW2 5919   7.001   2.922   4.580
 1674SOL     OW 5920   1.582   4.150   1.031
 1674SOL    HW1 5921   1.497   4.133   1.082
 1674SOL    HW2 5922   1.658   4.161   1.096
 1675SOL     OW 5923   4.665   0.625   6.605
 1675SOL    HW1 5924   4.672   0.695   6.534
 1675SOL    HW2 5925   4.756   0.605   6.642
 1676SOL     OW 5926   2.700   1.108   2.515
 1676SOL    HW1 5927   2.763   1.179   2.482
 1676SOL    HW2 5928   2.752   1.026   2.539
 1677SOL     OW 5929   5.226   1.717   5.153
 1677SOL    HW1 5930   5.192   1.811   5.144
 1677SOL    HW2 5931   5.173   1.670   5.224
 1678SOL     OW 5932   5.359   4.839   3.891
 1678SOL    HW1 5933   5.294   4.835   3.967
 1678SOL    HW2 5934   5.440   4.785   3.915
 1679SOL     OW 5935   1.732   3.861   5.330
 1679SOL    HW1 5936   1.827   3.850   5.302
 1679SOL    HW2 5937   1.728   3.896   5.424
 1680SOL     OW 5938   1.042   1.207   3.941
 1680SOL    HW1 5939   1.001   1.122   3.907
 1680SOL    HW2 5940   1.137   1.214   3.909
 1681SOL     OW 5941   6.299   5.317   1.168
 1681SOL    HW1 5942   6.217   5.353   1.212
 1681SOL    HW2 5943   6.380   5.342   1.221
 1682SOL     OW 5944   0.458   3.153   4.974
 1682SOL    HW1 5945   0.430   3.071   4.924
 1682SOL    HW2 5946   0.388   3.224   4.965
 1683SOL     OW 5947   3.605   5.078   0.681
 1683SOL    HW1 5948   3.668   5.085   0.603
 1683SOL    HW2 5949   3.608   4.986   0.718
 1684SOL     OW 5950   0.764   6.314   4.187
 1684SOL    HW1 5951   0.848   6.311   4.133
 1684SOL    HW2 5952   0.730   6.408   4.191
 1685SOL     OW 5953   1.919   0.941   6.260
 1685SOL    HW1 5954   1.820   0.927   6.257
 1685SOL    HW2 5955   1.965   0.852   6.252
 1686SOL     OW 5956   1.595   5.916   5.633
 1686SOL    HW1 5957   1.545   5.980   5.691
 1686SOL    HW2 5958   1.533   5.881   5.563
 1687SOL     OW 5959   1.921   3.052   1.797
 1687SOL    HW1 5960   1.911   3.119   1.723
 1687SOL    HW2 5961   2.004   3.072   1.849
 1688SOL     OW 5962   1.761   1.411   3.057
 1688SOL    HW1 5963   1.776   1.381   3.151
 1688SOL    HW2 5964   1.846   1.446   3.019
 1689SOL     OW 5965   3.379   1.505   2.275
 1689SOL    HW1 5966   3.399   1.522   2.371
 1689SOL    HW2 5967   3.404   1.585   2.220
 1690SOL     OW 5968   1.331   2.075   3.181
 1690SOL    HW1 5969   1.427   2.080   3.207
 1690SOL    HW2 5970   1.313   2.140   3.107
 1691SOL     OW 5971   5.407   4.085   3.073
 1691SOL    HW1 5972   5.324   4.071   3.128
 1691SOL    HW2 5973   5.470   4.144   3.124
 1692SOL     OW 5974   6.689   7.019   1.061
 1692SOL    HW1 5975   6.704   0.092   1.083
 1692SOL    HW2 5976   6.758   6.989   0.995
 1693SOL     OW 5977   1.867   2.254   3.097
 1693SOL    HW1 5978   1.929   2.192   3.145
 1693SOL    HW2 5979   1.883   2.347   3.128
 1694SOL     OW 5980   4.458   6.322   4.361
 1694SOL    HW1 5981   4.524   6.314   4.287
 1694SOL    HW2 5982   4.435   6.418   4.376
 1695SOL     OW 5983   2.912   1.784   4.748
 1695SOL    HW1 5984   2.886   1.868   4.699
 1695SOL    HW2 5985   2.829   1.731   4.769
 1696SOL     OW 5986   4.599   5.398   0.619
 1696SOL    HW1 5987   4.564   5.476   0.567
 1696SOL    HW2 5988   4.674   5.355   0.568
 1697SOL     OW 5989   0.912   6.737   1.217
 1697SOL    HW1 5990   0.864   6.667   1.269
 1697SOL    HW2 5991   0.959   6.799   1.279
 1698SOL     OW 5992   4.505   1.845   1.615
 1698SOL    HW1 5993   4.474   1.940   1.615
 1698SOL    HW2 5994   4.603   1.842   1.593
 1699SOL     OW 5995   2.571   2.160   1.285
 1699SOL    HW1 5996   2.553   2.109   1.201
 1699SOL    HW2 5997   2.484   2.187   1.326
 1700SOL     OW 5998   6.461   2.417   3.545
 1700SOL    HW1 5999   6.384   2.354   3.540
 1700SOL    HW2 6000   6.429   2.507   3.575
 1701SOL     OW 6001   5.954   2.523   4.831
 1701SOL    HW1 6002   6.007   2.608   4.826
 1701SOL    HW2 6003   6.017   2.447   4.849
 1702SOL     OW 6004   6.385   3.982   1.046
 1702SOL    HW1 6005   6.460   3.917   1.042
 1702SOL    HW2 6006   6.417   4.068   1.087
 1703SOL     OW 6007   3.027   4.005   2.054
 1703SOL    HW1 6008   3.068   4.001   2.145
 1703SOL    HW2 6009   2.992   4.097   2.037
 1704SOL     OW 6010   0.279   1.130   0.475
 1704SOL    HW1 6011   0.279   1.031   0.486
 1704SOL    HW2 6012   0.188   1.160   0.447
 1705SOL     OW 6013   3.347   2.379   1.696
 1705SOL    HW1 6014   3.410   2.456   1.710
 1705SOL    HW2 6015   3.368   2.334   1.610
 1706SOL     OW 6016   4.471   0.212   1.373
 1706SOL    HW1 6017   4.479   0.190   1.470
 1706SOL    HW2 6018   4.561   0.208   1.330
 1707SOL     OW 6019   4.211   1.519   1.995
 1707SOL    HW1 6020   4.308   1.543   1.991
 1707SOL    HW2 6021   4.169   1.539   1.906
 1708SOL     OW 6022   6.398   6.061   2.816
 1708SOL    HW1 6023   6.493   6.059   2.787
 1708SOL    HW2 6024   6.394   6.082   2.914
 1709SOL     OW 6025   2.429   6.435   2.144
 1709SOL    HW1 6026   2.417   6.501   2.219
 1709SOL    HW2 6027   2.354   6.370   2.145
 1710SOL     OW 6028   0.122   3.710   3.729
 1710SOL    HW1 6029   0.120   3.702   3.630
 1710SOL    HW2 6030   0.189   3.779   3.756
 1711SOL     OW 6031   1.296   4.544   5.237
 1711SOL    HW1 6032   1.226   4.479   5.264
 1711SOL    HW2 6033   1.261   4.603   5.164
 1712SOL     OW 6034   0.699   4.220   6.385
 1712SOL    HW1 6035   0.649   4.285   6.442
 1712SOL    HW2 6036   0.718   4.262   6.296
 1713SOL     OW 6037   2.133   1.989   1.307
 1713SOL    HW1 6038   2.034   1.993   1.320
 1713SOL    HW2 6039   2.173   1.924   1.371
 1714SOL     OW 6040   4.128   1.768   6.411
 1714SOL    HW1 6041   4.069   1.730   6.483
 1714SOL    HW2 6042   4.083   1.847   6.370
 1715SOL     OW 6043   6.943   3.020   3.335
 1715SOL    HW1 6044   6.858   3.066   3.309
 1715SOL    HW2 6045   6.961   3.034   3.432
 1716SOL     OW 6046   5.575   6.735   1.172
 1716SOL    HW1 6047   5.614   6.787   1.096
 1716SOL    HW2 6048   5.649   6.699   1.229
 1717SOL     OW 6049   2.500   6.171   6.362
 1717SOL    HW1 6050   2.513   6.269   6.377
 1717SOL    HW2 6051   2.565   6.138   6.294
 1718SOL     OW 6052   2.192   2.600   0.180
 1718SOL    HW1 6053   2.192   2.693   0.217
 1718SOL    HW2 6054   2.102   2.579   0.142
 1719SOL     OW 6055   2.166   3.330   1.100
 1719SOL    HW1 6056   2.160   3.235   1.129
 1719SOL    HW2 6057   2.234   3.378   1.155
 1720SOL     OW 6058   6.560   2.345   1.106
 1720SOL    HW1 6059   6.492   2.363   1.035
 1720SOL    HW2 6060   6.614   2.265   1.082
 1721SOL     OW 6061   1.362   6.242   2.545
 1721SOL    HW1 6062   1.446   6.232   2.492
 1721SOL    HW2 6063   1.323   6.333   2.529
 1722SOL     OW 6064   5.230   0.335   2.942
 1722SOL    HW1 6065   5.241   0.409   3.009
 1722SOL    HW2 6066   5.179   0.260   2.984
 1723SOL     OW 6067   6.437   1.916   3.434
 1723SOL    HW1 6068   6.377   1.940   3.358
 1723SOL    HW2 6069   6.415   1.823   3.465
 1724SOL     OW 6070   5.985   0.927   0.580
 1724SOL    HW1 6071   5.973   1.016   0.624
 1724SOL    HW2 6072   5.939   0.857   0.634
 1725SOL     OW 6073   3.221   4.295   6.940
 1725SOL    HW1 6074   3.279   4.356   6.886
 1725SOL    HW2 6075   3.202   4.337   0.006
 1726SOL     OW 6076   6.733   4.556   4.414
 1726SOL    HW1 6077   6.813   4.500   4.394
 1726SOL    HW2 6078   6.678   4.568   4.331
 1727SOL     OW 6079   3.562   3.613   4.597
 1727SOL    HW1 6080   3.648   3.563   4.600
 1727SOL    HW2 6081   3.574   3.704   4.637
 1728SOL     OW 6082   4.958   4.771   4.302
 1728SOL    HW1 6083   4.892   4.699   4.280
 1728SOL    HW2 6084   5.021   4.783   4.225
 1729SOL     OW 6085   1.894   3.971   3.260
 1729SOL    HW1 6086   1.969   4.029   3.229
 1729SOL    HW2 6087   1.866   3.911   3.185
 1730SOL     OW 6088   6.577   1.018   5.311
 1730SOL    HW1 6089   6.574   0.945   5.243
 1730SOL    HW2 6090   6.667   1.061   5.309
 1731SOL     OW 6091   1.498   4.518   2.150
 1731SOL    HW1 6092   1.544   4.490   2.235
 1731SOL    HW2 6093   1.460   4.610   2.162
 1732SOL     OW 6094   2.363   4.028   6.588
 1732SOL    HW1 6095   2.426   4.106   6.595
 1732SOL    HW2 6096   2.415   3.943   6.599
 1733SOL     OW 6097   1.859   3.523   2.354
 1733SOL    HW1 6098   1.950   3.497   2.319
 1733SOL    HW2 6099   1.839   3.617   2.325
 1734SOL     OW 6100   4.516   3.096   1.614
 1734SOL    HW1 6101   4.534   3.061   1.705
 1734SOL    HW2 6102   4.476   3.024   1.558
 1735SOL     OW 6103   6.039   5.799   1.548
 1735SOL    HW1 6104   6.031   5.816   1.646
 1735SOL    HW2 6105   6.004   5.877   1.497
 1736SOL     OW 6106   4.928   2.642   0.149
 1736SOL    HW1 6107   4.865   2.593   0.089
 1736SOL    HW2 6108   4.952   2.730   0.107
 1737SOL     OW 6109   2.416   0.649   3.771
 1737SOL    HW1 6110   2.495   0.596   3.741
 1737SOL    HW2 6111   2.389   0.621   3.863
 1738SOL     OW 6112   2.220   2.875   3.656
 1738SOL    HW1 6113   2.182   2.782   3.661
 1738SOL    HW2 6114   2.237   2.908   3.749
 1739SOL     OW 6115   4.886   2.354   4.646
 1739SOL    HW1 6116   4.818   2.399   4.704
 1739SOL    HW2 6117   4.840   2.296   4.579
 1740SOL     OW 6118   6.818   1.438   6.725
 1740SOL    HW1 6119   6.801   1.457   6.628
 1740SOL    HW2 6120   6.908   1.395   6.735
 1741SOL     OW 6121   1.936   1.070   2.623
 1741SOL    HW1 6122   1.976   0.979   2.628
 1741SOL    HW2 6123   1.964   1.114   2.538
 1742SOL     OW 6124   4.246   6.277   6.335
 1742SOL    HW1 6125   4.212   6.252   6.245
 1742SOL    HW2 6126   4.172   6.315   6.390
 1743SOL     OW 6127   1.765   0.830   1.956
 1743SOL    HW1 6128   1.752   0.737   1.921
 1743SOL    HW2 6129   1.745   0.896   1.884
 1744SOL     OW 6130   1.927   0.035   1.740
 1744SOL    HW1 6131   1.984   6.979   1.764
 1744SOL    HW2 6132   1.857   0.047   1.811
 1745SOL     OW 6133   6.497   1.474   4.269
 1745SOL    HW1 6134   6.528   1.399   4.210
 1745SOL    HW2 6135   6.560   1.551   4.260
 1746SOL     OW 6136   2.580   5.784   5.714
 1746SOL    HW1 6137   2.535   5.873   5.706
 1746SOL    HW2 6138   2.512   5.711   5.711
 1747SOL     OW 6139   4.857   6.832   1.939
 1747SOL    HW1 6140   4.885   6.771   1.865
 1747SOL    HW2 6141   4.876   6.927   1.913
 1748SOL     OW 6142   6.476   1.402   3.979
 1748SOL    HW1 6143   6.438   1.361   3.897
 1748SOL    HW2 6144   6.416   1.475   4.011
 1749SOL     OW 6145   3.941   6.630   5.719
 1749SOL    HW1 6146   3.999   6.551   5.738
 1749SOL    HW2 6147   3.848   6.600   5.700
 1750SOL     OW 6148   5.275   0.898   3.035
 1750SOL    HW1 6149   5.306   0.943   3.119
 1750SOL    HW2 6150   5.288   0.959   2.958
 1751SOL     OW 6151   3.132   5.172   4.698
 1751SOL    HW1 6152   3.216   5.130   4.664
 1751SOL    HW2 6153   3.054   5.114   4.676
 1752SOL     OW 6154   6.361   2.940   1.355
 1752SOL    HW1 6155   6.428   2.978   1.292
 1752SOL    HW2 6156   6.384   2.844   1.374
 1753SOL     OW 6157   0.574   0.927   0.614
 1753SOL    HW1 6158   0.523   1.013   0.619
 1753SOL    HW2 6159   0.538   0.871   0.539
 1754SOL     OW 6160   3.654   3.354   0.740
 1754SOL    HW1 6161   3.714   3.382   0.665
 1754SOL    HW2 6162   3.707   3.349   0.825
 1755SOL     OW 6163   5.331   4.776   1.808
 1755SOL    HW1 6164   5.329   4.766   1.907
 1755SOL    HW2 6165   5.398   4.845   1.782
 1756SOL     OW 6166   5.654   4.972   4.955
 1756SOL    HW1 6167   5.655   5.062   4.998
 1756SOL    HW2 6168   5.737   4.922   4.981
 1757SOL     OW 6169   2.045   6.688   4.645
 1757SOL    HW1 6170   2.120   6.623   4.639
 1757SOL    HW2 6171   2.003   6.683   4.736
 1758SOL     OW 6172   2.813   1.100   3.600
 1758SOL    HW1 6173   2.867   1.029   3.555
 1758SOL    HW2 6174   2.796   1.073   3.695
 1759SOL     OW 6175   0.279   5.053   6.239
 1759SOL    HW1 6176   0.261   4.955   6.233
 1759SOL    HW2 6177   0.349   5.078   6.172
 1760SOL     OW 6178   6.268   1.964   0.885
 1760SOL    HW1 6179   6.364   1.970   0.912
 1760SOL    HW2 6180   6.210   1.999   0.959
 1761SOL     OW 6181   6.908   6.736   0.321
 1761SOL    HW1 6182   6.896   6.642   0.290
 1761SOL    HW2 6183   6.826   6.789   0.300
 1762SOL     OW 6184   6.079   2.120   5.626
 1762SOL    HW1 6185   6.034   2.076   5.548
 1762SOL    HW2 6186   6.104   2.214   5.601
 1763SOL     OW 6187   1.562   3.834   3.777
 1763SOL    HW1 6188   1.527   3.926   3.795
 1763SOL    HW2 6189   1.490   3.778   3.736
 1764SOL     OW 6190   2.045   4.012   2.579
 1764SOL    HW1 6191   2.040   3.937   2.645
 1764SOL    HW2 6192   2.118   3.992   2.513
 1765SOL     OW 6193   3.233   1.843   6.814
 1765SOL    HW1 6194   3.277   1.753   6.803
 1765SOL    HW2 6195   3.192   1.849   6.905
 1766SOL     OW 6196   5.018   2.589   3.973
 1766SOL    HW1 6197   4.941   2.529   3.948
 1766SOL    HW2 6198   4.996   2.637   4.058
 1767SOL     OW 6199   5.547   3.823   2.850
 1767SOL    HW1 6200   5.500   3.883   2.915
 1767SOL    HW2 6201   5.502   3.734   2.848
 1768SOL     OW 6202   4.387   0.658   4.958
 1768SOL    HW1 6203   4.408   0.562   4.935
 1768SOL    HW2 6204   4.408   0.716   4.879
 1769SOL     OW 6205   4.331   2.366   4.142
 1769SOL    HW1 6206   4.310   2.363   4.044
 1769SOL    HW2 6207   4.261   2.317   4.193
 1770SOL     OW 6208   1.860   5.951   5.111
 1770SOL    HW1 6209   1.913   5.928   5.029
 1770SOL    HW2 6210   1.921   5.951   5.191
 1771SOL     OW 6211   2.993   5.768   6.442
 1771SOL    HW1 6212   2.973   5.808   6.531
 1771SOL    HW2 6213   3.009   5.840   6.375
 1772SOL     OW 6214   2.914   7.010   4.079
 1772SOL    HW1 6215   2.858   7.020   3.997
 1772SOL    HW2 6216   2.892   6.923   4.123
 1773SOL     OW 6217   2.703   5.257   5.424
 1773SOL    HW1 6218   2.647   5.181   5.392
 1773SOL    HW2 6219   2.792   5.222   5.455
 1774SOL     OW 6220   4.099   6.096   1.847
 1774SOL    HW1 6221   4.098   6.085   1.947
 1774SOL    HW2 6222   4.167   6.035   1.808
 1775SOL     OW 6223   1.474   4.118   3.851
 1775SOL    HW1 6224   1.551   4.170   3.888
 1775SOL    HW2 6225   1.460   4.143   3.755
 1776SOL     OW 6226   3.215   6.647   3.949
 1776SOL    HW1 6227   3.214   6.736   3.995
 1776SOL    HW2 6228   3.253   6.656   3.857
 1777SOL     OW 6229   3.719   5.264   6.439
 1777SOL    HW1 6230   3.650   5.244   6.509
 1777SOL    HW2 6231   3.696   5.349   6.393
 1778SOL     OW 6232   4.224   3.505   5.772
 1778SOL    HW1 6233   4.134   3.537   5.745
 1778SOL    HW2 6234   4.275   3.476   5.690
 1779SOL     OW 6235   4.716   0.846   4.605
 1779SOL    HW1 6236   4.697   0.927   4.549
 1779SOL    HW2 6237   4.685   0.863   4.699
 1780SOL     OW 6238   3.600   2.897   6.524
 1780SOL    HW1 6239   3.512   2.930   6.557
 1780SOL    HW2 6240   3.586   2.810   6.476
 1781SOL     OW 6241   4.028   5.698   3.189
 1781SOL    HW1 6242   3.989   5.772   3.135
 1781SOL    HW2 6243   4.101   5.653   3.136
 1782SOL     OW 6244   3.127   1.624   2.643
 1782SOL    HW1 6245   3.044   1.679   2.644
 1782SOL    HW2 6246   3.204   1.678   2.609
 1783SOL     OW 6247   1.949   5.653   5.948
 1783SOL    HW1 6248   2.033   5.707   5.938
 1783SOL    HW2 6249   1.971   5.564   5.988
 1784SOL     OW 6250   4.457   1.762   6.252
 1784SOL    HW1 6251   4.440   1.785   6.348
 1784SOL    HW2 6252   4.386   1.701   6.219
 1785SOL     OW 6253   5.953   4.217   3.430
 1785SOL    HW1 6254   6.030   4.266   3.471
 1785SOL    HW2 6255   5.988   4.149   3.365
 1786SOL     OW 6256   2.361   2.532   7.018
 1786SOL    HW1 6257   2.307   2.479   6.952
 1786SOL    HW2 6258   2.302   2.560   0.071
 1787SOL     OW 6259   2.892   0.957   5.259
 1787SOL    HW1 6260   2.959   0.926   5.192
 1787SOL    HW2 6261   2.815   0.893   5.262
 1788SOL     OW 6262   2.787   3.010   0.072
 1788SOL    HW1 6263   2.714   2.944   0.088
 1788SOL    HW2 6264   2.765   3.067   7.016
 1789SOL     OW 6265   5.930   1.784   3.237
 1789SOL    HW1 6266   5.889   1.866   3.197
 1789SOL    HW2 6267   6.023   1.773   3.202
 1790SOL     OW 6268   4.270   6.244   3.841
 1790SOL    HW1 6269   4.251   6.341   3.849
 1790SOL    HW2 6270   4.369   6.230   3.832
 1791SOL     OW 6271   5.866   0.462   2.913
 1791SOL    HW1 6272   5.792   0.492   2.974
 1791SOL    HW2 6273   5.940   0.423   2.968
 1792SOL     OW 6274   6.471   3.135   5.289
 1792SOL    HW1 6275   6.454   3.037   5.301
 1792SOL    HW2 6276   6.392   3.177   5.245
 1793SOL     OW 6277   6.057   6.995   3.233
 1793SOL    HW1 6278   6.079   0.053   3.288
 1793SOL    HW2 6279   6.069   7.017   3.136
 1794SOL     OW 6280   5.361   6.131   5.664
 1794SOL    HW1 6281   5.327   6.225   5.656
 1794SOL    HW2 6282   5.454   6.126   5.629
 1795SOL     OW 6283   1.284   1.955   0.338
 1795SOL    HW1 6284   1.381   1.932   0.342
 1795SOL    HW2 6285   1.235   1.909   0.412
 1796SOL     OW 6286   2.559   0.912   4.698
 1796SOL    HW1 6287   2.494   0.967   4.750
 1796SOL    HW2 6288   2.541   0.815   4.713
 1797SOL     OW 6289   1.617   6.936   0.487
 1797SOL    HW1 6290   1.578   6.844   0.491
 1797SOL    HW2 6291   1.654   6.961   0.577
 1798SOL     OW 6292   4.600   2.222   3.681
 1798SOL    HW1 6293   4.641   2.139   3.718
 1798SOL    HW2 6294   4.650   2.302   3.717
 1799SOL     OW 6295   7.008   2.600   5.481
 1799SOL    HW1 6296   0.008   2.563   5.571
 1799SOL    HW2 6297   0.009   2.697   5.477
 1800SOL     OW 6298   4.007   4.815   1.972
 1800SOL    HW1 6299   3.966   4.843   1.885
 1800SOL    HW2 6300   3.942   4.830   2.046
 1801SOL     OW 6301   7.011   0.133   1.628
 1801SOL    HW1 6302   0.074   0.164   1.588
 1801SOL    HW2 6303   7.022   0.039   1.661
 1802SOL     OW 6304   5.215   5.550   3.978
 1802SOL    HW1 6305   5.307   5.530   3.944
 1802SOL    HW2 6306   5.167   5.608   3.912
 1803SOL     OW 6307   0.657   5.683   6.843
 1803SOL    HW1 6308   0.709   5.622   6.783
 1803SOL    HW2 6309   0.578   5.719   6.795
 1804SOL     OW 6310   2.603   3.953   5.317
 1804SOL    HW1 6311   2.677   3.886   5.308
 1804SOL    HW2 6312   2.532   3.934   5.249
 1805SOL     OW 6313   5.835   4.329   6.177
 1805SOL    HW1 6314   5.905   4.352   6.110
 1805SOL    HW2 6315   5.876   4.274   6.250
 1806SOL     OW 6316   0.646   0.214   6.995
 1806SOL    HW1 6317   0.604   0.125   6.973
 1806SOL    HW2 6318   0.697   0.206   0.058
 1807SOL     OW 6319   5.311   2.634   4.954
 1807SOL    HW1 6320   5.354   2.685   4.879
 1807SOL    HW2 6321   5.214   2.657   4.958
 1808SOL     OW 6322   0.083   4.316   5.926
 1808SOL    HW1 6323   7.017   4.288   5.889
 1808SOL    HW2 6324   0.075   4.333   6.024
 1809SOL     OW 6325   1.961   2.431   4.909
 1809SOL    HW1 6326   2.056   2.460   4.911
 1809SOL    HW2 6327   1.954   2.344   4.860
 1810SOL     OW 6328   2.592   6.799   3.493
 1810SOL    HW1 6329   2.609   6.733   3.420
 1810SOL    HW2 6330   2.599   6.753   3.582
 1811SOL     OW 6331   6.031   5.657   3.791
 1811SOL    HW1 6332   6.012   5.658   3.693
 1811SOL    HW2 6333   6.126   5.628   3.806
 1812SOL     OW 6334   4.296   6.105   4.823
 1812SOL    HW1 6335   4.234   6.048   4.769
 1812SOL    HW2 6336   4.372   6.136   4.766
 1813SOL     OW 6337   6.256   4.498   0.844
 1813SOL    HW1 6338   6.294   4.523   0.933
 1813SOL    HW2 6339   6.306   4.545   0.771
 1814SOL     OW 6340   5.408   0.175   1.680
 1814SOL    HW1 6341   5.336   0.159   1.749
 1814SOL    HW2 6342   5.473   0.241   1.715
 1815SOL     OW 6343   0.504   1.853   2.456
 1815SOL    HW1 6344   0.474   1.834   2.363
 1815SOL    HW2 6345   0.593   1.898   2.454
 1816SOL     OW 6346   2.877   3.512   1.171
 1816SOL    HW1 6347   2.952   3.452   1.201
 1816SOL    HW2 6348   2.817   3.462   1.109
 1817SOL     OW 6349   2.809   0.200   2.727
 1817SOL    HW1 6350   2.850   0.250   2.803
 1817SOL    HW2 6351   2.881   0.152   2.677
 1818SOL     OW 6352   1.183   6.756   2.724
 1818SOL    HW1 6353   1.085   6.736   2.712
 1818SOL    HW2 6354   1.195   6.853   2.741
 1819SOL     OW 6355   1.335   3.962   2.019
 1819SOL    HW1 6356   1.376   3.942   1.930
 1819SOL    HW2 6357   1.380   4.042   2.059
 1820SOL     OW 6358   3.948   1.028   2.932
 1820SOL    HW1 6359   3.856   0.998   2.959
 1820SOL    HW2 6360   3.952   1.128   2.938
 1821SOL     OW 6361   0.814   1.184   1.874
 1821SOL    HW1 6362   0.757   1.225   1.945
 1821SOL    HW2 6363   0.772   1.198   1.785
 1822SOL     OW 6364   3.189   2.634   0.922
 1822SOL    HW1 6365   3.107   2.648   0.866
 1822SOL    HW2 6366   3.208   2.716   0.976
 1823SOL     OW 6367   3.289   5.751   3.297
 1823SOL    HW1 6368   3.253   5.697   3.373
 1823SOL    HW2 6369   3.260   5.846   3.306
 1824SOL     OW 6370   3.690   2.045   0.934
 1824SOL    HW1 6371   3.625   2.001   0.996
 1824SOL    HW2 6372   3.783   2.025   0.963
 1825SOL     OW 6373   1.532   0.651   1.951
 1825SOL    HW1 6374   1.517   0.638   1.853
 1825SOL    HW2 6375   1.476   0.726   1.985
 1826SOL     OW 6376   3.478   0.876   1.444
 1826SOL    HW1 6377   3.394   0.869   1.497
 1826SOL    HW2 6378   3.514   0.784   1.426
 1827SOL     OW 6379   0.334   5.149   2.015
 1827SOL    HW1 6380   0.331   5.052   1.992
 1827SOL    HW2 6381   0.351   5.160   2.112
 1828SOL     OW 6382   0.108   2.506   0.049
 1828SOL    HW1 6383   0.043   2.536   0.119
 1828SOL    HW2 6384   0.201   2.520   0.082
 1829SOL     OW 6385   4.368   0.027   2.964
 1829SOL    HW1 6386   4.399   0.122   2.968
 1829SOL    HW2 6387   4.372   7.018   2.869
 1830SOL     OW 6388   5.643   5.727   4.280
 1830SOL    HW1 6389   5.597   5.790   4.342
 1830SOL    HW2 6390   5.582   5.703   4.204
 1831SOL     OW 6391   5.732   0.235   3.225
 1831SOL    HW1 6392   5.753   0.208   3.319
 1831SOL    HW2 6393   5.814   0.272   3.182
 1832SOL     OW 6394   5.772   1.970   0.890
 1832SOL    HW1 6395   5.735   2.018   0.811
 1832SOL    HW2 6396   5.810   2.036   0.954
 1833SOL     OW 6397   5.626   0.690   5.391
 1833SOL    HW1 6398   5.580   0.766   5.347
 1833SOL    HW2 6399   5.725   0.700   5.381
 1834SOL     OW 6400   3.488   4.042   0.085
 1834SOL    HW1 6401   3.481   3.952   0.128
 1834SOL    HW2 6402   3.438   4.109   0.140
 1835SOL     OW 6403   1.634   4.480   1.875
 1835SOL    HW1 6404   1.597   4.506   1.963
 1835SOL    HW2 6405   1.560   4.455   1.813
 1836SOL     OW 6406   6.738   1.729   1.107
 1836SOL    HW1 6407   6.826   1.682   1.093
 1836SOL    HW2 6408   6.714   1.779   1.024
 1837SOL     OW 6409   0.581   2.382   3.888
 1837SOL    HW1 6410   0.678   2.408   3.881
 1837SOL    HW2 6411   0.572   2.305   3.951
 1838SOL     OW 6412   0.011   1.817   3.788
 1838SOL    HW1 6413   7.017   1.739   3.727
 1838SOL    HW2 6414   0.007   1.902   3.736
 1839SOL     OW 6415   4.629   2.477   4.731
 1839SOL    HW1 6416   4.576   2.440   4.806
 1839SOL    HW2 6417   4.618   2.577   4.728
 1840SOL     OW 6418   3.665   6.373   1.456
 1840SOL    HW1 6419   3.569   6.375   1.483
 1840SOL    HW2 6420   3.693   6.465   1.427
 1841SOL     OW 6421   2.120   3.228   4.569
 1841SOL    HW1 6422   2.135   3.326   4.585
 1841SOL    HW2 6423   2.155   3.176   4.647
 1842SOL     OW 6424   0.987   5.635   0.246
 1842SOL    HW1 6425   1.004   5.731   0.269
 1842SOL    HW2 6426   1.025   5.577   0.319
 1843SOL     OW 6427   1.353   2.349   4.211
 1843SOL    HW1 6428   1.383   2.303   4.294
 1843SOL    HW2 6429   1.274   2.407   4.232
 1844SOL     OW 6430   3.997   0.967   6.031
 1844SOL    HW1 6431   4.070   1.035   6.034
 1844SOL    HW2 6432   3.908   1.013   6.025
 1845SOL     OW 6433   2.582   0.290   5.956
 1845SOL    HW1 6434   2.671   0.255   5.985
 1845SOL    HW2 6435   2.548   0.235   5.879
 1846SOL     OW 6436   3.625   2.105   6.935
 1846SOL    HW1 6437   3.708   2.156   6.958
 1846SOL    HW2 6438   3.631   2.013   6.974
 1847SOL     OW 6439   1.387   0.959   6.814
 1847SOL    HW1 6440   1.475   0.921   6.786
 1847SOL    HW2 6441   1.317   0.936   6.747
 1848SOL     OW 6442   1.896   6.182   2.806
 1848SOL    HW1 6443   1.994   6.163   2.807
 1848SOL    HW2 6444   1.845   6.096   2.791
 1849SOL     OW 6445   4.070   1.737   0.297
 1849SOL    HW1 6446   3.980   1.715   0.335
 1849SOL    HW2 6447   4.099   1.663   0.236
 1850SOL     OW 6448   6.503   2.293   2.720
 1850SOL    HW1 6449   6.484   2.391   2.722
 1850SOL    HW2 6450   6.441   2.245   2.782
 1851SOL     OW 6451   0.404   1.509   0.734
 1851SOL    HW1 6452   0.391   1.461   0.647
 1851SOL    HW2 6453   0.452   1.449   0.798
 1852SOL     OW 6454   5.219   4.103   1.103
 1852SOL    HW1 6455   5.207   4.200   1.122
 1852SOL    HW2 6456   5.158   4.075   1.028
 1853SOL     OW 6457   0.879   3.033   2.185
 1853SOL    HW1 6458   0.866   3.089   2.103
 1853SOL    HW2 6459   0.955   3.069   2.239
 1854SOL     OW 6460   2.832   6.169   3.915
 1854SOL    HW1 6461   2.749   6.136   3.869
 1854SOL    HW2 6462   2.911   6.151   3.857
 1855SOL     OW 6463   4.440   4.291   6.683
 1855SOL    HW1 6464   4.424   4.324   6.776
 1855SOL    HW2 6465   4.511   4.347   6.640
 1856SOL     OW 6466   6.244   3.172   5.594
 1856SOL    HW1 6467   6.166   3.183   5.532
 1856SOL    HW2 6468   6.296   3.091   5.568
 1857SOL     OW 6469   3.538   1.168   5.759
 1857SOL    HW1 6470   3.565   1.076   5.730
 1857SOL    HW2 6471   3.533   1.228   5.680
 1858SOL     OW 6472   5.767   2.861   3.700
 1858SOL    HW1 6473   5.722   2.912   3.626
 1858SOL    HW2 6474   5.749   2.764   3.689
 1859SOL     OW 6475   4.115   1.286   3.692
 1859SOL    HW1 6476   4.114   1.359   3.624
 1859SOL    HW2 6477   4.189   1.222   3.671
 1860SOL     OW 6478   6.934   0.647   3.364
 1860SOL    HW1 6479   6.894   0.556   3.351
 1860SOL    HW2 6480   0.003   0.650   3.325
 1861SOL     OW 6481   4.869   6.336   2.331
 1861SOL    HW1 6482   4.923   6.295   2.258
 1861SOL    HW2 6483   4.907   6.309   2.420
 1862SOL     OW 6484   2.449   6.824   6.770
 1862SOL    HW1 6485   2.399   6.900   6.811
 1862SOL    HW2 6486   2.547   6.838   6.782
 1863SOL     OW 6487   2.122   2.523   0.949
 1863SOL    HW1 6488   2.163   2.437   0.981
 1863SOL    HW2 6489   2.118   2.588   1.025
 1864SOL     OW 6490   1.260   0.204   5.415
 1864SOL    HW1 6491   1.316   0.286   5.425
 1864SOL    HW2 6492   1.194   0.199   5.490
 1865SOL     OW 6493   3.388   0.586   5.750
 1865SOL    HW1 6494   3.402   0.577   5.652
 1865SOL    HW2 6495   3.457   0.647   5.788
 1866SOL     OW 6496   4.353   4.587   2.740
 1866SOL    HW1 6497   4.327   4.602   2.645
 1866SOL    HW2 6498   4.283   4.625   2.801
 1867SOL     OW 6499   0.700   4.266   0.596
 1867SOL    HW1 6500   0.776   4.204   0.614
 1867SOL    HW2 6501   0.725   4.358   0.625
 1868SOL     OW 6502   4.808   4.687   0.473
 1868SOL    HW1 6503   4.846   4.605   0.514
 1868SOL    HW2 6504   4.825   4.687   0.375
 1869SOL     OW 6505   6.570   2.199   4.723
 1869SOL    HW1 6506   6.503   2.273   4.721
 1869SOL    HW2 6507   6.632   2.209   4.644
 1870SOL     OW 6508   2.221   4.038   5.699
 1870SOL    HW1 6509   2.287   4.077   5.763
 1870SOL    HW2 6510   2.267   3.972   5.640
 1871SOL     OW 6511   1.266   6.591   6.796
 1871SOL    HW1 6512   1.328   6.670   6.801
 1871SOL    HW2 6513   1.204   6.603   6.719
 1872SOL     OW 6514   3.768   3.828   6.867
 1872SOL    HW1 6515   3.681   3.784   6.846
 1872SOL    HW2 6516   3.834   3.807   6.795
 1873SOL     OW 6517   4.524   1.225   4.990
 1873SOL    HW1 6518   4.465   1.149   4.959
 1873SOL    HW2 6519   4.522   1.230   5.089
 1874SOL     OW 6520   2.336   1.213   0.813
 1874SOL    HW1 6521   2.237   1.195   0.809
 1874SOL    HW2 6522   2.352   1.311   0.800
 1875SOL     OW 6523   0.821   1.270   6.541
 1875SOL    HW1 6524   0.785   1.331   6.470
 1875SOL    HW2 6525   0.808   1.175   6.513
 1876SOL     OW 6526   3.373   0.354   5.901
 1876SOL    HW1 6527   3.385   0.441   5.852
 1876SOL    HW2 6528   3.306   0.367   5.974
 1877SOL     OW 6529   0.912   7.013   3.093
 1877SOL    HW1 6530   0.881   6.921   3.068
 1877SOL    HW2 6531   0.835   0.045   3.123
 1878SOL     OW 6532   6.886   1.540   4.057
 1878SOL    HW1 6533   6.833   1.469   4.104
 1878SOL    HW2 6534   6.976   1.504   4.033
 1879SOL     OW 6535   1.006   3.954   4.012
 1879SOL    HW1 6536   1.026   3.949   3.914
 1879SOL    HW2 6537   1.007   3.862   4.051
 1880SOL     OW 6538   6.911   1.556   4.914
 1880SOL    HW1 6539   6.822   1.527   4.878
 1880SOL    HW2 6540   6.924   1.654   4.897
 1881SOL     OW 6541   5.718   2.260   2.598
 1881SOL    HW1 6542   5.625   2.296   2.606
 1881SOL    HW2 6543   5.765   2.304   2.522
 1882SOL     OW 6544   1.231   4.144   6.831
 1882SOL    HW1 6545   1.211   4.225   6.886
 1882SOL    HW2 6546   1.198   4.063   6.879
 1883SOL     OW 6547   6.102   2.123   2.746
 1883SOL    HW1 6548   6.084   2.061   2.669
 1883SOL    HW2 6549   6.015   2.158   2.781
 1884SOL     OW 6550   0.374   2.238   0.484
 1884SOL    HW1 6551   0.457   2.203   0.442
 1884SOL    HW2 6552   0.315   2.162   0.510
 1885SOL     OW 6553   2.240   1.754   6.254
 1885SOL    HW1 6554   2.203   1.773   6.163
 1885SOL    HW2 6555   2.336   1.725   6.245
 1886SOL     OW 6556   1.475   0.016   2.166
 1886SOL    HW1 6557   1.430   0.038   2.252
 1886SOL    HW2 6558   1.443   6.950   2.134
 1887SOL     OW 6559   0.435   5.361   5.907
 1887SOL    HW1 6560   0.516   5.414   5.883
 1887SOL    HW2 6561   0.432   5.349   6.007
 1888SOL     OW 6562   3.180   2.261   0.016
 1888SOL    HW1 6563   3.260   2.231   6.987
 1888SOL    HW2 6564   3.100   2.261   6.979
 1889SOL     OW 6565   0.265   3.844   4.640
 1889SOL    HW1 6566   0.244   3.748   4.657
 1889SOL    HW2 6567   0.204   3.902   4.693
 1890SOL     OW 6568   1.323   5.445   4.042
 1890SOL    HW1 6569   1.234   5.429   4.085
 1890SOL    HW2 6570   1.324   5.535   3.999
 1891SOL     OW 6571   4.776   2.566   1.652
 1891SOL    HW1 6572   4.714   2.612   1.716
 1891SOL    HW2 6573   4.857   2.622   1.638
 1892SOL     OW 6574   0.370   6.979   2.037
 1892SOL    HW1 6575   0.392   7.017   1.947
 1892SOL    HW2 6576   0.275   6.948   2.037
 1893SOL     OW 6577   3.551   2.873   2.003
 1893SOL    HW1 6578   3.499   2.852   2.086
 1893SOL    HW2 6579   3.503   2.838   1.923
 1894SOL     OW 6580   3.738   3.288   4.069
 1894SOL    HW1 6581   3.683   3.221   4.018
 1894SOL    HW2 6582   3.756   3.367   4.011
 1895SOL     OW 6583   3.928   0.046   0.697
 1895SOL    HW1 6584   4.007   0.033   0.637
 1895SOL    HW2 6585   3.947   0.120   0.761
 1896SOL     OW 6586   6.262   1.689   0.910
 1896SOL    HW1 6587   6.292   1.760   0.973
 1896SOL    HW2 6588   6.247   1.729   0.819
 1897SOL     OW 6589   2.018   5.115   1.979
 1897SOL    HW1 6590   2.059   5.073   2.059
 1897SOL    HW2 6591   1.983   5.044   1.918
 1898SOL     OW 6592   1.648   4.467   3.297
 1898SOL    HW1 6593   1.746   4.473   3.314
 1898SOL    HW2 6594   1.626   4.511   3.210
 1899SOL     OW 6595   0.238   1.703   0.005
 1899SOL    HW1 6596   0.180   1.744   0.076
 1899SOL    HW2 6597   0.299   1.772   6.991
 1900SOL     OW 6598   2.264   0.723   0.043
 1900SOL    HW1 6599   2.193   0.694   0.108
 1900SOL    HW2 6600   2.354   0.694   0.076
 1901SOL     OW 6601   1.983   1.996   1.049
 1901SOL    HW1 6602   1.911   1.932   1.022
 1901SOL    HW2 6603   2.032   1.959   1.127
 1902SOL     OW 6604   2.614   0.718   4.274
 1902SOL    HW1 6605   2.690   0.722   4.339
 1902SOL    HW2 6606   2.530   0.749   4.320
 1903SOL     OW 6607   0.812   3.520   2.550
 1903SOL    HW1 6608   0.882   3.458   2.515
 1903SOL    HW2 6609   0.727   3.506   2.498
 1904SOL     OW 6610   5.500   5.263   3.230
 1904SOL    HW1 6611   5.530   5.168   3.218
 1904SOL    HW2 6612   5.580   5.322   3.239
 1905SOL     OW 6613   0.532   0.448   3.435
 1905SOL    HW1 6614   0.504   0.358   3.469
 1905SOL    HW2 6615   0.451   0.504   3.419
 1906SOL     OW 6616   3.077   1.046   6.275
 1906SOL    HW1 6617   3.174   1.033   6.297
 1906SOL    HW2 6618   3.031   1.088   6.354
 1907SOL     OW 6619   4.755   2.477   1.280
 1907SOL    HW1 6620   4.781   2.440   1.369
 1907SOL    HW2 6621   4.816   2.553   1.257
 1908SOL     OW 6622   4.097   6.362   6.563
 1908SOL    HW1 6623   4.166   6.307   6.610
 1908SOL    HW2 6624   4.007   6.323   6.579
 1909SOL     OW 6625   0.583   3.305   3.552
 1909SOL    HW1 6626   0.637   3.311   3.468
 1909SOL    HW2 6627   0.486   3.300   3.529
 1910SOL     OW 6628   6.769   6.606   5.273
 1910SOL    HW1 6629   6.814   6.666   5.339
 1910SOL    HW2 6630   6.751   6.517   5.316
 1911SOL     OW 6631   6.637   3.447   4.912
 1911SOL    HW1 6632   6.627   3.546   4.901
 1911SOL    HW2 6633   6.600   3.402   4.831
 1912SOL     OW 6634   2.968   5.896   2.264
 1912SOL    HW1 6635   2.904   5.829   2.227
 1912SOL    HW2 6636   3.049   5.901   2.206
 1913SOL     OW 6637   2.338   0.438   5.068
 1913SOL    HW1 6638   2.245   0.475   5.069
 1913SOL    HW2 6639   2.334   0.338   5.070
 1914SOL     OW 6640   3.810   3.601   0.253
 1914SOL    HW1 6641   3.743   3.549   0.306
 1914SOL    HW2 6642   3.899   3.555   0.257
 1915SOL     OW 6643   5.128   2.997   5.733
 1915SOL    HW1 6644   5.141   2.976   5.830
 1915SOL    HW2 6645   5.078   3.083   5.725
 1916SOL     OW 6646   4.480   6.186   1.110
 1916SOL    HW1 6647   4.469   6.212   1.206
 1916SOL    HW2 6648   4.390   6.169   1.070
 1917SOL     OW 6649   2.777   3.456   0.246
 1917SOL    HW1 6650   2.855   3.437   0.306
 1917SOL    HW2 6651   2.692   3.438   0.296
 1918SOL     OW 6652   0.655   0.739   4.662
 1918SOL    HW1 6653   0.701   0.702   4.582
 1918SOL    HW2 6654   0.695   0.700   4.745
 1919SOL     OW 6655   1.543   1.625   1.441
 1919SOL    HW1 6656   1.547   1.681   1.357
 1919SOL    HW2 6657   1.632   1.627   1.486
 1920SOL     OW 6658   6.338   3.272   2.942
 1920SOL    HW1 6659   6.251   3.240   2.907
 1920SOL    HW2 6660   6.367   3.353   2.891
 1921SOL     OW 6661   1.396   3.283   6.782
 1921SOL    HW1 6662   1.386   3.362   6.723
 1921SOL    HW2 6663   1.492   3.257   6.788
 1922SOL     OW 6664   2.931   3.477   2.070
 1922SOL    HW1 6665   2.909   3.431   2.156
 1922SOL    HW2 6666   2.929   3.576   2.083
 1923SOL     OW 6667   4.426   1.364   6.838
 1923SOL    HW1 6668   4.385   1.424   6.907
 1923SOL    HW2 6669   4.368   1.361   6.757
 1924SOL     OW 6670   4.523   0.284   0.784
 1924SOL    HW1 6671   4.509   0.381   0.799
 1924SOL    HW2 6672   4.526   0.236   0.872
 1925SOL     OW 6673   1.247   4.722   1.723
 1925SOL    HW1 6674   1.314   4.794   1.743
 1925SOL    HW2 6675   1.157   4.751   1.753
 1926SOL     OW 6676   3.215   0.481   1.967
 1926SOL    HW1 6677   3.165   0.549   2.021
 1926SOL    HW2 6678   3.170   0.393   1.973
 1927SOL     OW 6679   2.321   3.953   0.848
 1927SOL    HW1 6680   2.279   3.921   0.933
 1927SOL    HW2 6681   2.253   3.955   0.775
 1928SOL     OW 6682   5.283   5.099   4.249
 1928SOL    HW1 6683   5.188   5.096   4.220
 1928SOL    HW2 6684   5.288   5.090   4.348
 1929SOL     OW 6685   2.771   0.407   1.987
 1929SOL    HW1 6686   2.688   0.362   2.022
 1929SOL    HW2 6687   2.844   0.339   1.977
 1930SOL     OW 6688   5.517   3.304   6.779
 1930SOL    HW1 6689   5.526   3.227   6.715
 1930SOL    HW2 6690   5.429   3.299   6.825
 1931SOL     OW 6691   1.170   1.880   6.508
 1931SOL    HW1 6692   1.105   1.807   6.488
 1931SOL    HW2 6693   1.160   1.953   6.440
 1932SOL     OW 6694   4.631   2.593   3.417
 1932SOL    HW1 6695   4.687   2.664   3.375
 1932SOL    HW2 6696   4.625   2.608   3.515
 1933SOL     OW 6697   0.525   2.023   0.368
 1933SOL    HW1 6698   0.433   2.022   0.329
 1933SOL    HW2 6699   0.588   2.068   0.305
 1934SOL     OW 6700   0.585   0.786   5.517
 1934SOL    HW1 6701   0.541   0.827   5.437
 1934SOL    HW2 6702   0.516   0.771   5.588
 1935SOL     OW 6703   4.371   4.925   3.624
 1935SOL    HW1 6704   4.402   4.939   3.718
 1935SOL    HW2 6705   4.306   4.849   3.621
 1936SOL     OW 6706   4.921   3.741   4.123
 1936SOL    HW1 6707   4.940   3.833   4.089
 1936SOL    HW2 6708   4.930   3.676   4.047
 1937SOL     OW 6709   4.647   6.089   6.847
 1937SOL    HW1 6710   4.651   6.039   6.761
 1937SOL    HW2 6711   4.684   6.181   6.835
 1938SOL     OW 6712   1.202   2.653   0.352
 1938SOL    HW1 6713   1.157   2.674   0.266
 1938SOL    HW2 6714   1.275   2.586   0.337
 1939SOL     OW 6715   0.303   5.558   4.156
 1939SOL    HW1 6716   0.346   5.552   4.246
 1939SOL    HW2 6717   0.299   5.653   4.127
 1940SOL     OW 6718   5.691   4.549   2.128
 1940SOL    HW1 6719   5.601   4.526   2.092
 1940SOL    HW2 6720   5.682   4.584   2.221
 1941SOL     OW 6721   0.278   2.927   3.494
 1941SOL    HW1 6722   0.285   2.829   3.508
 1941SOL    HW2 6723   0.369   2.967   3.487
 1942SOL     OW 6724   5.721   4.216   2.941
 1942SOL    HW1 6725   5.769   4.140   2.897
 1942SOL    HW2 6726   5.751   4.224   3.036
 1943SOL     OW 6727   1.581   1.470   2.090
 1943SOL    HW1 6728   1.528   1.535   2.146
 1943SOL    HW2 6729   1.642   1.418   2.149
 1944SOL     OW 6730   6.282   4.082   0.113
 1944SOL    HW1 6731   6.263   3.986   0.094
 1944SOL    HW2 6732   6.379   4.093   0.135
 1945SOL     OW 6733   4.046   6.590   0.771
 1945SOL    HW1 6734   4.040   6.569   0.868
 1945SOL    HW2 6735   4.138   6.622   0.749
 1946SOL     OW 6736   5.579   6.477   1.860
 1946SOL    HW1 6737   5.590   6.552   1.794
 1946SOL    HW2 6738   5.669   6.445   1.889
 1947SOL     OW 6739   6.366   5.789   4.074
 1947SOL    HW1 6740   6.337   5.884   4.070
 1947SOL    HW2 6741   6.337   5.748   4.161
 1948SOL     OW 6742   5.842   4.135   2.517
 1948SOL    HW1 6743   5.834   4.036   2.522
 1948SOL    HW2 6744   5.912   4.166   2.581
 1949SOL     OW 6745   4.183   4.174   0.331
 1949SOL    HW1 6746   4.137   4.140   0.249
 1949SOL    HW2 6747   4.273   4.130   0.339
 1950SOL     OW 6748   3.590   3.112   3.932
 1950SOL    HW1 6749   3.577   3.030   3.989
 1950SOL    HW2 6750   3.607   3.084   3.837
 1951SOL     OW 6751   6.538   4.194   5.452
 1951SOL    HW1 6752   6.570   4.102   5.477
 1951SOL    HW2 6753   6.598   4.262   5.493
 1952SOL     OW 6754   5.037   4.373   1.425
 1952SOL    HW1 6755   5.024   4.395   1.521
 1952SOL    HW2 6756   5.086   4.286   1.417
 1953SOL     OW 6757   6.984   1.504   6.230
 1953SOL    HW1 6758   0.053   1.472   6.254
 1953SOL    HW2 6759   6.923   1.488   6.307
 1954SOL     OW 6760   5.630   1.038   1.728
 1954SOL    HW1 6761   5.593   1.098   1.799
 1954SOL    HW2 6762   5.584   0.950   1.732
 1955SOL     OW 6763   0.513   1.447   1.405
 1955SOL    HW1 6764   0.541   1.534   1.364
 1955SOL    HW2 6765   0.473   1.465   1.495
 1956SOL     OW 6766   4.697   0.398   2.828
 1956SOL    HW1 6767   4.759   0.432   2.899
 1956SOL    HW2 6768   4.748   0.381   2.744
 1957SOL     OW 6769   5.198   3.285   4.183
 1957SOL    HW1 6770   5.290   3.247   4.172
 1957SOL    HW2 6771   5.203   3.373   4.229
 1958SOL     OW 6772   4.586   1.718   1.331
 1958SOL    HW1 6773   4.564   1.799   1.277
 1958SOL    HW2 6774   4.503   1.683   1.373
 1959SOL     OW 6775   6.307   6.818   3.962
 1959SOL    HW1 6776   6.361   6.879   4.019
 1959SOL    HW2 6777   6.368   6.762   3.905
 1960SOL     OW 6778   6.978   2.707   3.185
 1960SOL    HW1 6779   6.913   2.769   3.227
 1960SOL    HW2 6780   6.969   2.616   3.226
 1961SOL     OW 6781   6.522   4.373   4.756
 1961SOL    HW1 6782   6.580   4.445   4.717
 1961SOL    HW2 6783   6.476   4.409   4.838
 1962SOL     OW 6784   1.195   5.720   2.724
 1962SOL    HW1 6785   1.292   5.738   2.703
 1962SOL    HW2 6786   1.162   5.646   2.665
 1963SOL     OW 6787   0.895   1.563   1.428
 1963SOL    HW1 6788   0.811   1.519   1.458
 1963SOL    HW2 6789   0.970   1.497   1.432
 1964SOL     OW 6790   5.374   4.495   1.604
 1964SOL    HW1 6791   5.286   4.517   1.646
 1964SOL    HW2 6792   5.389   4.552   1.524
 1965SOL     OW 6793   0.938   3.558   3.800
 1965SOL    HW1 6794   0.984   3.642   3.773
 1965SOL    HW2 6795   1.000   3.480   3.787
 1966SOL     OW 6796   1.461   4.611   0.572
 1966SOL    HW1 6797   1.408   4.556   0.636
 1966SOL    HW2 6798   1.474   4.703   0.609
 1967SOL     OW 6799   6.719   2.145   3.883
 1967SOL    HW1 6800   6.736   2.136   3.981
 1967SOL    HW2 6801   6.655   2.074   3.854
 1968SOL     OW 6802   2.595   1.024   5.335
 1968SOL    HW1 6803   2.617   0.932   5.303
 1968SOL    HW2 6804   2.514   1.058   5.286
 1969SOL     OW 6805   3.564   1.042   1.890
 1969SOL    HW1 6806   3.591   0.954   1.853
 1969SOL    HW2 6807   3.469   1.038   1.920
 1970SOL     OW 6808   6.506   6.622   4.986
 1970SOL    HW1 6809   6.507   6.528   5.020
 1970SOL    HW2 6810   6.549   6.683   5.053
 1971SOL     OW 6811   0.916   0.074   5.672
 1971SOL    HW1 6812   0.996   0.131   5.653
 1971SOL    HW2 6813   0.849   0.084   5.598
 1972SOL     OW 6814   5.471   2.152   1.412
 1972SOL    HW1 6815   5.439   2.123   1.502
 1972SOL    HW2 6816   5.511   2.244   1.418
 1973SOL     OW 6817   2.602   3.786   1.672
 1973SOL    HW1 6818   2.614   3.735   1.587
 1973SOL    HW2 6819   2.572   3.879   1.652
 1974SOL     OW 6820   4.307   6.573   4.373
 1974SOL    HW1 6821   4.281   6.544   4.281
 1974SOL    HW2 6822   4.328   6.671   4.372
 1975SOL     OW 6823   2.230   2.945   3.927
 1975SOL    HW1 6824   2.226   3.019   3.994
 1975SOL    HW2 6825   2.274   2.865   3.969
 1976SOL     OW 6826   6.020   7.002   0.004
 1976SOL    HW1 6827   5.995   0.076   0.007
 1976SOL    HW2 6828   6.092   6.989   6.958
 1977SOL     OW 6829   2.818   2.960   6.674
 1977SOL    HW1 6830   2.750   3.018   6.630
 1977SOL    HW2 6831   2.868   3.012   6.743
 1978SOL     OW 6832   2.275   6.048   3.107
 1978SOL    HW1 6833   2.328   6.117   3.155
 1978SOL    HW2 6834   2.240   5.981   3.173
 1979SOL     OW 6835   6.112   5.072   0.047
 1979SOL    HW1 6836   6.091   5.002   7.001
 1979SOL    HW2 6837   6.183   5.039   0.108
 1980SOL     OW 6838   3.408   0.342   2.407
 1980SOL    HW1 6839   3.428   0.272   2.338
 1980SOL    HW2 6840   3.342   0.407   2.370
 1981SOL     OW 6841   5.103   2.849   2.729
 1981SOL    HW1 6842   5.123   2.764   2.778
 1981SOL    HW2 6843   5.028   2.834   2.665
 1982SOL     OW 6844   6.927   4.129   3.891
 1982SOL    HW1 6845   6.882   4.215   3.914
 1982SOL    HW2 6846   6.988   4.143   3.813
 1983SOL     OW 6847   0.639   0.052   1.053
 1983SOL    HW1 6848   0.657   6.979   1.075
 1983SOL    HW2 6849   0.542   0.064   1.034
 1984SOL     OW 6850   5.281   2.358   4.975
 1984SOL    HW1 6851   5.202   2.344   4.915
 1984SOL    HW2 6852   5.294   2.456   4.991
 1985SOL     OW 6853   6.605   4.984   1.799
 1985SOL    HW1 6854   6.630   5.066   1.851
 1985SOL    HW2 6855   6.628   4.902   1.852
 1986SOL     OW 6856   2.755   1.201   6.628
 1986SOL    HW1 6857   2.732   1.162   6.717
 1986SOL    HW2 6858   2.850   1.232   6.628
 1987SOL     OW 6859   1.918   1.276   3.935
 1987SOL    HW1 6860   1.892   1.283   4.031
 1987SOL    HW2 6861   2.001   1.221   3.926
 1988SOL     OW 6862   0.249   1.576   1.168
 1988SOL    HW1 6863   0.152   1.559   1.153
 1988SOL    HW2 6864   0.298   1.489   1.174
 1989SOL     OW 6865   2.686   5.948   4.751
 1989SOL    HW1 6866   2.597   5.990   4.768
 1989SOL    HW2 6867   2.678   5.883   4.675
 1990SOL     OW 6868   4.051   0.360   0.241
 1990SOL    HW1 6869   3.989   0.334   0.315
 1990SOL    HW2 6870   4.122   0.290   0.230
 1991SOL     OW 6871   2.983   5.482   6.938
 1991SOL    HW1 6872   2.883   5.488   6.927
 1991SOL    HW2 6873   3.025   5.467   6.848
 1992SOL     OW 6874   6.810   6.485   0.143
 1992SOL    HW1 6875   6.756   6.460   0.224
 1992SOL    HW2 6876   6.754   6.474   0.061
 1993SOL     OW 6877   2.458   2.626   4.650
 1993SOL    HW1 6878   2.553   2.646   4.678
 1993SOL    HW2 6879   2.396   2.650   4.724
 1994SOL     OW 6880   4.419   2.406   0.866
 1994SOL    HW1 6881   4.518   2.395   0.875
 1994SOL    HW2 6882   4.399   2.489   0.814
 1995SOL     OW 6883   5.446   2.407   4.281
 1995SOL    HW1 6884   5.436   2.439   4.187
 1995SOL    HW2 6885   5.535   2.362   4.291
 1996SOL     OW 6886   2.997   2.145   1.200
 1996SOL    HW1 6887   2.947   2.229   1.222
 1996SOL    HW2 6888   3.044   2.111   1.282
 1997SOL     OW 6889   3.414   1.466   4.015
 1997SOL    HW1 6890   3.377   1.531   4.082
 1997SOL    HW2 6891   3.358   1.470   3.932
 1998SOL     OW 6892   1.276   3.158   1.320
 1998SOL    HW1 6893   1.285   3.232   1.253
 1998SOL    HW2 6894   1.221   3.084   1.282
 1999SOL     OW 6895   0.104   0.854   4.983
 1999SOL    HW1 6896   0.137   0.783   4.921
 1999SOL    HW2 6897   0.034   0.908   4.937
 2000SOL     OW 6898   4.091   3.788   6.082
 2000SOL    HW1 6899   4.174   3.753   6.040
 2000SOL    HW2 6900   4.078   3.745   6.172
 2001SOL     OW 6901   1.593   1.708   6.546
 2001SOL    HW1 6902   1.569   1.674   6.637
 2001SOL    HW2 6903   1.549   1.797   6.531
 2002SOL     OW 6904   0.699   5.632   1.082
 2002SOL    HW1 6905   0.742   5.594   1.164
 2002SOL    HW2 6906   0.769   5.662   1.018
 2003SOL     OW 6907   5.954   5.230   2.029
 2003SOL    HW1 6908   5.946   5.174   2.112
 2003SOL    HW2 6909   6.043   5.274   2.027
 2004SOL     OW 6910   4.273   0.833   3.523
 2004SOL    HW1 6911   4.198   0.883   3.567
 2004SOL    HW2 6912   4.308   0.764   3.586
 2005SOL     OW 6913   0.126   6.175   0.214
 2005SOL    HW1 6914   0.104   6.262   0.258
 2005SOL    HW2 6915   0.051   6.149   0.154
 2006SOL     OW 6916   5.245   0.235   4.101
 2006SOL    HW1 6917   5.217   0.328   4.076
 2006SOL    HW2 6918   5.325   0.208   4.048
 2007SOL     OW 6919   4.690   4.440   1.549
 2007SOL    HW1 6920   4.727   4.465   1.460
 2007SOL    HW2 6921   4.763   4.404   1.608
 2008SOL     OW 6922   2.040   3.708   3.903
 2008SOL    HW1 6923   2.056   3.642   3.829
 2008SOL    HW2 6924   1.954   3.756   3.886
 2009SOL     OW 6925   5.702   6.278   1.630
 2009SOL    HW1 6926   5.611   6.255   1.667
 2009SOL    HW2 6927   5.772   6.252   1.696
 2010SOL     OW 6928   1.211   2.152   0.994
 2010SOL    HW1 6929   1.286   2.217   1.010
 2010SOL    HW2 6930   1.127   2.202   0.975
 2011SOL     OW 6931   0.217   0.069   5.517
 2011SOL    HW1 6932   0.217   0.109   5.425
 2011SOL    HW2 6933   0.186   6.997   5.511
 2012SOL     OW 6934   1.734   3.632   2.066
 2012SOL    HW1 6935   1.681   3.551   2.040
 2012SOL    HW2 6936   1.719   3.652   2.163
 2013SOL     OW 6937   0.326   2.734   3.244
 2013SOL    HW1 6938   0.252   2.769   3.186
 2013SOL    HW2 6939   0.414   2.769   3.211
 2014SOL     OW 6940   3.316   0.209   3.568
 2014SOL    HW1 6941   3.303   0.306   3.587
 2014SOL    HW2 6942   3.340   0.196   3.472
 2015SOL     OW 6943   3.989   0.657   1.311
 2015SOL    HW1 6944   4.073   0.616   1.349
 2015SOL    HW2 6945   3.941   0.707   1.383
 2016SOL     OW 6946   1.394   6.393   5.474
 2016SOL    HW1 6947   1.329   6.318   5.465
 2016SOL    HW2 6948   1.408   6.436   5.385
 2017SOL     OW 6949   4.341   0.509   3.452
 2017SOL    HW1 6950   4.309   0.435   3.511
 2017SOL    HW2 6951   4.438   0.525   3.469
 2018SOL     OW 6952   7.001   2.123   3.362
 2018SOL    HW1 6953   6.943   2.077   3.296
 2018SOL    HW2 6954   6.961   2.116   3.453
 2019SOL     OW 6955   6.025   4.803   6.875
 2019SOL    HW1 6956   6.102   4.740   6.864
 2019SOL    HW2 6957   5.958   4.787   6.803
 2020SOL     OW 6958   1.031   5.833   5.960
 2020SOL    HW1 6959   1.088   5.874   6.031
 2020SOL    HW2 6960   1.042   5.734   5.961
 2021SOL     OW 6961   6.609   6.509   3.474
 2021SOL    HW1 6962   6.571   6.421   3.445
 2021SOL    HW2 6963   6.535   6.572   3.496
 2022SOL     OW 6964   2.063   4.061   5.070
 2022SOL    HW1 6965   2.158   4.084   5.048
 2022SOL    HW2 6966   2.032   4.119   5.146
 2023SOL     OW 6967   0.028   6.897   6.875
 2023SOL    HW1 6968   6.975   6.962   6.877
 2023SOL    HW2 6969   0.063   6.882   6.967
 2024SOL     OW 6970   0.408   5.417   3.933
 2024SOL    HW1 6971   0.506   5.426   3.952
 2024SOL    HW2 6972   0.356   5.435   4.017
 2025SOL     OW 6973   3.027   0.802   3.959
 2025SOL    HW1 6974   2.984   0.793   3.869
 2025SOL    HW2 6975   2.970   0.861   4.017
 2026SOL     OW 6976   5.888   0.941   6.491
 2026SOL    HW1 6977   5.950   1.015   6.519
 2026SOL    HW2 6978   5.806   0.980   6.451
 2027SOL     OW 6979   0.587   5.850   1.720
 2027SOL    HW1 6980   0.653   5.799   1.664
 2027SOL    HW2 6981   0.605   5.832   1.816
 2028SOL     OW 6982   3.701   5.832   2.919
 2028SOL    HW1 6983   3.639   5.770   2.968
 2028SOL    HW2 6984   3.661   5.923   2.917
 2029SOL     OW 6985   0.115   2.116   6.862
 2029SOL    HW1 6986   0.169   2.095   6.781
 2029SOL    HW2 6987   0.018   2.096   6.844
 2030SOL     OW 6988   2.824   6.084   2.670
 2030SOL    HW1 6989   2.896   6.036   2.620
 2030SOL    HW2 6990   2.860   6.118   2.756
 2031SOL     OW 6991   6.895   5.576   2.699
 2031SOL    HW1 6992   6.970   5.578   2.765
 2031SOL    HW2 6993   6.816   5.623   2.737
 2032SOL     OW 6994   3.586   1.332   0.305
 2032SOL    HW1 6995   3.542   1.394   0.241
 2032SOL    HW2 6996   3.537   1.332   0.392
 2033SOL     OW 6997   1.159   1.236   0.554
 2033SOL    HW1 6998   1.108   1.152   0.571
 2033SOL    HW2 6999   1.154   1.260   0.458
 2034SOL     OW 7000   1.508   5.277   5.594
 2034SOL    HW1 7001   1.431   5.242   5.647
 2034SOL    HW2 7002   1.594   5.240   5.629
 2035SOL     OW 7003   6.944   6.674   1.766
 2035SOL    HW1 7004   6.971   6.625   1.849
 2035SOL    HW2 7005   6.874   6.622   1.717
 2036SOL     OW 7006   0.966   3.341   2.981
 2036SOL    HW1 7007   1.025   3.290   2.918
 2036SOL    HW2 7008   0.975   3.302   3.073
 2037SOL     OW 7009   0.068   2.972   6.233
 2037SOL    HW1 7010   0.019   3.034   6.295
 2037SOL    HW2 7011   0.087   3.019   6.147
 2038SOL     OW 7012   2.603   1.299   0.286
 2038SOL    HW1 7013   2.546   1.296   0.368
 2038SOL    HW2 7014   2.609   1.208   0.245
 2039SOL     OW 7015   0.088   5.830   2.492
 2039SOL    HW1 7016   0.115   5.739   2.525
 2039SOL    HW2 7017   7.019   5.851   2.523
 2040SOL     OW 7018   2.013   2.536   6.810
 2040SOL    HW1 7019   2.105   2.499   6.801
 2040SOL    HW2 7020   1.958   2.506   6.732
 2041SOL     OW 7021   2.075   6.882   5.687
 2041SOL    HW1 7022   2.156   6.839   5.647
 2041SOL    HW2 7023   2.094   6.909   5.781
 2042SOL     OW 7024   4.997   0.184   6.071
 2042SOL    HW1 7025   4.981   0.235   5.988
 2042SOL    HW2 7026   4.990   0.244   6.150
 2043SOL     OW 7027   6.787   2.522   1.449
 2043SOL    HW1 7028   6.796   2.431   1.409
 2043SOL    HW2 7029   6.849   2.530   1.528
 2044SOL     OW 7030   6.013   1.185   1.190
 2044SOL    HW1 7031   6.051   1.272   1.223
 2044SOL    HW2 7032   5.992   1.126   1.267
 2045SOL     OW 7033   1.840   5.430   5.721
 2045SOL    HW1 7034   1.776   5.358   5.747
 2045SOL    HW2 7035   1.819   5.513   5.772
 2046SOL     OW 7036   0.393   1.627   5.542
 2046SOL    HW1 7037   0.469   1.650   5.602
 2046SOL    HW2 7038   0.427   1.603   5.451
 2047SOL     OW 7039   6.541   2.428   0.549
 2047SOL    HW1 7040   6.548   2.525   0.523
 2047SOL    HW2 7041   6.447   2.398   0.538
 2048SOL     OW 7042   0.784   1.291   3.995
 2048SOL    HW1 7043   0.879   1.258   3.985
 2048SOL    HW2 7044   0.784   1.391   4.001
 2049SOL     OW 7045   4.356   1.154   4.659
 2049SOL    HW1 7046   4.268   1.186   4.694
 2049SOL    HW2 7047   4.424   1.228   4.666
 2050SOL     OW 7048   0.291   1.815   4.321
 2050SOL    HW1 7049   0.314   1.867   4.403
 2050SOL    HW2 7050   0.350   1.843   4.246
 2051SOL     OW 7051   2.874   6.660   0.593
 2051SOL    HW1 7052   2.821   6.681   0.676
 2051SOL    HW2 7053   2.965   6.699   0.601
 2052SOL     OW 7054   2.060   3.742   0.474
 2052SOL    HW1 7055   2.036   3.714   0.567
 2052SOL    HW2 7056   2.022   3.832   0.456
 2053SOL     OW 7057   0.961   5.183   4.648
 2053SOL    HW1 7058   0.922   5.199   4.738
 2053SOL    HW2 7059   1.048   5.232   4.640
 2054SOL     OW 7060   3.544   3.115   2.358
 2054SOL    HW1 7061   3.606   3.037   2.352
 2054SOL    HW2 7062   3.535   3.143   2.454
 2055SOL     OW 7063   0.935   2.672   4.699
 2055SOL    HW1 7064   0.918   2.751   4.757
 2055SOL    HW2 7065   0.855   2.612   4.699
 2056SOL     OW 7066   3.921   5.176   0.962
 2056SOL    HW1 7067   3.996   5.114   0.989
 2056SOL    HW2 7068   3.956   5.243   0.897
 2057SOL     OW 7069   5.654   2.760   4.569
 2057SOL    HW1 7070   5.673   2.760   4.667
 2057SOL    HW2 7071   5.579   2.697   4.549
 2058SOL     OW 7072   0.884   6.128   3.207
 2058SOL    HW1 7073   0.983   6.137   3.209
 2058SOL    HW2 7074   0.843   6.203   3.260
 2059SOL     OW 7075   2.583   0.360   5.514
 2059SOL    HW1 7076   2.539   0.328   5.429
 2059SOL    HW2 7077   2.549   0.305   5.590
 2060SOL     OW 7078   1.369   3.336   0.646
 2060SOL    HW1 7079   1.423   3.269   0.594
 2060SOL    HW2 7080   1.290   3.364   0.591
 2061SOL     OW 7081   1.959   2.454   2.558
 2061SOL    HW1 7082   1.891   2.506   2.609
 2061SOL    HW2 7083   1.949   2.357   2.579
 2062SOL     OW 7084   6.746   5.297   5.183
 2062SOL    HW1 7085   6.656   5.335   5.207
 2062SOL    HW2 7086   6.753   5.287   5.084
 2063SOL     OW 7087   1.680   6.976   5.121
 2063SOL    HW1 7088   1.670   6.900   5.185
 2063SOL    HW2 7089   1.642   0.036   5.163
 2064SOL     OW 7090   0.935   3.689   4.061
 2064SOL    HW1 7091   0.919   3.650   3.971
 2064SOL    HW2 7092   0.935   3.616   4.130
 2065SOL     OW 7093   5.038   2.553   5.472
 2065SOL    HW1 7094   4.996   2.496   5.542
 2065SOL    HW2 7095   5.025   2.511   5.382
 2066SOL     OW 7096   5.863   3.298   5.500
 2066SOL    HW1 7097   5.925   3.270   5.426
 2066SOL    HW2 7098   5.869   3.231   5.575
 2067SOL     OW 7099   6.553   4.671   1.281
 2067SOL    HW1 7100   6.542   4.600   1.351
 2067SOL    HW2 7101   6.529   4.760   1.319
 2068SOL     OW 7102   3.680   0.982   3.834
 2068SOL    HW1 7103   3.766   1.033   3.821
 2068SOL    HW2 7104   3.627   0.984   3.750
 2069SOL     OW 7105   6.875   1.741   4.297
 2069SOL    HW1 7106   6.922   1.788   4.222
 2069SOL    HW2 7107   6.917   1.651   4.312
 2070SOL     OW 7108   1.248   2.888   1.900
 2070SOL    HW1 7109   1.165   2.849   1.940
 2070SOL    HW2 7110   1.284   2.958   1.961
 2071SOL     OW 7111   6.193   1.375   5.782
 2071SOL    HW1 7112   6.223   1.309   5.850
 2071SOL    HW2 7113   6.259   1.451   5.777
 2072SOL     OW 7114   4.193   4.610   5.294
 2072SOL    HW1 7115   4.227   4.536   5.236
 2072SOL    HW2 7116   4.159   4.572   5.380
 2073SOL     OW 7117   3.994   6.463   6.915
 2073SOL    HW1 7118   3.897   6.457   6.936
 2073SOL    HW2 7119   4.025   6.557   6.926
 2074SOL     OW 7120   2.079   3.673   5.486
 2074SOL    HW1 7121   2.039   3.721   5.564
 2074SOL    HW2 7122   2.086   3.576   5.507
 2075SOL     OW 7123   6.851   2.349   2.234
 2075SOL    HW1 7124   6.772   2.304   2.278
 2075SOL    HW2 7125   6.917   2.374   2.304
 2076SOL     OW 7126   5.565   0.020   4.772
 2076SOL    HW1 7127   5.658   0.010   4.735
 2076SOL    HW2 7128   5.504   0.054   4.700
 2077SOL     OW 7129   0.681   3.294   1.564
 2077SOL    HW1 7130   0.719   3.202   1.565
 2077SOL    HW2 7131   0.625   3.308   1.646
 2078SOL     OW 7132   2.128   5.016   5.941
 2078SOL    HW1 7133   2.099   5.110   5.960
 2078SOL    HW2 7134   2.173   4.978   6.021
 2079SOL     OW 7135   5.074   1.411   1.881
 2079SOL    HW1 7136   5.155   1.438   1.829
 2079SOL    HW2 7137   5.082   1.445   1.975
 2080SOL     OW 7138   2.759   2.265   5.017
 2080SOL    HW1 7139   2.812   2.225   4.943
 2080SOL    HW2 7140   2.723   2.354   4.988
 2081SOL     OW 7141   0.538   6.663   3.017
 2081SOL    HW1 7142   0.631   6.689   2.989
 2081SOL    HW2 7143   0.527   6.564   3.008
 2082SOL     OW 7144   0.592   6.023   2.386
 2082SOL    HW1 7145   0.518   6.036   2.320
 2082SOL    HW2 7146   0.600   5.925   2.407
 2083SOL     OW 7147   0.260   6.161   3.712
 2083SOL    HW1 7148   0.184   6.193   3.655
 2083SOL    HW2 7149   0.318   6.238   3.737
 2084SOL     OW 7150   1.184   1.373   1.686
 2084SOL    HW1 7151   1.138   1.423   1.759
 2084SOL    HW2 7152   1.212   1.283   1.720
 2085SOL     OW 7153   5.166   6.111   0.132
 2085SOL    HW1 7154   5.121   6.192   0.093
 2085SOL    HW2 7155   5.238   6.139   0.195
 2086SOL     OW 7156   4.286   0.170   0.283
 2086SOL    HW1 7157   4.327   0.079   0.280
 2086SOL    HW2 7158   4.317   0.219   0.365
 2087SOL     OW 7159   4.182   1.892   6.784
 2087SOL    HW1 7160   4.095   1.940   6.775
 2087SOL    HW2 7161   4.174   1.801   6.743
 2088SOL     OW 7162   0.263   5.529   5.778
 2088SOL    HW1 7163   0.167   5.542   5.803
 2088SOL    HW2 7164   0.306   5.465   5.841
 2089SOL     OW 7165   3.716   3.033   5.660
 2089SOL    HW1 7166   3.620   3.033   5.689
 2089SOL    HW2 7167   3.749   3.127   5.655
 2090SOL     OW 7168   4.838   3.527   5.382
 2090SOL    HW1 7169   4.786   3.573   5.309
 2090SOL    HW2 7170   4.824   3.575   5.468
 2091SOL     OW 7171   6.227   5.604   1.590
 2091SOL    HW1 7172   6.150   5.667   1.576
 2091SOL    HW2 7173   6.288   5.606   1.512
 2092SOL     OW 7174   4.737   3.790   1.320
 2092SOL    HW1 7175   4.752   3.776   1.418
 2092SOL    HW2 7176   4.811   3.845   1.282
 2093SOL     OW 7177   3.975   2.175   2.328
 2093SOL    HW1 7178   3.906   2.180   2.400
 2093SOL    HW2 7179   4.065   2.195   2.367
 2094SOL     OW 7180   5.801   2.944   0.176
 2094SOL    HW1 7181   5.885   2.960   0.228
 2094SOL    HW2 7182   5.820   2.949   0.078
 2095SOL     OW 7183   5.912   6.307   3.926
 2095SOL    HW1 7184   5.899   6.386   3.866
 2095SOL    HW2 7185   5.826   6.257   3.935
 2096SOL     OW 7186   4.295   6.546   2.261
 2096SOL    HW1 7187   4.233   6.587   2.194
 2096SOL    HW2 7188   4.304   6.448   2.243
 2097SOL     OW 7189   1.930   4.577   6.774
 2097SOL    HW1 7190   1.893   4.512   6.841
 2097SOL    HW2 7191   2.015   4.616   6.809
 2098SOL     OW 7192   3.896   6.254   3.274
 2098SOL    HW1 7193   3.820   6.231   3.214
 2098SOL    HW2 7194   3.915   6.177   3.335
 2099SOL     OW 7195   4.750   1.612   6.780
 2099SOL    HW1 7196   4.756   1.516   6.805
 2099SOL    HW2 7197   4.817   1.631   6.708
 2100SOL     OW 7198   5.624   0.952   0.381
 2100SOL    HW1 7199   5.721   0.955   0.360
 2100SOL    HW2 7200   5.571   0.975   0.299
 2101SOL     OW 7201   6.969   6.483   1.447
 2101SOL    HW1 7202   0.043   6.505   1.447
 2101SOL    HW2 7203   6.956   6.386   1.467
 2102SOL     OW 7204   3.900   3.312   1.466
 2102SOL    HW1 7205   3.824   3.279   1.522
 2102SOL    HW2 7206   3.964   3.362   1.524
 2103SOL     OW 7207   3.077   5.470   0.171
 2103SOL    HW1 7208   3.030   5.461   0.083
 2103SOL    HW2 7209   3.032   5.412   0.239
 2104SOL     OW 7210   1.385   4.899   3.066
 2104SOL    HW1 7211   1.351   4.840   3.140
 2104SOL    HW2 7212   1.346   4.869   2.979
 2105SOL     OW 7213   5.123   4.496   0.096
 2105SOL    HW1 7214   5.203   4.465   0.045
 2105SOL    HW2 7215   5.125   4.457   0.188
 2106SOL     OW 7216   4.920   3.587   2.059
 2106SOL    HW1 7217   4.953   3.579   2.154
 2106SOL    HW2 7218   4.923   3.497   2.015
 2107SOL     OW 7219   5.125   3.871   5.865
 2107SOL    HW1 7220   5.035   3.844   5.899
 2107SOL    HW2 7221   5.150   3.959   5.906
 2108SOL     OW 7222   5.779   7.012   6.254
 2108SOL    HW1 7223   5.749   6.932   6.306
 2108SOL    HW2 7224   5.822   6.983   6.169
 2109SOL     OW 7225   3.096   5.785   2.888
 2109SOL    HW1 7226   3.061   5.709   2.834
 2109SOL    HW2 7227   3.167   5.753   2.951
 2110SOL     OW 7228   3.855   0.362   6.565
 2110SOL    HW1 7229   3.874   0.284   6.505
 2110SOL    HW2 7230   3.769   0.405   6.538
 2111SOL     OW 7231   1.009   2.982   5.687
 2111SOL    HW1 7232   1.061   2.931   5.618
 2111SOL    HW2 7233   1.071   3.038   5.741
 2112SOL     OW 7234   6.843   1.411   0.452
 2112SOL    HW1 7235   6.930   1.461   0.444
 2112SOL    HW2 7236   6.858   1.315   0.429
 2113SOL     OW 7237   1.505   6.844   4.394
 2113SOL    HW1 7238   1.529   6.885   4.482
 2113SOL    HW2 7239   1.461   6.755   4.410
 2114SOL     OW 7240   1.731   2.676   6.853
 2114SOL    HW1 7241   1.816   2.667   6.905
 2114SOL    HW2 7242   1.753   2.691   6.756
 2115SOL     OW 7243   0.309   5.150   3.227
 2115SOL    HW1 7244   0.322   5.198   3.140
 2115SOL    HW2 7245   0.371   5.072   3.231
 2116SOL     OW 7246   1.169   2.042   6.999
 2116SOL    HW1 7247   1.089   1.984   6.982
 2116SOL    HW2 7248   1.252   1.993   6.973
 2117SOL     OW 7249   5.632   2.095   2.311
 2117SOL    HW1 7250   5.542   2.127   2.342
 2117SOL    HW2 7251   5.669   2.158   2.244
 2118SOL     OW 7252   6.686   3.306   2.357
 2118SOL    HW1 7253   6.785   3.306   2.348
 2118SOL    HW2 7254   6.648   3.388   2.314
 2119SOL     OW 7255   2.366   0.565   6.477
 2119SOL    HW1 7256   2.358   0.657   6.515
 2119SOL    HW2 7257   2.463   0.542   6.465
 2120SOL     OW 7258   6.209   2.171   1.494
 2120SOL    HW1 7259   6.171   2.235   1.560
 2120SOL    HW2 7260   6.308   2.185   1.486
 2121SOL     OW 7261   2.151   1.380   5.632
 2121SOL    HW1 7262   2.064   1.360   5.587
 2121SOL    HW2 7263   2.208   1.298   5.633
 2122SOL     OW 7264   6.319   0.590   5.294
 2122SOL    HW1 7265   6.380   0.528   5.245
 2122SOL    HW2 7266   6.310   0.560   5.389
 2123SOL     OW 7267   0.655   5.538   2.995
 2123SOL    HW1 7268   0.614   5.525   3.086
 2123SOL    HW2 7269   0.706   5.624   2.994
 2124SOL     OW 7270   3.207   2.854   5.695
 2124SOL    HW1 7271   3.136   2.793   5.729
 2124SOL    HW2 7272   3.171   2.910   5.621
 2125SOL     OW 7273   1.559   5.641   3.728
 2125SOL    HW1 7274   1.538   5.580   3.651
 2125SOL    HW2 7275   1.657   5.636   3.748
 2126SOL     OW 7276   3.530   3.821   0.243
 2126SOL    HW1 7277   3.504   3.755   0.173
 2126SOL    HW2 7278   3.626   3.847   0.231
 2127SOL     OW 7279   0.341   3.002   5.898
 2127SOL    HW1 7280   0.378   3.080   5.848
 2127SOL    HW2 7281   0.403   2.924   5.890
 2128SOL     OW 7282   5.423   3.519   1.475
 2128SOL    HW1 7283   5.475   3.447   1.520
 2128SOL    HW2 7284   5.454   3.608   1.509
 2129SOL     OW 7285   5.246   3.855   3.636
 2129SOL    HW1 7286   5.295   3.784   3.688
 2129SOL    HW2 7287   5.312   3.917   3.594
 2130SOL     OW 7288   1.823   1.166   2.057
 2130SOL    HW1 7289   1.799   1.187   1.963
 2130SOL    HW2 7290   1.850   1.070   2.064
 2131SOL     OW 7291   5.715   1.591   6.019
 2131SOL    HW1 7292   5.783   1.521   6.036
 2131SOL    HW2 7293   5.656   1.601   6.100
 2132SOL     OW 7294   2.510   1.687   6.979
 2132SOL    HW1 7295   2.498   1.707   0.053
 2132SOL    HW2 7296   2.535   1.770   6.930
 2133SOL     OW 7297   2.403   1.433   1.592
 2133SOL    HW1 7298   2.394   1.365   1.666
 2133SOL    HW2 7299   2.478   1.496   1.613
 2134SOL     OW 7300   0.432   6.263   4.808
 2134SOL    HW1 7301   0.382   6.186   4.846
 2134SOL    HW2 7302   0.452   6.246   4.712
 2135SOL     OW 7303   0.764   0.838   3.347
 2135SOL    HW1 7304   0.752   0.791   3.434
 2135SOL    HW2 7305   0.846   0.804   3.301
 2136SOL     OW 7306   0.598   3.392   4.661
 2136SOL    HW1 7307   0.695   3.405   4.683
 2136SOL    HW2 7308   0.544   3.401   4.745
 2137SOL     OW 7309   1.118   6.606   5.305
 2137SOL    HW1 7310   1.139   6.546   5.381
 2137SOL    HW2 7311   1.158   6.696   5.321
 2138SOL     OW 7312   6.772   2.819   0.754
 2138SOL    HW1 7313   6.864   2.852   0.776
 2138SOL    HW2 7314   6.747   2.746   0.817
 2139SOL     OW 7315   3.219   0.481   4.569
 2139SOL    HW1 7316   3.205   0.580   4.578
 2139SOL    HW2 7317   3.226   0.457   4.472
 2140SOL     OW 7318   2.448   6.317   3.688
 2140SOL    HW1 7319   2.382   6.355   3.753
 2140SOL    HW2 7320   2.425   6.347   3.596
 2141SOL     OW 7321   6.107   2.897   0.877
 2141SOL    HW1 7322   6.099   2.965   0.804
 2141SOL    HW2 7323   6.191   2.914   0.929
 2142SOL     OW 7324   1.329   1.750   3.500
 2142SOL    HW1 7325   1.390   1.744   3.580
 2142SOL    HW2 7326   1.240   1.784   3.529
 2143SOL     OW 7327   3.467   6.766   1.630
 2143SOL    HW1 7328   3.412   6.841   1.591
 2143SOL    HW2 7329   3.561   6.774   1.597
 2144SOL     OW 7330   1.283   0.393   3.593
 2144SOL    HW1 7331   1.202   0.358   3.640
 2144SOL    HW2 7332   1.358   0.327   3.602
 2145SOL     OW 7333   3.334   5.586   3.548
 2145SOL    HW1 7334   3.336   5.542   3.637
 2145SOL    HW2 7335   3.330   5.517   3.476
 2146SOL     OW 7336   3.122   2.961   2.099
 2146SOL    HW1 7337   3.158   2.934   2.010
 2146SOL    HW2 7338   3.057   2.893   2.131
 2147SOL     OW 7339   0.782   1.894   6.274
 2147SOL    HW1 7340   0.776   1.821   6.206
 2147SOL    HW2 7341   0.735   1.865   6.357
 2148SOL     OW 7342   4.980   3.572   3.854
 2148SOL    HW1 7343   4.950   3.478   3.867
 2148SOL    HW2 7344   5.051   3.595   3.920
 2149SOL     OW 7345   3.910   1.038   2.368
 2149SOL    HW1 7346   3.903   1.126   2.415
 2149SOL    HW2 7347   3.833   1.029   2.304
 2150SOL     OW 7348   3.717   2.020   3.330
 2150SOL    HW1 7349   3.807   2.059   3.310
 2150SOL    HW2 7350   3.726   1.922   3.347
 2151SOL     OW 7351   3.810   2.445   5.734
 2151SOL    HW1 7352   3.849   2.527   5.692
 2151SOL    HW2 7353   3.739   2.472   5.800
 2152SOL     OW 7354   5.959   6.638   2.178
 2152SOL    HW1 7355   5.918   6.658   2.089
 2152SOL    HW2 7356   6.058   6.645   2.172
 2153SOL     OW 7357   4.646   1.712   4.038
 2153SOL    HW1 7358   4.641   1.612   4.047
 2153SOL    HW2 7359   4.556   1.748   4.012
 2154SOL     OW 7360   3.249   5.742   4.689
 2154SOL    HW1 7361   3.195   5.740   4.773
 2154SOL    HW2 7362   3.189   5.728   4.610
 2155SOL     OW 7363   1.754   4.441   0.361
 2155SOL    HW1 7364   1.718   4.475   0.273
 2155SOL    HW2 7365   1.781   4.346   0.351
 2156SOL     OW 7366   1.623   0.289   2.356
 2156SOL    HW1 7367   1.549   0.283   2.290
 2156SOL    HW2 7368   1.669   0.377   2.346
 2157SOL     OW 7369   6.945   1.334   5.188
 2157SOL    HW1 7370   6.892   1.417   5.200
 2157SOL    HW2 7371   6.884   1.257   5.168
 2158SOL     OW 7372   4.050   0.327   1.114
 2158SOL    HW1 7373   4.016   0.278   1.195
 2158SOL    HW2 7374   4.019   0.422   1.116
 2159SOL     OW 7375   1.469   0.113   4.501
 2159SOL    HW1 7376   1.453   0.047   4.574
 2159SOL    HW2 7377   1.436   0.075   4.414
 2160SOL     OW 7378   3.421   4.321   1.406
 2160SOL    HW1 7379   3.416   4.319   1.506
 2160SOL    HW2 7380   3.483   4.393   1.378
 2161SOL     OW 7381   5.119   3.335   3.684
 2161SOL    HW1 7382   5.097   3.322   3.781
 2161SOL    HW2 7383   5.038   3.313   3.629
 2162SOL     OW 7384   1.981   0.859   6.660
 2162SOL    HW1 7385   1.883   0.873   6.659
 2162SOL    HW2 7386   2.026   0.933   6.609
 2163SOL     OW 7387   1.628   0.403   0.041
 2163SOL    HW1 7388   1.577   0.331   7.016
 2163SOL    HW2 7389   1.622   0.488   7.012
 2164SOL     OW 7390   1.957   0.397   6.142
 2164SOL    HW1 7391   1.979   0.437   6.231
 2164SOL    HW2 7392   1.970   0.298   6.145
 2165SOL     OW 7393   1.341   0.510   2.235
 2165SOL    HW1 7394   1.256   0.456   2.233
 2165SOL    HW2 7395   1.418   0.451   2.210
 2166SOL     OW 7396   1.581   2.242   5.015
 2166SOL    HW1 7397   1.498   2.230   5.071
 2166SOL    HW2 7398   1.588   2.166   4.951
 2167SOL     OW 7399   3.093   0.671   2.132
 2167SOL    HW1 7400   3.000   0.682   2.167
 2167SOL    HW2 7401   3.146   0.753   2.151
 2168SOL     OW 7402   5.868   3.397   4.446
 2168SOL    HW1 7403   5.906   3.393   4.539
 2168SOL    HW2 7404   5.925   3.454   4.388
 2169SOL     OW 7405   5.234   2.801   6.115
 2169SOL    HW1 7406   5.151   2.815   6.169
 2169SOL    HW2 7407   5.296   2.879   6.128
 2170SOL     OW 7408   4.674   5.020   5.068
 2170SOL    HW1 7409   4.581   5.033   5.102
 2170SOL    HW2 7410   4.675   4.949   4.998
 2171SOL     OW 7411   6.716   3.440   0.031
 2171SOL    HW1 7412   6.777   3.484   0.096
 2171SOL    HW2 7413   6.631   3.414   0.078
 2172SOL     OW 7414   3.165   1.206   0.586
 2172SOL    HW1 7415   3.198   1.288   0.634
 2172SOL    HW2 7416   3.237   1.137   0.586
 2173SOL     OW 7417   4.130   1.023   5.651
 2173SOL    HW1 7418   4.101   1.055   5.561
 2173SOL    HW2 7419   4.195   0.948   5.640
 2174SOL     OW 7420   6.643   4.624   4.669
 2174SOL    HW1 7421   6.642   4.586   4.576
 2174SOL    HW2 7422   6.683   4.715   4.667
 2175SOL     OW 7423   2.857   0.236   3.665
 2175SOL    HW1 7424   2.948   0.199   3.650
 2175SOL    HW2 7425   2.791   0.187   3.607
 2176SOL     OW 7426   2.130   2.394   3.212
 2176SOL    HW1 7427   2.103   2.438   3.126
 2176SOL    HW2 7428   2.211   2.338   3.197
 2177SOL     OW 7429   0.109   2.184   0.938
 2177SOL    HW1 7430   0.106   2.222   0.846
 2177SOL    HW2 7431   0.197   2.139   0.954
 2178SOL     OW 7432   0.726   4.739   0.421
 2178SOL    HW1 7433   0.667   4.679   0.475
 2178SOL    HW2 7434   0.819   4.701   0.418
 2179SOL     OW 7435   1.657   5.098   4.708
 2179SOL    HW1 7436   1.719   5.176   4.711
 2179SOL    HW2 7437   1.696   5.026   4.651
 2180SOL     OW 7438   3.054   3.960   2.607
 2180SOL    HW1 7439   3.085   4.047   2.646
 2180SOL    HW2 7440   2.966   3.974   2.561
 2181SOL     OW 7441   4.954   5.988   5.559
 2181SOL    HW1 7442   4.915   5.967   5.470
 2181SOL    HW2 7443   4.990   5.904   5.600
 2182SOL     OW 7444   6.898   3.850   6.388
 2182SOL    HW1 7445   6.923   3.865   6.292
 2182SOL    HW2 7446   6.980   3.830   6.441
 2183SOL     OW 7447   3.128   2.884   0.435
 2183SOL    HW1 7448   3.154   2.819   0.507
 2183SOL    HW2 7449   3.106   2.834   0.351
 2184SOL     OW 7450   3.735   2.081   6.264
 2184SOL    HW1 7451   3.654   2.042   6.221
 2184SOL    HW2 7452   3.720   2.178   6.284
 2185SOL     OW 7453   1.341   0.903   0.386
 2185SOL    HW1 7454   1.320   0.973   0.317
 2185SOL    HW2 7455   1.269   0.902   0.456
 2186SOL     OW 7456   6.936   5.192   3.097
 2186SOL    HW1 7457   6.973   5.126   3.032
 2186SOL    HW2 7458   6.839   5.173   3.113
 2187SOL     OW 7459   6.109   1.519   0.478
 2187SOL    HW1 7460   6.016   1.515   0.517
 2187SOL    HW2 7461   6.112   1.588   0.407
 2188SOL     OW 7462   5.480   6.617   3.646
 2188SOL    HW1 7463   5.502   6.526   3.611
 2188SOL    HW2 7464   5.402   6.655   3.596
 2189SOL     OW 7465   2.224   0.000   6.041
 2189SOL    HW1 7466   2.268   6.987   5.958
 2189SOL    HW2 7467   2.292   0.051   6.094
 2190SOL     OW 7468   6.247   2.319   1.221
 2190SOL    HW1 7469   6.333   2.329   1.270
 2190SOL    HW2 7470   6.179   2.384   1.257
 2191SOL     OW 7471   3.403   3.179   6.496
 2191SOL    HW1 7472   3.435   3.164   6.402
 2191SOL    HW2 7473   3.322   3.123   6.512
 2192SOL     OW 7474   4.212   6.062   5.092
 2192SOL    HW1 7475   4.280   6.012   5.145
 2192SOL    HW2 7476   4.245   6.076   4.999
 2193SOL     OW 7477   0.717   5.071   5.896
 2193SOL    HW1 7478   0.756   5.066   5.988
 2193SOL    HW2 7479   0.703   4.979   5.860
 2194SOL     OW 7480   2.375   6.124   0.803
 2194SOL    HW1 7481   2.399   6.084   0.892
 2194SOL    HW2 7482   2.445   6.102   0.736
 2195SOL     OW 7483   1.430   5.348   2.949
 2195SOL    HW1 7484   1.389   5.402   2.876
 2195SOL    HW2 7485   1.477   5.269   2.909
 2196SOL     OW 7486   3.730   1.793   6.008
 2196SOL    HW1 7487   3.726   1.695   5.989
 2196SOL    HW2 7488   3.826   1.821   6.017
 2197SOL     OW 7489   4.977   5.046   1.735
 2197SOL    HW1 7490   5.045   5.016   1.802
 2197SOL    HW2 7491   4.941   4.967   1.686
 2198SOL     OW 7492   6.614   4.464   0.117
 2198SOL    HW1 7493   6.662   4.461   0.029
 2198SOL    HW2 7494   6.528   4.514   0.106
 2199SOL     OW 7495   4.555   6.896   1.047
 2199SOL    HW1 7496   4.602   6.821   1.000
 2199SOL    HW2 7497   4.615   6.935   1.116
 2200SOL     OW 7498   3.883   0.710   4.319
 2200SOL    HW1 7499   3.822   0.790   4.319
 2200SOL    HW2 7500   3.918   0.695   4.227
 2201SOL     OW 7501   6.351   3.413   2.376
 2201SOL    HW1 7502   6.387   3.322   2.399
 2201SOL    HW2 7503   6.308   3.409   2.285
 2202SOL     OW 7504   4.153   5.654   4.084
 2202SOL    HW1 7505   4.189   5.739   4.046
 2202SOL    HW2 7506   4.057   5.667   4.109
 2203SOL     OW 7507   3.690   2.070   2.942
 2203SOL    HW1 7508   3.616   2.099   3.003
 2203SOL    HW2 7509   3.709   1.973   2.958
 2204SOL     OW 7510   2.981   2.496   0.538
 2204SOL    HW1 7511   3.077   2.520   0.527
 2204SOL    HW2 7512   2.949   2.448   0.457
 2205SOL     OW 7513   2.531   6.603   0.423
 2205SOL    HW1 7514   2.557   6.618   0.518
 2205SOL    HW2 7515   2.564   6.514   0.392
 2206SOL     OW 7516   2.962   3.162   6.848
 2206SOL    HW1 7517   2.897   3.197   6.916
 2206SOL    HW2 7518   3.009   3.238   6.804
 2207SOL     OW 7519   1.609   4.624   6.423
 2207SOL    HW1 7520   1.612   4.544   6.363
 2207SOL    HW2 7521   1.515   4.639   6.453
 2208SOL     OW 7522   0.419   3.983   1.751
 2208SOL    HW1 7523   0.339   3.993   1.691
 2208SOL    HW2 7524   0.495   3.945   1.699
 2209SOL     OW 7525   1.029   5.544   6.022
 2209SOL    HW1 7526   0.974   5.536   6.105
 2209SOL    HW2 7527   1.122   5.511   6.040
 2210SOL     OW 7528   1.219   5.530   3.516
 2210SOL    HW1 7529   1.248   5.622   3.486
 2210SOL    HW2 7530   1.278   5.462   3.474
 2211SOL     OW 7531   5.999   1.060   5.478
 2211SOL    HW1 7532   6.055   1.140   5.500
 2211SOL    HW2 7533   5.937   1.041   5.554
 2212SOL     OW 7534   1.167   0.229   6.007
 2212SOL    HW1 7535   1.258   0.212   5.969
 2212SOL    HW2 7536   1.125   0.142   6.034
 2213SOL     OW 7537   4.126   2.205   3.586
 2213SOL    HW1 7538   4.073   2.192   3.502
 2213SOL    HW2 7539   4.207   2.261   3.566
 2214SOL     OW 7540   5.449   0.227   4.610
 2214SOL    HW1 7541   5.403   0.292   4.670
 2214SOL    HW2 7542   5.387   0.197   4.538
 2215SOL     OW 7543   6.662   2.151   5.341
 2215SOL    HW1 7544   6.614   2.074   5.298
 2215SOL    HW2 7545   6.759   2.146   5.319
 2216SOL     OW 7546   1.292   6.720   1.247
 2216SOL    HW1 7547   1.313   6.630   1.210
 2216SOL    HW2 7548   1.313   6.790   1.179
 2217SOL     OW 7549   4.469   6.930   1.384
 2217SOL    HW1 7550   4.464   0.006   1.399
 2217SOL    HW2 7551   4.553   6.895   1.425
 2218SOL     OW 7552   1.013   5.516   6.672
 2218SOL    HW1 7553   0.917   5.500   6.694
 2218SOL    HW2 7554   1.027   5.613   6.653
 2219SOL     OW 7555   2.144   4.082   3.186
 2219SOL    HW1 7556   2.167   4.150   3.256
 2219SOL    HW2 7557   2.205   4.093   3.108
 2220SOL     OW 7558   0.546   1.479   5.781
 2220SOL    HW1 7559   0.471   1.493   5.846
 2220SOL    HW2 7560   0.617   1.548   5.797
 2221SOL     OW 7561   6.501   2.149   1.470
 2221SOL    HW1 7562   6.515   2.054   1.439
 2221SOL    HW2 7563   6.567   2.170   1.542
 2222SOL     OW 7564   4.526   6.698   2.228
 2222SOL    HW1 7565   4.439   6.658   2.258
 2222SOL    HW2 7566   4.600   6.663   2.284
 2223SOL     OW 7567   5.556   5.039   3.717
 2223SOL    HW1 7568   5.469   5.068   3.678
 2223SOL    HW2 7569   5.553   5.051   3.817
 2224SOL     OW 7570   2.168   4.591   1.826
 2224SOL    HW1 7571   2.106   4.668   1.843
 2224SOL    HW2 7572   2.198   4.593   1.730
 2225SOL     OW 7573   6.051   4.634   2.060
 2225SOL    HW1 7574   6.024   4.549   2.104
 2225SOL    HW2 7575   6.120   4.680   2.117
 2226SOL     OW 7576   3.801   3.419   0.983
 2226SOL    HW1 7577   3.811   3.330   1.028
 2226SOL    HW2 7578   3.891   3.460   0.970
 2227SOL     OW 7579   6.658   3.965   5.523
 2227SOL    HW1 7580   6.731   3.982   5.456
 2227SOL    HW2 7581   6.635   3.868   5.523
 2228SOL     OW 7582   3.047   4.956   6.113
 2228SOL    HW1 7583   3.104   5.008   6.177
 2228SOL    HW2 7584   2.983   5.018   6.067
 2229SOL     OW 7585   4.354   1.098   3.069
 2229SOL    HW1 7586   4.331   1.023   3.006
 2229SOL    HW2 7587   4.437   1.143   3.039
 2230SOL     OW 7588   0.731   6.234   6.071
 2230SOL    HW1 7589   0.702   6.141   6.093
 2230SOL    HW2 7590   0.810   6.230   6.010
 2231SOL     OW 7591   2.314   6.751   1.998
 2231SOL    HW1 7592   2.387   6.718   2.057
 2231SOL    HW2 7593   2.231   6.764   2.052
 2232SOL     OW 7594   6.532   2.747   2.347
 2232SOL    HW1 7595   6.450   2.779   2.394
 2232SOL    HW2 7596   6.568   2.666   2.394
 2233SOL     OW 7597   3.491   6.623   0.326
 2233SOL    HW1 7598   3.470   6.718   0.302
 2233SOL    HW2 7599   3.577   6.596   0.284
 2234SOL     OW 7600   3.782   1.406   0.543
 2234SOL    HW1 7601   3.704   1.358   0.503
 2234SOL    HW2 7602   3.766   1.421   0.641
 2235SOL     OW 7603   0.931   6.574   0.477
 2235SOL    HW1 7604   0.897   6.651   0.530
 2235SOL    HW2 7605   1.031   6.573   0.478
 2236SOL     OW 7606   0.833   4.355   0.930
 2236SOL    HW1 7607   0.917   4.383   0.976
 2236SOL    HW2 7608   0.776   4.304   0.994
 2237SOL     OW 7609   6.127   2.757   4.880
 2237SOL    HW1 7610   6.218   2.784   4.849
 2237SOL    HW2 7611   6.091   2.826   4.943
 2238SOL     OW 7612   0.498   5.773   2.190
 2238SOL    HW1 7613   0.438   5.853   2.184
 2238SOL    HW2 7614   0.449   5.699   2.237
 2239SOL     OW 7615   4.228   5.257   3.223
 2239SOL    HW1 7616   4.148   5.309   3.191
 2239SOL    HW2 7617   4.254   5.191   3.152
 2240SOL     OW 7618   6.050   5.051   2.686
 2240SOL    HW1 7619   6.149   5.061   2.675
 2240SOL    HW2 7620   6.004   5.078   2.601
 2241SOL     OW 7621   0.266   6.549   1.903
 2241SOL    HW1 7622   0.279   6.453   1.929
 2241SOL    HW2 7623   0.244   6.602   1.984
 2242SOL     OW 7624   4.869   1.878   3.197
 2242SOL    HW1 7625   4.834   1.966   3.228
 2242SOL    HW2 7626   4.854   1.809   3.267
 2243SOL     OW 7627   2.611   5.606   5.213
 2243SOL    HW1 7628   2.602   5.699   5.178
 2243SOL    HW2 7629   2.525   5.577   5.255
 2244SOL     OW 7630   2.534   0.423   4.440
 2244SOL    HW1 7631   2.505   0.484   4.367
 2244SOL    HW2 7632   2.503   0.330   4.420
 2245SOL     OW 7633   1.023   0.797   2.303
 2245SOL    HW1 7634   1.016   0.735   2.381
 2245SOL    HW2 7635   1.077   0.755   2.230
 2246SOL     OW 7636   0.938   4.043   6.139
 2246SOL    HW1 7637   1.009   3.977   6.113
 2246SOL    HW2 7638   0.976   4.106   6.207
 2247SOL     OW 7639   2.616   3.118   6.577
 2247SOL    HW1 7640   2.606   3.174   6.495
 2247SOL    HW2 7641   2.526   3.088   6.608
 2248SOL     OW 7642   4.595   3.703   5.865
 2248SOL    HW1 7643   4.659   3.692   5.941
 2248SOL    HW2 7644   4.610   3.631   5.798
 2249SOL     OW 7645   5.353   5.873   3.547
 2249SOL    HW1 7646   5.416   5.804   3.512
 2249SOL    HW2 7647   5.274   5.880   3.485
 2250SOL     OW 7648   6.875   4.146   0.856
 2250SOL    HW1 7649   6.881   4.051   0.826
 2250SOL    HW2 7650   6.967   4.184   0.868
 2251SOL     OW 7651   5.669   0.807   0.045
 2251SOL    HW1 7652   5.590   0.747   0.037
 2251SOL    HW2 7653   5.640   0.897   0.078
 2252SOL     OW 7654   4.965   2.399   5.684
 2252SOL    HW1 7655   4.932   2.482   5.727
 2252SOL    HW2 7656   4.929   2.319   5.733
 2253SOL     OW 7657   2.383   3.035   0.145
 2253SOL    HW1 7658   2.376   3.126   0.105
 2253SOL    HW2 7659   2.475   3.022   0.183
 2254SOL     OW 7660   2.636   3.876   6.376
 2254SOL    HW1 7661   2.555   3.872   6.317
 2254SOL    HW2 7662   2.718   3.859   6.321
 2255SOL     OW 7663   5.721   2.727   1.902
 2255SOL    HW1 7664   5.752   2.694   1.991
 2255SOL    HW2 7665   5.794   2.780   1.858
 2256SOL     OW 7666   4.140   4.723   2.186
 2256SOL    HW1 7667   4.088   4.741   2.102
 2256SOL    HW2 7668   4.224   4.675   2.163
 2257SOL     OW 7669   2.055   4.377   3.620
 2257SOL    HW1 7670   2.035   4.290   3.576
 2257SOL    HW2 7671   2.150   4.378   3.651
 2258SOL     OW 7672   1.767   5.620   4.955
 2258SOL    HW1 7673   1.701   5.545   4.957
 2258SOL    HW2 7674   1.758   5.671   4.870
 2259SOL     OW 7675   5.190   3.832   6.826
 2259SOL    HW1 7676   5.211   3.920   6.867
 2259SOL    HW2 7677   5.169   3.844   6.729
 2260SOL     OW 7678   5.607   4.780   1.650
 2260SOL    HW1 7679   5.548   4.708   1.686
 2260SOL    HW2 7680   5.553   4.863   1.636
 2261SOL     OW 7681   5.334   0.251   0.133
 2261SOL    HW1 7682   5.323   0.152   0.128
 2261SOL    HW2 7683   5.360   0.287   0.043
 2262SOL     OW 7684   4.740   2.025   3.789
 2262SOL    HW1 7685   4.756   1.926   3.785
 2262SOL    HW2 7686   4.748   2.056   3.884
 2263SOL     OW 7687   0.946   5.210   5.861
 2263SOL    HW1 7688   0.852   5.178   5.876
 2263SOL    HW2 7689   0.996   5.142   5.808
 2264SOL     OW 7690   3.217   3.187   4.254
 2264SOL    HW1 7691   3.152   3.156   4.184
 2264SOL    HW2 7692   3.179   3.265   4.303
 2265SOL     OW 7693   0.089   7.012   1.995
 2265SOL    HW1 7694   0.000   6.973   2.018
 2265SOL    HW2 7695   0.095   0.003   1.896
 2266SOL     OW 7696   5.897   0.459   0.536
 2266SOL    HW1 7697   5.849   0.530   0.485
 2266SOL    HW2 7698   5.885   0.474   0.634
 2267SOL     OW 7699   6.676   2.884   5.779
 2267SOL    HW1 7700   6.656   2.965   5.834
 2267SOL    HW2 7701   6.595   2.826   5.774
 2268SOL     OW 7702   7.022   5.861   6.719
 2268SOL    HW1 7703   0.063   5.789   6.745
 2268SOL    HW2 7704   0.027   5.947   6.763
 2269SOL     OW 7705   6.449   5.427   5.888
 2269SOL    HW1 7706   6.547   5.444   5.878
 2269SOL    HW2 7707   6.402   5.452   5.804
 2270SOL     OW 7708   3.904   3.484   1.896
 2270SOL    HW1 7709   3.928   3.428   1.817
 2270SOL    HW2 7710   3.932   3.438   1.980
 2271SOL     OW 7711   6.435   4.629   2.251
 2271SOL    HW1 7712   6.371   4.706   2.255
 2271SOL    HW2 7713   6.383   4.545   2.235
 2272SOL     OW 7714   5.657   1.999   5.677
 2272SOL    HW1 7715   5.653   1.899   5.671
 2272SOL    HW2 7716   5.591   2.039   5.614
 2273SOL     OW 7717   0.699   1.512   3.287
 2273SOL    HW1 7718   0.611   1.491   3.245
 2273SOL    HW2 7719   0.765   1.440   3.266
 2274SOL     OW 7720   1.338   3.542   4.508
 2274SOL    HW1 7721   1.380   3.540   4.599
 2274SOL    HW2 7722   1.277   3.621   4.502
 2275SOL     OW 7723   5.237   6.739   4.146
 2275SOL    HW1 7724   5.230   6.735   4.046
 2275SOL    HW2 7725   5.239   6.646   4.183
 2276SOL     OW 7726   4.181   4.487   1.669
 2276SOL    HW1 7727   4.191   4.576   1.712
 2276SOL    HW2 7728   4.264   4.432   1.685
 2277SOL     OW 7729   3.308   3.149   0.138
 2277SOL    HW1 7730   3.383   3.212   0.119
 2277SOL    HW2 7731   3.226   3.200   0.164
 2278SOL     OW 7732   5.208   5.839   1.356
 2278SOL    HW1 7733   5.228   5.742   1.342
 2278SOL    HW2 7734   5.264   5.894   1.293
 2279SOL     OW 7735   5.608   3.178   4.983
 2279SOL    HW1 7736   5.529   3.125   5.015
 2279SOL    HW2 7737   5.588   3.218   4.894
 2280SOL     OW 7738   5.995   6.172   6.130
 2280SOL    HW1 7739   5.949   6.191   6.216
 2280SOL    HW2 7740   6.036   6.081   6.134
 2281SOL     OW 7741   3.794   2.197   1.482
 2281SOL    HW1 7742   3.860   2.236   1.546
 2281SOL    HW2 7743   3.702   2.232   1.503
 2282SOL     OW 7744   4.768   5.578   2.799
 2282SOL    HW1 7745   4.677   5.596   2.835
 2282SOL    HW2 7746   4.803   5.492   2.837
 2283SOL     OW 7747   0.056   3.310   3.523
 2283SOL    HW1 7748   7.012   3.341   3.591
 2283SOL    HW2 7749   0.076   3.213   3.539
 2284SOL     OW 7750   2.192   2.225   1.729
 2284SOL    HW1 7751   2.111   2.183   1.771
 2284SOL    HW2 7752   2.163   2.305   1.676
 2285SOL     OW 7753   1.902   4.168   0.940
 2285SOL    HW1 7754   1.887   4.180   0.842
 2285SOL    HW2 7755   1.939   4.077   0.958
 2286SOL     OW 7756   6.444   6.353   5.037
 2286SOL    HW1 7757   6.408   6.323   4.948
 2286SOL    HW2 7758   6.495   6.279   5.079
 2287SOL     OW 7759   2.475   2.573   1.986
 2287SOL    HW1 7760   2.407   2.507   1.954
 2287SOL    HW2 7761   2.518   2.618   1.908
 2288SOL     OW 7762   0.286   6.357   3.017
 2288SOL    HW1 7763   0.211   6.405   3.063
 2288SOL    HW2 7764   0.268   6.258   3.018
 2289SOL     OW 7765   5.373   2.181   2.415
 2289SOL    HW1 7766   5.299   2.131   2.370
 2289SOL    HW2 7767   5.344   2.211   2.505
 2290SOL     OW 7768   2.973   3.590   2.886
 2290SOL    HW1 7769   2.937   3.527   2.818
 2290SOL    HW2 7770   3.037   3.653   2.843
 2291SOL     OW 7771   1.926   2.906   0.963
 2291SOL    HW1 7772   1.872   2.962   0.901
 2291SOL    HW2 7773   1.962   2.826   0.914
 2292SOL     OW 7774   4.313   2.025   3.257
 2292SOL    HW1 7775   4.288   1.978   3.172
 2292SOL    HW2 7776   4.265   2.112   3.262
 2293SOL     OW 7777   6.009   1.164   0.120
 2293SOL    HW1 7778   5.964   1.182   0.207
 2293SOL    HW2 7779   6.078   1.093   0.132
 2294SOL     OW 7780   0.753   2.382   5.808
 2294SOL    HW1 7781   0.717   2.296   5.843
 2294SOL    HW2 7782   0.852   2.384   5.818
 2295SOL     OW 7783   6.186   6.670   1.775
 2295SOL    HW1 7784   6.228   6.742   1.721
 2295SOL    HW2 7785   6.242   6.587   1.770
 2296SOL     OW 7786   2.636   5.516   3.781
 2296SOL    HW1 7787   2.642   5.427   3.737
 2296SOL    HW2 7788   2.639   5.505   3.880
 2297SOL     OW 7789   4.462   4.476   5.472
 2297SOL    HW1 7790   4.427   4.493   5.380
 2297SOL    HW2 7791   4.401   4.517   5.539
 2298SOL     OW 7792   3.608   3.239   4.799
 2298SOL    HW1 7793   3.602   3.170   4.870
 2298SOL    HW2 7794   3.660   3.202   4.721
 2299SOL     OW 7795   5.658   2.807   4.840
 2299SOL    HW1 7796   5.561   2.824   4.826
 2299SOL    HW2 7797   5.686   2.842   4.929
 2300SOL     OW 7798   4.059   6.385   2.653
 2300SOL    HW1 7799   3.989   6.331   2.605
 2300SOL    HW2 7800   4.072   6.472   2.606
 2301SOL     OW 7801   3.496   3.863   4.743
 2301SOL    HW1 7802   3.524   3.953   4.709
 2301SOL    HW2 7803   3.505   3.860   4.843
 2302SOL     OW 7804   4.940   2.263   0.185
 2302SOL    HW1 7805   4.862   2.256   0.123
 2302SOL    HW2 7806   5.019   2.298   0.135
 2303SOL     OW 7807   3.050   2.143   0.901
 2303SOL    HW1 7808   3.005   2.169   0.986
 2303SOL    HW2 7809   3.142   2.108   0.921
 2304SOL     OW 7810   5.891   5.884   2.139
 2304SOL    HW1 7811   5.835   5.963   2.116
 2304SOL    HW2 7812   5.833   5.803   2.148
 2305SOL     OW 7813   1.624   1.055   4.910
 2305SOL    HW1 7814   1.670   1.044   4.822
 2305SOL    HW2 7815   1.654   0.983   4.973
 2306SOL     OW 7816   2.271   5.056   3.796
 2306SOL    HW1 7817   2.228   5.046   3.706
 2306SOL    HW2 7818   2.200   5.074   3.864
 2307SOL     OW 7819   0.830   2.377   5.250
 2307SOL    HW1 7820   0.907   2.408   5.307
 2307SOL    HW2 7821   0.820   2.278   5.261
 2308SOL     OW 7822   2.639   4.432   1.476
 2308SOL    HW1 7823   2.631   4.488   1.393
 2308SOL    HW2 7824   2.625   4.490   1.557
 2309SOL     OW 7825   1.315   6.628   4.321
 2309SOL    HW1 7826   1.281   6.713   4.282
 2309SOL    HW2 7827   1.358   6.573   4.250
 2310SOL     OW 7828   4.651   6.560   1.389
 2310SOL    HW1 7829   4.736   6.612   1.380
 2310SOL    HW2 7830   4.598   6.568   1.305
 2311SOL     OW 7831   2.508   6.099   1.276
 2311SOL    HW1 7832   2.487   6.074   1.181
 2311SOL    HW2 7833   2.450   6.175   1.304
 2312SOL     OW 7834   3.466   4.901   2.804
 2312SOL    HW1 7835   3.505   4.930   2.891
 2312SOL    HW2 7836   3.370   4.874   2.817
 2313SOL     OW 7837   5.424   5.008   2.314
 2313SOL    HW1 7838   5.328   5.029   2.331
 2313SOL    HW2 7839   5.439   4.910   2.323
 2314SOL     OW 7840   3.066   5.936   4.186
 2314SOL    HW1 7841   3.102   6.029   4.183
 2314SOL    HW2 7842   3.073   5.895   4.095
 2315SOL     OW 7843   4.032   3.226   6.650
 2315SOL    HW1 7844   4.006   3.183   6.564
 2315SOL    HW2 7845   4.130   3.217   6.664
 2316SOL     OW 7846   5.291   2.879   3.039
 2316SOL    HW1 7847   5.199   2.857   3.070
 2316SOL    HW2 7848   5.358   2.827   3.093
 2317SOL     OW 7849   1.437   4.312   3.361
 2317SOL    HW1 7850   1.415   4.240   3.295
 2317SOL    HW2 7851   1.519   4.361   3.331
 2318SOL     OW 7852   0.175   0.704   3.292
 2318SOL    HW1 7853   0.261   0.710   3.342
 2318SOL    HW2 7854   0.153   0.609   3.274
 2319SOL     OW 7855   1.801   4.343   4.245
 2319SOL    HW1 7856   1.761   4.403   4.314
 2319SOL    HW2 7857   1.736   4.271   4.221
 2320SOL     OW 7858   6.814   2.727   4.286
 2320SOL    HW1 7859   6.763   2.768   4.362
 2320SOL    HW2 7860   6.909   2.714   4.313
 2321SOL     OW 7861   2.973   6.826   5.475
 2321SOL    HW1 7862   2.984   6.901   5.410
 2321SOL    HW2 7863   2.890   6.775   5.453
 2322SOL     OW 7864   1.878   0.449   4.969
 2322SOL    HW1 7865   1.840   0.373   4.916
 2322SOL    HW2 7866   1.837   0.450   5.060
 2323SOL     OW 7867   4.322   5.806   2.043
 2323SOL    HW1 7868   4.368   5.863   2.112
 2323SOL    HW2 7869   4.279   5.866   1.975
 2324SOL     OW 7870   0.059   5.312   3.292
 2324SOL    HW1 7871   0.010   5.265   3.219
 2324SOL    HW2 7872   0.135   5.365   3.252
 2325SOL     OW 7873   0.601   3.171   1.039
 2325SOL    HW1 7874   0.661   3.248   1.016
 2325SOL    HW2 7875   0.605   3.104   0.964
 2326SOL     OW 7876   1.355   5.336   6.660
 2326SOL    HW1 7877   1.435   5.296   6.616
 2326SOL    HW2 7878   1.276   5.276   6.646
 2327SOL     OW 7879   4.895   2.647   4.291
 2327SOL    HW1 7880   4.993   2.627   4.297
 2327SOL    HW2 7881   4.880   2.743   4.312
 2328SOL     OW 7882   4.379   0.740   2.983
 2328SOL    HW1 7883   4.387   0.755   3.082
 2328SOL    HW2 7884   4.286   0.710   2.961
 2329SOL     OW 7885   1.194   5.911   3.814
 2329SOL    HW1 7886   1.150   5.895   3.902
 2329SOL    HW2 7887   1.175   6.004   3.784
 2330SOL     OW 7888   0.419   4.369   2.790
 2330SOL    HW1 7889   0.342   4.335   2.844
 2330SOL    HW2 7890   0.464   4.292   2.745
 2331SOL     OW 7891   0.770   4.887   5.388
 2331SOL    HW1 7892   0.721   4.810   5.345
 2331SOL    HW2 7893   0.753   4.970   5.335
 2332SOL     OW 7894   5.578   2.662   6.087
 2332SOL    HW1 7895   5.607   2.753   6.118
 2332SOL    HW2 7896   5.658   2.607   6.067
 2333SOL     OW 7897   1.249   5.823   3.450
 2333SOL    HW1 7898   1.172   5.882   3.472
 2333SOL    HW2 7899   1.331   5.854   3.498
 2334SOL     OW 7900   3.410   6.964   7.003
 2334SOL    HW1 7901   3.386   0.035   0.004
 2334SOL    HW2 7902   3.339   6.901   0.012
 2335SOL     OW 7903   5.230   6.915   3.635
 2335SOL    HW1 7904   5.304   6.876   3.580
 2335SOL    HW2 7905   5.264   6.994   3.686
 2336SOL     OW 7906   4.982   1.499   5.797
 2336SOL    HW1 7907   4.922   1.425   5.826
 2336SOL    HW2 7908   5.047   1.520   5.869
 2337SOL     OW 7909   5.295   6.956   3.074
 2337SOL    HW1 7910   5.238   7.009   3.137
 2337SOL    HW2 7911   5.390   6.989   3.080
 2338SOL     OW 7912   0.774   6.695   6.452
 2338SOL    HW1 7913   0.815   6.705   6.361
 2338SOL    HW2 7914   0.687   6.744   6.455
 2339SOL     OW 7915   3.516   4.529   0.077
 2339SOL    HW1 7916   3.603   4.508   0.032
 2339SOL    HW2 7917   3.492   4.455   0.139
 2340SOL     OW 7918   3.583   5.586   4.865
 2340SOL    HW1 7919   3.664   5.531   4.844
 2340SOL    HW2 7920   3.551   5.564   4.957
 2341SOL     OW 7921   5.348   5.304   1.210
 2341SOL    HW1 7922   5.340   5.367   1.133
 2341SOL    HW2 7923   5.430   5.248   1.198
 2342SOL     OW 7924   6.124   0.652   5.080
 2342SOL    HW1 7925   6.167   0.627   5.167
 2342SOL    HW2 7926   6.052   0.586   5.058
 2343SOL     OW 7927   1.451   6.211   0.937
 2343SOL    HW1 7928   1.499   6.211   0.849
 2343SOL    HW2 7929   1.370   6.152   0.931
 2344SOL     OW 7930   1.291   2.202   2.288
 2344SOL    HW1 7931   1.366   2.258   2.324
 2344SOL    HW2 7932   1.225   2.261   2.242
 2345SOL     OW 7933   2.046   1.077   4.444
 2345SOL    HW1 7934   2.116   1.043   4.507
 2345SOL    HW2 7935   2.055   1.176   4.434
 2346SOL     OW 7936   5.150   4.139   5.999
 2346SOL    HW1 7937   5.130   4.079   6.077
 2346SOL    HW2 7938   5.185   4.227   6.032
 2347SOL     OW 7939   1.343   2.579   1.739
 2347SOL    HW1 7940   1.422   2.560   1.798
 2347SOL    HW2 7941   1.268   2.517   1.762
 2348SOL     OW 7942   2.744   6.833   2.482
 2348SOL    HW1 7943   2.730   6.739   2.450
 2348SOL    HW2 7944   2.819   6.836   2.548
 2349SOL     OW 7945   5.840   6.480   5.536
 2349SOL    HW1 7946   5.917   6.479   5.472
 2349SOL    HW2 7947   5.755   6.462   5.486
 2350SOL     OW 7948   2.693   6.950   5.910
 2350SOL    HW1 7949   2.662   6.884   5.978
 2350SOL    HW2 7950   2.614   6.998   5.872
 2351SOL     OW 7951   2.344   5.245   4.082
 2351SOL    HW1 7952   2.308   5.337   4.097
 2351SOL    HW2 7953   2.394   5.242   3.996
 2352SOL     OW 7954   0.700   3.907   2.949
 2352SOL    HW1 7955   0.727   3.953   2.864
 2352SOL    HW2 7956   0.779   3.898   3.009
 2353SOL     OW 7957   3.400   4.700   5.753
 2353SOL    HW1 7958   3.387   4.665   5.660
 2353SOL    HW2 7959   3.497   4.706   5.773
 2354SOL     OW 7960   3.666   2.023   0.655
 2354SOL    HW1 7961   3.670   1.993   0.751
 2354SOL    HW2 7962   3.749   1.993   0.608
 2355SOL     OW 7963   0.283   6.256   0.994
 2355SOL    HW1 7964   0.246   6.168   0.967
 2355SOL    HW2 7965   0.366   6.242   1.048
 2356SOL     OW 7966   2.747   5.010   3.729
 2356SOL    HW1 7967   2.753   5.041   3.824
 2356SOL    HW2 7968   2.782   4.916   3.723
 2357SOL     OW 7969   6.556   3.938   1.890
 2357SOL    HW1 7970   6.573   3.887   1.975
 2357SOL    HW2 7971   6.626   4.009   1.880
 2358SOL     OW 7972   3.997   1.623   5.595
 2358SOL    HW1 7973   3.990   1.612   5.694
 2358SOL    HW2 7974   3.931   1.691   5.564
 2359SOL     OW 7975   1.475   1.680   5.349
 2359SOL    HW1 7976   1.439   1.725   5.430
 2359SOL    HW2 7977   1.428   1.593   5.335
 2360SOL     OW 7978   4.082   4.602   0.989
 2360SOL    HW1 7979   4.068   4.575   1.084
 2360SOL    HW2 7980   3.994   4.625   0.948
 2361SOL     OW 7981   3.159   6.687   2.030
 2361SOL    HW1 7982   3.171   6.660   1.934
 2361SOL    HW2 7983   3.063   6.676   2.056
 2362SOL     OW 7984   3.908   5.734   4.428
 2362SOL    HW1 7985   3.965   5.653   4.443
 2362SOL    HW2 7986   3.812   5.708   4.426
 2363SOL     OW 7987   3.402   3.422   0.709
 2363SOL    HW1 7988   3.398   3.510   0.756
 2363SOL    HW2 7989   3.492   3.380   0.723
 2364SOL     OW 7990   4.380   1.861   2.118
 2364SOL    HW1 7991   4.323   1.925   2.066
 2364SOL    HW2 7992   4.461   1.838   2.064
 2365SOL     OW 7993   5.801   3.662   4.042
 2365SOL    HW1 7994   5.808   3.762   4.050
 2365SOL    HW2 7995   5.891   3.621   4.055
 2366SOL     OW 7996   2.384   4.535   5.436
 2366SOL    HW1 7997   2.345   4.607   5.378
 2366SOL    HW2 7998   2.384   4.448   5.386
 2367SOL     OW 7999   0.642   4.278   5.875
 2367SOL    HW1 8000   0.627   4.239   5.784
 2367SOL    HW2 8001   0.734   4.318   5.879
 2368SOL     OW 8002   5.749   6.647   4.432
 2368SOL    HW1 8003   5.669   6.591   4.410
 2368SOL    HW2 8004   5.820   6.589   4.472
 2369SOL     OW 8005   2.791   1.347   3.520
 2369SOL    HW1 8006   2.712   1.346   3.458
 2369SOL    HW2 8007   2.811   1.255   3.551
 2370SOL     OW 8008   5.622   2.367   1.424
 2370SOL    HW1 8009   5.698   2.400   1.369
 2370SOL    HW2 8010   5.592   2.441   1.485
 2371SOL     OW 8011   0.920   6.968   2.775
 2371SOL    HW1 8012   0.849   0.008   2.744
 2371SOL    HW2 8013   0.996   7.021   2.815
 2372SOL     OW 8014   6.593   1.416   5.944
 2372SOL    HW1 8015   6.498   1.385   5.955
 2372SOL    HW2 8016   6.638   1.362   5.873
 2373SOL     OW 8017   6.066   6.705   6.136
 2373SOL    HW1 8018   5.970   6.681   6.152
 2373SOL    HW2 8019   6.080   6.725   6.039
 2374SOL     OW 8020   6.112   6.105   2.300
 2374SOL    HW1 8021   6.165   6.029   2.261
 2374SOL    HW2 8022   6.066   6.074   2.383
 2375SOL     OW 8023   1.465   0.674   4.027
 2375SOL    HW1 8024   1.534   0.664   3.955
 2375SOL    HW2 8025   1.507   0.713   4.109
 2376SOL     OW 8026   5.908   1.661   2.803
 2376SOL    HW1 8027   6.007   1.669   2.799
 2376SOL    HW2 8028   5.877   1.588   2.742
 2377SOL     OW 8029   4.103   4.998   5.838
 2377SOL    HW1 8030   4.097   5.032   5.931
 2377SOL    HW2 8031   4.081   5.071   5.774
 2378SOL     OW 8032   6.919   1.532   0.085
 2378SOL    HW1 8033   6.978   1.498   0.158
 2378SOL    HW2 8034   6.974   1.545   0.002
 2379SOL     OW 8035   6.714   5.474   1.075
 2379SOL    HW1 8036   6.726   5.566   1.113
 2379SOL    HW2 8037   6.802   5.426   1.076
 2380SOL     OW 8038   5.158   4.634   5.037
 2380SOL    HW1 8039   5.086   4.681   4.986
 2380SOL    HW2 8040   5.193   4.694   5.109
 2381SOL     OW 8041   3.150   5.202   4.984
 2381SOL    HW1 8042   3.163   5.193   4.885
 2381SOL    HW2 8043   3.052   5.205   5.005
 2382SOL     OW 8044   1.213   6.307   1.801
 2382SOL    HW1 8045   1.139   6.331   1.865
 2382SOL    HW2 8046   1.217   6.375   1.728
 2383SOL     OW 8047   4.992   5.836   4.805
 2383SOL    HW1 8048   5.009   5.829   4.707
 2383SOL    HW2 8049   5.075   5.811   4.855
 2384SOL     OW 8050   1.084   1.688   1.661
 2384SOL    HW1 8051   1.140   1.741   1.725
 2384SOL    HW2 8052   1.055   1.746   1.586
 2385SOL     OW 8053   0.418   1.977   0.686
 2385SOL    HW1 8054   0.355   2.017   0.620
 2385SOL    HW2 8055   0.508   1.967   0.643
 2386SOL     OW 8056   4.530   6.240   3.820
 2386SOL    HW1 8057   4.604   6.180   3.850
 2386SOL    HW2 8058   4.564   6.305   3.752
 2387SOL     OW 8059   1.114   1.446   3.230
 2387SOL    HW1 8060   1.100   1.536   3.188
 2387SOL    HW2 8061   1.210   1.419   3.220
 2388SOL     OW 8062   6.388   1.998   5.742
 2388SOL    HW1 8063   6.318   1.988   5.813
 2388SOL    HW2 8064   6.432   2.088   5.751
 2389SOL     OW 8065   5.281   4.394   3.863
 2389SOL    HW1 8066   5.272   4.455   3.785
 2389SOL    HW2 8067   5.202   4.332   3.866
 2390SOL     OW 8068   4.792   4.674   5.978
 2390SOL    HW1 8069   4.746   4.748   6.026
 2390SOL    HW2 8070   4.732   4.639   5.906
 2391SOL     OW 8071   3.545   3.700   6.797
 2391SOL    HW1 8072   3.494   3.737   6.719
 2391SOL    HW2 8073   3.525   3.603   6.807
 2392SOL     OW 8074   3.315   6.142   4.794
 2392SOL    HW1 8075   3.370   6.102   4.722
 2392SOL    HW2 8076   3.255   6.072   4.834
 2393SOL     OW 8077   3.078   5.170   1.347
 2393SOL    HW1 8078   3.061   5.101   1.276
 2393SOL    HW2 8079   3.030   5.145   1.430
 2394SOL     OW 8080   0.573   2.865   3.240
 2394SOL    HW1 8081   0.668   2.839   3.219
 2394SOL    HW2 8082   0.565   2.886   3.337
 2395SOL     OW 8083   0.284   2.579   5.871
 2395SOL    HW1 8084   0.365   2.633   5.846
 2395SOL    HW2 8085   0.202   2.625   5.838
 2396SOL     OW 8086   6.443   1.176   5.520
 2396SOL    HW1 8087   6.509   1.217   5.583
 2396SOL    HW2 8088   6.488   1.109   5.463
 2397SOL     OW 8089   0.554   4.719   5.247
 2397SOL    HW1 8090   0.563   4.625   5.212
 2397SOL    HW2 8091   0.474   4.725   5.306
 2398SOL     OW 8092   2.940   5.381   4.029
 2398SOL    HW1 8093   2.977   5.374   3.936
 2398SOL    HW2 8094   3.011   5.416   4.090
 2399SOL     OW 8095   2.904   2.289   3.548
 2399SOL    HW1 8096   2.916   2.301   3.647
 2399SOL    HW2 8097   2.808   2.271   3.528
 2400SOL     OW 8098   1.406   3.566   0.496
 2400SOL    HW1 8099   1.399   3.526   0.587
 2400SOL    HW2 8100   1.468   3.511   0.440
 2401SOL     OW 8101   3.689   6.953   6.171
 2401SOL    HW1 8102   3.684   6.910   6.261
 2401SOL    HW2 8103   3.785   6.973   6.150
 2402SOL     OW 8104   0.959   2.142   2.230
 2402SOL    HW1 8105   0.872   2.163   2.186
 2402SOL    HW2 8106   1.034   2.181   2.175
 2403SOL     OW 8107   3.563   3.796   2.845
 2403SOL    HW1 8108   3.639   3.766   2.788
 2403SOL    HW2 8109   3.586   3.884   2.887
 2404SOL     OW 8110   6.947   1.499   0.876
 2404SOL    HW1 8111   0.004   1.559   0.876
 2404SOL    HW2 8112   6.906   1.499   0.785
 2405SOL     OW 8113   2.890   4.080   0.729
 2405SOL    HW1 8114   2.881   4.008   0.660
 2405SOL    HW2 8115   2.799   4.103   0.765
 2406SOL     OW 8116   2.336   0.151   5.040
 2406SOL    HW1 8117   2.354   0.117   4.948
 2406SOL    HW2 8118   2.269   0.092   5.085
 2407SOL     OW 8119   3.867   1.162   3.745
 2407SOL    HW1 8120   3.945   1.225   3.744
 2407SOL    HW2 8121   3.791   1.201   3.693
 2408SOL     OW 8122   2.393   6.374   4.366
 2408SOL    HW1 8123   2.475   6.431   4.368
 2408SOL    HW2 8124   2.419   6.278   4.381
 2409SOL     OW 8125   2.803   2.533   0.937
 2409SOL    HW1 8126   2.741   2.579   1.000
 2409SOL    HW2 8127   2.750   2.480   0.871
 2410SOL     OW 8128   6.497   3.776   5.837
 2410SOL    HW1 8129   6.560   3.825   5.898
 2410SOL    HW2 8130   6.435   3.840   5.793
 2411SOL     OW 8131   2.508   3.437   0.344
 2411SOL    HW1 8132   2.437   3.503   0.366
 2411SOL    HW2 8133   2.480   3.382   0.265
 2412SOL     OW 8134   2.606   2.323   6.539
 2412SOL    HW1 8135   2.552   2.239   6.544
 2412SOL    HW2 8136   2.676   2.323   6.610
 2413SOL     OW 8137   0.167   2.641   6.613
 2413SOL    HW1 8138   0.231   2.631   6.538
 2413SOL    HW2 8139   0.137   2.736   6.620
 2414SOL     OW 8140   6.082   2.395   4.556
 2414SOL    HW1 8141   5.994   2.442   4.548
 2414SOL    HW2 8142   6.156   2.462   4.555
 2415SOL     OW 8143   2.766   6.049   1.381
 2415SOL    HW1 8144   2.816   6.135   1.384
 2415SOL    HW2 8145   2.680   6.061   1.331
 2416SOL     OW 8146   6.740   3.128   3.015
 2416SOL    HW1 8147   6.835   3.136   2.986
 2416SOL    HW2 8148   6.680   3.156   2.941
 2417SOL     OW 8149   3.940   3.170   0.752
 2417SOL    HW1 8150   3.864   3.233   0.739
 2417SOL    HW2 8151   3.905   3.084   0.790
 2418SOL     OW 8152   4.937   4.006   5.647
 2418SOL    HW1 8153   4.843   4.028   5.669
 2418SOL    HW2 8154   4.999   4.064   5.700
 2419SOL     OW 8155   2.078   6.063   4.374
 2419SOL    HW1 8156   2.006   6.047   4.441
 2419SOL    HW2 8157   2.167   6.054   4.418
 2420SOL     OW 8158   2.724   5.077   2.506
 2420SOL    HW1 8159   2.676   5.043   2.425
 2420SOL    HW2 8160   2.766   5.000   2.555
 2421SOL     OW 8161   3.262   6.825   4.566
 2421SOL    HW1 8162   3.311   6.746   4.601
 2421SOL    HW2 8163   3.235   6.809   4.471
 2422SOL     OW 8164   3.789   6.517   1.883
 2422SOL    HW1 8165   3.832   6.578   1.949
 2422SOL    HW2 8166   3.859   6.477   1.824
 2423SOL     OW 8167   1.778   4.987   2.281
 2423SOL    HW1 8168   1.803   5.077   2.245
 2423SOL    HW2 8169   1.834   4.966   2.361
 2424SOL     OW 8170   5.318   0.864   6.213
 2424SOL    HW1 8171   5.361   0.889   6.127
 2424SOL    HW2 8172   5.377   0.799   6.262
 2425SOL     OW 8173   4.362   5.380   5.845
 2425SOL    HW1 8174   4.371   5.331   5.758
 2425SOL    HW2 8175   4.386   5.476   5.832
 2426SOL     OW 8176   1.315   5.075   5.391
 2426SOL    HW1 8177   1.218   5.062   5.371
 2426SOL    HW2 8178   1.333   5.172   5.407
 2427SOL     OW 8179   5.298   0.528   6.561
 2427SOL    HW1 8180   5.379   0.473   6.540
 2427SOL    HW2 8181   5.243   0.538   6.478
 2428SOL     OW 8182   0.487   0.913   3.341
 2428SOL    HW1 8183   0.481   0.892   3.244
 2428SOL    HW2 8184   0.583   0.907   3.371
 2429SOL     OW 8185   5.577   5.757   1.920
 2429SOL    HW1 8186   5.596   5.750   1.822
 2429SOL    HW2 8187   5.608   5.674   1.967
 2430SOL     OW 8188   6.600   3.073   0.496
 2430SOL    HW1 8189   6.506   3.106   0.485
 2430SOL    HW2 8190   6.600   2.974   0.508
 2431SOL     OW 8191   6.558   1.974   0.920
 2431SOL    HW1 8192   6.599   1.909   0.855
 2431SOL    HW2 8193   6.625   2.045   0.943
 2432SOL     OW 8194   3.704   5.442   2.278
 2432SOL    HW1 8195   3.608   5.460   2.259
 2432SOL    HW2 8196   3.722   5.458   2.375
 2433SOL     OW 8197   6.964   4.804   0.208
 2433SOL    HW1 8198   0.013   4.736   0.196
 2433SOL    HW2 8199   6.882   4.759   0.245
 2434SOL     OW 8200   4.241   1.960   3.007
 2434SOL    HW1 8201   4.329   1.914   3.003
 2434SOL    HW2 8202   4.172   1.906   2.959
 2435SOL     OW 8203   5.864   0.471   7.012
 2435SOL    HW1 8204   5.765   0.466   7.006
 2435SOL    HW2 8205   5.900   0.521   6.933
 2436SOL     OW 8206   1.211   1.274   0.901
 2436SOL    HW1 8207   1.247   1.342   0.965
 2436SOL    HW2 8208   1.129   1.310   0.857
 2437SOL     OW 8209   6.800   5.798   2.210
 2437SOL    HW1 8210   6.840   5.798   2.119
 2437SOL    HW2 8211   6.839   5.873   2.264
 2438SOL     OW 8212   3.375   1.713   4.445
 2438SOL    HW1 8213   3.310   1.689   4.516
 2438SOL    HW2 8214   3.338   1.688   4.355
 2439SOL     OW 8215   0.433   5.383   0.008
 2439SOL    HW1 8216   0.468   5.463   6.982
 2439SOL    HW2 8217   0.424   5.307   6.966
 2440SOL     OW 8218   3.990   1.151   4.617
 2440SOL    HW1 8219   3.960   1.168   4.524
 2440SOL    HW2 8220   4.030   1.235   4.655
 2441SOL     OW 8221   6.403   0.150   6.734
 2441SOL    HW1 8222   6.370   0.173   6.643
 2441SOL    HW2 8223   6.359   0.066   6.766
 2442SOL     OW 8224   5.001   3.391   1.838
 2442SOL    HW1 8225   5.077   3.367   1.899
 2442SOL    HW2 8226   5.037   3.434   1.756
 2443SOL     OW 8227   2.018   1.387   6.818
 2443SOL    HW1 8228   2.081   1.377   6.741
 2443SOL    HW2 8229   2.042   1.321   6.890
 2444SOL     OW 8230   3.344   5.699   0.823
 2444SOL    HW1 8231   3.309   5.609   0.795
 2444SOL    HW2 8232   3.439   5.708   0.794
 2445SOL     OW 8233   0.559   2.227   0.954
 2445SOL    HW1 8234   0.499   2.151   0.927
 2445SOL    HW2 8235   0.583   2.281   0.873
 2446SOL     OW 8236   1.449   3.712   2.093
 2446SOL    HW1 8237   1.520   3.709   2.164
 2446SOL    HW2 8238   1.436   3.806   2.063
 2447SOL     OW 8239   2.077   0.690   0.780
 2447SOL    HW1 8240   2.147   0.624   0.753
 2447SOL    HW2 8241   1.989   0.662   0.741
 2448SOL     OW 8242   6.203   2.283   4.220
 2448SOL    HW1 8243   6.221   2.242   4.310
 2448SOL    HW2 8244   6.288   2.283   4.167
 2449SOL     OW 8245   1.464   4.219   2.083
 2449SOL    HW1 8246   1.439   4.315   2.092
 2449SOL    HW2 8247   1.545   4.200   2.137
 2450SOL     OW 8248   2.062   5.225   6.694
 2450SOL    HW1 8249   2.011   5.166   6.756
 2450SOL    HW2 8250   2.009   5.243   6.612
 2451SOL     OW 8251   0.918   0.087   4.377
 2451SOL    HW1 8252   0.877   0.157   4.319
 2451SOL    HW2 8253   0.879   7.021   4.355
 2452SOL     OW 8254   2.656   2.396   3.264
 2452SOL    HW1 8255   2.646   2.375   3.362
 2452SOL    HW2 8256   2.624   2.489   3.247
 2453SOL     OW 8257   0.272   2.007   0.258
 2453SOL    HW1 8258   0.260   2.085   0.197
 2453SOL    HW2 8259   0.205   1.936   0.236
 2454SOL     OW 8260   3.531   5.355   0.704
 2454SOL    HW1 8261   3.575   5.267   0.684
 2454SOL    HW2 8262   3.475   5.346   0.786
 2455SOL     OW 8263   3.393   1.224   0.003
 2455SOL    HW1 8264   3.341   1.222   0.088
 2455SOL    HW2 8265   3.429   1.132   7.008
 2456SOL     OW 8266   1.402   3.863   7.012
 2456SOL    HW1 8267   1.456   3.786   6.978
 2456SOL    HW2 8268   1.306   3.837   7.016
 2457SOL     OW 8269   5.595   1.001   5.461
 2457SOL    HW1 8270   5.587   0.979   5.558
 2457SOL    HW2 8271   5.635   1.092   5.450
 2458SOL     OW 8272   0.973   0.265   2.771
 2458SOL    HW1 8273   1.004   0.348   2.816
 2458SOL    HW2 8274   0.946   0.285   2.677
 2459SOL     OW 8275   2.554   5.900   0.178
 2459SOL    HW1 8276   2.517   5.954   0.103
 2459SOL    HW2 8277   2.479   5.869   0.237
 2460SOL     OW 8278   1.016   1.216   6.854
 2460SOL    HW1 8279   1.032   1.269   6.770
 2460SOL    HW2 8280   1.059   1.262   6.931
 2461SOL     OW 8281   4.192   0.247   4.742
 2461SOL    HW1 8282   4.095   0.258   4.763
 2461SOL    HW2 8283   4.211   0.283   4.651
 2462SOL     OW 8284   0.746   5.253   0.607
 2462SOL    HW1 8285   0.760   5.163   0.649
 2462SOL    HW2 8286   0.682   5.306   0.662
 2463SOL     OW 8287   6.493   1.288   0.129
 2463SOL    HW1 8288   6.572   1.229   0.112
 2463SOL    HW2 8289   6.429   1.282   0.053
 2464SOL     OW 8290   0.366   2.811   2.600
 2464SOL    HW1 8291   0.352   2.754   2.680
 2464SOL    HW2 8292   0.294   2.795   2.533
 2465SOL     OW 8293   0.171   5.284   6.070
 2465SOL    HW1 8294   0.127   5.205   6.112
 2465SOL    HW2 8295   0.267   5.287   6.098
 2466SOL     OW 8296   1.557   2.085   1.903
 2466SOL    HW1 8297   1.590   2.011   1.960
 2466SOL    HW2 8298   1.516   2.156   1.960
 2467SOL     OW 8299   4.723   1.648   6.157
 2467SOL    HW1 8300   4.708   1.571   6.095
 2467SOL    HW2 8301   4.645   1.711   6.151
 2468SOL     OW 8302   3.613   0.443   6.478
 2468SOL    HW1 8303   3.603   0.345   6.462
 2468SOL    HW2 8304   3.589   0.493   6.395
 2469SOL     OW 8305   4.493   2.758   5.592
 2469SOL    HW1 8306   4.493   2.726   5.687
 2469SOL    HW2 8307   4.398   2.771   5.562
 2470SOL     OW 8308   3.961   4.729   6.167
 2470SOL    HW1 8309   3.977   4.827   6.156
 2470SOL    HW2 8310   3.931   4.710   6.261
 2471SOL     OW 8311   3.749   6.827   1.050
 2471SOL    HW1 8312   3.815   6.850   1.121
 2471SOL    HW2 8313   3.793   6.830   0.960
 2472SOL     OW 8314   4.812   2.415   3.972
 2472SOL    HW1 8315   4.716   2.431   3.948
 2472SOL    HW2 8316   4.818   2.389   4.068
 2473SOL     OW 8317   1.446   4.194   4.878
 2473SOL    HW1 8318   1.486   4.284   4.899
 2473SOL    HW2 8319   1.416   4.150   4.962
 2474SOL     OW 8320   0.961   5.267   0.371
 2474SOL    HW1 8321   0.896   5.328   0.416
 2474SOL    HW2 8322   0.975   5.296   0.277
 2475SOL     OW 8323   4.549   0.909   0.748
 2475SOL    HW1 8324   4.526   0.883   0.655
 2475SOL    HW2 8325   4.493   0.858   0.813
 2476SOL     OW 8326   5.338   0.776   2.610
 2476SOL    HW1 8327   5.304   0.799   2.519
 2476SOL    HW2 8328   5.276   0.711   2.654
 2477SOL     OW 8329   4.063   0.571   3.383
 2477SOL    HW1 8330   4.031   0.572   3.288
 2477SOL    HW2 8331   4.163   0.572   3.384
 2478SOL     OW 8332   4.214   1.296   2.642
 2478SOL    HW1 8333   4.283   1.233   2.678
 2478SOL    HW2 8334   4.220   1.383   2.691
 2479SOL     OW 8335   1.101   2.955   1.232
 2479SOL    HW1 8336   1.133   2.868   1.269
 2479SOL    HW2 8337   1.003   2.964   1.248
 2480SOL     OW 8338   3.888   2.760   1.363
 2480SOL    HW1 8339   3.893   2.718   1.272
 2480SOL    HW2 8340   3.874   2.859   1.353
 2481SOL     OW 8341   2.709   0.492   1.567
 2481SOL    HW1 8342   2.720   0.423   1.495
 2481SOL    HW2 8343   2.646   0.563   1.536
 2482SOL     OW 8344   5.168   3.412   6.908
 2482SOL    HW1 8345   5.241   3.480   6.900
 2482SOL    HW2 8346   5.204   3.321   6.888
 2483SOL     OW 8347   1.566   1.893   0.297
 2483SOL    HW1 8348   1.578   1.798   0.267
 2483SOL    HW2 8349   1.611   1.907   0.385
 2484SOL     OW 8350   3.414   0.820   1.191
 2484SOL    HW1 8351   3.491   0.797   1.131
 2484SOL    HW2 8352   3.447   0.840   1.283
 2485SOL     OW 8353   5.177   2.951   0.242
 2485SOL    HW1 8354   5.079   2.938   0.228
 2485SOL    HW2 8355   5.215   2.873   0.290
 2486SOL     OW 8356   0.362   5.399   5.550
 2486SOL    HW1 8357   0.447   5.438   5.512
 2486SOL    HW2 8358   0.322   5.465   5.614
 2487SOL     OW 8359   3.957   6.173   0.485
 2487SOL    HW1 8360   3.956   6.132   0.394
 2487SOL    HW2 8361   3.870   6.155   0.531
 2488SOL     OW 8362   0.814   3.572   1.523
 2488SOL    HW1 8363   0.805   3.479   1.487
 2488SOL    HW2 8364   0.774   3.577   1.614
 2489SOL     OW 8365   1.128   6.158   3.771
 2489SOL    HW1 8366   1.149   6.242   3.721
 2489SOL    HW2 8367   1.029   6.149   3.779
 2490SOL     OW 8368   0.858   5.845   0.928
 2490SOL    HW1 8369   0.779   5.836   0.867
 2490SOL    HW2 8370   0.830   5.891   1.012
 2491SOL     OW 8371   3.811   4.394   1.216
 2491SOL    HW1 8372   3.756   4.319   1.253
 2491SOL    HW2 8373   3.871   4.359   1.144
 2492SOL     OW 8374   4.693   3.588   1.134
 2492SOL    HW1 8375   4.646   3.622   1.052
 2492SOL    HW2 8376   4.673   3.648   1.211
 2493SOL     OW 8377   6.350   0.057   1.092
 2493SOL    HW1 8378   6.420   0.112   1.048
 2493SOL    HW2 8379   6.393   7.004   1.142
 2494SOL     OW 8380   6.255   3.871   2.130
 2494SOL    HW1 8381   6.184   3.883   2.200
 2494SOL    HW2 8382   6.330   3.816   2.167
 2495SOL     OW 8383   5.328   5.910   3.810
 2495SOL    HW1 8384   5.319   5.892   3.713
 2495SOL    HW2 8385   5.422   5.935   3.831
 2496SOL     OW 8386   0.473   3.734   6.957
 2496SOL    HW1 8387   0.426   3.700   0.016
 2496SOL    HW2 8388   0.494   3.657   6.897
 2497SOL     OW 8389   0.710   0.152   0.800
 2497SOL    HW1 8390   0.622   0.125   0.762
 2497SOL    HW2 8391   0.712   0.134   0.898
 2498SOL     OW 8392   3.387   1.999   5.727
 2498SOL    HW1 8393   3.430   1.967   5.642
 2498SOL    HW2 8394   3.447   2.065   5.772
 2499SOL     OW 8395   5.732   2.939   2.215
 2499SOL    HW1 8396   5.648   2.961   2.265
 2499SOL    HW2 8397   5.725   2.971   2.121
 2500SOL     OW 8398   4.140   3.485   6.698
 2500SOL    HW1 8399   4.199   3.517   6.623
 2500SOL    HW2 8400   4.104   3.395   6.675
 2501SOL     OW 8401   5.367   5.775   0.077
 2501SOL    HW1 8402   5.465   5.758   0.069
 2501SOL    HW2 8403   5.317   5.690   0.064
 2502SOL     OW 8404   2.078   0.465   5.168
 2502SOL    HW1 8405   2.041   0.395   5.229
 2502SOL    HW2 8406   2.021   0.471   5.086
 2503SOL     OW 8407   3.421   6.588   5.028
 2503SOL    HW1 8408   3.459   6.529   4.957
 2503SOL    HW2 8409   3.443   6.551   5.118
 2504SOL     OW 8410   3.779   5.256   3.016
 2504SOL    HW1 8411   3.859   5.315   3.023
 2504SOL    HW2 8412   3.768   5.224   2.922
 2505SOL     OW 8413   0.100   5.676   2.830
 2505SOL    HW1 8414   0.132   5.608   2.896
 2505SOL    HW2 8415   0.092   5.765   2.875
 2506SOL     OW 8416   6.225   3.070   6.232
 2506SOL    HW1 8417   6.302   3.049   6.171
 2506SOL    HW2 8418   6.254   3.137   6.300
 2507SOL     OW 8419   0.384   3.151   0.113
 2507SOL    HW1 8420   0.398   3.082   0.041
 2507SOL    HW2 8421   0.467   3.205   0.125
 2508SOL     OW 8422   2.554   1.773   4.198
 2508SOL    HW1 8423   2.619   1.842   4.166
 2508SOL    HW2 8424   2.467   1.784   4.149
 2509SOL     OW 8425   7.000   4.521   1.025
 2509SOL    HW1 8426   6.993   4.442   1.087
 2509SOL    HW2 8427   6.927   4.585   1.044
 2510SOL     OW 8428   3.349   4.733   0.853
 2510SOL    HW1 8429   3.288   4.796   0.805
 2510SOL    HW2 8430   3.358   4.648   0.801
 2511SOL     OW 8431   2.394   1.615   4.782
 2511SOL    HW1 8432   2.336   1.656   4.852
 2511SOL    HW2 8433   2.343   1.606   4.697
 2512SOL     OW 8434   4.325   4.032   5.519
 2512SOL    HW1 8435   4.275   4.100   5.466
 2512SOL    HW2 8436   4.401   4.076   5.566
 2513SOL     OW 8437   2.083   5.549   4.823
 2513SOL    HW1 8438   2.172   5.507   4.840
 2513SOL    HW2 8439   2.016   5.512   4.886
 2514SOL     OW 8440   0.405   4.234   4.442
 2514SOL    HW1 8441   0.384   4.137   4.451
 2514SOL    HW2 8442   0.454   4.266   4.523
 2515SOL     OW 8443   1.924   6.335   0.830
 2515SOL    HW1 8444   1.847   6.344   0.894
 2515SOL    HW2 8445   1.958   6.241   0.833
 2516SOL     OW 8446   5.387   1.438   2.304
 2516SOL    HW1 8447   5.377   1.535   2.281
 2516SOL    HW2 8448   5.397   1.428   2.403
 2517SOL     OW 8449   1.709   0.609   6.315
 2517SOL    HW1 8450   1.657   0.539   6.364
 2517SOL    HW2 8451   1.723   0.580   6.221
 2518SOL     OW 8452   0.994   5.653   0.807
 2518SOL    HW1 8453   1.072   5.691   0.757
 2518SOL    HW2 8454   0.954   5.724   0.866
 2519SOL     OW 8455   3.509   0.580   1.628
 2519SOL    HW1 8456   3.420   0.558   1.589
 2519SOL    HW2 8457   3.515   0.542   1.720
 2520SOL     OW 8458   3.321   1.873   0.674
 2520SOL    HW1 8459   3.414   1.836   0.667
 2520SOL    HW2 8460   3.286   1.891   0.582
 2521SOL     OW 8461   3.174   1.159   5.291
 2521SOL    HW1 8462   3.122   1.078   5.261
 2521SOL    HW2 8463   3.236   1.187   5.217
 2522SOL     OW 8464   1.279   1.309   5.088
 2522SOL    HW1 8465   1.337   1.309   5.007
 2522SOL    HW2 8466   1.268   1.215   5.121
 2523SOL     OW 8467   1.102   3.070   0.955
 2523SOL    HW1 8468   1.099   3.038   1.050
 2523SOL    HW2 8469   1.025   3.131   0.938
 2524SOL     OW 8470   6.862   6.684   4.406
 2524SOL    HW1 8471   6.846   6.752   4.478
 2524SOL    HW2 8472   6.775   6.648   4.375
 2525SOL     OW 8473   0.935   2.919   4.782
 2525SOL    HW1 8474   0.966   2.939   4.875
 2525SOL    HW2 8475   0.960   2.995   4.721
 2526SOL     OW 8476   1.839   4.389   6.958
 2526SOL    HW1 8477   1.877   4.326   0.003
 2526SOL    HW2 8478   1.751   4.424   6.991
 2527SOL     OW 8479   5.748   6.532   5.780
 2527SOL    HW1 8480   5.799   6.482   5.849
 2527SOL    HW2 8481   5.804   6.544   5.698
 2528SOL     OW 8482   5.669   4.849   6.160
 2528SOL    HW1 8483   5.690   4.761   6.203
 2528SOL    HW2 8484   5.570   4.863   6.161
 2529SOL     OW 8485   6.650   6.481   6.920
 2529SOL    HW1 8486   6.588   6.477   6.842
 2529SOL    HW2 8487   6.630   6.562   6.975
 2530SOL     OW 8488   2.221   5.925   5.041
 2530SOL    HW1 8489   2.252   6.016   5.015
 2530SOL    HW2 8490   2.255   5.857   4.976
 2531SOL     OW 8491   6.191   6.436   5.197
 2531SOL    HW1 8492   6.276   6.389   5.175
 2531SOL    HW2 8493   6.114   6.374   5.181
 2532SOL     OW 8494   6.816   6.362   0.857
 2532SOL    HW1 8495   6.819   6.441   0.796
 2532SOL    HW2 8496   6.856   6.283   0.811
 2533SOL     OW 8497   4.745   0.154   3.727
 2533SOL    HW1 8498   4.741   0.082   3.797
 2533SOL    HW2 8499   4.660   0.154   3.675
 2534SOL     OW 8500   3.283   1.583   1.944
 2534SOL    HW1 8501   3.370   1.536   1.927
 2534SOL    HW2 8502   3.210   1.516   1.953
 2535SOL     OW 8503   3.458   3.166   6.220
 2535SOL    HW1 8504   3.372   3.216   6.209
 2535SOL    HW2 8505   3.533   3.219   6.180
 2536SOL     OW 8506   1.258   1.132   6.463
 2536SOL    HW1 8507   1.214   1.078   6.535
 2536SOL    HW2 8508   1.357   1.121   6.469
 2537SOL     OW 8509   3.032   6.913   6.533
 2537SOL    HW1 8510   3.115   6.862   6.553
 2537SOL    HW2 8511   2.956   6.875   6.586
 2538SOL     OW 8512   0.524   4.273   3.658
 2538SOL    HW1 8513   0.487   4.360   3.628
 2538SOL    HW2 8514   0.623   4.273   3.647
 2539SOL     OW 8515   5.280   0.900   4.220
 2539SOL    HW1 8516   5.379   0.898   4.213
 2539SOL    HW2 8517   5.245   0.807   4.236
 2540SOL     OW 8518   4.662   1.806   2.762
 2540SOL    HW1 8519   4.686   1.710   2.778
 2540SOL    HW2 8520   4.675   1.828   2.665
 2541SOL     OW 8521   3.585   0.389   5.444
 2541SOL    HW1 8522   3.615   0.451   5.372
 2541SOL    HW2 8523   3.505   0.429   5.490
 2542SOL     OW 8524   3.792   3.609   6.459
 2542SOL    HW1 8525   3.750   3.531   6.506
 2542SOL    HW2 8526   3.735   3.635   6.381
 2543SOL     OW 8527   0.566   0.641   3.802
 2543SOL    HW1 8528   0.489   0.581   3.823
 2543SOL    HW2 8529   0.546   0.734   3.833
 2544SOL     OW 8530   0.167   5.769   0.163
 2544SOL    HW1 8531   0.232   5.821   0.108
 2544SOL    HW2 8532   0.180   5.790   0.260
 2545SOL     OW 8533   1.982   6.801   1.870
 2545SOL    HW1 8534   1.899   6.857   1.879
 2545SOL    HW2 8535   2.016   6.777   1.961
 2546SOL     OW 8536   0.138   1.602   1.521
 2546SOL    HW1 8537   0.116   1.508   1.495
 2546SOL    HW2 8538   0.054   1.655   1.532
 2547SOL     OW 8539   0.803   4.303   6.795
 2547SOL    HW1 8540   0.862   4.379   6.767
 2547SOL    HW2 8541   0.858   4.234   6.842
 2548SOL     OW 8542   0.980   6.685   4.676
 2548SOL    HW1 8543   0.927   6.750   4.730
 2548SOL    HW2 8544   1.031   6.734   4.605
 2549SOL     OW 8545   0.922   7.011   1.336
 2549SOL    HW1 8546   0.862   6.963   1.400
 2549SOL    HW2 8547   0.878   0.073   1.307
 2550SOL     OW 8548   5.984   6.809   0.194
 2550SOL    HW1 8549   6.008   6.852   0.107
 2550SOL    HW2 8550   6.066   6.765   0.232
 2551SOL     OW 8551   3.202   4.418   0.209
 2551SOL    HW1 8552   3.226   4.515   0.204
 2551SOL    HW2 8553   3.128   4.405   0.275
 2552SOL     OW 8554   1.715   6.271   4.329
 2552SOL    HW1 8555   1.760   6.340   4.274
 2552SOL    HW2 8556   1.653   6.218   4.272
 2553SOL     OW 8557   3.886   3.780   5.871
 2553SOL    HW1 8558   3.936   3.737   5.796
 2553SOL    HW2 8559   3.942   3.776   5.954
 2554SOL     OW 8560   2.872   0.449   0.574
 2554SOL    HW1 8561   2.928   0.490   0.502
 2554SOL    HW2 8562   2.776   0.473   0.561
 2555SOL     OW 8563   6.168   1.446   4.894
 2555SOL    HW1 8564   6.194   1.505   4.818
 2555SOL    HW2 8565   6.220   1.471   4.975
 2556SOL     OW 8566   4.649   6.577   0.539
 2556SOL    HW1 8567   4.716   6.596   0.610
 2556SOL    HW2 8568   4.660   6.642   0.464
 2557SOL     OW 8569   1.615   3.773   0.790
 2557SOL    HW1 8570   1.714   3.776   0.777
 2557SOL    HW2 8571   1.589   3.685   0.830
 2558SOL     OW 8572   4.690   1.097   4.519
 2558SOL    HW1 8573   4.690   1.137   4.610
 2558SOL    HW2 8574   4.748   1.151   4.458
 2559SOL     OW 8575   1.086   4.394   5.328
 2559SOL    HW1 8576   1.014   4.340   5.284
 2559SOL    HW2 8577   1.066   4.401   5.426
 2560SOL     OW 8578   5.741   2.452   5.918
 2560SOL    HW1 8579   5.673   2.476   5.849
 2560SOL    HW2 8580   5.833   2.471   5.883
 2561SOL     OW 8581   2.621   4.837   4.975
 2561SOL    HW1 8582   2.589   4.806   4.886
 2561SOL    HW2 8583   2.690   4.774   5.010
 2562SOL     OW 8584   2.606   5.287   1.589
 2562SOL    HW1 8585   2.672   5.257   1.519
 2562SOL    HW2 8586   2.530   5.335   1.545
 2563SOL     OW 8587   3.292   1.411   0.706
 2563SOL    HW1 8588   3.236   1.483   0.665
 2563SOL    HW2 8589   3.312   1.435   0.801
 2564SOL     OW 8590   1.981   5.861   6.954
 2564SOL    HW1 8591   2.049   5.795   6.987
 2564SOL    HW2 8592   2.006   5.953   6.985
 2565SOL     OW 8593   1.705   0.191   6.685
 2565SOL    HW1 8594   1.690   0.285   6.656
 2565SOL    HW2 8595   1.619   0.153   6.721
 2566SOL     OW 8596   2.404   0.101   1.263
 2566SOL    HW1 8597   2.383   0.198   1.276
 2566SOL    HW2 8598   2.329   0.045   1.297
 2567SOL     OW 8599   0.872   0.246   0.432
 2567SOL    HW1 8600   0.925   0.162   0.421
 2567SOL    HW2 8601   0.901   0.293   0.515
 2568SOL     OW 8602   4.672   1.949   6.269
 2568SOL    HW1 8603   4.593   1.888   6.260
 2568SOL    HW2 8604   4.677   2.009   6.189
 2569SOL     OW 8605   2.735   0.368   2.935
 2569SOL    HW1 8606   2.635   0.378   2.935
 2569SOL    HW2 8607   2.761   0.290   2.991
 2570SOL     OW 8608   5.492   0.426   5.739
 2570SOL    HW1 8609   5.457   0.500   5.681
 2570SOL    HW2 8610   5.572   0.385   5.697
 2571SOL     OW 8611   2.312   5.032   4.383
 2571SOL    HW1 8612   2.361   5.048   4.469
 2571SOL    HW2 8613   2.220   5.069   4.390
 2572SOL     OW 8614   2.782   5.792   1.709
 2572SOL    HW1 8615   2.854   5.831   1.767
 2572SOL    HW2 8616   2.755   5.859   1.640
 2573SOL     OW 8617   0.788   1.869   0.868
 2573SOL    HW1 8618   0.739   1.850   0.953
 2573SOL    HW2 8619   0.860   1.936   0.885
 2574SOL     OW 8620   5.415   4.092   0.736
 2574SOL    HW1 8621   5.371   4.011   0.776
 2574SOL    HW2 8622   5.401   4.170   0.796
 2575SOL     OW 8623   5.631   5.732   0.048
 2575SOL    HW1 8624   5.673   5.808   7.020
 2575SOL    HW2 8625   5.665   5.645   0.012
 2576SOL     OW 8626   4.514   6.420   4.061
 2576SOL    HW1 8627   4.555   6.351   4.002
 2576SOL    HW2 8628   4.585   6.483   4.093
 2577SOL     OW 8629   3.220   5.589   2.351
 2577SOL    HW1 8630   3.152   5.516   2.349
 2577SOL    HW2 8631   3.191   5.664   2.291
 2578SOL     OW 8632   3.954   1.710   3.896
 2578SOL    HW1 8633   3.856   1.723   3.885
 2578SOL    HW2 8634   3.971   1.657   3.979
 2579SOL     OW 8635   0.837   6.311   3.825
 2579SOL    HW1 8636   0.785   6.226   3.816
 2579SOL    HW2 8637   0.775   6.389   3.814
 2580SOL     OW 8638   2.457   4.732   6.998
 2580SOL    HW1 8639   2.433   4.816   6.949
 2580SOL    HW2 8640   2.447   4.654   6.936
 2581SOL     OW 8641   2.363   5.390   1.431
 2581SOL    HW1 8642   2.403   5.479   1.415
 2581SOL    HW2 8643   2.342   5.346   1.343
 2582SOL     OW 8644   0.264   4.349   1.819
 2582SOL    HW1 8645   0.190   4.404   1.780
 2582SOL    HW2 8646   0.240   4.321   1.912
 2583SOL     OW 8647   0.635   1.223   6.275
 2583SOL    HW1 8648   0.627   1.137   6.224
 2583SOL    HW2 8649   0.679   1.291   6.217
 2584SOL     OW 8650   3.985   5.454   5.940
 2584SOL    HW1 8651   4.047   5.531   5.930
 2584SOL    HW2 8652   4.011   5.382   5.875
 2585SOL     OW 8653   3.135   3.602   0.539
 2585SOL    HW1 8654   3.149   3.506   0.562
 2585SOL    HW2 8655   3.156   3.617   0.442
 2586SOL     OW 8656   3.105   1.066   5.638
 2586SOL    HW1 8657   3.017   1.095   5.601
 2586SOL    HW2 8658   3.175   1.075   5.568
 2587SOL     OW 8659   6.481   1.093   3.496
 2587SOL    HW1 8660   6.560   1.103   3.436
 2587SOL    HW2 8661   6.492   1.012   3.553
 2588SOL     OW 8662   3.856   2.180   5.704
 2588SOL    HW1 8663   3.838   2.130   5.789
 2588SOL    HW2 8664   3.830   2.276   5.715
 2589SOL     OW 8665   1.694   0.041   5.619
 2589SOL    HW1 8666   1.730   0.055   5.712
 2589SOL    HW2 8667   1.623   6.994   5.621
 2590SOL     OW 8668   2.762   5.100   0.276
 2590SOL    HW1 8669   2.695   5.123   0.205
 2590SOL    HW2 8670   2.845   5.064   0.234
 2591SOL     OW 8671   6.415   5.080   3.314
 2591SOL    HW1 8672   6.506   5.050   3.342
 2591SOL    HW2 8673   6.388   5.031   3.230
 2592SOL     OW 8674   2.828   4.655   6.492
 2592SOL    HW1 8675   2.748   4.691   6.444
 2592SOL    HW2 8676   2.841   4.559   6.469
 2593SOL     OW 8677   3.277   5.971   0.910
 2593SOL    HW1 8678   3.318   5.879   0.908
 2593SOL    HW2 8679   3.259   6.001   0.816
 2594SOL     OW 8680   2.447   4.141   5.816
 2594SOL    HW1 8681   2.477   4.230   5.850
 2594SOL    HW2 8682   2.525   4.079   5.810
 2595SOL     OW 8683   0.042   1.272   3.845
 2595SOL    HW1 8684   7.009   1.302   3.768
 2595SOL    HW2 8685   0.113   1.209   3.814
 2596SOL     OW 8686   2.488   2.494   1.305
 2596SOL    HW1 8687   2.486   2.509   1.404
 2596SOL    HW2 8688   2.521   2.402   1.286
 2597SOL     OW 8689   0.371   5.141   6.485
 2597SOL    HW1 8690   0.420   5.068   6.533
 2597SOL    HW2 8691   0.335   5.106   6.399
 2598SOL     OW 8692   6.621   1.432   1.871
 2598SOL    HW1 8693   6.584   1.524   1.883
 2598SOL    HW2 8694   6.597   1.398   1.780
 2599SOL     OW 8695   1.752   6.091   0.637
 2599SOL    HW1 8696   1.694   6.043   0.571
 2599SOL    HW2 8697   1.839   6.116   0.594
 2600SOL     OW 8698   5.850   2.522   4.496
 2600SOL    HW1 8699   5.858   2.474   4.408
 2600SOL    HW2 8700   5.775   2.588   4.491
 2601SOL     OW 8701   1.163   1.723   1.027
 2601SOL    HW1 8702   1.102   1.750   0.952
 2601SOL    HW2 8703   1.123   1.646   1.076
 2602SOL     OW 8704   1.879   4.311   4.629
 2602SOL    HW1 8705   1.942   4.302   4.706
 2602SOL    HW2 8706   1.817   4.232   4.627
 2603SOL     OW 8707   2.710   0.883   2.974
 2603SOL    HW1 8708   2.781   0.900   2.906
 2603SOL    HW2 8709   2.639   0.953   2.967
 2604SOL     OW 8710   5.265   1.770   2.843
 2604SOL    HW1 8711   5.178   1.749   2.798
 2604SOL    HW2 8712   5.315   1.837   2.788
 2605SOL     OW 8713   1.724   3.187   2.608
 2605SOL    HW1 8714   1.671   3.145   2.683
 2605SOL    HW2 8715   1.681   3.164   2.521
 2606SOL     OW 8716   5.654   5.315   1.747
 2606SOL    HW1 8717   5.734   5.361   1.786
 2606SOL    HW2 8718   5.643   5.225   1.790
 2607SOL     OW 8719   0.795   1.224   0.972
 2607SOL    HW1 8720   0.864   1.296   0.967
 2607SOL    HW2 8721   0.708   1.258   0.937
 2608SOL     OW 8722   3.179   5.772   6.863
 2608SOL    HW1 8723   3.213   5.715   6.789
 2608SOL    HW2 8724   3.207   5.733   6.951
 2609SOL     OW 8725   6.587   1.439   1.435
 2609SOL    HW1 8726   6.558   1.372   1.368
 2609SOL    HW2 8727   6.617   1.392   1.518
 2610SOL     OW 8728   1.092   4.388   4.104
 2610SOL    HW1 8729   1.122   4.437   4.186
 2610SOL    HW2 8730   1.170   4.343   4.062
 2611SOL     OW 8731   4.564   6.203   0.176
 2611SOL    HW1 8732   4.644   6.208   0.235
 2611SOL    HW2 8733   4.497   6.271   0.205
 2612SOL     OW 8734   5.456   6.950   4.140
 2612SOL    HW1 8735   5.395   6.873   4.154
 2612SOL    HW2 8736   5.519   6.930   4.065
 2613SOL     OW 8737   2.044   4.789   6.580
 2613SOL    HW1 8738   2.054   4.853   6.656
 2613SOL    HW2 8739   1.982   4.715   6.607
 2614SOL     OW 8740   6.024   1.220   6.238
 2614SOL    HW1 8741   6.079   1.139   6.221
 2614SOL    HW2 8742   5.938   1.214   6.187
 2615SOL     OW 8743   0.305   2.622   1.794
 2615SOL    HW1 8744   0.222   2.591   1.841
 2615SOL    HW2 8745   0.316   2.570   1.710
 2616SOL     OW 8746   0.939   1.770   5.507
 2616SOL    HW1 8747   0.843   1.743   5.501
 2616SOL    HW2 8748   0.994   1.711   5.448
 2617SOL     OW 8749   4.811   0.689   0.799
 2617SOL    HW1 8750   4.832   0.715   0.893
 2617SOL    HW2 8751   4.884   0.630   0.764
 2618SOL     OW 8752   1.099   5.868   4.857
 2618SOL    HW1 8753   1.060   5.890   4.767
 2618SOL    HW2 8754   1.105   5.952   4.912
 2619SOL     OW 8755   3.856   2.103   1.789
 2619SOL    HW1 8756   3.860   2.194   1.748
 2619SOL    HW2 8757   3.796   2.105   1.869
 2620SOL     OW 8758   6.396   6.470   1.795
 2620SOL    HW1 8759   6.483   6.506   1.830
 2620SOL    HW2 8760   6.409   6.436   1.702
 2621SOL     OW 8761   0.455   4.777   2.925
 2621SOL    HW1 8762   0.478   4.712   2.998
 2621SOL    HW2 8763   0.437   4.728   2.841
 2622SOL     OW 8764   3.401   3.173   5.890
 2622SOL    HW1 8765   3.356   3.145   5.975
 2622SOL    HW2 8766   3.426   3.092   5.837
 2623SOL     OW 8767   0.545   0.260   3.870
 2623SOL    HW1 8768   0.478   0.334   3.880
 2623SOL    HW2 8769   0.567   0.223   3.960
 2624SOL     OW 8770   6.789   2.087   4.500
 2624SOL    HW1 8771   6.847   2.056   4.425
 2624SOL    HW2 8772   6.694   2.062   4.481
 2625SOL     OW 8773   2.026   5.326   5.562
 2625SOL    HW1 8774   1.943   5.368   5.599
 2625SOL    HW2 8775   2.101   5.339   5.627
 2626SOL     OW 8776   6.480   6.898   5.599
 2626SOL    HW1 8777   6.478   6.998   5.599
 2626SOL    HW2 8778   6.470   6.865   5.505
 2627SOL     OW 8779   1.369   0.211   6.466
 2627SOL    HW1 8780   1.394   0.130   6.412
 2627SOL    HW2 8781   1.365   0.186   6.563
 2628SOL     OW 8782   1.861   3.409   3.951
 2628SOL    HW1 8783   1.859   3.314   3.979
 2628SOL    HW2 8784   1.947   3.451   3.980
 2629SOL     OW 8785   3.752   3.529   3.247
 2629SOL    HW1 8786   3.716   3.547   3.155
 2629SOL    HW2 8787   3.786   3.435   3.250
 2630SOL     OW 8788   3.589   1.056   3.549
 2630SOL    HW1 8789   3.668   0.995   3.536
 2630SOL    HW2 8790   3.575   1.110   3.466
 2631SOL     OW 8791   5.937   0.693   6.392
 2631SOL    HW1 8792   5.914   0.625   6.462
 2631SOL    HW2 8793   5.937   0.784   6.433
 2632SOL     OW 8794   5.678   4.249   1.691
 2632SOL    HW1 8795   5.644   4.343   1.699
 2632SOL    HW2 8796   5.745   4.244   1.616
 2633SOL     OW 8797   6.658   2.512   5.603
 2633SOL    HW1 8798   6.731   2.465   5.554
 2633SOL    HW2 8799   6.596   2.556   5.537
 2634SOL     OW 8800   0.692   6.054   4.410
 2634SOL    HW1 8801   0.592   6.053   4.407
 2634SOL    HW2 8802   0.725   5.961   4.428
 2635SOL     OW 8803   5.807   5.285   3.799
 2635SOL    HW1 8804   5.873   5.215   3.771
 2635SOL    HW2 8805   5.729   5.242   3.844
 2636SOL     OW 8806   3.228   1.336   6.341
 2636SOL    HW1 8807   3.219   1.429   6.375
 2636SOL    HW2 8808   3.309   1.293   6.382
 2637SOL     OW 8809   6.944   1.636   3.603
 2637SOL    HW1 8810   6.935   1.539   3.624
 2637SOL    HW2 8811   6.902   1.655   3.515
 2638SOL     OW 8812   0.423   0.603   4.769
 2638SOL    HW1 8813   0.482   0.672   4.727
 2638SOL    HW2 8814   0.328   0.628   4.755
 2639SOL     OW 8815   4.820   5.097   5.309
 2639SOL    HW1 8816   4.913   5.110   5.272
 2639SOL    HW2 8817   4.754   5.117   5.237
 2640SOL     OW 8818   0.512   0.029   5.016
 2640SOL    HW1 8819   0.478   6.981   5.078
 2640SOL    HW2 8820   0.455   0.032   4.934
 2641SOL     OW 8821   4.879   2.567   0.722
 2641SOL    HW1 8822   4.946   2.575   0.796
 2641SOL    HW2 8823   4.879   2.473   0.688
 2642SOL     OW 8824   0.145   0.622   3.692
 2642SOL    HW1 8825   0.183   0.608   3.601
 2642SOL    HW2 8826   0.110   0.535   3.728
 2643SOL     OW 8827   0.419   3.321   3.968
 2643SOL    HW1 8828   0.344   3.264   3.934
 2643SOL    HW2 8829   0.501   3.304   3.913
 2644SOL     OW 8830   4.823   5.546   5.107
 2644SOL    HW1 8831   4.747   5.559   5.170
 2644SOL    HW2 8832   4.813   5.458   5.060
 2645SOL     OW 8833   4.929   4.771   3.899
 2645SOL    HW1 8834   5.010   4.801   3.948
 2645SOL    HW2 8835   4.948   4.767   3.801
 2646SOL     OW 8836   0.809   4.070   6.570
 2646SOL    HW1 8837   0.784   4.134   6.498
 2646SOL    HW2 8838   0.748   3.991   6.568
 2647SOL     OW 8839   4.842   0.081   1.858
 2647SOL    HW1 8840   4.893   0.134   1.927
 2647SOL    HW2 8841   4.764   0.134   1.826
 2648SOL     OW 8842   0.708   6.957   3.472
 2648SOL    HW1 8843   0.681   7.009   3.391
 2648SOL    HW2 8844   0.689   7.012   3.554
 2649SOL     OW 8845   5.085   3.024   1.722
 2649SOL    HW1 8846   5.135   3.000   1.805
 2649SOL    HW2 8847   4.989   3.040   1.744
 2650SOL     OW 8848   2.815   5.547   4.766
 2650SOL    HW1 8849   2.895   5.487   4.762
 2650SOL    HW2 8850   2.830   5.617   4.837
 2651SOL     OW 8851   3.434   1.680   6.310
 2651SOL    HW1 8852   3.427   1.732   6.225
 2651SOL    HW2 8853   3.481   1.594   6.293
 2652SOL     OW 8854   4.393   3.499   5.522
 2652SOL    HW1 8855   4.395   3.597   5.507
 2652SOL    HW2 8856   4.477   3.470   5.569
 2653SOL     OW 8857   3.747   6.083   5.850
 2653SOL    HW1 8858   3.792   6.052   5.766
 2653SOL    HW2 8859   3.714   6.004   5.901
 2654SOL     OW 8860   5.110   6.680   0.645
 2654SOL    HW1 8861   5.061   6.767   0.636
 2654SOL    HW2 8862   5.202   6.690   0.606
 2655SOL     OW 8863   4.558   6.183   3.435
 2655SOL    HW1 8864   4.591   6.110   3.495
 2655SOL    HW2 8865   4.554   6.269   3.485
 2656SOL     OW 8866   3.747   5.750   3.750
 2656SOL    HW1 8867   3.801   5.828   3.718
 2656SOL    HW2 8868   3.692   5.714   3.675
 2657SOL     OW 8869   1.784   3.166   0.539
 2657SOL    HW1 8870   1.788   3.074   0.500
 2657SOL    HW2 8871   1.702   3.213   0.506
 2658SOL     OW 8872   4.342   4.049   6.572
 2658SOL    HW1 8873   4.368   4.142   6.599
 2658SOL    HW2 8874   4.350   3.988   6.651
 2659SOL     OW 8875   5.691   2.543   4.875
 2659SOL    HW1 8876   5.685   2.643   4.864
 2659SOL    HW2 8877   5.787   2.516   4.875
 2660SOL     OW 8878   0.407   1.143   0.749
 2660SOL    HW1 8879   0.379   1.065   0.805
 2660SOL    HW2 8880   0.330   1.173   0.692
 2661SOL     OW 8881   1.188   0.705   2.099
 2661SOL    HW1 8882   1.243   0.724   2.018
 2661SOL    HW2 8883   1.235   0.639   2.157
 2662SOL     OW 8884   3.214   0.625   3.837
 2662SOL    HW1 8885   3.292   0.686   3.827
 2662SOL    HW2 8886   3.137   0.674   3.879
 2663SOL     OW 8887   3.126   0.095   5.938
 2663SOL    HW1 8888   3.198   0.068   5.874
 2663SOL    HW2 8889   3.102   0.016   5.995
 2664SOL     OW 8890   3.864   2.384   5.355
 2664SOL    HW1 8891   3.858   2.443   5.435
 2664SOL    HW2 8892   3.774   2.378   5.312
 2665SOL     OW 8893   2.560   3.436   5.582
 2665SOL    HW1 8894   2.568   3.364   5.513
 2665SOL    HW2 8895   2.633   3.504   5.567
 2666SOL     OW 8896   1.772   2.908   2.351
 2666SOL    HW1 8897   1.840   2.940   2.417
 2666SOL    HW2 8898   1.683   2.949   2.373
 2667SOL     OW 8899   6.488   4.546   3.885
 2667SOL    HW1 8900   6.390   4.560   3.894
 2667SOL    HW2 8901   6.509   4.449   3.892
 2668SOL     OW 8902   5.373   2.242   4.488
 2668SOL    HW1 8903   5.297   2.293   4.527
 2668SOL    HW2 8904   5.407   2.289   4.406
 2669SOL     OW 8905   2.715   5.921   6.881
 2669SOL    HW1 8906   2.728   5.869   6.965
 2669SOL    HW2 8907   2.788   5.899   6.816
 2670SOL     OW 8908   6.348   1.750   5.285
 2670SOL    HW1 8909   6.334   1.722   5.380
 2670SOL    HW2 8910   6.271   1.806   5.255
 2671SOL     OW 8911   4.416   6.150   6.516
 2671SOL    HW1 8912   4.465   6.080   6.464
 2671SOL    HW2 8913   4.362   6.206   6.454
 2672SOL     OW 8914   3.766   1.160   1.734
 2672SOL    HW1 8915   3.697   1.131   1.799
 2672SOL    HW2 8916   3.837   1.212   1.782
 2673SOL     OW 8917   5.184   6.777   2.897
 2673SOL    HW1 8918   5.235   6.846   2.949
 2673SOL    HW2 8919   5.132   6.822   2.824
 2674SOL     OW 8920   1.522   5.236   4.136
 2674SOL    HW1 8921   1.511   5.151   4.084
 2674SOL    HW2 8922   1.478   5.311   4.086
 2675SOL     OW 8923   0.165   6.829   3.604
 2675SOL    HW1 8924   0.150   6.732   3.625
 2675SOL    HW2 8925   0.259   6.842   3.573
 2676SOL     OW 8926   3.144   3.983   2.318
 2676SOL    HW1 8927   3.240   4.000   2.294
 2676SOL    HW2 8928   3.138   3.960   2.416
 2677SOL     OW 8929   2.552   4.522   0.851
 2677SOL    HW1 8930   2.539   4.440   0.908
 2677SOL    HW2 8931   2.465   4.570   0.843
 2678SOL     OW 8932   7.007   2.459   2.410
 2678SOL    HW1 8933   7.006   2.548   2.456
 2678SOL    HW2 8934   0.065   2.408   2.439
 2679SOL     OW 8935   2.060   5.628   2.233
 2679SOL    HW1 8936   1.971   5.666   2.208
 2679SOL    HW2 8937   2.058   5.529   2.218
 2680SOL     OW 8938   0.972   2.281   0.099
 2680SOL    HW1 8939   1.072   2.271   0.099
 2680SOL    HW2 8940   0.944   2.331   0.181
 2681SOL     OW 8941   1.329   2.663   5.141
 2681SOL    HW1 8942   1.340   2.597   5.068
 2681SOL    HW2 8943   1.267   2.627   5.211
 2682SOL     OW 8944   5.026   4.182   2.146
 2682SOL    HW1 8945   4.938   4.218   2.176
 2682SOL    HW2 8946   5.063   4.238   2.072
 2683SOL     OW 8947   2.269   4.454   2.654
 2683SOL    HW1 8948   2.305   4.424   2.742
 2683SOL    HW2 8949   2.195   4.393   2.625
 2684SOL     OW 8950   5.159   6.537   2.242
 2684SOL    HW1 8951   5.078   6.489   2.276
 2684SOL    HW2 8952   5.239   6.507   2.293
 2685SOL     OW 8953   6.685   4.926   4.921
 2685SOL    HW1 8954   6.629   5.009   4.918
 2685SOL    HW2 8955   6.626   4.846   4.937
 2686SOL     OW 8956   1.057   1.537   4.908
 2686SOL    HW1 8957   1.050   1.438   4.894
 2686SOL    HW2 8958   1.005   1.584   4.837
 2687SOL     OW 8959   3.981   0.845   1.825
 2687SOL    HW1 8960   3.966   0.750   1.855
 2687SOL    HW2 8961   3.898   0.880   1.782
 2688SOL     OW 8962   3.289   2.046   0.937
 2688SOL    HW1 8963   3.361   2.070   1.002
 2688SOL    HW2 8964   3.325   1.980   0.871
 2689SOL     OW 8965   0.540   4.188   2.462
 2689SOL    HW1 8966   0.478   4.266   2.462
 2689SOL    HW2 8967   0.530   4.138   2.376
 2690SOL     OW 8968   3.141   2.455   6.442
 2690SOL    HW1 8969   3.234   2.423   6.427
 2690SOL    HW2 8970   3.134   2.497   6.533
 2691SOL     OW 8971   0.449   4.571   3.797
 2691SOL    HW1 8972   0.508   4.640   3.838
 2691SOL    HW2 8973   0.366   4.561   3.851
 2692SOL     OW 8974   2.711   6.029   3.330
 2692SOL    HW1 8975   2.806   6.006   3.309
 2692SOL    HW2 8976   2.687   5.994   3.421
 2693SOL     OW 8977   1.865   5.028   3.905
 2693SOL    HW1 8978   1.913   5.012   3.819
 2693SOL    HW2 8979   1.926   5.072   3.970
 2694SOL     OW 8980   4.087   6.168   3.666
 2694SOL    HW1 8981   4.074   6.259   3.626
 2694SOL    HW2 8982   4.154   6.174   3.740
 2695SOL     OW 8983   6.602   7.000   2.861
 2695SOL    HW1 8984   6.616   6.958   2.951
 2695SOL    HW2 8985   6.504   7.006   2.842
 2696SOL     OW 8986   4.497   3.638   6.635
 2696SOL    HW1 8987   4.457   3.712   6.689
 2696SOL    HW2 8988   4.445   3.626   6.551
 2697SOL     OW 8989   4.331   1.620   1.140
 2697SOL    HW1 8990   4.364   1.567   1.062
 2697SOL    HW2 8991   4.326   1.717   1.116
 2698SOL     OW 8992   1.397   4.886   6.075
 2698SOL    HW1 8993   1.350   4.879   5.987
 2698SOL    HW2 8994   1.358   4.819   6.138
 2699SOL     OW 8995   2.932   5.919   1.898
 2699SOL    HW1 8996   2.839   5.939   1.929
 2699SOL    HW2 8997   2.997   5.966   1.957
 2700SOL     OW 8998   2.541   2.090   1.009
 2700SOL    HW1 8999   2.447   2.059   1.017
 2700SOL    HW2 9000   2.603   2.013   1.019
 2701SOL     OW 9001   5.063   2.280   4.834
 2701SOL    HW1 9002   5.008   2.243   4.908
 2701SOL    HW2 9003   5.005   2.298   4.754
 2702SOL     OW 9004   1.894   1.690   4.022
 2702SOL    HW1 9005   1.985   1.664   4.053
 2702SOL    HW2 9006   1.895   1.785   3.991
 2703SOL     OW 9007   1.445   5.651   1.412
 2703SOL    HW1 9008   1.418   5.726   1.351
 2703SOL    HW2 9009   1.368   5.590   1.427
 2704SOL     OW 9010   6.887   5.710   2.997
 2704SOL    HW1 9011   6.916   5.672   3.085
 2704SOL    HW2 9012   6.817   5.651   2.956
 2705SOL     OW 9013   6.926   1.601   5.480
 2705SOL    HW1 9014   6.954   1.668   5.549
 2705SOL    HW2 9015   6.919   1.646   5.391
 2706SOL     OW 9016   5.652   4.427   4.155
 2706SOL    HW1 9017   5.709   4.354   4.115
 2706SOL    HW2 9018   5.556   4.402   4.147
 2707SOL     OW 9019   4.363   6.803   3.394
 2707SOL    HW1 9020   4.314   6.765   3.316
 2707SOL    HW2 9021   4.334   6.757   3.478
 2708SOL     OW 9022   5.967   3.330   0.140
 2708SOL    HW1 9023   5.966   3.429   0.157
 2708SOL    HW2 9024   5.880   3.303   0.098
 2709SOL     OW 9025   5.160   6.915   6.395
 2709SOL    HW1 9026   5.253   6.905   6.430
 2709SOL    HW2 9027   5.118   6.825   6.386
 2710SOL     OW 9028   1.763   2.854   3.746
 2710SOL    HW1 9029   1.755   2.775   3.806
 2710SOL    HW2 9030   1.776   2.823   3.652
 2711SOL     OW 9031   3.227   2.016   3.826
 2711SOL    HW1 9032   3.319   2.035   3.791
 2711SOL    HW2 9033   3.162   2.020   3.750
 2712SOL     OW 9034   3.450   5.492   2.223
 2712SOL    HW1 9035   3.409   5.435   2.151
 2712SOL    HW2 9036   3.377   5.540   2.272
 2713SOL     OW 9037   4.416   4.624   6.307
 2713SOL    HW1 9038   4.439   4.662   6.217
 2713SOL    HW2 9039   4.462   4.678   6.378
 2714SOL     OW 9040   3.696   3.874   6.530
 2714SOL    HW1 9041   3.691   3.776   6.509
 2714SOL    HW2 9042   3.731   3.924   6.451
 2715SOL     OW 9043   5.322   1.871   0.992
 2715SOL    HW1 9044   5.318   1.900   0.896
 2715SOL    HW2 9045   5.275   1.939   1.049
 2716SOL     OW 9046   4.355   2.346   2.750
 2716SOL    HW1 9047   4.260   2.312   2.745
 2716SOL    HW2 9048   4.385   2.373   2.658
 2717SOL     OW 9049   0.617   0.447   1.751
 2717SOL    HW1 9050   0.716   0.453   1.763
 2717SOL    HW2 9051   0.577   0.398   1.829
 2718SOL     OW 9052   0.436   1.225   5.450
 2718SOL    HW1 9053   0.440   1.254   5.355
 2718SOL    HW2 9054   0.528   1.203   5.482
 2719SOL     OW 9055   1.482   4.531   2.670
 2719SOL    HW1 9056   1.439   4.481   2.745
 2719SOL    HW2 9057   1.458   4.488   2.583
 2720SOL     OW 9058   0.889   6.844   4.872
 2720SOL    HW1 9059   0.964   6.910   4.872
 2720SOL    HW2 9060   0.860   6.826   4.966
 2721SOL     OW 9061   3.412   6.318   1.549
 2721SOL    HW1 9062   3.387   6.253   1.621
 2721SOL    HW2 9063   3.363   6.404   1.563
 2722SOL     OW 9064   4.937   5.847   6.707
 2722SOL    HW1 9065   5.009   5.851   6.638
 2722SOL    HW2 9066   4.978   5.829   6.797
 2723SOL     OW 9067   3.150   6.857   0.025
 2723SOL    HW1 9068   3.092   6.779   0.047
 2723SOL    HW2 9069   3.146   6.924   0.099
 2724SOL     OW 9070   1.417   5.893   6.230
 2724SOL    HW1 9071   1.454   5.828   6.163
 2724SOL    HW2 9072   1.365   5.843   6.299
 2725SOL     OW 9073   5.149   4.063   4.146
 2725SOL    HW1 9074   5.249   4.053   4.147
 2725SOL    HW2 9075   5.110   4.003   4.076
 2726SOL     OW 9076   0.864   1.530   1.127
 2726SOL    HW1 9077   0.847   1.476   1.210
 2726SOL    HW2 9078   0.783   1.584   1.106
 2727SOL     OW 9079   2.229   4.040   4.335
 2727SOL    HW1 9080   2.137   4.077   4.348
 2727SOL    HW2 9081   2.260   3.996   4.419
 2728SOL     OW 9082   5.608   6.115   6.452
 2728SOL    HW1 9083   5.643   6.021   6.447
 2728SOL    HW2 9084   5.591   6.139   6.547
 2729SOL     OW 9085   6.065   6.467   7.010
 2729SOL    HW1 9086   6.069   6.512   6.921
 2729SOL    HW2 9087   6.066   6.536   0.060
 2730SOL     OW 9088   0.582   5.438   1.663
 2730SOL    HW1 9089   0.666   5.479   1.697
 2730SOL    HW2 9090   0.512   5.439   1.734
 2731SOL     OW 9091   3.176   3.379   3.460
 2731SOL    HW1 9092   3.273   3.363   3.443
 2731SOL    HW2 9093   3.123   3.304   3.421
 2732SOL     OW 9094   4.946   1.267   1.206
 2732SOL    HW1 9095   5.027   1.273   1.264
 2732SOL    HW2 9096   4.945   1.343   1.141
 2733SOL     OW 9097   6.958   1.122   5.667
 2733SOL    HW1 9098   0.032   1.107   5.684
 2733SOL    HW2 9099   6.947   1.199   5.604
 2734SOL     OW 9100   3.527   6.502   1.821
 2734SOL    HW1 9101   3.624   6.516   1.842
 2734SOL    HW2 9102   3.516   6.491   1.722
 2735SOL     OW 9103   1.599   2.169   0.207
 2735SOL    HW1 9104   1.555   2.079   0.204
 2735SOL    HW2 9105   1.578   2.213   0.295
 2736SOL     OW 9106   5.577   5.895   4.481
 2736SOL    HW1 9107   5.621   5.980   4.512
 2736SOL    HW2 9108   5.548   5.842   4.561
 2737SOL     OW 9109   2.824   2.163   6.001
 2737SOL    HW1 9110   2.834   2.090   6.069
 2737SOL    HW2 9111   2.740   2.214   6.017
 2738SOL     OW 9112   5.846   0.351   1.656
 2738SOL    HW1 9113   5.820   0.263   1.617
 2738SOL    HW2 9114   5.823   0.424   1.591
 2739SOL     OW 9115   1.116   5.309   1.217
 2739SOL    HW1 9116   1.046   5.344   1.154
 2739SOL    HW2 9117   1.082   5.225   1.260
 2740SOL     OW 9118   0.163   5.154   2.543
 2740SOL    HW1 9119   0.254   5.183   2.571
 2740SOL    HW2 9120   0.098   5.172   2.617
 2741SOL     OW 9121   1.059   2.077   4.080
 2741SOL    HW1 9122   1.091   2.158   4.129
 2741SOL    HW2 9123   0.985   2.033   4.131
 2742SOL     OW 9124   3.327   4.815   1.753
 2742SOL    HW1 9125   3.234   4.778   1.757
 2742SOL    HW2 9126   3.393   4.742   1.775
 2743SOL     OW 9127   7.006   4.804   2.357
 2743SOL    HW1 9128   0.072   4.832   2.394
 2743SOL    HW2 9129   6.992   4.847   2.268
 2744SOL     OW 9130   3.576   3.388   2.245
 2744SOL    HW1 9131   3.568   3.323   2.170
 2744SOL    HW2 9132   3.635   3.350   2.316
 2745SOL     OW 9133   6.359   1.592   5.714
 2745SOL    HW1 9134   6.431   1.651   5.677
 2745SOL    HW2 9135   6.316   1.637   5.793
 2746SOL     OW 9136   0.878   0.992   4.322
 2746SOL    HW1 9137   0.806   1.050   4.285
 2746SOL    HW2 9138   0.875   0.993   4.422
 2747SOL     OW 9139   4.085   5.870   6.625
 2747SOL    HW1 9140   4.082   5.772   6.646
 2747SOL    HW2 9141   4.022   5.890   6.550
 2748SOL     OW 9142   4.490   0.540   1.445
 2748SOL    HW1 9143   4.499   0.609   1.516
 2748SOL    HW2 9144   4.395   0.535   1.415
 2749SOL     OW 9145   1.149   3.742   0.444
 2749SOL    HW1 9146   1.119   3.746   0.539
 2749SOL    HW2 9147   1.236   3.692   0.438
 2750SOL     OW 9148   2.606   5.093   1.795
 2750SOL    HW1 9149   2.659   5.169   1.757
 2750SOL    HW2 9150   2.510   5.120   1.802
 2751SOL     OW 9151   2.035   1.685   1.634
 2751SOL    HW1 9152   2.067   1.758   1.694
 2751SOL    HW2 9153   2.097   1.678   1.555
 2752SOL     OW 9154   4.300   4.246   6.171
 2752SOL    HW1 9155   4.213   4.257   6.220
 2752SOL    HW2 9156   4.283   4.248   6.072
 2753SOL     OW 9157   5.958   6.278   5.129
 2753SOL    HW1 9158   5.893   6.263   5.055
 2753SOL    HW2 9159   5.946   6.208   5.199
 2754SOL     OW 9160   0.766   6.581   6.707
 2754SOL    HW1 9161   0.676   6.540   6.720
 2754SOL    HW2 9162   0.775   6.613   6.613
 2755SOL     OW 9163   2.827   6.767   2.897
 2755SOL    HW1 9164   2.734   6.733   2.888
 2755SOL    HW2 9165   2.869   6.775   2.806
 2756SOL     OW 9166   4.401   6.184   0.708
 2756SOL    HW1 9167   4.329   6.128   0.666
 2756SOL    HW2 9168   4.435   6.250   0.642
 2757SOL     OW 9169   1.791   5.355   0.427
 2757SOL    HW1 9170   1.749   5.315   0.509
 2757SOL    HW2 9171   1.752   5.445   0.410
 2758SOL     OW 9172   5.138   0.398   4.733
 2758SOL    HW1 9173   5.118   0.406   4.831
 2758SOL    HW2 9174   5.156   0.489   4.695
 2759SOL     OW 9175   5.366   6.242   4.117
 2759SOL    HW1 9176   5.424   6.191   4.180
 2759SOL    HW2 9177   5.321   6.316   4.166
 2760SOL     OW 9178   1.309   5.409   2.446
 2760SOL    HW1 9179   1.323   5.423   2.348
 2760SOL    HW2 9180   1.392   5.436   2.495
 2761SOL     OW 9181   1.912   4.760   3.915
 2761SOL    HW1 9182   2.006   4.761   3.948
 2761SOL    HW2 9183   1.870   4.849   3.932
 2762SOL     OW 9184   0.887   0.798   5.507
 2762SOL    HW1 9185   0.953   0.785   5.581
 2762SOL    HW2 9186   0.805   0.744   5.526
 2763SOL     OW 9187   5.594   2.098   3.977
 2763SOL    HW1 9188   5.646   2.037   3.917
 2763SOL    HW2 9189   5.522   2.143   3.923
 2764SOL     OW 9190   5.689   6.970   1.057
 2764SOL    HW1 9191   5.649   0.023   1.007
 2764SOL    HW2 9192   5.696   6.994   1.154
 2765SOL     OW 9193   5.277   0.530   1.416
 2765SOL    HW1 9194   5.280   0.549   1.318
 2765SOL    HW2 9195   5.279   0.615   1.467
 2766SOL     OW 9196   5.463   1.821   0.530
 2766SOL    HW1 9197   5.424   1.867   0.450
 2766SOL    HW2 9198   5.555   1.787   0.508
 2767SOL     OW 9199   6.828   4.817   7.001
 2767SOL    HW1 9200   6.746   4.839   0.030
 2767SOL    HW2 9201   6.906   4.809   0.040
 2768SOL     OW 9202   5.766   1.494   0.221
 2768SOL    HW1 9203   5.838   1.440   0.265
 2768SOL    HW2 9204   5.781   1.495   0.122
 2769SOL     OW 9205   6.125   4.437   3.945
 2769SOL    HW1 9206   6.077   4.393   3.869
 2769SOL    HW2 9207   6.107   4.536   3.943
 2770SOL     OW 9208   1.744   5.728   6.543
 2770SOL    HW1 9209   1.834   5.711   6.584
 2770SOL    HW2 9210   1.731   5.668   6.464
 2771SOL     OW 9211   5.313   1.253   1.623
 2771SOL    HW1 9212   5.271   1.338   1.654
 2771SOL    HW2 9213   5.301   1.183   1.694
 2772SOL     OW 9214   4.661   2.334   0.473
 2772SOL    HW1 9215   4.659   2.400   0.398
 2772SOL    HW2 9216   4.567   2.312   0.499
 2773SOL     OW 9217   4.409   3.139   6.003
 2773SOL    HW1 9218   4.455   3.198   6.069
 2773SOL    HW2 9219   4.408   3.183   5.914
 2774SOL     OW 9220   6.380   3.060   3.123
 2774SOL    HW1 9221   6.307   3.087   3.187
 2774SOL    HW2 9222   6.381   3.124   3.046
 2775SOL     OW 9223   6.883   5.561   0.635
 2775SOL    HW1 9224   6.936   5.624   0.691
 2775SOL    HW2 9225   6.787   5.564   0.662
 2776SOL     OW 9226   4.160   5.767   5.397
 2776SOL    HW1 9227   4.125   5.722   5.478
 2776SOL    HW2 9228   4.130   5.718   5.315
 2777SOL     OW 9229   3.238   1.136   2.341
 2777SOL    HW1 9230   3.193   1.065   2.396
 2777SOL    HW2 9231   3.173   1.210   2.323
 2778SOL     OW 9232   1.989   1.162   5.290
 2778SOL    HW1 9233   2.033   1.100   5.355
 2778SOL    HW2 9234   1.893   1.137   5.278
 2779SOL     OW 9235   4.367   0.281   0.531
 2779SOL    HW1 9236   4.430   0.270   0.608
 2779SOL    HW2 9237   4.297   0.348   0.554
 2780SOL     OW 9238   6.064   5.923   5.695
 2780SOL    HW1 9239   6.008   5.863   5.753
 2780SOL    HW2 9240   6.011   5.949   5.614
 2781SOL     OW 9241   6.221   5.327   2.005
 2781SOL    HW1 9242   6.206   5.405   2.065
 2781SOL    HW2 9243   6.267   5.356   1.922
 2782SOL     OW 9244   3.274   2.750   6.309
 2782SOL    HW1 9245   3.198   2.779   6.252
 2782SOL    HW2 9246   3.250   2.759   6.406
 2783SOL     OW 9247   6.163   3.171   5.109
 2783SOL    HW1 9248   6.210   3.113   5.044
 2783SOL    HW2 9249   6.151   3.263   5.070
 2784SOL     OW 9250   2.271   2.262   1.332
 2784SOL    HW1 9251   2.234   2.170   1.350
 2784SOL    HW2 9252   2.234   2.326   1.398
 2785SOL     OW 9253   6.488   0.986   0.062
 2785SOL    HW1 9254   6.412   0.938   0.105
 2785SOL    HW2 9255   6.536   0.925   7.022
 2786SOL     OW 9256   3.363   7.021   1.504
 2786SOL    HW1 9257   3.266   0.011   1.484
 2786SOL    HW2 9258   3.417   0.013   1.422
 2787SOL     OW 9259   2.651   3.151   6.892
 2787SOL    HW1 9260   2.666   3.083   6.821
 2787SOL    HW2 9261   2.661   3.243   6.853
 2788SOL     OW 9262   1.981   3.839   0.197
 2788SOL    HW1 9263   1.961   3.888   0.281
 2788SOL    HW2 9264   1.914   3.863   0.127
 2789SOL     OW 9265   1.657   1.889   3.801
 2789SOL    HW1 9266   1.638   1.976   3.755
 2789SOL    HW2 9267   1.601   1.817   3.760
 2790SOL     OW 9268   3.401   5.330   2.837
 2790SOL    HW1 9269   3.399   5.275   2.921
 2790SOL    HW2 9270   3.445   5.278   2.764
 2791SOL     OW 9271   1.842   3.993   4.869
 2791SOL    HW1 9272   1.923   3.941   4.845
 2791SOL    HW2 9273   1.869   4.076   4.918
 2792SOL     OW 9274   1.484   0.223   4.926
 2792SOL    HW1 9275   1.536   0.199   5.009
 2792SOL    HW2 9276   1.546   0.230   4.849
 2793SOL     OW 9277   4.835   2.320   2.625
 2793SOL    HW1 9278   4.738   2.292   2.626
 2793SOL    HW2 9279   4.891   2.243   2.593
 2794SOL     OW 9280   0.005   2.967   0.355
 2794SOL    HW1 9281   6.965   3.045   0.359
 2794SOL    HW2 9282   7.010   2.914   0.272
 2795SOL     OW 9283   2.980   4.231   1.352
 2795SOL    HW1 9284   2.956   4.223   1.448
 2795SOL    HW2 9285   3.074   4.201   1.338
 2796SOL     OW 9286   6.473   4.436   2.663
 2796SOL    HW1 9287   6.551   4.391   2.706
 2796SOL    HW2 9288   6.459   4.399   2.571
 2797SOL     OW 9289   5.199   5.760   4.970
 2797SOL    HW1 9290   5.220   5.841   5.023
 2797SOL    HW2 9291   5.175   5.685   5.032
 2798SOL     OW 9292   0.922   4.264   2.432
 2798SOL    HW1 9293   0.863   4.214   2.368
 2798SOL    HW2 9294   0.895   4.241   2.526
 2799SOL     OW 9295   0.317   5.954   6.923
 2799SOL    HW1 9296   0.224   5.965   6.890
 2799SOL    HW2 9297   0.373   5.913   6.852
 2800SOL     OW 9298   4.668   4.064   6.655
 2800SOL    HW1 9299   4.694   4.089   6.562
 2800SOL    HW2 9300   4.589   4.119   6.683
 2801SOL     OW 9301   4.353   5.848   4.021
 2801SOL    HW1 9302   4.430   5.797   4.059
 2801SOL    HW2 9303   4.359   5.847   3.921
 2802SOL     OW 9304   4.547   3.155   6.404
 2802SOL    HW1 9305   4.481   3.086   6.433
 2802SOL    HW2 9306   4.559   3.223   6.477
 2803SOL     OW 9307   2.416   6.260   6.038
 2803SOL    HW1 9308   2.367   6.202   6.103
 2803SOL    HW2 9309   2.395   6.356   6.057
 2804SOL     OW 9310   6.741   4.378   3.677
 2804SOL    HW1 9311   6.761   4.291   3.632
 2804SOL    HW2 9312   6.777   4.376   3.770
 2805SOL     OW 9313   4.464   3.791   1.391
 2805SOL    HW1 9314   4.412   3.875   1.377
 2805SOL    HW2 9315   4.558   3.804   1.360
 2806SOL     OW 9316   5.875   5.355   3.529
 2806SOL    HW1 9317   5.964   5.313   3.541
 2806SOL    HW2 9318   5.823   5.349   3.614
 2807SOL     OW 9319   5.326   4.802   3.623
 2807SOL    HW1 9320   5.309   4.895   3.591
 2807SOL    HW2 9321   5.356   4.805   3.719
 2808SOL     OW 9322   3.987   1.343   2.976
 2808SOL    HW1 9323   4.083   1.368   2.970
 2808SOL    HW2 9324   3.934   1.397   2.910
 2809SOL     OW 9325   6.757   2.805   1.367
 2809SOL    HW1 9326   6.726   2.890   1.410
 2809SOL    HW2 9327   6.783   2.740   1.438
 2810SOL     OW 9328   3.379   6.623   4.690
 2810SOL    HW1 9329   3.404   6.555   4.621
 2810SOL    HW2 9330   3.305   6.587   4.747
 2811SOL     OW 9331   0.678   0.422   3.222
 2811SOL    HW1 9332   0.631   0.471   3.149
 2811SOL    HW2 9333   0.617   0.413   3.301
 2812SOL     OW 9334   5.129   3.486   1.590
 2812SOL    HW1 9335   5.220   3.527   1.578
 2812SOL    HW2 9336   5.096   3.452   1.502
 2813SOL     OW 9337   6.062   6.805   5.890
 2813SOL    HW1 9338   6.162   6.813   5.888
 2813SOL    HW2 9339   6.026   6.805   5.797
 2814SOL     OW 9340   4.145   2.984   6.870
 2814SOL    HW1 9341   4.073   2.963   6.936
 2814SOL    HW2 9342   4.160   3.083   6.868
 2815SOL     OW 9343   0.100   1.454   4.808
 2815SOL    HW1 9344   0.009   1.484   4.836
 2815SOL    HW2 9345   0.111   1.467   4.709
 2816SOL     OW 9346   6.677   6.207   3.769
 2816SOL    HW1 9347   6.725   6.140   3.713
 2816SOL    HW2 9348   6.662   6.170   3.860
 2817SOL     OW 9349   1.581   0.056   1.357
 2817SOL    HW1 9350   1.668   0.063   1.404
 2817SOL    HW2 9351   1.579   0.122   1.281
 2818SOL     OW 9352   6.815   5.389   0.047
 2818SOL    HW1 9353   6.784   5.472   0.002
 2818SOL    HW2 9354   6.855   5.412   0.136
 2819SOL     OW 9355   0.456   2.491   0.603
 2819SOL    HW1 9356   0.376   2.534   0.646
 2819SOL    HW2 9357   0.432   2.400   0.571
 2820SOL     OW 9358   0.906   2.476   1.923
 2820SOL    HW1 9359   0.848   2.399   1.898
 2820SOL    HW2 9360   0.850   2.547   1.967
 2821SOL     OW 9361   3.359   4.118   6.602
 2821SOL    HW1 9362   3.369   4.134   6.701
 2821SOL    HW2 9363   3.340   4.204   6.556
 2822SOL     OW 9364   3.719   2.284   0.642
 2822SOL    HW1 9365   3.806   2.264   0.597
 2822SOL    HW2 9366   3.673   2.199   0.665
 2823SOL     OW 9367   1.981   6.531   1.382
 2823SOL    HW1 9368   2.018   6.621   1.357
 2823SOL    HW2 9369   2.007   6.464   1.313
 2824SOL     OW 9370   2.523   1.425   4.963
 2824SOL    HW1 9371   2.504   1.471   5.050
 2824SOL    HW2 9372   2.508   1.489   4.887
 2825SOL     OW 9373   6.303   6.756   0.304
 2825SOL    HW1 9374   6.310   6.826   0.232
 2825SOL    HW2 9375   6.373   6.686   0.289
 2826SOL     OW 9376   5.247   2.163   6.310
 2826SOL    HW1 9377   5.238   2.163   6.211
 2826SOL    HW2 9378   5.240   2.069   6.344
 2827SOL     OW 9379   6.841   1.060   5.340
 2827SOL    HW1 9380   6.920   1.015   5.298
 2827SOL    HW2 9381   6.868   1.098   5.429
 2828SOL     OW 9382   3.468   1.286   6.488
 2828SOL    HW1 9383   3.491   1.213   6.552
 2828SOL    HW2 9384   3.520   1.368   6.512
 2829SOL     OW 9385   4.083   4.185   6.317
 2829SOL    HW1 9386   4.013   4.135   6.369
 2829SOL    HW2 9387   4.147   4.227   6.381
 2830SOL     OW 9388   0.082   4.346   6.785
 2830SOL    HW1 9389   0.002   4.294   6.756
 2830SOL    HW2 9390   0.162   4.285   6.787
 2831SOL     OW 9391   6.731   6.005   4.242
 2831SOL    HW1 9392   6.754   5.912   4.212
 2831SOL    HW2 9393   6.792   6.031   4.317
 2832SOL     OW 9394   0.611   0.952   1.556
 2832SOL    HW1 9395   0.627   1.026   1.491
 2832SOL    HW2 9396   0.656   0.869   1.522
 2833SOL     OW 9397   5.255   1.991   2.246
 2833SOL    HW1 9398   5.304   2.010   2.161
 2833SOL    HW2 9399   5.158   1.977   2.227
 2834SOL     OW 9400   2.965   0.825   5.839
 2834SOL    HW1 9401   2.892   0.891   5.822
 2834SOL    HW2 9402   3.011   0.846   5.925
 2835SOL     OW 9403   0.254   0.211   1.539
 2835SOL    HW1 9404   0.313   0.135   1.511
 2835SOL    HW2 9405   0.306   0.274   1.596
 2836SOL     OW 9406   6.757   0.305   1.112
 2836SOL    HW1 9407   6.695   0.380   1.087
 2836SOL    HW2 9408   6.809   0.331   1.194
 2837SOL     OW 9409   5.694   3.041   3.090
 2837SOL    HW1 9410   5.683   2.983   3.170
 2837SOL    HW2 9411   5.739   2.989   3.017
 2838SOL     OW 9412   1.956   3.995   1.771
 2838SOL    HW1 9413   1.949   3.897   1.790
 2838SOL    HW2 9414   1.882   4.022   1.710
 2839SOL     OW 9415   5.850   1.399   2.133
 2839SOL    HW1 9416   5.878   1.400   2.037
 2839SOL    HW2 9417   5.750   1.392   2.139
 2840SOL     OW 9418   0.688   0.822   4.204
 2840SOL    HW1 9419   0.753   0.885   4.245
 2840SOL    HW2 9420   0.612   0.806   4.266
 2841SOL     OW 9421   6.863   1.085   6.112
 2841SOL    HW1 9422   6.798   1.135   6.169
 2841SOL    HW2 9423   6.870   0.991   6.145
 2842SOL     OW 9424   0.399   1.865   4.061
 2842SOL    HW1 9425   0.303   1.840   4.049
 2842SOL    HW2 9426   0.440   1.883   3.971
 2843SOL     OW 9427   3.405   1.760   3.834
 2843SOL    HW1 9428   3.346   1.840   3.844
 2843SOL    HW2 9429   3.425   1.721   3.924
 2844SOL     OW 9430   1.171   4.037   0.513
 2844SOL    HW1 9431   1.132   3.953   0.476
 2844SOL    HW2 9432   1.233   4.015   0.587
 2845SOL     OW 9433   1.256   3.370   0.919
 2845SOL    HW1 9434   1.231   3.466   0.929
 2845SOL    HW2 9435   1.288   3.353   0.826
 2846SOL     OW 9436   5.182   1.822   6.826
 2846SOL    HW1 9437   5.210   1.756   6.755
 2846SOL    HW2 9438   5.087   1.805   6.851
 2847SOL     OW 9439   5.231   3.541   3.528
 2847SOL    HW1 9440   5.179   3.485   3.593
 2847SOL    HW2 9441   5.168   3.586   3.464
 2848SOL     OW 9442   0.283   4.709   6.251
 2848SOL    HW1 9443   0.263   4.611   6.258
 2848SOL    HW2 9444   0.356   4.724   6.185
 2849SOL     OW 9445   3.517   0.382   1.378
 2849SOL    HW1 9446   3.436   0.431   1.346
 2849SOL    HW2 9447   3.507   0.360   1.475
 2850SOL     OW 9448   3.682   0.277   1.808
 2850SOL    HW1 9449   3.724   0.243   1.724
 2850SOL    HW2 9450   3.588   0.304   1.789
 2851SOL     OW 9451   0.812   4.230   5.557
 2851SOL    HW1 9452   0.815   4.294   5.481
 2851SOL    HW2 9453   0.717   4.222   5.590
 2852SOL     OW 9454   5.561   4.633   0.235
 2852SOL    HW1 9455   5.634   4.593   0.291
 2852SOL    HW2 9456   5.483   4.571   0.233
 2853SOL     OW 9457   2.776   2.332   6.773
 2853SOL    HW1 9458   2.825   2.382   6.845
 2853SOL    HW2 9459   2.783   2.234   6.791
 2854SOL     OW 9460   2.957   1.436   4.131
 2854SOL    HW1 9461   2.995   1.509   4.075
 2854SOL    HW2 9462   2.875   1.468   4.179
 2855SOL     OW 9463   2.011   0.802   5.725
 2855SOL    HW1 9464   1.984   0.890   5.685
 2855SOL    HW2 9465   2.033   0.737   5.653
 2856SOL     OW 9466   2.231   3.056   6.157
 2856SOL    HW1 9467   2.171   3.115   6.211
 2856SOL    HW2 9468   2.230   3.086   6.062
 2857SOL     OW 9469   3.120   1.734   1.776
 2857SOL    HW1 9470   3.061   1.779   1.844
 2857SOL    HW2 9471   3.177   1.666   1.822
 2858SOL     OW 9472   6.295   3.487   1.822
 2858SOL    HW1 9473   6.300   3.584   1.843
 2858SOL    HW2 9474   6.296   3.435   1.908
 2859SOL     OW 9475   5.182   2.157   0.836
 2859SOL    HW1 9476   5.227   2.091   0.777
 2859SOL    HW2 9477   5.084   2.159   0.815
 2860SOL     OW 9478   3.946   1.954   1.023
 2860SOL    HW1 9479   3.926   2.009   1.105
 2860SOL    HW2 9480   4.041   1.925   1.025
 2861SOL     OW 9481   4.679   5.457   5.638
 2861SOL    HW1 9482   4.597   5.400   5.631
 2861SOL    HW2 9483   4.685   5.515   5.557
 2862SOL     OW 9484   5.391   1.396   2.907
 2862SOL    HW1 9485   5.446   1.470   2.869
 2862SOL    HW2 9486   5.445   1.312   2.911
 2863SOL     OW 9487   5.874   1.142   6.896
 2863SOL    HW1 9488   5.893   1.230   6.851
 2863SOL    HW2 9489   5.913   1.144   6.988
 2864SOL     OW 9490   4.025   0.328   1.511
 2864SOL    HW1 9491   3.999   0.283   1.425
 2864SOL    HW2 9492   3.970   0.292   1.586
 2865SOL     OW 9493   5.095   4.565   5.514
 2865SOL    HW1 9494   5.005   4.534   5.544
 2865SOL    HW2 9495   5.137   4.494   5.457
 2866SOL     OW 9496   6.224   6.345   0.306
 2866SOL    HW1 9497   6.284   6.383   0.235
 2866SOL    HW2 9498   6.272   6.344   0.393
 2867SOL     OW 9499   5.941   3.514   2.018
 2867SOL    HW1 9500   5.933   3.603   1.972
 2867SOL    HW2 9501   5.981   3.527   2.108
 2868SOL     OW 9502   0.232   3.196   5.274
 2868SOL    HW1 9503   0.190   3.283   5.249
 2868SOL    HW2 9504   0.329   3.198   5.253
 2869SOL     OW 9505   5.965   1.394   3.049
 2869SOL    HW1 9506   5.879   1.421   3.006
 2869SOL    HW2 9507   5.964   1.421   3.145
 2870SOL     OW 9508   6.761   1.501   4.585
 2870SOL    HW1 9509   6.794   1.500   4.490
 2870SOL    HW2 9510   6.758   1.596   4.618
 2871SOL     OW 9511   1.807   1.534   6.616
 2871SOL    HW1 9512   1.816   1.630   6.589
 2871SOL    HW2 9513   1.897   1.498   6.641
 2872SOL     OW 9514   2.520   1.637   3.745
 2872SOL    HW1 9515   2.473   1.713   3.699
 2872SOL    HW2 9516   2.578   1.589   3.679
 2873SOL     OW 9517   1.439   5.115   3.722
 2873SOL    HW1 9518   1.414   5.211   3.734
 2873SOL    HW2 9519   1.473   5.079   3.809
 2874SOL     OW 9520   4.780   5.631   2.397
 2874SOL    HW1 9521   4.870   5.632   2.442
 2874SOL    HW2 9522   4.780   5.698   2.322
 2875SOL     OW 9523   4.516   6.341   6.695
 2875SOL    HW1 9524   4.487   6.268   6.633
 2875SOL    HW2 9525   4.615   6.338   6.706
 2876SOL     OW 9526   0.773   0.099   1.751
 2876SOL    HW1 9527   0.733   0.187   1.727
 2876SOL    HW2 9528   0.858   0.085   1.699
 2877SOL     OW 9529   3.500   3.023   5.213
 2877SOL    HW1 9530   3.442   2.942   5.215
 2877SOL    HW2 9531   3.526   3.047   5.307
 2878SOL     OW 9532   3.702   4.894   4.482
 2878SOL    HW1 9533   3.687   4.842   4.566
 2878SOL    HW2 9534   3.614   4.913   4.438
 2879SOL     OW 9535   4.836   5.240   0.250
 2879SOL    HW1 9536   4.790   5.263   0.336
 2879SOL    HW2 9537   4.797   5.156   0.213
 2880SOL     OW 9538   6.063   6.526   0.656
 2880SOL    HW1 9539   6.110   6.606   0.620
 2880SOL    HW2 9540   6.061   6.530   0.756
 2881SOL     OW 9541   5.572   6.155   0.979
 2881SOL    HW1 9542   5.560   6.175   1.076
 2881SOL    HW2 9543   5.507   6.208   0.925
 2882SOL     OW 9544   0.531   3.515   2.481
 2882SOL    HW1 9545   0.486   3.447   2.539
 2882SOL    HW2 9546   0.549   3.597   2.534
 2883SOL     OW 9547   4.764   6.737   3.933
 2883SOL    HW1 9548   4.803   6.827   3.910
 2883SOL    HW2 9549   4.746   6.686   3.849
 2884SOL     OW 9550   0.565   5.574   3.252
 2884SOL    HW1 9551   0.660   5.564   3.280
 2884SOL    HW2 9552   0.505   5.544   3.327
 2885SOL     OW 9553   6.732   2.580   2.675
 2885SOL    HW1 9554   6.816   2.631   2.656
 2885SOL    HW2 9555   6.742   2.486   2.641
 2886SOL     OW 9556   2.298   3.259   6.920
 2886SOL    HW1 9557   2.370   3.222   6.861
 2886SOL    HW2 9558   2.225   3.299   6.865
 2887SOL     OW 9559   2.185   6.949   5.162
 2887SOL    HW1 9560   2.093   6.953   5.202
 2887SOL    HW2 9561   2.178   6.937   5.063
 2888SOL     OW 9562   0.323   4.919   6.679
 2888SOL    HW1 9563   0.255   4.891   6.611
 2888SOL    HW2 9564   0.335   4.847   6.747
 2889SOL     OW 9565   1.701   0.780   2.237
 2889SOL    HW1 9566   1.602   0.778   2.246
 2889SOL    HW2 9567   1.725   0.791   2.141
 2890SOL     OW 9568   2.751   0.734   1.228
 2890SOL    HW1 9569   2.725   0.820   1.272
 2890SOL    HW2 9570   2.694   0.720   1.147
 2891SOL     OW 9571   2.179   4.504   3.286
 2891SOL    HW1 9572   2.126   4.519   3.203
 2891SOL    HW2 9573   2.196   4.591   3.332
 2892SOL     OW 9574   5.007   4.138   0.289
 2892SOL    HW1 9575   4.909   4.156   0.298
 2892SOL    HW2 9576   5.025   4.093   0.202
 2893SOL     OW 9577   1.340   6.760   5.165
 2893SOL    HW1 9578   1.377   6.753   5.072
 2893SOL    HW2 9579   1.354   6.853   5.199
 2894SOL     OW 9580   3.259   2.519   6.988
 2894SOL    HW1 9581   3.303   2.540   0.052
 2894SOL    HW2 9582   3.208   2.433   6.996
 2895SOL     OW 9583   4.019   3.128   6.388
 2895SOL    HW1 9584   4.056   3.050   6.438
 2895SOL    HW2 9585   3.923   3.112   6.367
 2896SOL     OW 9586   2.460   5.076   6.460
 2896SOL    HW1 9587   2.368   5.090   6.498
 2896SOL    HW2 9588   2.524   5.060   6.535
 2897SOL     OW 9589   2.564   6.215   4.110
 2897SOL    HW1 9590   2.539   6.122   4.081
 2897SOL    HW2 9591   2.659   6.233   4.085
 2898SOL     OW 9592   4.617   5.085   2.857
 2898SOL    HW1 9593   4.566   5.014   2.810
 2898SOL    HW2 9594   4.556   5.163   2.875
 2899SOL     OW 9595   0.163   1.782   6.524
 2899SOL    HW1 9596   0.074   1.757   6.562
 2899SOL    HW2 9597   0.176   1.734   6.437
 2900SOL     OW 9598   1.671   4.969   5.518
 2900SOL    HW1 9599   1.685   5.027   5.598
 2900SOL    HW2 9600   1.705   5.017   5.437
 2901SOL     OW 9601   1.479   6.950   2.946
 2901SOL    HW1 9602   1.509   6.950   2.851
 2901SOL    HW2 9603   1.380   6.938   2.949
 2902SOL     OW 9604   5.562   6.470   0.586
 2902SOL    HW1 9605   5.505   6.442   0.664
 2902SOL    HW2 9606   5.658   6.447   0.605
 2903SOL     OW 9607   2.931   6.995   2.083
 2903SOL    HW1 9608   2.977   0.016   2.160
 2903SOL    HW2 9609   2.914   6.899   2.105
 2904SOL     OW 9610   2.512   3.174   5.412
 2904SOL    HW1 9611   2.524   3.110   5.336
 2904SOL    HW2 9612   2.425   3.157   5.457
 2905SOL     OW 9613   1.397   2.067   2.823
 2905SOL    HW1 9614   1.466   2.120   2.772
 2905SOL    HW2 9615   1.313   2.061   2.769
 2906SOL     OW 9616   5.299   5.027   2.675
 2906SOL    HW1 9617   5.256   4.942   2.704
 2906SOL    HW2 9618   5.390   5.034   2.715
 2907SOL     OW 9619   6.474   0.906   4.775
 2907SOL    HW1 9620   6.411   0.866   4.843
 2907SOL    HW2 9621   6.493   1.001   4.800
 2908SOL     OW 9622   4.105   6.738   3.958
 2908SOL    HW1 9623   4.093   6.734   4.057
 2908SOL    HW2 9624   4.034   6.682   3.913
 2909SOL     OW 9625   0.479   5.517   4.391
 2909SOL    HW1 9626   0.549   5.505   4.462
 2909SOL    HW2 9627   0.465   5.430   4.344
 2910SOL     OW 9628   3.998   6.626   4.569
 2910SOL    HW1 9629   3.942   6.708   4.580
 2910SOL    HW2 9630   4.092   6.645   4.597
 2911SOL     OW 9631   2.403   5.677   3.946
 2911SOL    HW1 9632   2.442   5.739   3.878
 2911SOL    HW2 9633   2.471   5.608   3.971
 2912SOL     OW 9634   3.527   6.216   0.054
 2912SOL    HW1 9635   3.450   6.167   0.095
 2912SOL    HW2 9636   3.518   6.213   6.977
 2913SOL     OW 9637   2.087   4.949   2.796
 2913SOL    HW1 9638   2.153   5.024   2.798
 2913SOL    HW2 9639   2.091   4.899   2.882
 2914SOL     OW 9640   5.723   5.231   6.435
 2914SOL    HW1 9641   5.691   5.213   6.528
 2914SOL    HW2 9642   5.685   5.318   6.403
 2915SOL     OW 9643   4.710   1.778   4.287
 2915SOL    HW1 9644   4.640   1.838   4.327
 2915SOL    HW2 9645   4.688   1.761   4.191
 2916SOL     OW 9646   6.392   4.994   5.935
 2916SOL    HW1 9647   6.315   5.037   5.982
 2916SOL    HW2 9648   6.361   4.956   5.848
 2917SOL     OW 9649   4.248   0.444   1.896
 2917SOL    HW1 9650   4.211   0.382   1.966
 2917SOL    HW2 9651   4.257   0.395   1.810
 2918SOL     OW 9652   0.165   3.035   3.275
 2918SOL    HW1 9653   0.065   3.028   3.269
 2918SOL    HW2 9654   0.198   2.971   3.344
 2919SOL     OW 9655   6.610   0.385   0.327
 2919SOL    HW1 9656   6.530   0.337   0.291
 2919SOL    HW2 9657   6.649   0.444   0.256
 2920SOL     OW 9658   3.810   2.147   2.537
 2920SOL    HW1 9659   3.730   2.178   2.588
 2920SOL    HW2 9660   3.863   2.084   2.594
 2921SOL     OW 9661   7.013   0.627   2.491
 2921SOL    HW1 9662   6.977   0.712   2.453
 2921SOL    HW2 9663   0.090   0.632   2.494
 2922SOL     OW 9664   5.736   6.652   0.115
 2922SOL    HW1 9665   5.737   6.567   0.166
 2922SOL    HW2 9666   5.811   6.711   0.147
 2923SOL     OW 9667   6.937   5.217   1.844
 2923SOL    HW1 9668   6.982   5.244   1.929
 2923SOL    HW2 9669   6.841   5.198   1.862
 2924SOL     OW 9670   0.002   1.887   6.272
 2924SOL    HW1 9671   0.081   1.931   6.314
 2924SOL    HW2 9672   0.030   1.838   6.190
 2925SOL     OW 9673   5.500   0.743   2.882
 2925SOL    HW1 9674   5.405   0.755   2.912
 2925SOL    HW2 9675   5.503   0.737   2.782
 2926SOL     OW 9676   6.877   1.629   5.190
 2926SOL    HW1 9677   6.843   1.588   5.106
 2926SOL    HW2 9678   6.974   1.654   5.179
 2927SOL     OW 9679   1.897   1.821   2.146
 2927SOL    HW1 9680   1.995   1.844   2.146
 2927SOL    HW2 9681   1.874   1.771   2.230
 2928SOL     OW 9682   6.327   2.399   6.399
 2928SOL    HW1 9683   6.235   2.433   6.379
 2928SOL    HW2 9684   6.395   2.466   6.368
 2929SOL     OW 9685   1.072   1.175   5.589
 2929SOL    HW1 9686   1.040   1.252   5.534
 2929SOL    HW2 9687   0.996   1.137   5.641
 2930SOL     OW 9688   4.886   6.490   5.031
 2930SOL    HW1 9689   4.860   6.528   4.942
 2930SOL    HW2 9690   4.805   6.451   5.075
 2931SOL     OW 9691   5.095   6.062   6.453
 2931SOL    HW1 9692   5.184   6.084   6.413
 2931SOL    HW2 9693   5.085   6.113   6.539
 2932SOL     OW 9694   1.547   4.869   2.105
 2932SOL    HW1 9695   1.611   4.893   2.178
 2932SOL    HW2 9696   1.583   4.900   2.017
 2933SOL     OW 9697   5.224   2.470   3.783
 2933SOL    HW1 9698   5.246   2.536   3.711
 2933SOL    HW2 9699   5.130   2.437   3.770
 2934SOL     OW 9700   3.554   0.999   0.566
 2934SOL    HW1 9701   3.620   1.006   0.641
 2934SOL    HW2 9702   3.595   0.947   0.491
 2935SOL     OW 9703   6.706   3.039   1.527
 2935SOL    HW1 9704   6.731   3.015   1.621
 2935SOL    HW2 9705   6.731   3.134   1.509
 2936SOL     OW 9706   5.042   5.822   1.584
 2936SOL    HW1 9707   5.102   5.855   1.511
 2936SOL    HW2 9708   5.031   5.723   1.575
 2937SOL     OW 9709   3.353   5.066   0.769
 2937SOL    HW1 9710   3.326   4.991   0.708
 2937SOL    HW2 9711   3.448   5.092   0.749
 2938SOL     OW 9712   4.646   4.686   5.526
 2938SOL    HW1 9713   4.598   4.609   5.486
 2938SOL    HW2 9714   4.745   4.673   5.514
 2939SOL     OW 9715   0.283   6.370   4.036
 2939SOL    HW1 9716   0.362   6.324   3.997
 2939SOL    HW2 9717   0.302   6.468   4.043
 2940SOL     OW 9718   6.006   0.359   5.214
 2940SOL    HW1 9719   6.057   0.349   5.129
 2940SOL    HW2 9720   5.955   0.445   5.213
 2941SOL     OW 9721   2.094   2.290   5.382
 2941SOL    HW1 9722   2.178   2.311   5.332
 2941SOL    HW2 9723   2.036   2.232   5.326
 2942SOL     OW 9724   2.528   0.874   1.975
 2942SOL    HW1 9725   2.551   0.792   2.027
 2942SOL    HW2 9726   2.537   0.855   1.877
 2943SOL     OW 9727   5.142   3.231   3.336
 2943SOL    HW1 9728   5.130   3.321   3.293
 2943SOL    HW2 9729   5.077   3.222   3.412
 2944SOL     OW 9730   3.065   5.471   5.421
 2944SOL    HW1 9731   3.002   5.420   5.363
 2944SOL    HW2 9732   3.052   5.569   5.406
 2945SOL     OW 9733   4.125   3.499   3.458
 2945SOL    HW1 9734   4.092   3.587   3.425
 2945SOL    HW2 9735   4.140   3.438   3.380
 2946SOL     OW 9736   7.004   5.537   5.773
 2946SOL    HW1 9737   6.916   5.585   5.774
 2946SOL    HW2 9738   7.004   5.467   5.845
 2947SOL     OW 9739   0.907   4.087   0.622
 2947SOL    HW1 9740   0.850   4.037   0.557
 2947SOL    HW2 9741   1.004   4.075   0.598
 2948SOL     OW 9742   6.298   3.865   5.465
 2948SOL    HW1 9743   6.295   3.917   5.551
 2948SOL    HW2 9744   6.389   3.872   5.424
 2949SOL     OW 9745   1.899   5.914   1.134
 2949SOL    HW1 9746   1.870   5.916   1.038
 2949SOL    HW2 9747   1.867   5.829   1.177
 2950SOL     OW 9748   5.455   3.501   4.440
 2950SOL    HW1 9749   5.533   3.439   4.455
 2950SOL    HW2 9750   5.433   3.503   4.342
 2951SOL     OW 9751   7.022   2.747   6.894
 2951SOL    HW1 9752   0.027   2.651   6.905
 2951SOL    HW2 9753   6.943   2.752   6.833
 2952SOL     OW 9754   1.873   4.833   4.434
 2952SOL    HW1 9755   1.861   4.734   4.445
 2952SOL    HW2 9756   1.784   4.876   4.416
 2953SOL     OW 9757   5.191   2.772   2.228
 2953SOL    HW1 9758   5.125   2.799   2.158
 2953SOL    HW2 9759   5.170   2.819   2.314
 2954SOL     OW 9760   1.116   5.609   1.637
 2954SOL    HW1 9761   1.154   5.572   1.552
 2954SOL    HW2 9762   1.177   5.680   1.673
 2955SOL     OW 9763   0.907   3.110   0.258
 2955SOL    HW1 9764   0.845   3.181   0.291
 2955SOL    HW2 9765   0.993   3.151   0.228
 2956SOL     OW 9766   6.891   5.892   2.605
 2956SOL    HW1 9767   6.930   5.853   2.689
 2956SOL    HW2 9768   6.892   5.992   2.612
 2957SOL     OW 9769   6.565   3.430   0.771
 2957SOL    HW1 9770   6.476   3.417   0.729
 2957SOL    HW2 9771   6.635   3.383   0.718
 2958SOL     OW 9772   2.646   4.647   4.773
 2958SOL    HW1 9773   2.679   4.700   4.695
 2958SOL    HW2 9774   2.714   4.651   4.847
 2959SOL     OW 9775   5.315   4.417   6.935
 2959SOL    HW1 9776   5.412   4.436   6.946
 2959SOL    HW2 9777   5.274   4.485   6.874
 2960SOL     OW 9778   2.655   1.084   6.845
 2960SOL    HW1 9779   2.583   1.018   6.866
 2960SOL    HW2 9780   2.644   1.165   6.903
 2961SOL     OW 9781   5.112   2.471   4.490
 2961SOL    HW1 9782   5.045   2.417   4.540
 2961SOL    HW2 9783   5.128   2.557   4.539
 2962SOL     OW 9784   4.543   0.831   3.875
 2962SOL    HW1 9785   4.530   0.793   3.967
 2962SOL    HW2 9786   4.603   0.910   3.880
 2963SOL     OW 9787   1.738   1.751   5.675
 2963SOL    HW1 9788   1.687   1.760   5.761
 2963SOL    HW2 9789   1.791   1.835   5.659
 2964SOL     OW 9790   1.306   0.177   1.706
 2964SOL    HW1 9791   1.297   0.089   1.660
 2964SOL    HW2 9792   1.365   0.237   1.652
 2965SOL     OW 9793   0.146   1.318   5.053
 2965SOL    HW1 9794   0.061   1.330   5.104
 2965SOL    HW2 9795   0.156   1.391   4.986
 2966SOL     OW 9796   5.892   4.757   3.881
 2966SOL    HW1 9797   5.975   4.813   3.873
 2966SOL    HW2 9798   5.836   4.770   3.800
 2967SOL     OW 9799   6.108   2.807   3.663
 2967SOL    HW1 9800   6.028   2.851   3.621
 2967SOL    HW2 9801   6.079   2.752   3.741
 2968SOL     OW 9802   0.932   4.300   5.800
 2968SOL    HW1 9803   0.890   4.260   5.719
 2968SOL    HW2 9804   0.994   4.234   5.842
 2969SOL     OW 9805   5.608   1.003   5.096
 2969SOL    HW1 9806   5.689   1.017   5.152
 2969SOL    HW2 9807   5.634   0.983   5.002
 2970SOL     OW 9808   1.233   4.075   0.222
 2970SOL    HW1 9809   1.257   4.171   0.214
 2970SOL    HW2 9810   1.247   4.045   0.317
 2971SOL     OW 9811   5.381   2.785   4.756
 2971SOL    HW1 9812   5.354   2.728   4.679
 2971SOL    HW2 9813   5.354   2.879   4.739
 2972SOL     OW 9814   6.587   4.637   6.658
 2972SOL    HW1 9815   6.609   4.680   6.571
 2972SOL    HW2 9816   6.526   4.559   6.642
 2973SOL     OW 9817   5.712   0.783   4.290
 2973SOL    HW1 9818   5.802   0.765   4.330
 2973SOL    HW2 9819   5.647   0.804   4.364
 2974SOL     OW 9820   6.694   3.838   3.358
 2974SOL    HW1 9821   6.619   3.797   3.410
 2974SOL    HW2 9822   6.770   3.858   3.420
 2975SOL     OW 9823   0.642   2.099   5.148
 2975SOL    HW1 9824   0.572   2.157   5.189
 2975SOL    HW2 9825   0.670   2.136   5.060
 2976SOL     OW 9826   3.863   1.545   2.778
 2976SOL    HW1 9827   3.784   1.531   2.837
 2976SOL    HW2 9828   3.841   1.518   2.684
 2977SOL     OW 9829   2.105   0.449   4.375
 2977SOL    HW1 9830   2.071   0.364   4.336
 2977SOL    HW2 9831   2.201   0.439   4.399
 2978SOL     OW 9832   4.426   4.754   6.924
 2978SOL    HW1 9833   4.524   4.760   6.907
 2978SOL    HW2 9834   4.395   4.838   6.969
 2979SOL     OW 9835   4.315   6.882   3.900
 2979SOL    HW1 9836   4.362   6.876   3.988
 2979SOL    HW2 9837   4.240   6.815   3.898
 2980SOL     OW 9838   1.602   6.181   4.053
 2980SOL    HW1 9839   1.688   6.130   4.045
 2980SOL    HW2 9840   1.529   6.130   4.006
 2981SOL     OW 9841   0.827   6.992   6.259
 2981SOL    HW1 9842   0.787   0.058   6.283
 2981SOL    HW2 9843   0.758   6.921   6.269
 2982SOL     OW 9844   4.711   6.254   3.207
 2982SOL    HW1 9845   4.692   6.164   3.247
 2982SOL    HW2 9846   4.631   6.313   3.217
 2983SOL     OW 9847   0.945   0.719   3.844
 2983SOL    HW1 9848   0.907   0.628   3.859
 2983SOL    HW2 9849   1.043   0.712   3.825
 2984SOL     OW 9850   4.700   5.742   1.321
 2984SOL    HW1 9851   4.610   5.782   1.300
 2984SOL    HW2 9852   4.758   5.812   1.362
 2985SOL     OW 9853   0.769   2.200   4.489
 2985SOL    HW1 9854   0.729   2.153   4.411
 2985SOL    HW2 9855   0.802   2.290   4.460
 2986SOL     OW 9856   2.197   4.072   6.394
 2986SOL    HW1 9857   2.280   4.060   6.447
 2986SOL    HW2 9858   2.139   3.991   6.404
 2987SOL     OW 9859   4.919   1.162   3.937
 2987SOL    HW1 9860   4.945   1.113   3.854
 2987SOL    HW2 9861   4.991   1.151   4.006
 2988SOL     OW 9862   0.206   6.698   2.417
 2988SOL    HW1 9863   0.108   6.692   2.400
 2988SOL    HW2 9864   0.230   6.793   2.438
 2989SOL     OW 9865   5.984   6.018   1.077
 2989SOL    HW1 9866   5.916   6.048   1.010
 2989SOL    HW2 9867   5.984   5.919   1.083
 2990SOL     OW 9868   4.391   1.108   3.349
 2990SOL    HW1 9869   4.472   1.164   3.328
 2990SOL    HW2 9870   4.351   1.075   3.263
 2991SOL     OW 9871   6.860   3.576   0.198
 2991SOL    HW1 9872   6.865   3.672   0.227
 2991SOL    HW2 9873   6.944   3.529   0.225
 2992SOL     OW 9874   2.126   5.613   5.669
 2992SOL    HW1 9875   2.039   5.579   5.706
 2992SOL    HW2 9876   2.201   5.565   5.713
 2993SOL     OW 9877   1.224   4.493   1.976
 2993SOL    HW1 9878   1.263   4.482   1.885
 2993SOL    HW2 9879   1.285   4.549   2.032
 2994SOL     OW 9880   4.211   1.222   0.329
 2994SOL    HW1 9881   4.282   1.291   0.313
 2994SOL    HW2 9882   4.144   1.258   0.394
 2995SOL     OW 9883   1.016   2.931   6.801
 2995SOL    HW1 9884   1.031   3.025   6.831
 2995SOL    HW2 9885   1.103   2.882   6.799
 2996SOL     OW 9886   3.197   6.464   4.382
 2996SOL    HW1 9887   3.183   6.380   4.435
 2996SOL    HW2 9888   3.294   6.490   4.388
 2997SOL     OW 9889   5.143   6.337   1.961
 2997SOL    HW1 9890   5.103   6.299   2.044
 2997SOL    HW2 9891   5.209   6.408   1.986
 2998SOL     OW 9892   5.010   6.293   5.199
 2998SOL    HW1 9893   5.004   6.377   5.145
 2998SOL    HW2 9894   4.918   6.256   5.213
 2999SOL     OW 9895   3.709   6.144   3.875
 2999SOL    HW1 9896   3.669   6.058   3.907
 2999SOL    HW2 9897   3.734   6.200   3.953
 3000SOL     OW 9898   1.664   3.931   6.258
 3000SOL    HW1 9899   1.746   3.982   6.233
 3000SOL    HW2 9900   1.617   3.978   6.333
 3001SOL     OW 9901   5.366   0.281   6.860
 3001SOL    HW1 9902   5.300   0.341   6.815
 3001SOL    HW2 9903   5.362   0.190   6.819
 3002SOL     OW 9904   4.070   0.424   5.572
 3002SOL    HW1 9905   3.982   0.378   5.563
 3002SOL    HW2 9906   4.082   0.454   5.667
 3003SOL     OW 9907   2.612   6.240   6.762
 3003SOL    HW1 9908   2.707   6.267   6.776
 3003SOL    HW2 9909   2.605   6.177   6.685
 3004SOL     OW 9910   6.560   4.828   4.095
 3004SOL    HW1 9911   6.499   4.836   4.017
 3004SOL    HW2 9912   6.646   4.786   4.067
 3005SOL     OW 9913   3.484   3.193   1.143
 3005SOL    HW1 9914   3.545   3.232   1.212
 3005SOL    HW2 9915   3.439   3.112   1.181
 3006SOL     OW 9916   6.317   2.286   0.488
 3006SOL    HW1 9917   6.277   2.258   0.575
 3006SOL    HW2 9918   6.276   2.233   0.414
 3007SOL     OW 9919   6.070   5.401   2.449
 3007SOL    HW1 9920   6.008   5.475   2.422
 3007SOL    HW2 9921   6.017   5.324   2.485
 3008SOL     OW 9922   3.986   0.393   6.226
 3008SOL    HW1 9923   3.944   0.308   6.195
 3008SOL    HW2 9924   4.080   0.399   6.192
 3009SOL     OW 9925   0.599   6.440   2.533
 3009SOL    HW1 9926   0.633   6.392   2.615
 3009SOL    HW2 9927   0.656   6.520   2.516
 3010SOL     OW 9928   3.800   5.564   3.482
 3010SOL    HW1 9929   3.707   5.593   3.508
 3010SOL    HW2 9930   3.847   5.641   3.439
 3011SOL     OW 9931   5.647   1.079   6.383
 3011SOL    HW1 9932   5.557   1.062   6.423
 3011SOL    HW2 9933   5.674   1.001   6.328
 3012SOL     OW 9934   0.548   3.842   4.625
 3012SOL    HW1 9935   0.448   3.845   4.626
 3012SOL    HW2 9936   0.579   3.792   4.543
 3013SOL     OW 9937   5.069   5.728   3.836
 3013SOL    HW1 9938   5.153   5.780   3.849
 3013SOL    HW2 9939   4.993   5.774   3.883
 3014SOL     OW 9940   4.988   2.354   3.788
 3014SOL    HW1 9941   4.965   2.269   3.740
 3014SOL    HW2 9942   4.936   2.360   3.873
 3015SOL     OW 9943   3.656   2.528   0.623
 3015SOL    HW1 9944   3.678   2.434   0.649
 3015SOL    HW2 9945   3.733   2.569   0.574
 3016SOL     OW 9946   3.404   5.954   4.583
 3016SOL    HW1 9947   3.390   5.866   4.628
 3016SOL    HW2 9948   3.365   5.951   4.491
 3017SOL     OW 9949   1.166   5.574   1.018
 3017SOL    HW1 9950   1.107   5.579   0.937
 3017SOL    HW2 9951   1.245   5.516   0.998
 3018SOL     OW 9952   3.528   0.179   6.484
 3018SOL    HW1 9953   3.470   0.124   6.544
 3018SOL    HW2 9954   3.529   0.139   6.393
 3019SOL     OW 9955   2.840   6.475   1.187
 3019SOL    HW1 9956   2.777   6.552   1.198
 3019SOL    HW2 9957   2.879   6.476   1.095
 3020SOL     OW 9958   3.813   3.868   1.467
 3020SOL    HW1 9959   3.780   3.789   1.519
 3020SOL    HW2 9960   3.791   3.952   1.518
 3021SOL     OW 9961   2.379   1.736   0.477
 3021SOL    HW1 9962   2.399   1.799   0.552
 3021SOL    HW2 9963   2.452   1.741   0.409
 3022SOL     OW 9964   4.298   6.211   2.705
 3022SOL    HW1 9965   4.335   6.228   2.796
 3022SOL    HW2 9966   4.241   6.289   2.677
 3023SOL     OW 9967   3.367   6.224   3.080
 3023SOL    HW1 9968   3.325   6.276   3.005
 3023SOL    HW2 9969   3.415   6.145   3.043
 3024SOL     OW 9970   3.099   0.769   6.602
 3024SOL    HW1 9971   3.173   0.722   6.651
 3024SOL    HW2 9972   3.051   0.704   6.544
 3025SOL     OW 9973   3.415   2.646   0.635
 3025SOL    HW1 9974   3.499   2.593   0.649
 3025SOL    HW2 9975   3.419   2.730   0.690
 3026SOL     OW 9976   1.426   3.253   1.087
 3026SOL    HW1 9977   1.470   3.174   1.044
 3026SOL    HW2 9978   1.356   3.289   1.027
 3027SOL     OW 9979   3.965   1.303   1.843
 3027SOL    HW1 9980   3.986   1.260   1.931
 3027SOL    HW2 9981   3.947   1.400   1.857
 3028SOL     OW 9982   1.183   4.452   6.497
 3028SOL    HW1 9983   1.220   4.366   6.530
 3028SOL    HW2 9984   1.089   4.463   6.529
 3029SOL     OW 9985   6.861   5.246   4.898
 3029SOL    HW1 9986   6.884   5.334   4.939
 3029SOL    HW2 9987   6.787   5.258   4.832
 3030SOL     OW 9988   0.605   1.775   5.691
 3030SOL    HW1 9989   0.584   1.858   5.742
 3030SOL    HW2 9990   0.636   1.800   5.599
 3031SOL     OW 9991   0.611   3.726   0.775
 3031SOL    HW1 9992   0.572   3.647   0.729
 3031SOL    HW2 9993   0.581   3.728   0.870
 3032SOL     OW 9994   5.230   0.817   0.371
 3032SOL    HW1 9995   5.262   0.867   0.451
 3032SOL    HW2 9996   5.176   0.878   0.312
 3033SOL     OW 9997   0.837   2.736   0.620
 3033SOL    HW1 9998   0.816   2.661   0.557
 3033SOL    HW2 9999   0.892   2.701   0.696
 3034SOL     OW10000   2.428   6.009   4.037
 3034SOL    HW110001   2.384   5.971   4.118
 3034SOL    HW210002   2.365   6.005   3.960
 3035SOL     OW10003   0.074   2.739   0.492
 3035SOL    HW110004   0.084   2.732   0.591
 3035SOL    HW210005   0.029   2.825   0.468
 3036SOL     OW10006   1.844   3.347   6.909
 3036SOL    HW110007   1.844   3.259   6.955
 3036SOL    HW210008   1.787   3.411   6.960
 3037SOL     OW10009   6.291   5.763   4.663
 3037SOL    HW110010   6.228   5.694   4.629
 3037SOL    HW210011   6.239   5.840   4.700
 3038SOL     OW10012   6.101   6.783   6.405
 3038SOL    HW110013   6.110   6.760   6.308
 3038SOL    HW210014   6.140   6.709   6.460
 3039SOL     OW10015   6.846   3.730   2.224
 3039SOL    HW110016   6.923   3.689   2.175
 3039SOL    HW210017   6.839   3.689   2.315
 3040SOL     OW10018   4.895   4.443   6.090
 3040SOL    HW110019   4.828   4.510   6.060
 3040SOL    HW210020   4.896   4.439   6.190
 3041SOL     OW10021   1.816   2.403   5.521
 3041SOL    HW110022   1.720   2.433   5.518
 3041SOL    HW210023   1.826   2.319   5.468
 3042SOL     OW10024   5.093   6.149   1.776
 3042SOL    HW110025   5.082   6.233   1.829
 3042SOL    HW210026   5.063   6.165   1.682
 3043SOL     OW10027   0.235   5.441   0.836
 3043SOL    HW110028   0.229   5.350   0.796
 3043SOL    HW210029   0.323   5.453   0.882
 3044SOL     OW10030   3.120   4.686   6.122
 3044SOL    HW110031   3.095   4.783   6.118
 3044SOL    HW210032   3.097   4.650   6.212
 3045SOL     OW10033   4.794   0.127   2.240
 3045SOL    HW110034   4.746   0.068   2.175
 3045SOL    HW210035   4.787   0.222   2.211
 3046SOL     OW10036   1.514   2.783   5.328
 3046SOL    HW110037   1.427   2.790   5.280
 3046SOL    HW210038   1.585   2.754   5.263
 3047SOL     OW10039   4.972   5.813   2.059
 3047SOL    HW110040   5.020   5.823   1.971
 3047SOL    HW210041   5.027   5.754   2.119
 3048SOL     OW10042   3.400   3.199   1.488
 3048SOL    HW110043   3.376   3.160   1.577
 3048SOL    HW210044   3.340   3.276   1.468
 3049SOL     OW10045   1.176   5.926   1.465
 3049SOL    HW110046   1.112   5.898   1.536
 3049SOL    HW210047   1.187   5.853   1.398
 3050SOL     OW10048   3.429   0.456   3.349
 3050SOL    HW110049   3.385   0.492   3.431
 3050SOL    HW210050   3.521   0.495   3.341
 3051SOL     OW10051   2.800   3.759   0.255
 3051SOL    HW110052   2.803   3.661   0.237
 3051SOL    HW210053   2.705   3.788   0.266
 3052SOL     OW10054   4.305   0.752   2.670
 3052SOL    HW110055   4.297   0.810   2.590
 3052SOL    HW210056   4.294   0.807   2.753
 3053SOL     OW10057   6.476   0.534   6.806
 3053SOL    HW110058   6.494   0.488   6.719
 3053SOL    HW210059   6.535   0.496   6.877
 3054SOL     OW10060   0.659   2.493   0.162
 3054SOL    HW110061   0.581   2.469   0.105
 3054SOL    HW210062   0.701   2.577   0.128
 3055SOL     OW10063   5.175   0.541   3.613
 3055SOL    HW110064   5.142   0.635   3.622
 3055SOL    HW210065   5.105   0.484   3.571
 3056SOL     OW10066   0.237   0.155   6.779
 3056SOL    HW110067   0.310   0.120   6.720
 3056SOL    HW210068   0.237   0.255   6.775
 3057SOL     OW10069   4.240   5.598   3.025
 3057SOL    HW110070   4.317   5.660   3.035
 3057SOL    HW210071   4.208   5.599   2.931
 3058SOL     OW10072   6.534   5.413   1.283
 3058SOL    HW110073   6.599   5.365   1.341
 3058SOL    HW210074   6.575   5.429   1.193
 3059SOL     OW10075   1.694   2.731   5.096
 3059SOL    HW110076   1.788   2.765   5.100
 3059SOL    HW210077   1.694   2.635   5.071
 3060SOL     OW10078   0.438   6.102   0.094
 3060SOL    HW110079   0.376   6.063   0.027
 3060SOL    HW210080   0.406   6.194   0.120
 3061SOL     OW10081   6.784   1.083   5.002
 3061SOL    HW110082   6.867   1.103   4.950
 3061SOL    HW210083   6.715   1.152   4.982
 3062SOL     OW10084   1.409   6.441   0.547
 3062SOL    HW110085   1.428   6.355   0.501
 3062SOL    HW210086   1.493   6.493   0.557
 3063SOL     OW10087   2.278   5.143   2.157
 3063SOL    HW110088   2.320   5.053   2.145
 3063SOL    HW210089   2.341   5.214   2.125
 3064SOL     OW10090   6.099   3.511   3.584
 3064SOL    HW110091   6.150   3.524   3.669
 3064SOL    HW210092   6.109   3.416   3.554
 3065SOL     OW10093   2.159   0.415   6.577
 3065SOL    HW110094   2.230   0.458   6.522
 3065SOL    HW210095   2.092   0.372   6.517
 3066SOL     OW10096   5.521   4.389   0.582
 3066SOL    HW110097   5.463   4.371   0.663
 3066SOL    HW210098   5.600   4.443   0.609
 3067SOL     OW10099   3.475   1.237   4.156
 3067SOL    HW110100   3.390   1.189   4.172
 3067SOL    HW210101   3.457   1.321   4.104
 3068SOL     OW10102   5.462   6.111   0.600
 3068SOL    HW110103   5.448   6.013   0.613
 3068SOL    HW210104   5.560   6.132   0.605
 3069SOL     OW10105   6.810   5.541   1.587
 3069SOL    HW110106   6.910   5.542   1.594
 3069SOL    HW210107   6.780   5.619   1.531
 3070SOL     OW10108   2.112   0.659   1.843
 3070SOL    HW110109   2.131   0.754   1.816
 3070SOL    HW210110   2.018   0.635   1.816
 3071SOL     OW10111   6.397   6.685   3.537
 3071SOL    HW110112   6.404   6.685   3.637
 3071SOL    HW210113   6.337   6.760   3.508
 3072SOL     OW10114   1.078   6.119   0.938
 3072SOL    HW110115   0.983   6.126   0.908
 3072SOL    HW210116   1.132   6.078   0.864
 3073SOL     OW10117   0.849   3.363   4.794
 3073SOL    HW110118   0.912   3.421   4.845
 3073SOL    HW210119   0.899   3.285   4.757
 3074SOL     OW10120   5.489   2.834   0.946
 3074SOL    HW110121   5.512   2.918   0.995
 3074SOL    HW210122   5.497   2.756   1.008
 3075SOL     OW10123   1.832   6.135   1.297
 3075SOL    HW110124   1.857   6.043   1.266
 3075SOL    HW210125   1.741   6.158   1.262
 3076SOL     OW10126   6.699   0.838   4.032
 3076SOL    HW110127   6.678   0.756   4.085
 3076SOL    HW210128   6.773   0.888   4.077
 3077SOL     OW10129   5.365   4.354   2.644
 3077SOL    HW110130   5.456   4.394   2.641
 3077SOL    HW210131   5.325   4.355   2.552
 3078SOL     OW10132   1.906   3.400   1.131
 3078SOL    HW110133   2.005   3.407   1.124
 3078SOL    HW210134   1.878   3.305   1.121
 3079SOL     OW10135   1.972   2.733   4.422
 3079SOL    HW110136   1.965   2.639   4.455
 3079SOL    HW210137   1.947   2.796   4.496
 3080SOL     OW10138   5.692   4.921   2.399
 3080SOL    HW110139   5.777   4.869   2.413
 3080SOL    HW210140   5.663   4.960   2.486
 3081SOL     OW10141   0.482   4.463   5.977
 3081SOL    HW110142   0.550   4.400   5.940
 3081SOL    HW210143   0.409   4.476   5.910
 3082SOL     OW10144   3.843   0.163   3.580
 3082SOL    HW110145   3.775   0.178   3.651
 3082SOL    HW210146   3.806   0.104   3.509
 3083SOL     OW10147   4.044   6.473   2.917
 3083SOL    HW110148   4.055   6.465   2.818
 3083SOL    HW210149   3.972   6.539   2.938
 3084SOL     OW10150   4.771   4.824   4.597
 3084SOL    HW110151   4.850   4.763   4.592
 3084SOL    HW210152   4.733   4.838   4.506
 3085SOL     OW10153   0.151   4.553   2.793
 3085SOL    HW110154   0.150   4.527   2.889
 3085SOL    HW210155   0.245   4.571   2.764
 3086SOL     OW10156   4.385   1.586   1.464
 3086SOL    HW110157   4.317   1.658   1.477
 3086SOL    HW210158   4.393   1.533   1.548
 3087SOL     OW10159   0.274   4.752   4.065
 3087SOL    HW110160   0.327   4.671   4.089
 3087SOL    HW210161   0.297   4.780   3.971
 3088SOL     OW10162   2.663   5.003   5.678
 3088SOL    HW110163   2.733   5.064   5.715
 3088SOL    HW210164   2.636   4.936   5.748
 3089SOL     OW10165   0.980   2.886   0.114
 3089SOL    HW110166   1.073   2.891   0.078
 3089SOL    HW210167   0.958   2.973   0.159
 3090SOL     OW10168   1.768   1.644   1.594
 3090SOL    HW110169   1.860   1.676   1.569
 3090SOL    HW210170   1.775   1.579   1.669
 3091SOL     OW10171   2.910   6.276   0.395
 3091SOL    HW110172   2.942   6.197   0.343
 3091SOL    HW210173   2.884   6.349   0.332
 3092SOL     OW10174   4.996   0.301   7.009
 3092SOL    HW110175   5.073   0.323   6.949
 3092SOL    HW210176   5.012   0.339   0.077
 3093SOL     OW10177   5.627   4.993   5.696
 3093SOL    HW110178   5.535   4.969   5.663
 3093SOL    HW210179   5.621   5.071   5.758
 3094SOL     OW10180   3.508   6.991   4.874
 3094SOL    HW110181   3.474   6.947   4.958
 3094SOL    HW210182   3.497   0.067   4.882
 3095SOL     OW10183   2.857   4.779   4.336
 3095SOL    HW110184   2.782   4.719   4.362
 3095SOL    HW210185   2.891   4.752   4.246
 3096SOL     OW10186   0.417   0.358   4.218
 3096SOL    HW110187   0.409   0.390   4.312
 3096SOL    HW210188   0.328   0.366   4.172
 3097SOL     OW10189   0.675   2.617   0.438
 3097SOL    HW110190   0.595   2.569   0.473
 3097SOL    HW210191   0.700   2.579   0.349
 3098SOL     OW10192   2.283   3.444   1.342
 3098SOL    HW110193   2.289   3.364   1.402
 3098SOL    HW210194   2.371   3.490   1.339
 3099SOL     OW10195   0.056   5.927   4.832
 3099SOL    HW110196   0.132   5.954   4.774
 3099SOL    HW210197   0.036   6.000   4.897
 3100SOL     OW10198   6.856   0.351   4.385
 3100SOL    HW110199   6.891   0.258   4.380
 3100SOL    HW210200   6.844   0.377   4.481
 3101SOL     OW10201   4.331   6.304   5.372
 3101SOL    HW110202   4.318   6.387   5.318
 3101SOL    HW210203   4.410   6.316   5.433
 3102SOL     OW10204   1.303   4.724   2.145
 3102SOL    HW110205   1.229   4.790   2.156
 3102SOL    HW210206   1.389   4.773   2.130
 3103SOL     OW10207   3.273   1.806   1.456
 3103SOL    HW110208   3.231   1.836   1.370
 3103SOL    HW210209   3.244   1.867   1.529
 3104SOL     OW10210   5.813   6.755   4.177
 3104SOL    HW110211   5.731   6.736   4.232
 3104SOL    HW210212   5.894   6.727   4.228
 3105SOL     OW10213   6.317   5.489   3.470
 3105SOL    HW110214   6.358   5.574   3.503
 3105SOL    HW210215   6.368   5.412   3.507
 3106SOL     OW10216   6.804   1.411   2.820
 3106SOL    HW110217   6.866   1.471   2.871
 3106SOL    HW210218   6.722   1.394   2.875
 3107SOL     OW10219   3.492   0.318   4.320
 3107SOL    HW110220   3.509   0.260   4.400
 3107SOL    HW210221   3.397   0.349   4.321
 3108SOL     OW10222   1.878   0.508   4.560
 3108SOL    HW110223   1.871   0.455   4.645
 3108SOL    HW210224   1.964   0.486   4.514
 3109SOL     OW10225   6.012   5.789   3.047
 3109SOL    HW110226   6.098   5.741   3.027
 3109SOL    HW210227   6.011   5.878   3.002
 3110SOL     OW10228   1.181   1.664   3.827
 3110SOL    HW110229   1.208   1.580   3.781
 3110SOL    HW210230   1.222   1.667   3.918
 3111SOL     OW10231   6.357   5.367   4.272
 3111SOL    HW110232   6.406   5.356   4.185
 3111SOL    HW210233   6.260   5.385   4.253
 3112SOL     OW10234   5.164   2.552   5.983
 3112SOL    HW110235   5.126   2.568   5.892
 3112SOL    HW210236   5.193   2.639   6.022
 3113SOL     OW10237   2.082   0.124   4.381
 3113SOL    HW110238   2.084   0.100   4.284
 3113SOL    HW210239   2.064   0.042   4.435
 3114SOL     OW10240   4.869   3.288   0.211
 3114SOL    HW110241   4.797   3.224   0.186
 3114SOL    HW210242   4.902   3.266   0.303
 3115SOL     OW10243   4.601   3.542   0.376
 3115SOL    HW110244   4.689   3.516   0.416
 3115SOL    HW210245   4.609   3.632   0.333
 3116SOL     OW10246   0.718   3.880   6.816
 3116SOL    HW110247   0.641   3.832   6.859
 3116SOL    HW210248   0.707   3.876   6.716
 3117SOL     OW10249   4.582   3.879   5.264
 3117SOL    HW110250   4.512   3.845   5.327
 3117SOL    HW210251   4.619   3.802   5.211
 3118SOL     OW10252   6.766   4.552   6.836
 3118SOL    HW110253   6.698   4.550   6.763
 3118SOL    HW210254   6.804   4.645   6.843
 3119SOL     OW10255   2.000   3.857   5.303
 3119SOL    HW110256   2.064   3.898   5.238
 3119SOL    HW210257   2.042   3.777   5.346
 3120SOL     OW10258   2.441   6.134   4.689
 3120SOL    HW110259   2.362   6.193   4.707
 3120SOL    HW210260   2.412   6.038   4.690
 3121SOL     OW10261   0.739   1.230   2.458
 3121SOL    HW110262   0.755   1.195   2.550
 3121SOL    HW210263   0.771   1.325   2.452
 3122SOL     OW10264   3.577   5.921   5.997
 3122SOL    HW110265   3.499   5.981   5.977
 3122SOL    HW210266   3.545   5.828   6.011
 3123SOL     OW10267   3.451   6.359   3.971
 3123SOL    HW110268   3.441   6.259   3.965
 3123SOL    HW210269   3.483   6.394   3.884
 3124SOL     OW10270   3.629   0.661   5.362
 3124SOL    HW110271   3.692   0.646   5.438
 3124SOL    HW210272   3.676   0.641   5.276
 3125SOL     OW10273   6.114   2.154   6.245
 3125SOL    HW110274   6.195   2.185   6.195
 3125SOL    HW210275   6.081   2.227   6.305
 3126SOL     OW10276   4.985   4.760   6.744
 3126SOL    HW110277   5.026   4.835   6.797
 3126SOL    HW210278   4.921   4.797   6.678
 3127SOL     OW10279   0.493   2.510   2.723
 3127SOL    HW110280   0.473   2.471   2.633
 3127SOL    HW210281   0.411   2.552   2.761
 3128SOL     OW10282   1.548   0.501   0.298
 3128SOL    HW110283   1.586   0.587   0.332
 3128SOL    HW210284   1.585   0.481   0.208
 3129SOL     OW10285   0.638   4.486   6.482
 3129SOL    HW110286   0.640   4.484   6.382
 3129SOL    HW210287   0.553   4.529   6.513
 3130SOL     OW10288   2.434   4.421   2.396
 3130SOL    HW110289   2.519   4.473   2.389
 3130SOL    HW210290   2.410   4.408   2.493
 3131SOL     OW10291   1.060   2.859   2.436
 3131SOL    HW110292   1.022   2.817   2.354
 3131SOL    HW210293   1.065   2.790   2.509
 3132SOL     OW10294   5.499   6.266   5.164
 3132SOL    HW110295   5.522   6.181   5.118
 3132SOL    HW210296   5.412   6.256   5.212
 3133SOL     OW10297   2.685   2.030   4.109
 3133SOL    HW110298   2.651   2.066   4.022
 3133SOL    HW210299   2.652   2.089   4.183
 3134SOL     OW10300   5.544   3.812   1.570
 3134SOL    HW110301   5.444   3.804   1.568
 3134SOL    HW210302   5.571   3.884   1.634
 3135SOL     OW10303   4.341   2.029   4.714
 3135SOL    HW110304   4.287   1.945   4.708
 3135SOL    HW210305   4.438   2.006   4.716
 3136SOL     OW10306   6.045   6.586   5.381
 3136SOL    HW110307   6.079   6.510   5.325
 3136SOL    HW210308   5.978   6.639   5.329
 3137SOL     OW10309   5.359   0.875   3.791
 3137SOL    HW110310   5.355   0.963   3.837
 3137SOL    HW210311   5.308   0.879   3.704
 3138SOL     OW10312   6.199   1.720   4.447
 3138SOL    HW110313   6.122   1.773   4.412
 3138SOL    HW210314   6.285   1.764   4.420
 3139SOL     OW10315   4.971   0.036   6.530
 3139SOL    HW110316   4.932   0.117   6.485
 3139SOL    HW210317   5.020   7.004   6.463
 3140SOL     OW10318   6.510   5.666   6.126
 3140SOL    HW110319   6.522   5.639   6.222
 3140SOL    HW210320   6.413   5.676   6.106
 3141SOL     OW10321   0.749   6.375   6.478
 3141SOL    HW110322   0.789   6.399   6.566
 3141SOL    HW210323   0.795   6.426   6.405
 3142SOL     OW10324   4.885   6.390   0.127
 3142SOL    HW110325   4.872   6.301   0.170
 3142SOL    HW210326   4.796   6.433   0.112
 3143SOL     OW10327   6.882   2.529   6.553
 3143SOL    HW110328   6.939   2.521   6.635
 3143SOL    HW210329   6.930   2.489   6.476
 3144SOL     OW10330   2.565   3.524   0.939
 3144SOL    HW110331   2.583   3.512   1.037
 3144SOL    HW210332   2.579   3.437   0.892
 3145SOL     OW10333   2.595   5.513   2.855
 3145SOL    HW110334   2.626   5.505   2.760
 3145SOL    HW210335   2.496   5.529   2.856
 3146SOL     OW10336   1.118   6.188   3.401
 3146SOL    HW110337   1.203   6.157   3.359
 3146SOL    HW210338   1.086   6.119   3.466
 3147SOL     OW10339   4.257   5.426   6.986
 3147SOL    HW110340   4.332   5.451   0.024
 3147SOL    HW210341   4.292   5.373   6.909
 3148SOL     OW10342   4.086   5.513   4.431
 3148SOL    HW110343   4.039   5.426   4.412
 3148SOL    HW210344   4.185   5.500   4.421
 3149SOL     OW10345   3.006   0.125   5.576
 3149SOL    HW110346   2.999   0.062   5.653
 3149SOL    HW210347   2.940   0.200   5.589
 3150SOL     OW10348   5.378   6.077   4.348
 3150SOL    HW110349   5.402   5.997   4.403
 3150SOL    HW210350   5.391   6.160   4.401
 3151SOL     OW10351   4.863   1.512   6.337
 3151SOL    HW110352   4.840   1.416   6.329
 3151SOL    HW210353   4.813   1.565   6.268
 3152SOL     OW10354   1.148   5.164   1.752
 3152SOL    HW110355   1.050   5.157   1.768
 3152SOL    HW210356   1.196   5.165   1.839
 3153SOL     OW10357   6.408   4.152   1.842
 3153SOL    HW110358   6.317   4.112   1.855
 3153SOL    HW210359   6.476   4.079   1.836
 3154SOL     OW10360   6.436   2.243   0.181
 3154SOL    HW110361   6.436   2.199   0.091
 3154SOL    HW210362   6.362   2.204   0.237
 3155SOL     OW10363   0.604   5.073   1.743
 3155SOL    HW110364   0.587   5.121   1.829
 3155SOL    HW210365   0.603   4.975   1.759
 3156SOL     OW10366   4.109   3.365   3.912
 3156SOL    HW110367   4.083   3.362   3.816
 3156SOL    HW210368   4.138   3.274   3.942
 3157SOL     OW10369   1.369   2.868   4.557
 3157SOL    HW110370   1.368   2.914   4.468
 3157SOL    HW210371   1.285   2.814   4.567
 3158SOL     OW10372   4.812   0.079   1.398
 3158SOL    HW110373   4.796   0.107   1.304
 3158SOL    HW210374   4.909   0.065   1.413
 3159SOL     OW10375   5.099   6.329   6.960
 3159SOL    HW110376   5.035   6.364   0.004
 3159SOL    HW210377   5.155   6.403   6.924
 3160SOL     OW10378   6.359   4.567   6.306
 3160SOL    HW110379   6.324   4.503   6.375
 3160SOL    HW210380   6.297   4.567   6.226
 3161SOL     OW10381   1.499   1.514   2.960
 3161SOL    HW110382   1.583   1.460   2.964
 3161SOL    HW210383   1.517   1.598   2.909
 3162SOL     OW10384   6.942   5.425   0.290
 3162SOL    HW110385   0.005   5.389   0.253
 3162SOL    HW210386   6.954   5.520   0.316
 3163SOL     OW10387   3.705   2.778   6.114
 3163SOL    HW110388   3.781   2.838   6.093
 3163SOL    HW210389   3.627   2.832   6.145
 3164SOL     OW10390   5.118   4.213   1.741
 3164SOL    HW110391   5.061   4.265   1.677
 3164SOL    HW210392   5.199   4.180   1.693
 3165SOL     OW10393   1.224   6.445   2.214
 3165SOL    HW110394   1.196   6.511   2.144
 3165SOL    HW210395   1.202   6.352   2.183
 3166SOL     OW10396   5.103   3.156   5.978
 3166SOL    HW110397   5.022   3.106   6.010
 3166SOL    HW210398   5.123   3.231   6.041
 3167SOL     OW10399   6.465   4.744   1.668
 3167SOL    HW110400   6.495   4.836   1.692
 3167SOL    HW210401   6.400   4.711   1.736
 3168SOL     OW10402   5.280   3.001   0.848
 3168SOL    HW110403   5.370   2.965   0.874
 3168SOL    HW210404   5.214   2.983   0.921
 3169SOL     OW10405   0.867   3.547   5.918
 3169SOL    HW110406   0.871   3.447   5.925
 3169SOL    HW210407   0.958   3.585   5.936
 3170SOL     OW10408   3.706   0.554   0.006
 3170SOL    HW110409   3.763   0.487   6.983
 3170SOL    HW210410   3.681   0.520   0.097
 3171SOL     OW10411   6.329   6.816   1.621
 3171SOL    HW110412   6.402   6.883   1.634
 3171SOL    HW210413   6.315   6.801   1.523
 3172SOL     OW10414   6.768   6.267   4.987
 3172SOL    HW110415   6.707   6.251   4.909
 3172SOL    HW210416   6.726   6.231   5.070
 3173SOL     OW10417   2.199   0.531   2.473
 3173SOL    HW110418   2.151   0.520   2.560
 3173SOL    HW210419   2.141   0.498   2.399
 3174SOL     OW10420   2.495   3.270   6.347
 3174SOL    HW110421   2.472   3.182   6.306
 3174SOL    HW210422   2.542   3.327   6.280
 3175SOL     OW10423   1.023   6.332   6.674
 3175SOL    HW110424   0.970   6.301   6.754
 3175SOL    HW210425   1.055   6.425   6.691
 3176SOL     OW10426   1.814   4.478   6.109
 3176SOL    HW110427   1.734   4.522   6.067
 3176SOL    HW210428   1.854   4.413   6.045
 3177SOL     OW10429   5.811   5.057   6.028
 3177SOL    HW110430   5.769   4.998   6.097
 3177SOL    HW210431   5.848   5.000   5.954
 3178SOL     OW10432   0.360   4.124   1.981
 3178SOL    HW110433   0.282   4.092   2.035
 3178SOL    HW210434   0.347   4.096   1.886
 3179SOL     OW10435   1.878   2.249   1.991
 3179SOL    HW110436   1.860   2.170   1.933
 3179SOL    HW210437   1.847   2.230   2.084
 3180SOL     OW10438   4.352   0.857   5.604
 3180SOL    HW110439   4.342   0.833   5.701
 3180SOL    HW210440   4.411   0.789   5.559
 3181SOL     OW10441   0.703   0.795   3.636
 3181SOL    HW110442   0.659   0.740   3.707
 3181SOL    HW210443   0.778   0.847   3.676
 3182SOL     OW10444   0.580   0.335   5.653
 3182SOL    HW110445   0.544   0.242   5.647
 3182SOL    HW210446   0.660   0.336   5.712
 3183SOL     OW10447   3.930   4.588   1.559
 3183SOL    HW110448   3.967   4.528   1.630
 3183SOL    HW210449   3.842   4.552   1.528
 3184SOL     OW10450   2.486   1.787   2.345
 3184SOL    HW110451   2.414   1.831   2.398
 3184SOL    HW210452   2.545   1.857   2.305
 3185SOL     OW10453   0.228   0.204   5.275
 3185SOL    HW110454   0.293   0.247   5.336
 3185SOL    HW210455   0.188   0.273   5.214
 3186SOL     OW10456   3.394   1.312   3.065
 3186SOL    HW110457   3.345   1.393   3.097
 3186SOL    HW210458   3.420   1.324   2.969
 3187SOL     OW10459   3.811   4.098   0.280
 3187SOL    HW110460   3.823   4.148   0.194
 3187SOL    HW210461   3.793   4.002   0.260
 3188SOL     OW10462   3.510   6.032   2.898
 3188SOL    HW110463   3.431   5.976   2.873
 3188SOL    HW210464   3.552   6.069   2.816
 3189SOL     OW10465   1.562   0.910   3.017
 3189SOL    HW110466   1.620   0.948   2.945
 3189SOL    HW210467   1.505   0.837   2.979
 3190SOL     OW10468   1.507   6.486   1.604
 3190SOL    HW110469   1.447   6.414   1.568
 3190SOL    HW210470   1.456   6.572   1.610
 3191SOL     OW10471   3.817   0.812   1.494
 3191SOL    HW110472   3.738   0.767   1.453
 3191SOL    HW210473   3.842   0.892   1.439
 3192SOL     OW10474   0.688   1.954   0.618
 3192SOL    HW110475   0.718   1.940   0.712
 3192SOL    HW210476   0.655   1.867   0.581
 3193SOL     OW10477   4.426   2.313   6.174
 3193SOL    HW110478   4.480   2.247   6.123
 3193SOL    HW210479   4.336   2.274   6.194
 3194SOL     OW10480   1.482   3.353   6.503
 3194SOL    HW110481   1.567   3.352   6.555
 3194SOL    HW210482   1.500   3.383   6.409
 3195SOL     OW10483   1.833   2.546   3.232
 3195SOL    HW110484   1.905   2.615   3.217
 3195SOL    HW210485   1.760   2.585   3.287
 3196SOL     OW10486   0.089   0.074   4.539
 3196SOL    HW110487   0.094   0.121   4.627
 3196SOL    HW210488   0.003   0.097   4.494
 3197SOL     OW10489   1.212   5.740   3.201
 3197SOL    HW110490   1.304   5.713   3.174
 3197SOL    HW210491   1.210   5.760   3.298
 3198SOL     OW10492   6.872   2.004   6.061
 3198SOL    HW110493   6.914   2.001   6.152
 3198SOL    HW210494   6.805   2.078   6.058
 3199SOL     OW10495   4.580   1.838   1.866
 3199SOL    HW110496   4.642   1.917   1.861
 3199SOL    HW210497   4.515   1.842   1.790
 3200SOL     OW10498   0.031   2.743   0.771
 3200SOL    HW110499   7.005   2.697   0.846
 3200SOL    HW210500   0.026   2.842   0.785
 3201SOL     OW10501   5.202   3.629   3.984
 3201SOL    HW110502   5.261   3.642   3.905
 3201SOL    HW210503   5.252   3.651   4.068
 3202SOL     OW10504   1.896   4.374   2.843
 3202SOL    HW110505   1.837   4.454   2.828
 3202SOL    HW210506   1.854   4.313   2.909
 3203SOL     OW10507   6.563   0.730   1.518
 3203SOL    HW110508   6.492   0.701   1.454
 3203SOL    HW210509   6.631   0.786   1.470
 3204SOL     OW10510   5.916   5.616   1.788
 3204SOL    HW110511   5.846   5.653   1.727
 3204SOL    HW210512   5.984   5.687   1.807
 3205SOL     OW10513   6.512   3.972   6.137
 3205SOL    HW110514   6.585   4.035   6.110
 3205SOL    HW210515   6.550   3.881   6.151
 3206SOL     OW10516   0.183   6.724   5.723
 3206SOL    HW110517   0.192   6.632   5.761
 3206SOL    HW210518   0.088   6.754   5.732
 3207SOL     OW10519   0.941   1.348   5.423
 3207SOL    HW110520   0.842   1.358   5.433
 3207SOL    HW210521   0.964   1.338   5.326
 3208SOL     OW10522   4.451   5.817   4.993
 3208SOL    HW110523   4.379   5.771   4.941
 3208SOL    HW210524   4.422   5.828   5.088
 3209SOL     OW10525   2.884   6.709   4.082
 3209SOL    HW110526   2.808   6.646   4.061
 3209SOL    HW210527   2.956   6.697   4.014
 3210SOL     OW10528   6.911   3.656   2.480
 3210SOL    HW110529   6.823   3.620   2.509
 3210SOL    HW210530   6.981   3.630   2.547
 3211SOL     OW10531   2.168   4.364   1.082
 3211SOL    HW110532   2.237   4.394   1.148
 3211SOL    HW210533   2.076   4.378   1.120
 3212SOL     OW10534   4.295   2.615   6.549
 3212SOL    HW110535   4.241   2.658   6.476
 3212SOL    HW210536   4.276   2.660   6.636
 3213SOL     OW10537   5.476   5.825   3.211
 3213SOL    HW110538   5.422   5.776   3.144
 3213SOL    HW210539   5.570   5.837   3.177
 3214SOL     OW10540   4.400   6.228   6.922
 3214SOL    HW110541   4.344   6.190   6.848
 3214SOL    HW210542   4.462   6.297   6.884
 3215SOL     OW10543   6.834   2.481   0.129
 3215SOL    HW110544   6.880   2.435   0.053
 3215SOL    HW210545   6.739   2.499   0.104
 3216SOL     OW10546   5.474   6.237   3.370
 3216SOL    HW110547   5.421   6.284   3.440
 3216SOL    HW210548   5.413   6.181   3.313
 3217SOL     OW10549   0.828   4.726   2.967
 3217SOL    HW110550   0.770   4.713   3.047
 3217SOL    HW210551   0.803   4.812   2.922
 3218SOL     OW10552   3.845   6.659   2.971
 3218SOL    HW110553   3.859   6.755   2.996
 3218SOL    HW210554   3.760   6.650   2.919
 3219SOL     OW10555   0.210   0.270   2.794
 3219SOL    HW110556   0.155   0.228   2.721
 3219SOL    HW210557   0.216   0.369   2.778
 3220SOL     OW10558   0.214   4.726   4.646
 3220SOL    HW110559   0.160   4.669   4.583
 3220SOL    HW210560   0.311   4.708   4.631
 3221SOL     OW10561   2.414   6.447   3.441
 3221SOL    HW110562   2.395   6.535   3.484
 3221SOL    HW210563   2.480   6.459   3.367
 3222SOL     OW10564   5.159   1.910   3.076
 3222SOL    HW110565   5.169   1.857   2.991
 3222SOL    HW210566   5.062   1.920   3.097
 3223SOL     OW10567   2.485   5.296   6.322
 3223SOL    HW110568   2.407   5.343   6.362
 3223SOL    HW210569   2.501   5.209   6.370
 3224SOL     OW10570   4.663   5.686   6.847
 3224SOL    HW110571   4.565   5.686   6.832
 3224SOL    HW210572   4.709   5.729   6.770
 3225SOL     OW10573   3.968   3.187   0.160
 3225SOL    HW110574   3.932   3.100   0.126
 3225SOL    HW210575   3.985   3.249   0.084
 3226SOL     OW10576   2.366   1.052   4.214
 3226SOL    HW110577   2.357   0.975   4.277
 3226SOL    HW210578   2.276   1.075   4.176
 3227SOL     OW10579   3.685   1.733   5.703
 3227SOL    HW110580   3.697   1.737   5.803
 3227SOL    HW210581   3.597   1.690   5.682
 3228SOL     OW10582   6.108   3.272   3.976
 3228SOL    HW110583   6.055   3.212   4.037
 3228SOL    HW210584   6.154   3.216   3.907
 3229SOL     OW10585   3.548   2.067   6.027
 3229SOL    HW110586   3.488   1.988   6.042
 3229SOL    HW210587   3.501   2.135   5.971
 3230SOL     OW10588   0.297   0.980   2.931
 3230SOL    HW110589   0.299   0.988   2.831
 3230SOL    HW210590   0.228   1.042   2.968
 3231SOL     OW10591   4.573   5.492   1.322
 3231SOL    HW110592   4.620   5.580   1.325
 3231SOL    HW210593   4.513   5.489   1.242
 3232SOL     OW10594   3.562   5.265   4.757
 3232SOL    HW110595   3.474   5.303   4.730
 3232SOL    HW210596   3.553   5.221   4.846
 3233SOL     OW10597   0.887   4.276   1.294
 3233SOL    HW110598   0.808   4.263   1.354
 3233SOL    HW210599   0.883   4.210   1.219
 3234SOL     OW10600   0.194   2.215   0.086
 3234SOL    HW110601   0.132   2.292   0.101
 3234SOL    HW210602   0.165   2.164   0.005
 3235SOL     OW10603   5.718   6.558   2.854
 3235SOL    HW110604   5.667   6.637   2.820
 3235SOL    HW210605   5.677   6.528   2.941
 3236SOL     OW10606   0.999   2.606   2.251
 3236SOL    HW110607   0.913   2.617   2.301
 3236SOL    HW210608   1.068   2.567   2.311
 3237SOL     OW10609   4.291   6.616   4.644
 3237SOL    HW110610   4.220   6.562   4.688
 3237SOL    HW210611   4.304   6.586   4.550
 3238SOL     OW10612   0.552   5.361   6.412
 3238SOL    HW110613   0.535   5.283   6.472
 3238SOL    HW210614   0.541   5.446   6.463
 3239SOL     OW10615   6.204   0.734   5.865
 3239SOL    HW110616   6.228   0.646   5.824
 3239SOL    HW210617   6.200   0.724   5.964
 3240SOL     OW10618   0.477   0.214   4.540
 3240SOL    HW110619   0.485   0.311   4.517
 3240SOL    HW210620   0.560   0.184   4.586
 3241SOL     OW10621   4.933   1.186   3.637
 3241SOL    HW110622   4.911   1.262   3.698
 3241SOL    HW210623   4.853   1.163   3.581
 3242SOL     OW10624   3.783   5.974   6.234
 3242SOL    HW110625   3.868   6.026   6.228
 3242SOL    HW210626   3.780   5.907   6.160
 3243SOL     OW10627   4.534   5.297   0.120
 3243SOL    HW110628   4.609   5.354   0.087
 3243SOL    HW210629   4.562   5.201   0.118
 3244SOL     OW10630   4.269   6.037   5.812
 3244SOL    HW110631   4.347   6.007   5.757
 3244SOL    HW210632   4.282   6.132   5.840
 3245SOL     OW10633   4.055   3.361   6.206
 3245SOL    HW110634   4.070   3.312   6.120
 3245SOL    HW210635   4.062   3.296   6.283
 3246SOL     OW10636   5.966   6.904   2.537
 3246SOL    HW110637   5.955   6.849   2.620
 3246SOL    HW210638   5.876   6.927   2.501
 3247SOL     OW10639   0.037   3.472   3.968
 3247SOL    HW110640   0.084   3.534   3.904
 3247SOL    HW210641   0.061   3.378   3.946
 3248SOL     OW10642   6.292   3.379   2.095
 3248SOL    HW110643   6.290   3.283   2.066
 3248SOL    HW210644   6.210   3.399   2.148
 3249SOL     OW10645   3.189   4.872   4.901
 3249SOL    HW110646   3.180   4.776   4.873
 3249SOL    HW210647   3.106   4.922   4.878
 3250SOL     OW10648   4.813   6.720   2.566
 3250SOL    HW110649   4.795   6.651   2.636
 3250SOL    HW210650   4.778   6.689   2.478
 3251SOL     OW10651   3.972   1.849   2.890
 3251SOL    HW110652   3.962   1.866   2.988
 3251SOL    HW210653   3.899   1.788   2.859
 3252SOL     OW10654   3.079   1.015   2.972
 3252SOL    HW110655   3.075   1.067   3.057
 3252SOL    HW210656   3.168   0.969   2.965
 3253SOL     OW10657   4.895   2.931   1.305
 3253SOL    HW110658   4.967   2.964   1.366
 3253SOL    HW210659   4.819   2.995   1.305
 3254SOL     OW10660   3.933   4.782   3.415
 3254SOL    HW110661   3.975   4.873   3.421
 3254SOL    HW210662   3.933   4.739   3.505
 3255SOL     OW10663   4.601   5.623   0.204
 3255SOL    HW110664   4.692   5.586   0.223
 3255SOL    HW210665   4.610   5.710   0.155
 3256SOL     OW10666   5.217   6.755   6.038
 3256SOL    HW110667   5.311   6.743   6.071
 3256SOL    HW210668   5.186   6.848   6.058
 3257SOL     OW10669   1.609   1.781   1.238
 3257SOL    HW110670   1.512   1.796   1.215
 3257SOL    HW210671   1.660   1.757   1.156
 3258SOL     OW10672   4.896   6.741   1.677
 3258SOL    HW110673   4.931   6.651   1.649
 3258SOL    HW210674   4.968   6.809   1.670
 3259SOL     OW10675   4.353   5.969   4.309
 3259SOL    HW110676   4.369   5.948   4.212
 3259SOL    HW210677   4.261   5.939   4.335
 3260SOL     OW10678   1.484   1.609   6.808
 3260SOL    HW110679   1.502   1.510   6.808
 3260SOL    HW210680   1.392   1.626   6.773
 3261SOL     OW10681   4.166   6.907   0.900
 3261SOL    HW110682   4.236   6.851   0.855
 3261SOL    HW210683   4.076   6.868   0.882
 3262SOL     OW10684   3.673   1.726   3.468
 3262SOL    HW110685   3.578   1.755   3.471
 3262SOL    HW210686   3.694   1.669   3.547
 3263SOL     OW10687   4.235   6.885   2.323
 3263SOL    HW110688   4.276   6.870   2.233
 3263SOL    HW210689   4.161   6.952   2.316
 3264SOL     OW10690   0.139   5.271   0.162
 3264SOL    HW110691   0.162   5.206   0.090
 3264SOL    HW210692   0.197   5.352   0.153
 3265SOL     OW10693   4.406   2.115   6.500
 3265SOL    HW110694   4.481   2.170   6.462
 3265SOL    HW210695   4.423   2.018   6.479
 3266SOL     OW10696   0.300   2.681   6.364
 3266SOL    HW110697   0.319   2.769   6.320
 3266SOL    HW210698   0.386   2.634   6.384
 3267SOL     OW10699   3.479   2.032   1.138
 3267SOL    HW110700   3.487   1.966   1.214
 3267SOL    HW210701   3.499   2.124   1.172
 3268SOL     OW10702   0.819   4.104   0.294
 3268SOL    HW110703   0.745   4.052   0.336
 3268SOL    HW210704   0.827   4.079   0.198
 3269SOL     OW10705   4.477   4.505   1.134
 3269SOL    HW110706   4.508   4.522   1.228
 3269SOL    HW210707   4.521   4.423   1.099
 3270SOL     OW10708   0.687   5.401   3.966
 3270SOL    HW110709   0.730   5.433   4.050
 3270SOL    HW210710   0.723   5.311   3.942
 3271SOL     OW10711   6.107   2.884   1.583
 3271SOL    HW110712   6.123   2.785   1.582
 3271SOL    HW210713   6.178   2.929   1.529
 3272SOL     OW10714   3.694   0.731   0.621
 3272SOL    HW110715   3.653   0.640   0.620
 3272SOL    HW210716   3.662   0.782   0.541
 3273SOL     OW10717   0.787   6.195   2.434
 3273SOL    HW110718   0.715   6.127   2.424
 3273SOL    HW210719   0.835   6.181   2.521
 3274SOL     OW10720   2.743   1.930   5.664
 3274SOL    HW110721   2.697   1.988   5.597
 3274SOL    HW210722   2.818   1.981   5.706
 3275SOL     OW10723   2.032   0.612   6.776
 3275SOL    HW110724   2.038   0.701   6.730
 3275SOL    HW210725   2.089   0.545   6.728
 3276SOL     OW10726   3.121   5.517   6.401
 3276SOL    HW110727   3.044   5.576   6.426
 3276SOL    HW210728   3.205   5.572   6.395
 3277SOL     OW10729   6.923   6.411   5.831
 3277SOL    HW110730   7.003   6.396   5.774
 3277SOL    HW210731   6.951   6.422   5.926
 3278SOL     OW10732   1.296   1.098   5.261
 3278SOL    HW110733   1.372   1.115   5.323
 3278SOL    HW210734   1.222   1.052   5.310
 3279SOL     OW10735   0.184   6.895   1.101
 3279SOL    HW110736   0.102   6.847   1.131
 3279SOL    HW210737   0.167   6.941   1.014
 3280SOL     OW10738   2.394   5.138   6.116
 3280SOL    HW110739   2.420   5.042   6.123
 3280SOL    HW210740   2.438   5.190   6.189
 3281SOL     OW10741   2.420   5.565   0.117
 3281SOL    HW110742   2.494   5.548   0.181
 3281SOL    HW210743   2.455   5.560   0.023
 3282SOL     OW10744   2.960   5.486   4.428
 3282SOL    HW110745   3.002   5.406   4.385
 3282SOL    HW210746   2.947   5.557   4.359
 3283SOL     OW10747   2.965   0.894   3.511
 3283SOL    HW110748   2.949   0.828   3.584
 3283SOL    HW210749   3.058   0.882   3.476
 3284SOL     OW10750   6.972   5.694   0.001
 3284SOL    HW110751   6.892   5.750   0.020
 3284SOL    HW210752   0.021   5.715   0.067
 3285SOL     OW10753   0.256   2.052   3.102
 3285SOL    HW110754   0.352   2.033   3.124
 3285SOL    HW210755   0.243   2.150   3.089
 3286SOL     OW10756   3.291   3.644   4.755
 3286SOL    HW110757   3.330   3.731   4.785
 3286SOL    HW210758   3.341   3.611   4.674
 3287SOL     OW10759   2.058   5.352   0.309
 3287SOL    HW110760   2.110   5.272   0.339
 3287SOL    HW210761   1.961   5.338   0.326
 3288SOL     OW10762   0.688   5.676   6.079
 3288SOL    HW110763   0.751   5.621   6.135
 3288SOL    HW210764   0.703   5.773   6.098
 3289SOL     OW10765   0.166   6.291   5.207
 3289SOL    HW110766   0.153   6.390   5.205
 3289SOL    HW210767   0.262   6.270   5.223
 3290SOL     OW10768   0.038   5.623   1.977
 3290SOL    HW110769   0.046   5.545   1.916
 3290SOL    HW210770   0.121   5.631   2.032
 3291SOL     OW10771   1.589   6.235   6.888
 3291SOL    HW110772   1.566   6.141   6.913
 3291SOL    HW210773   1.510   6.277   6.843
 3292SOL     OW10774   6.716   6.571   6.348
 3292SOL    HW110775   6.801   6.621   6.331
 3292SOL    HW210776   6.700   6.506   6.274
 3293SOL     OW10777   6.933   1.012   3.084
 3293SOL    HW110778   6.874   0.997   3.004
 3293SOL    HW210779   7.009   1.072   3.058
 3294SOL     OW10780   6.616   0.530   6.042
 3294SOL    HW110781   6.591   0.522   5.945
 3294SOL    HW210782   6.533   0.548   6.095
 3295SOL     OW10783   2.405   2.744   0.933
 3295SOL    HW110784   2.418   2.653   0.894
 3295SOL    HW210785   2.368   2.735   1.026
 3296SOL     OW10786   2.064   6.701   2.417
 3296SOL    HW110787   2.134   6.735   2.480
 3296SOL    HW210788   1.974   6.720   2.455
 3297SOL     OW10789   3.097   2.435   5.708
 3297SOL    HW110790   3.023   2.370   5.688
 3297SOL    HW210791   3.185   2.391   5.690
 3298SOL     OW10792   6.650   3.472   2.856
 3298SOL    HW110793   6.554   3.496   2.871
 3298SOL    HW210794   6.708   3.529   2.916
 3299SOL     OW10795   1.281   0.095   4.759
 3299SOL    HW110796   1.252   0.167   4.697
 3299SOL    HW210797   1.355   0.128   4.817
 3300SOL     OW10798   6.329   6.774   4.827
 3300SOL    HW110799   6.391   6.697   4.844
 3300SOL    HW210800   6.252   6.744   4.772
 3301SOL     OW10801   0.179   3.563   3.237
 3301SOL    HW110802   0.245   3.544   3.309
 3301SOL    HW210803   0.227   3.586   3.152
 3302SOL     OW10804   1.489   4.778   3.873
 3302SOL    HW110805   1.408   4.802   3.818
 3302SOL    HW210806   1.469   4.697   3.927
 3303SOL     OW10807   3.972   3.073   3.973
 3303SOL    HW110808   3.916   2.994   3.998
 3303SOL    HW210809   3.979   3.079   3.874
 3304SOL     OW10810   0.509   6.244   3.979
 3304SOL    HW110811   0.542   6.153   3.955
 3304SOL    HW210812   0.532   6.264   4.074
 3305SOL     OW10813   1.709   0.679   1.588
 3305SOL    HW110814   1.752   0.626   1.661
 3305SOL    HW210815   1.658   0.756   1.627
 3306SOL     OW10816   2.136   3.818   3.287
 3306SOL    HW110817   2.148   3.907   3.243
 3306SOL    HW210818   2.130   3.831   3.386
 3307SOL     OW10819   6.678   5.867   0.665
 3307SOL    HW110820   6.714   5.957   0.639
 3307SOL    HW210821   6.587   5.855   0.625
 3308SOL     OW10822   4.400   5.881   0.440
 3308SOL    HW110823   4.312   5.834   0.447
 3308SOL    HW210824   4.473   5.813   0.431
 3309SOL     OW10825   1.107   4.858   3.470
 3309SOL    HW110826   1.158   4.939   3.440
 3309SOL    HW210827   1.019   4.886   3.509
 3310SOL     OW10828   0.695   4.955   2.878
 3310SOL    HW110829   0.598   4.933   2.887
 3310SOL    HW210830   0.710   5.051   2.904
 3311SOL     OW10831   4.079   6.938   1.161
 3311SOL    HW110832   4.147   6.910   1.228
 3311SOL    HW210833   4.111   6.916   1.069
 3312SOL     OW10834   3.253   3.994   6.044
 3312SOL    HW110835   3.214   3.929   5.978
 3312SOL    HW210836   3.281   4.077   5.996
 3313SOL     OW10837   0.748   5.151   3.514
 3313SOL    HW110838   0.808   5.178   3.590
 3313SOL    HW210839   0.657   5.188   3.528
 3314SOL     OW10840   1.961   3.209   4.993
 3314SOL    HW110841   1.861   3.206   4.995
 3314SOL    HW210842   1.997   3.120   4.965
 3315SOL     OW10843   6.890   2.419   3.834
 3315SOL    HW110844   6.977   2.375   3.811
 3315SOL    HW210845   6.824   2.349   3.864
 3316SOL     OW10846   4.661   2.130   6.071
 3316SOL    HW110847   4.616   2.089   5.991
 3316SOL    HW210848   4.709   2.213   6.043
 3317SOL     OW10849   4.566   2.764   1.716
 3317SOL    HW110850   4.530   2.855   1.737
 3317SOL    HW210851   4.622   2.768   1.633
 3318SOL     OW10852   2.729   5.913   5.196
 3318SOL    HW110853   2.697   6.008   5.205
 3318SOL    HW210854   2.744   5.874   5.287
 3319SOL     OW10855   0.491   6.277   4.519
 3319SOL    HW110856   0.552   6.312   4.448
 3319SOL    HW210857   0.408   6.333   4.521
 3320SOL     OW10858   6.070   0.820   5.375
 3320SOL    HW110859   6.035   0.905   5.413
 3320SOL    HW210860   6.170   0.821   5.374
 3321SOL     OW10861   3.592   2.930   3.111
 3321SOL    HW110862   3.540   3.015   3.117
 3321SOL    HW210863   3.528   2.853   3.114
 3322SOL     OW10864   3.737   2.327   0.986
 3322SOL    HW110865   3.663   2.369   0.935
 3322SOL    HW210866   3.721   2.229   0.995
 3323SOL     OW10867   2.019   4.602   0.284
 3323SOL    HW110868   1.920   4.606   0.286
 3323SOL    HW210869   2.049   4.510   0.259
 3324SOL     OW10870   1.141   3.233   0.275
 3324SOL    HW110871   1.146   3.309   0.339
 3324SOL    HW210872   1.152   3.267   0.182
 3325SOL     OW10873   1.576   2.846   0.830
 3325SOL    HW110874   1.493   2.890   0.865
 3325SOL    HW210875   1.636   2.914   0.789
 3326SOL     OW10876   6.467   1.676   1.127
 3326SOL    HW110877   6.503   1.583   1.119
 3326SOL    HW210878   6.533   1.733   1.175
 3327SOL     OW10879   2.896   6.682   2.131
 3327SOL    HW110880   2.850   6.676   2.219
 3327SOL    HW210881   2.850   6.621   2.065
 3328SOL     OW10882   4.800   1.193   2.355
 3328SOL    HW110883   4.713   1.217   2.398
 3328SOL    HW210884   4.862   1.272   2.360
 3329SOL     OW10885   4.183   0.773   5.108
 3329SOL    HW110886   4.160   0.715   5.186
 3329SOL    HW210887   4.240   0.722   5.043
 3330SOL     OW10888   5.780   6.840   2.278
 3330SOL    HW110889   5.848   6.772   2.254
 3330SOL    HW210890   5.709   6.798   2.335
 3331SOL     OW10891   2.091   3.354   3.272
 3331SOL    HW110892   2.114   3.257   3.273
 3331SOL    HW210893   2.060   3.380   3.180
 3332SOL     OW10894   4.406   5.263   0.377
 3332SOL    HW110895   4.468   5.192   0.410
 3332SOL    HW210896   4.421   5.278   0.279
 3333SOL     OW10897   3.439   3.774   1.688
 3333SOL    HW110898   3.432   3.835   1.608
 3333SOL    HW210899   3.405   3.683   1.663
 3334SOL     OW10900   1.987   2.079   2.349
 3334SOL    HW110901   2.066   2.048   2.297
 3334SOL    HW210902   1.932   2.140   2.293
 3335SOL     OW10903   3.719   4.413   5.275
 3335SOL    HW110904   3.703   4.467   5.358
 3335SOL    HW210905   3.697   4.317   5.293
 3336SOL     OW10906   3.924   6.970   3.920
 3336SOL    HW110907   4.008   6.917   3.933
 3336SOL    HW210908   3.945   0.045   3.922
 3337SOL     OW10909   3.555   4.046   2.997
 3337SOL    HW110910   3.628   4.025   3.062
 3337SOL    HW210911   3.467   4.034   3.041
 3338SOL     OW10912   2.175   1.311   1.143
 3338SOL    HW110913   2.260   1.262   1.164
 3338SOL    HW210914   2.136   1.349   1.227
 3339SOL     OW10915   2.290   0.441   5.708
 3339SOL    HW110916   2.267   0.398   5.795
 3339SOL    HW210917   2.371   0.499   5.719
 3340SOL     OW10918   4.290   1.295   3.956
 3340SOL    HW110919   4.206   1.311   3.905
 3340SOL    HW210920   4.322   1.202   3.939
 3341SOL     OW10921   2.558   4.980   2.732
 3341SOL    HW110922   2.506   4.955   2.813
 3341SOL    HW210923   2.633   5.041   2.758
 3342SOL     OW10924   6.390   0.348   2.723
 3342SOL    HW110925   6.322   0.306   2.783
 3342SOL    HW210926   6.396   0.295   2.638
 3343SOL     OW10927   5.006   5.540   6.562
 3343SOL    HW110928   5.097   5.508   6.587
 3343SOL    HW210929   5.006   5.640   6.555
 3344SOL     OW10930   0.369   2.984   1.507
 3344SOL    HW110931   0.397   2.889   1.508
 3344SOL    HW210932   0.291   2.996   1.569
 3345SOL     OW10933   0.436   4.470   0.837
 3345SOL    HW110934   0.364   4.506   0.778
 3345SOL    HW210935   0.428   4.510   0.928
 3346SOL     OW10936   2.123   0.928   6.897
 3346SOL    HW110937   2.099   0.917   6.801
 3346SOL    HW210938   2.158   0.841   6.932
 3347SOL     OW10939   0.853   3.155   6.390
 3347SOL    HW110940   0.863   3.176   6.488
 3347SOL    HW210941   0.921   3.086   6.364
 3348SOL     OW10942   3.923   4.042   6.118
 3348SOL    HW110943   4.002   4.098   6.143
 3348SOL    HW210944   3.952   3.966   6.062
 3349SOL     OW10945   2.806   4.742   3.750
 3349SOL    HW110946   2.870   4.749   3.827
 3349SOL    HW210947   2.729   4.684   3.777
 3350SOL     OW10948   0.105   4.185   5.635
 3350SOL    HW110949   0.083   4.088   5.645
 3350SOL    HW210950   0.090   4.232   5.722
 3351SOL     OW10951   4.923   0.857   0.613
 3351SOL    HW110952   4.887   0.794   0.681
 3351SOL    HW210953   4.857   0.868   0.539
 3352SOL     OW10954   5.258   2.850   6.458
 3352SOL    HW110955   5.170   2.824   6.417
 3352SOL    HW210956   5.309   2.907   6.394
 3353SOL     OW10957   2.235   0.868   1.736
 3353SOL    HW110958   2.191   0.874   1.646
 3353SOL    HW210959   2.330   0.840   1.724
 3354SOL     OW10960   3.910   2.874   5.793
 3354SOL    HW110961   3.848   2.948   5.767
 3354SOL    HW210962   3.952   2.894   5.881
 3355SOL     OW10963   1.861   1.000   4.661
 3355SOL    HW110964   1.916   1.023   4.581
 3355SOL    HW210965   1.764   1.006   4.638
 3356SOL     OW10966   1.675   6.811   5.335
 3356SOL    HW110967   1.593   6.822   5.390
 3356SOL    HW210968   1.699   6.714   5.329
 3357SOL     OW10969   3.099   3.223   2.278
 3357SOL    HW110970   3.160   3.297   2.252
 3357SOL    HW210971   3.126   3.139   2.230
 3358SOL     OW10972   6.283   1.041   2.694
 3358SOL    HW110973   6.292   0.946   2.665
 3358SOL    HW210974   6.210   1.049   2.762
 3359SOL     OW10975   6.763   5.728   4.208
 3359SOL    HW110976   6.693   5.687   4.150
 3359SOL    HW210977   6.779   5.670   4.288
 3360SOL     OW10978   0.039   2.888   5.537
 3360SOL    HW110979   6.979   2.935   5.566
 3360SOL    HW210980   0.084   2.848   5.616
 3361SOL     OW10981   0.531   0.994   4.640
 3361SOL    HW110982   0.602   1.063   4.653
 3361SOL    HW210983   0.572   0.903   4.634
 3362SOL     OW10984   3.738   1.872   3.738
 3362SOL    HW110985   3.728   1.890   3.640
 3362SOL    HW210986   3.790   1.947   3.780
 3363SOL     OW10987   5.682   3.504   1.237
 3363SOL    HW110988   5.627   3.445   1.296
 3363SOL    HW210989   5.709   3.586   1.288
 3364SOL     OW10990   2.463   4.465   3.156
 3364SOL    HW110991   2.535   4.419   3.209
 3364SOL    HW210992   2.375   4.455   3.203
 3365SOL     OW10993   1.872   3.164   4.510
 3365SOL    HW110994   1.825   3.243   4.471
 3365SOL    HW210995   1.971   3.179   4.505
 3366SOL     OW10996   6.325   3.703   4.018
 3366SOL    HW110997   6.366   3.635   4.080
 3366SOL    HW210998   6.318   3.791   4.065
 3367SOL     OW10999   3.462   3.415   4.409
 3367SOL    HW111000   3.442   3.324   4.444
 3367SOL    HW211001   3.483   3.476   4.486
 3368SOL     OW11002   1.736   5.767   6.845
 3368SOL    HW111003   1.731   5.763   6.745
 3368SOL    HW211004   1.820   5.813   6.873
 3369SOL     OW11005   4.416   2.278   1.329
 3369SOL    HW111006   4.456   2.296   1.419
 3369SOL    HW211007   4.399   2.180   1.319
 3370SOL     OW11008   0.296   5.695   1.889
 3370SOL    HW111009   0.272   5.601   1.866
 3370SOL    HW211010   0.388   5.698   1.928
 3371SOL     OW11011   2.323   2.818   3.174
 3371SOL    HW111012   2.351   2.832   3.269
 3371SOL    HW211013   2.320   2.905   3.126
 3372SOL     OW11014   6.615   3.278   1.231
 3372SOL    HW111015   6.577   3.191   1.200
 3372SOL    HW211016   6.632   3.273   1.330
 3373SOL     OW11017   0.233   2.390   1.660
 3373SOL    HW111018   0.274   2.366   1.571
 3373SOL    HW211019   0.140   2.353   1.664
 3374SOL     OW11020   0.980   0.202   3.456
 3374SOL    HW111021   1.064   0.174   3.409
 3374SOL    HW211022   0.994   0.196   3.555
 3375SOL     OW11023   6.843   4.980   6.796
 3375SOL    HW111024   6.870   4.930   6.714
 3375SOL    HW211025   6.834   4.916   6.872
 3376SOL     OW11026   2.417   3.660   5.686
 3376SOL    HW111027   2.455   3.571   5.661
 3376SOL    HW211028   2.319   3.649   5.705
 3377SOL     OW11029   5.734   4.442   3.189
 3377SOL    HW111030   5.793   4.452   3.109
 3377SOL    HW211031   5.647   4.487   3.171
 3378SOL     OW11032   1.392   6.325   6.727
 3378SOL    HW111033   1.328   6.397   6.755
 3378SOL    HW211034   1.423   6.342   6.633
 3379SOL     OW11035   0.702   3.939   3.787
 3379SOL    HW111036   0.620   3.939   3.843
 3379SOL    HW211037   0.754   4.023   3.803
 3380SOL     OW11038   3.934   4.333   5.973
 3380SOL    HW111039   3.860   4.392   6.006
 3380SOL    HW211040   3.901   4.279   5.895
 3381SOL     OW11041   1.514   3.034   1.432
 3381SOL    HW111042   1.416   3.050   1.440
 3381SOL    HW211043   1.564   3.113   1.467
 3382SOL     OW11044   6.855   2.628   0.970
 3382SOL    HW111045   6.784   2.665   1.029
 3382SOL    HW211046   6.898   2.549   1.016
 3383SOL     OW11047   4.651   5.011   6.800
 3383SOL    HW111048   4.681   4.923   6.838
 3383SOL    HW211049   4.575   5.046   6.856
 3384SOL     OW11050   3.099   4.265   0.819
 3384SOL    HW111051   3.093   4.338   0.887
 3384SOL    HW211052   3.050   4.184   0.852
 3385SOL     OW11053   0.540   2.369   3.187
 3385SOL    HW111054   0.545   2.277   3.149
 3385SOL    HW211055   0.566   2.435   3.116
 3386SOL     OW11056   6.554   4.857   6.836
 3386SOL    HW111057   6.541   4.787   6.766
 3386SOL    HW211058   6.527   4.820   6.925
 3387SOL     OW11059   6.205   0.711   2.944
 3387SOL    HW111060   6.243   0.719   2.852
 3387SOL    HW211061   6.273   0.673   3.006
 3388SOL     OW11062   5.641   3.256   1.415
 3388SOL    HW111063   5.589   3.177   1.446
 3388SOL    HW211064   5.644   3.324   1.488
 3389SOL     OW11065   6.017   6.260   0.750
 3389SOL    HW111066   5.972   6.228   0.833
 3389SOL    HW211067   5.955   6.320   0.699
 3390SOL     OW11068   3.947   6.505   6.148
 3390SOL    HW111069   4.033   6.515   6.200
 3390SOL    HW211070   3.871   6.496   6.213
 3391SOL     OW11071   5.662   2.908   3.315
 3391SOL    HW111072   5.697   2.952   3.398
 3391SOL    HW211073   5.566   2.885   3.326
 3392SOL     OW11074   4.343   0.019   5.821
 3392SOL    HW111075   4.392   7.015   5.904
 3392SOL    HW211076   4.371   0.111   5.794
 3393SOL     OW11077   5.183   6.955   0.962
 3393SOL    HW111078   5.255   6.909   0.910
 3393SOL    HW211079   5.154   6.897   1.038
 3394SOL     OW11080   3.140   5.612   1.666
 3394SOL    HW111081   3.156   5.696   1.614
 3394SOL    HW211082   3.081   5.551   1.613
 3395SOL     OW11083   3.776   0.554   2.907
 3395SOL    HW111084   3.763   0.629   2.842
 3395SOL    HW211085   3.755   0.467   2.862
 3396SOL     OW11086   4.399   2.075   3.966
 3396SOL    HW111087   4.325   2.013   3.991
 3396SOL    HW211088   4.436   2.118   4.048
 3397SOL     OW11089   2.085   5.599   6.309
 3397SOL    HW111090   2.174   5.644   6.302
 3397SOL    HW211091   2.075   5.534   6.234
 3398SOL     OW11092   6.955   2.109   5.134
 3398SOL    HW111093   6.918   2.023   5.168
 3398SOL    HW211094   6.941   2.115   5.035
 3399SOL     OW11095   0.020   5.025   3.374
 3399SOL    HW111096   0.056   5.019   3.281
 3399SOL    HW211097   7.009   5.117   3.391
 3400SOL     OW11098   5.696   2.316   5.400
 3400SOL    HW111099   5.617   2.309   5.461
 3400SOL    HW211100   5.715   2.227   5.359
 3401SOL     OW11101   6.752   3.598   6.003
 3401SOL    HW111102   6.687   3.541   5.953
 3401SOL    HW211103   6.741   3.693   5.975
 3402SOL     OW11104   6.973   5.011   1.397
 3402SOL    HW111105   6.927   4.974   1.477
 3402SOL    HW211106   7.017   5.098   1.420
 3403SOL     OW11107   4.790   6.343   6.815
 3403SOL    HW111108   4.827   6.390   6.895
 3403SOL    HW211109   4.864   6.323   6.750
 3404SOL     OW11110   5.237   3.180   5.243
 3404SOL    HW111111   5.212   3.194   5.339
 3404SOL    HW211112   5.240   3.268   5.196
 3405SOL     OW11113   5.305   6.401   5.672
 3405SOL    HW111114   5.340   6.476   5.614
 3405SOL    HW211115   5.319   6.424   5.768
 3406SOL     OW11116   2.213   3.917   2.348
 3406SOL    HW111117   2.171   3.880   2.265
 3406SOL    HW211118   2.309   3.939   2.329
 3407SOL     OW11119   1.909   3.564   0.248
 3407SOL    HW111120   1.943   3.657   0.246
 3407SOL    HW211121   1.948   3.516   0.327
 3408SOL     OW11122   4.995   2.112   3.664
 3408SOL    HW111123   4.925   2.049   3.698
 3408SOL    HW211124   5.013   2.093   3.568
 3409SOL     OW11125   4.673   1.141   0.703
 3409SOL    HW111126   4.769   1.117   0.715
 3409SOL    HW211127   4.620   1.058   0.685
 3410SOL     OW11128   5.452   6.883   1.951
 3410SOL    HW111129   5.396   6.825   2.010
 3410SOL    HW211130   5.443   6.978   1.978
 3411SOL     OW11131   6.756   2.156   0.994
 3411SOL    HW111132   6.832   2.094   1.014
 3411SOL    HW211133   6.789   2.234   0.941
 3412SOL     OW11134   5.323   3.317   1.296
 3412SOL    HW111135   5.363   3.316   1.204
 3412SOL    HW211136   5.356   3.398   1.346
 3413SOL     OW11137   7.014   2.112   5.806
 3413SOL    HW111138   6.964   2.055   5.872
 3413SOL    HW211139   0.086   2.120   5.835
 3414SOL     OW11140   4.102   3.151   1.070
 3414SOL    HW111141   4.067   3.127   0.979
 3414SOL    HW211142   4.027   3.151   1.135
 3415SOL     OW11143   2.309   2.744   4.842
 3415SOL    HW111144   2.339   2.793   4.924
 3415SOL    HW211145   2.222   2.781   4.811
 3416SOL     OW11146   6.390   6.683   6.792
 3416SOL    HW111147   6.480   6.722   6.812
 3416SOL    HW211148   6.376   6.602   6.848
 3417SOL     OW11149   6.990   0.040   2.934
 3417SOL    HW111150   0.051   7.008   2.937
 3417SOL    HW211151   6.912   7.004   2.952
 3418SOL     OW11152   4.451   4.784   1.856
 3418SOL    HW111153   4.375   4.847   1.841
 3418SOL    HW211154   4.428   4.695   1.817
 3419SOL     OW11155   3.238   6.055   6.371
 3419SOL    HW111156   3.146   6.016   6.364
 3419SOL    HW211157   3.270   6.080   6.280
 3420SOL     OW11158   4.539   2.507   3.899
 3420SOL    HW111159   4.553   2.569   3.976
 3420SOL    HW211160   4.454   2.457   3.911
 3421SOL     OW11161   5.873   2.584   3.600
 3421SOL    HW111162   5.937   2.604   3.674
 3421SOL    HW211163   5.898   2.496   3.558
 3422SOL     OW11164   2.230   6.727   0.958
 3422SOL    HW111165   2.184   6.642   0.931
 3422SOL    HW211166   2.318   6.733   0.912
 3423SOL     OW11167   0.992   4.495   5.599
 3423SOL    HW111168   0.918   4.561   5.592
 3423SOL    HW211169   0.976   4.434   5.677
 3424SOL     OW11170   4.603   6.924   1.780
 3424SOL    HW111171   4.639   6.905   1.689
 3424SOL    HW211172   4.678   6.918   1.847
 3425SOL     OW11173   5.877   4.433   1.488
 3425SOL    HW111174   5.891   4.490   1.570
 3425SOL    HW211175   5.927   4.347   1.498
 3426SOL     OW11176   5.333   3.653   0.418
 3426SOL    HW111177   5.338   3.705   0.333
 3426SOL    HW211178   5.356   3.557   0.399
 3427SOL     OW11179   1.267   2.522   0.576
 3427SOL    HW111180   1.245   2.583   0.500
 3427SOL    HW211181   1.225   2.432   0.561
 3428SOL     OW11182   5.254   5.930   5.149
 3428SOL    HW111183   5.349   5.943   5.121
 3428SOL    HW211184   5.243   5.961   5.244
 3429SOL     OW11185   6.912   0.451   1.310
 3429SOL    HW111186   6.941   0.490   1.397
 3429SOL    HW211187   6.929   0.517   1.237
 3430SOL     OW11188   2.249   4.556   5.711
 3430SOL    HW111189   2.281   4.506   5.631
 3430SOL    HW211190   2.328   4.593   5.761
 3431SOL     OW11191   2.383   5.976   2.621
 3431SOL    HW111192   2.377   5.966   2.721
 3431SOL    HW211193   2.465   5.931   2.588
 3432SOL     OW11194   2.733   4.235   0.467
 3432SOL    HW111195   2.829   4.216   0.487
 3432SOL    HW211196   2.676   4.159   0.500
 3433SOL     OW11197   2.364   1.286   6.368
 3433SOL    HW111198   2.320   1.200   6.346
 3433SOL    HW211199   2.459   1.269   6.397
 3434SOL     OW11200   3.154   2.003   1.653
 3434SOL    HW111201   3.087   1.937   1.687
 3434SOL    HW211202   3.146   2.088   1.705
 3435SOL     OW11203   1.823   0.666   0.532
 3435SOL    HW111204   1.729   0.671   0.497
 3435SOL    HW211205   1.843   0.573   0.562
 3436SOL     OW11206   3.610   5.747   0.962
 3436SOL    HW111207   3.628   5.692   0.880
 3436SOL    HW211208   3.607   5.844   0.937
 3437SOL     OW11209   1.165   6.646   6.079
 3437SOL    HW111210   1.142   6.574   6.014
 3437SOL    HW211211   1.094   6.652   6.149
 3438SOL     OW11212   1.372   4.147   1.197
 3438SOL    HW111213   1.283   4.167   1.239
 3438SOL    HW211214   1.413   4.067   1.242
 3439SOL     OW11215   1.941   5.653   2.544
 3439SOL    HW111216   2.002   5.637   2.467
 3439SOL    HW211217   1.912   5.749   2.544
 3440SOL     OW11218   3.799   3.478   4.595
 3440SOL    HW111219   3.768   3.386   4.619
 3440SOL    HW211220   3.887   3.472   4.546
 3441SOL     OW11221   5.642   5.795   5.722
 3441SOL    HW111222   5.692   5.747   5.650
 3441SOL    HW211223   5.558   5.745   5.744
 3442SOL     OW11224   3.555   2.947   1.587
 3442SOL    HW111225   3.592   2.913   1.500
 3442SOL    HW211226   3.520   3.040   1.574
 3443SOL     OW11227   2.157   5.872   2.527
 3443SOL    HW111228   2.232   5.937   2.539
 3443SOL    HW211229   2.088   5.913   2.468
 3444SOL     OW11230   5.924   4.109   1.382
 3444SOL    HW111231   5.922   4.092   1.284
 3444SOL    HW211232   5.832   4.098   1.419
 3445SOL     OW11233   6.104   4.396   3.646
 3445SOL    HW111234   6.173   4.334   3.607
 3445SOL    HW211235   6.102   4.480   3.592
 3446SOL     OW11236   5.064   1.013   1.403
 3446SOL    HW111237   5.010   1.031   1.485
 3446SOL    HW211238   5.109   1.097   1.373
 3447SOL     OW11239   4.748   0.980   0.415
 3447SOL    HW111240   4.802   1.062   0.437
 3447SOL    HW211241   4.655   1.007   0.391
 3448SOL     OW11242   1.461   6.247   4.854
 3448SOL    HW111243   1.483   6.204   4.767
 3448SOL    HW211244   1.375   6.297   4.846
 3449SOL     OW11245   6.618   4.355   5.193
 3449SOL    HW111246   6.583   4.278   5.140
 3449SOL    HW211247   6.582   4.350   5.286
 3450SOL     OW11248   1.342   6.562   0.128
 3450SOL    HW111249   1.255   6.582   0.083
 3450SOL    HW211250   1.404   6.639   0.115
 3451SOL     OW11251   2.234   5.986   0.506
 3451SOL    HW111252   2.260   5.983   0.603
 3451SOL    HW211253   2.208   6.079   0.481
 3452SOL     OW11254   4.871   0.379   5.568
 3452SOL    HW111255   4.822   0.318   5.506
 3452SOL    HW211256   4.969   0.358   5.566
 3453SOL     OW11257   5.131   6.660   5.778
 3453SOL    HW111258   5.165   6.692   5.866
 3453SOL    HW211259   5.162   6.721   5.706
 3454SOL     OW11260   1.208   2.167   2.603
 3454SOL    HW111261   1.129   2.140   2.656
 3454SOL    HW211262   1.218   2.108   2.523
 3455SOL     OW11263   1.458   3.607   5.612
 3455SOL    HW111264   1.516   3.686   5.632
 3455SOL    HW211265   1.395   3.630   5.538
 3456SOL     OW11266   5.187   4.330   2.418
 3456SOL    HW111267   5.151   4.395   2.351
 3456SOL    HW211268   5.111   4.286   2.466
 3457SOL     OW11269   3.819   5.698   5.326
 3457SOL    HW111270   3.832   5.785   5.374
 3457SOL    HW211271   3.786   5.629   5.390
 3458SOL     OW11272   4.450   1.793   2.976
 3458SOL    HW111273   4.527   1.761   2.921
 3458SOL    HW211274   4.402   1.714   3.014
 3459SOL     OW11275   3.983   0.436   3.116
 3459SOL    HW111276   3.925   0.428   3.035
 3459SOL    HW211277   3.943   0.383   3.191
 3460SOL     OW11278   3.967   2.029   5.511
 3460SOL    HW111279   3.902   1.958   5.485
 3460SOL    HW211280   3.923   2.093   5.574
 3461SOL     OW11281   5.221   4.720   6.331
 3461SOL    HW111282   5.271   4.685   6.252
 3461SOL    HW211283   5.236   4.659   6.409
 3462SOL     OW11284   2.693   3.401   6.718
 3462SOL    HW111285   2.595   3.413   6.701
 3462SOL    HW211286   2.732   3.342   6.647
 3463SOL     OW11287   6.485   4.225   1.150
 3463SOL    HW111288   6.534   4.292   1.094
 3463SOL    HW211289   6.524   4.225   1.243
 3464SOL     OW11290   0.145   4.873   6.074
 3464SOL    HW111291   0.169   4.789   6.123
 3464SOL    HW211292   0.068   4.917   6.120
 3465SOL     OW11293   2.009   0.327   1.717
 3465SOL    HW111294   2.104   0.353   1.732
 3465SOL    HW211295   2.004   0.229   1.697
 3466SOL     OW11296   6.804   3.713   5.193
 3466SOL    HW111297   6.719   3.766   5.195
 3466SOL    HW211298   6.859   3.743   5.115
 3467SOL     OW11299   1.635   2.317   6.490
 3467SOL    HW111300   1.667   2.404   6.453
 3467SOL    HW211301   1.545   2.295   6.452
 3468SOL     OW11302   3.318   0.426   4.006
 3468SOL    HW111303   3.383   0.470   4.070
 3468SOL    HW211304   3.280   0.495   3.946
 3469SOL     OW11305   5.856   2.528   3.152
 3469SOL    HW111306   5.782   2.542   3.218
 3469SOL    HW211307   5.943   2.522   3.200
 3470SOL     OW11308   0.479   5.765   1.003
 3470SOL    HW111309   0.472   5.760   0.903
 3470SOL    HW211310   0.556   5.709   1.034
 3471SOL     OW11311   4.131   5.949   4.683
 3471SOL    HW111312   4.102   5.963   4.588
 3471SOL    HW211313   4.053   5.960   4.744
 3472SOL     OW11314   3.182   0.921   5.087
 3472SOL    HW111315   3.263   0.862   5.088
 3472SOL    HW211316   3.191   0.988   5.013
 3473SOL     OW11317   5.734   0.876   6.234
 3473SOL    HW111318   5.828   0.844   6.219
 3473SOL    HW211319   5.679   0.802   6.273
 3474SOL     OW11320   3.863   5.132   2.012
 3474SOL    HW111321   3.829   5.050   2.059
 3474SOL    HW211322   3.872   5.113   1.914
 3475SOL     OW11323   1.485   5.514   4.403
 3475SOL    HW111324   1.390   5.542   4.394
 3475SOL    HW211325   1.533   5.532   4.317
 3476SOL     OW11326   4.409   0.762   4.144
 3476SOL    HW111327   4.342   0.733   4.075
 3476SOL    HW211328   4.368   0.753   4.235
 3477SOL     OW11329   3.923   6.276   1.156
 3477SOL    HW111330   3.919   6.189   1.106
 3477SOL    HW211331   3.986   6.267   1.233
 3478SOL     OW11332   3.904   5.485   6.822
 3478SOL    HW111333   3.866   5.420   6.888
 3478SOL    HW211334   3.979   5.442   6.773
 3479SOL     OW11335   1.044   0.404   1.668
 3479SOL    HW111336   1.020   0.336   1.599
 3479SOL    HW211337   0.990   0.388   1.751
 3480SOL     OW11338   0.479   1.464   3.134
 3480SOL    HW111339   0.389   1.501   3.157
 3480SOL    HW211340   0.476   1.364   3.137
 3481SOL     OW11341   2.481   6.560   6.662
 3481SOL    HW111342   2.458   6.510   6.745
 3481SOL    HW211343   2.469   6.658   6.677
 3482SOL     OW11344   7.006   2.455   0.668
 3482SOL    HW111345   6.985   2.399   0.587
 3482SOL    HW211346   7.010   2.551   0.642
 3483SOL     OW11347   1.977   0.517   1.199
 3483SOL    HW111348   1.905   0.575   1.238
 3483SOL    HW211349   2.034   0.480   1.272
 3484SOL     OW11350   3.713   2.898   3.799
 3484SOL    HW111351   3.742   2.887   3.704
 3484SOL    HW211352   3.793   2.898   3.859
 3485SOL     OW11353   1.383   3.160   5.136
 3485SOL    HW111354   1.458   3.115   5.088
 3485SOL    HW211355   1.417   3.245   5.177
 3486SOL     OW11356   4.467   2.133   1.779
 3486SOL    HW111357   4.382   2.096   1.815
 3486SOL    HW211358   4.526   2.162   1.855
 3487SOL     OW11359   6.185   1.885   6.390
 3487SOL    HW111360   6.229   1.939   6.463
 3487SOL    HW211361   6.188   1.937   6.305
 3488SOL     OW11362   5.853   3.457   3.639
 3488SOL    HW111363   5.943   3.499   3.643
 3488SOL    HW211364   5.830   3.437   3.544
 3489SOL     OW11365   3.257   0.491   1.363
 3489SOL    HW111366   3.207   0.574   1.387
 3489SOL    HW211367   3.221   0.452   1.278
 3490SOL     OW11368   4.669   3.770   0.246
 3490SOL    HW111369   4.681   3.839   0.174
 3490SOL    HW211370   4.746   3.773   0.309
 3491SOL     OW11371   0.526   3.098   5.676
 3491SOL    HW111372   0.555   3.037   5.602
 3491SOL    HW211373   0.589   3.090   5.753
 3492SOL     OW11374   0.108   4.524   6.587
 3492SOL    HW111375   0.023   4.572   6.566
 3492SOL    HW211376   0.093   4.462   6.664
 3493SOL     OW11377   6.574   4.405   0.924
 3493SOL    HW111378   6.648   4.457   0.879
 3493SOL    HW211379   6.553   4.324   0.870
 3494SOL     OW11380   3.224   0.396   1.694
 3494SOL    HW111381   3.248   0.432   1.784
 3494SOL    HW211382   3.148   0.448   1.656
 3495SOL     OW11383   4.779   4.993   1.380
 3495SOL    HW111384   4.704   4.929   1.370
 3495SOL    HW211385   4.743   5.087   1.386
 3496SOL     OW11386   1.938   2.849   0.439
 3496SOL    HW111387   1.929   2.775   0.506
 3496SOL    HW211388   2.035   2.870   0.426
 3497SOL     OW11389   4.410   0.662   3.707
 3497SOL    HW111390   4.489   0.629   3.655
 3497SOL    HW211391   4.440   0.734   3.770
 3498SOL     OW11392   2.668   1.517   1.661
 3498SOL    HW111393   2.746   1.577   1.646
 3498SOL    HW211394   2.700   1.427   1.688
 3499SOL     OW11395   6.696   2.777   4.525
 3499SOL    HW111396   6.704   2.869   4.565
 3499SOL    HW211397   6.742   2.711   4.583
 3500SOL     OW11398   6.213   4.200   6.894
 3500SOL    HW111399   6.245   4.123   6.838
 3500SOL    HW211400   6.240   4.185   6.989
 3501SOL     OW11401   2.026   4.277   4.849
 3501SOL    HW111402   2.108   4.235   4.811
 3501SOL    HW211403   2.047   4.312   4.941
 3502SOL     OW11404   0.893   2.312   0.636
 3502SOL    HW111405   0.988   2.302   0.607
 3502SOL    HW211406   0.833   2.300   0.557
 3503SOL     OW11407   4.843   5.902   5.303
 3503SOL    HW111408   4.861   5.857   5.215
 3503SOL    HW211409   4.844   6.002   5.290
 3504SOL     OW11410   2.282   3.267   1.548
 3504SOL    HW111411   2.368   3.295   1.590
 3504SOL    HW211412   2.271   3.168   1.555
 3505SOL     OW11413   5.282   5.626   5.570
 3505SOL    HW111414   5.317   5.622   5.477
 3505SOL    HW211415   5.354   5.599   5.634
 3506SOL     OW11416   4.970   5.393   3.128
 3506SOL    HW111417   4.910   5.379   3.207
 3506SOL    HW211418   4.930   5.348   3.047
 3507SOL     OW11419   0.975   6.937   6.483
 3507SOL    HW111420   0.907   6.946   6.555
 3507SOL    HW211421   0.936   6.970   6.396
 3508SOL     OW11422   5.382   3.638   6.878
 3508SOL    HW111423   5.313   3.710   6.870
 3508SOL    HW211424   5.395   3.594   6.789
 3509SOL     OW11425   6.566   6.046   6.769
 3509SOL    HW111426   6.630   6.098   6.825
 3509SOL    HW211427   6.565   5.951   6.799
 3510SOL     OW11428   2.359   2.319   1.933
 3510SOL    HW111429   2.301   2.276   1.864
 3510SOL    HW211430   2.455   2.307   1.909
 3511SOL     OW11431   0.440   2.760   6.738
 3511SOL    HW111432   0.435   2.692   6.665
 3511SOL    HW211433   0.349   2.796   6.756
 3512SOL     OW11434   2.804   2.902   0.536
 3512SOL    HW111435   2.899   2.881   0.558
 3512SOL    HW211436   2.801   2.966   0.460
 3513SOL     OW11437   6.556   4.201   1.421
 3513SOL    HW111438   6.600   4.122   1.465
 3513SOL    HW211439   6.476   4.228   1.474
 3514SOL     OW11440   0.683   6.368   1.016
 3514SOL    HW111441   0.762   6.424   0.994
 3514SOL    HW211442   0.622   6.417   1.078
 3515SOL     OW11443   3.141   6.355   3.391
 3515SOL    HW111444   3.234   6.320   3.384
 3515SOL    HW211445   3.089   6.297   3.454
 3516SOL     OW11446   2.986   1.081   0.748
 3516SOL    HW111447   2.905   1.139   0.758
 3516SOL    HW211448   3.056   1.131   0.696
 3517SOL     OW11449   1.178   1.383   6.395
 3517SOL    HW111450   1.266   1.418   6.366
 3517SOL    HW211451   1.181   1.283   6.400
 3518SOL     OW11452   4.506   3.329   6.181
 3518SOL    HW111453   4.444   3.404   6.206
 3518SOL    HW211454   4.530   3.278   6.264
 3519SOL     OW11455   2.212   6.665   6.315
 3519SOL    HW111456   2.245   6.716   6.395
 3519SOL    HW211457   2.146   6.721   6.265
 3520SOL     OW11458   3.938   5.589   1.343
 3520SOL    HW111459   3.910   5.520   1.276
 3520SOL    HW211460   3.886   5.576   1.427
 3521SOL     OW11461   5.710   2.174   1.603
 3521SOL    HW111462   5.715   2.226   1.518
 3521SOL    HW211463   5.615   2.145   1.619
 3522SOL     OW11464   3.446   4.941   2.528
 3522SOL    HW111465   3.443   4.916   2.625
 3522SOL    HW211466   3.483   4.865   2.475
 3523SOL     OW11467   2.921   4.923   4.829
 3523SOL    HW111468   2.914   4.937   4.928
 3523SOL    HW211469   2.867   4.992   4.782
 3524SOL     OW11470   2.784   0.230   0.745
 3524SOL    HW111471   2.775   0.172   0.664
 3524SOL    HW211472   2.835   0.312   0.721
 3525SOL     OW11473   0.618   2.879   2.104
 3525SOL    HW111474   0.683   2.915   2.171
 3525SOL    HW211475   0.594   2.951   2.039
 3526SOL     OW11476   1.185   0.497   2.552
 3526SOL    HW111477   1.106   0.558   2.553
 3526SOL    HW211478   1.222   0.492   2.459
 3527SOL     OW11479   5.468   3.284   6.226
 3527SOL    HW111480   5.506   3.260   6.136
 3527SOL    HW211481   5.516   3.364   6.262
 3528SOL     OW11482   0.456   6.612   3.728
 3528SOL    HW111483   0.361   6.581   3.723
 3528SOL    HW211484   0.464   6.701   3.683
 3529SOL     OW11485   4.349   6.565   5.988
 3529SOL    HW111486   4.266   6.605   5.948
 3529SOL    HW211487   4.412   6.638   6.014
 3530SOL     OW11488   2.615   5.592   2.600
 3530SOL    HW111489   2.557   5.558   2.526
 3530SOL    HW211490   2.620   5.691   2.596
 3531SOL     OW11491   6.037   4.694   0.621
 3531SOL    HW111492   6.004   4.602   0.598
 3531SOL    HW211493   6.119   4.688   0.677
 3532SOL     OW11494   2.687   0.237   6.892
 3532SOL    HW111495   2.615   0.251   6.824
 3532SOL    HW211496   2.750   0.167   6.860
 3533SOL     OW11497   1.285   1.363   3.489
 3533SOL    HW111498   1.269   1.272   3.451
 3533SOL    HW211499   1.242   1.432   3.431
 3534SOL     OW11500   4.980   0.983   4.609
 3534SOL    HW111501   4.920   0.969   4.530
 3534SOL    HW211502   4.930   1.030   4.681
 3535SOL     OW11503   5.496   5.277   6.118
 3535SOL    HW111504   5.495   5.250   6.022
 3535SOL    HW211505   5.572   5.339   6.135
 3536SOL     OW11506   1.806   3.451   2.885
 3536SOL    HW111507   1.850   3.443   2.795
 3536SOL    HW211508   1.749   3.533   2.887
 3537SOL     OW11509   1.919   5.429   0.845
 3537SOL    HW111510   2.004   5.409   0.795
 3537SOL    HW211511   1.941   5.481   0.927
 3538SOL     OW11512   2.717   0.417   3.443
 3538SOL    HW111513   2.803   0.388   3.401
 3538SOL    HW211514   2.679   0.494   3.392
 3539SOL     OW11515   4.982   4.647   6.451
 3539SOL    HW111516   4.916   4.700   6.505
 3539SOL    HW211517   5.052   4.708   6.414
 3540SOL     OW11518   3.267   3.345   6.842
 3540SOL    HW111519   3.238   3.271   6.782
 3540SOL    HW211520   3.241   3.433   6.802
 3541SOL     OW11521   2.909   2.233   0.692
 3541SOL    HW111522   2.950   2.197   0.776
 3541SOL    HW211523   2.978   2.283   0.640
 3542SOL     OW11524   5.544   2.024   6.146
 3542SOL    HW111525   5.545   2.116   6.106
 3542SOL    HW211526   5.519   2.031   6.243
 3543SOL     OW11527   2.277   2.565   3.410
 3543SOL    HW111528   2.236   2.525   3.328
 3543SOL    HW211529   2.284   2.494   3.481
 3544SOL     OW11530   2.718   4.345   6.039
 3544SOL    HW111531   2.650   4.351   5.966
 3544SOL    HW211532   2.792   4.410   6.021
 3545SOL     OW11533   3.275   6.861   1.206
 3545SOL    HW111534   3.291   6.958   1.189
 3545SOL    HW211535   3.185   6.849   1.247
 3546SOL     OW11536   6.553   3.644   3.113
 3546SOL    HW111537   6.528   3.737   3.084
 3546SOL    HW211538   6.645   3.623   3.080
 3547SOL     OW11539   0.279   3.426   5.804
 3547SOL    HW111540   0.250   3.520   5.821
 3547SOL    HW211541   0.343   3.425   5.727
 3548SOL     OW11542   5.619   0.776   5.668
 3548SOL    HW111543   5.661   0.732   5.748
 3548SOL    HW211544   5.643   0.724   5.586
 3549SOL     OW11545   2.293   5.378   6.462
 3549SOL    HW111546   2.329   5.405   6.551
 3549SOL    HW211547   2.196   5.357   6.470
 3550SOL     OW11548   5.095   1.386   4.906
 3550SOL    HW111549   5.135   1.388   4.998
 3550SOL    HW211550   4.997   1.369   4.913
 3551SOL     OW11551   4.037   2.142   4.616
 3551SOL    HW111552   4.041   2.136   4.716
 3551SOL    HW211553   4.112   2.199   4.583
 3552SOL     OW11554   0.187   6.123   3.172
 3552SOL    HW111555   0.185   6.063   3.092
 3552SOL    HW211556   0.120   6.091   3.239
 3553SOL     OW11557   4.120   5.291   6.620
 3553SOL    HW111558   4.049   5.222   6.634
 3553SOL    HW211559   4.081   5.372   6.578
 3554SOL     OW11560   4.611   3.598   1.715
 3554SOL    HW111561   4.553   3.679   1.716
 3554SOL    HW211562   4.705   3.624   1.737
 3555SOL     OW11563   2.232   2.230   4.049
 3555SOL    HW111564   2.246   2.139   4.087
 3555SOL    HW211565   2.274   2.298   4.110
 3556SOL     OW11566   4.404   1.094   5.397
 3556SOL    HW111567   4.339   1.071   5.469
 3556SOL    HW211568   4.363   1.077   5.308
 3557SOL     OW11569   6.365   1.565   1.652
 3557SOL    HW111570   6.396   1.514   1.571
 3557SOL    HW211571   6.266   1.557   1.660
 3558SOL     OW11572   3.026   6.826   1.275
 3558SOL    HW111573   2.972   6.768   1.214
 3558SOL    HW211574   2.974   6.842   1.359
 3559SOL     OW11575   4.012   6.337   4.571
 3559SOL    HW111576   4.056   6.281   4.501
 3559SOL    HW211577   4.019   6.434   4.544
 3560SOL     OW11578   1.797   6.000   4.767
 3560SOL    HW111579   1.875   5.970   4.822
 3560SOL    HW211580   1.713   5.960   4.804
 3561SOL     OW11581   5.030   4.190   5.094
 3561SOL    HW111582   5.117   4.142   5.092
 3561SOL    HW211583   5.001   4.212   5.001
 3562SOL     OW11584   2.455   1.549   5.371
 3562SOL    HW111585   2.403   1.619   5.419
 3562SOL    HW211586   2.461   1.572   5.274
 3563SOL     OW11587   5.792   2.475   5.614
 3563SOL    HW111588   5.842   2.411   5.673
 3563SOL    HW211589   5.782   2.435   5.523
 3564SOL     OW11590   6.912   4.536   2.407
 3564SOL    HW111591   6.948   4.623   2.373
 3564SOL    HW211592   6.814   4.543   2.421
 3565SOL     OW11593   3.678   6.027   3.542
 3565SOL    HW111594   3.680   5.993   3.448
 3565SOL    HW211595   3.741   5.974   3.598
 3566SOL     OW11596   0.134   1.471   5.622
 3566SOL    HW111597   0.040   1.456   5.591
 3566SOL    HW211598   0.169   1.555   5.581
 3567SOL     OW11599   0.357   4.750   6.886
 3567SOL    HW111600   0.292   4.677   6.908
 3567SOL    HW211601   0.432   4.748   6.952
 3568SOL     OW11602   6.214   3.912   6.311
 3568SOL    HW111603   6.287   3.844   6.314
 3568SOL    HW211604   6.245   3.996   6.355
 3569SOL     OW11605   2.567   2.393   5.254
 3569SOL    HW111606   2.637   2.328   5.282
 3569SOL    HW211607   2.582   2.480   5.301
 3570SOL     OW11608   6.707   1.288   4.090
 3570SOL    HW111609   6.760   1.214   4.049
 3570SOL    HW211610   6.645   1.326   4.021
 3571SOL     OW11611   6.521   5.573   6.387
 3571SOL    HW111612   6.483   5.486   6.421
 3571SOL    HW211613   6.557   5.625   6.464
 3572SOL     OW11614   6.019   3.668   4.755
 3572SOL    HW111615   5.924   3.697   4.767
 3572SOL    HW211616   6.075   3.748   4.735
 3573SOL     OW11617   1.375   3.701   2.994
 3573SOL    HW111618   1.352   3.634   3.064
 3573SOL    HW211619   1.298   3.763   2.980
 3574SOL     OW11620   0.262   4.194   0.363
 3574SOL    HW111621   0.201   4.190   0.442
 3574SOL    HW211622   0.340   4.133   0.378
 3575SOL     OW11623   6.378   5.438   2.819
 3575SOL    HW111624   6.437   5.358   2.824
 3575SOL    HW211625   6.393   5.484   2.731
 3576SOL     OW11626   0.536   1.636   6.184
 3576SOL    HW111627   0.635   1.651   6.182
 3576SOL    HW211628   0.512   1.564   6.120
 3577SOL     OW11629   0.744   2.691   6.411
 3577SOL    HW111630   0.802   2.716   6.334
 3577SOL    HW211631   0.800   2.673   6.492
 3578SOL     OW11632   3.230   4.691   6.960
 3578SOL    HW111633   3.139   4.675   6.923
 3578SOL    HW211634   3.233   4.662   0.033
 3579SOL     OW11635   6.539   3.115   4.923
 3579SOL    HW111636   6.544   3.201   4.974
 3579SOL    HW211637   6.605   3.050   4.961
 3580SOL     OW11638   6.057   1.790   1.999
 3580SOL    HW111639   6.119   1.814   1.925
 3580SOL    HW211640   6.109   1.775   2.083
 3581SOL     OW11641   6.887   0.370   2.351
 3581SOL    HW111642   6.898   0.465   2.380
 3581SOL    HW211643   6.789   0.347   2.348
 3582SOL     OW11644   0.955   0.421   6.035
 3582SOL    HW111645   0.996   0.512   6.043
 3582SOL    HW211646   1.025   0.355   6.007
 3583SOL     OW11647   1.173   4.282   0.033
 3583SOL    HW111648   1.211   4.363   0.078
 3583SOL    HW211649   1.099   4.245   0.090
 3584SOL     OW11650   5.454   6.570   6.720
 3584SOL    HW111651   5.511   6.650   6.698
 3584SOL    HW211652   5.404   6.542   6.638
 3585SOL     OW11653   3.812   4.914   4.224
 3585SOL    HW111654   3.907   4.888   4.208
 3585SOL    HW211655   3.791   4.904   4.322
 3586SOL     OW11656   6.538   3.106   5.902
 3586SOL    HW111657   6.549   3.178   5.970
 3586SOL    HW211658   6.478   3.034   5.939
 3587SOL     OW11659   3.449   0.063   0.742
 3587SOL    HW111660   3.436   6.993   0.777
 3587SOL    HW211661   3.523   0.063   0.675
 3588SOL     OW11662   1.739   2.224   5.748
 3588SOL    HW111663   1.686   2.308   5.734
 3588SOL    HW211664   1.687   2.162   5.808
 3589SOL     OW11665   2.946   0.768   5.035
 3589SOL    HW111666   3.031   0.821   5.034
 3589SOL    HW211667   2.871   0.827   5.005
 3590SOL     OW11668   1.474   5.349   5.923
 3590SOL    HW111669   1.430   5.279   5.867
 3590SOL    HW211670   1.553   5.308   5.970
 3591SOL     OW11671   5.316   2.906   5.554
 3591SOL    HW111672   5.360   2.948   5.474
 3591SOL    HW211673   5.301   2.975   5.624
 3592SOL     OW11674   5.189   3.337   2.737
 3592SOL    HW111675   5.121   3.359   2.667
 3592SOL    HW211676   5.164   3.250   2.781
 3593SOL     OW11677   2.432   6.657   4.187
 3593SOL    HW111678   2.500   6.709   4.135
 3593SOL    HW211679   2.452   6.665   4.285
 3594SOL     OW11680   2.376   0.951   3.401
 3594SOL    HW111681   2.337   1.033   3.358
 3594SOL    HW211682   2.304   0.901   3.449
 3595SOL     OW11683   2.025   6.304   6.051
 3595SOL    HW111684   2.071   6.330   6.136
 3595SOL    HW211685   2.024   6.205   6.043
 3596SOL     OW11686   6.441   0.977   2.339
 3596SOL    HW111687   6.521   0.919   2.324
 3596SOL    HW211688   6.358   0.920   2.335
 3597SOL     OW11689   4.187   6.231   4.382
 3597SOL    HW111690   4.203   6.133   4.366
 3597SOL    HW211691   4.270   6.282   4.360
 3598SOL     OW11692   0.873   6.929   5.869
 3598SOL    HW111693   0.900   6.989   5.793
 3598SOL    HW211694   0.775   6.938   5.885
 3599SOL     OW11695   6.884   2.114   4.841
 3599SOL    HW111696   6.878   2.192   4.778
 3599SOL    HW211697   6.795   2.101   4.885
 3600SOL     OW11698   6.451   2.983   1.661
 3600SOL    HW111699   6.440   3.082   1.668
 3600SOL    HW211700   6.475   2.958   1.567
 3601SOL     OW11701   0.349   3.588   0.175
 3601SOL    HW111702   0.427   3.526   0.169
 3601SOL    HW211703   0.269   3.546   0.133
 3602SOL     OW11704   1.734   0.955   0.008
 3602SOL    HW111705   1.784   0.869   0.012
 3602SOL    HW211706   1.662   0.956   0.077
 3603SOL     OW11707   3.803   4.858   3.939
 3603SOL    HW111708   3.835   4.914   4.015
 3603SOL    HW211709   3.810   4.761   3.964
 3604SOL     OW11710   6.769   2.308   2.630
 3604SOL    HW111711   6.677   2.283   2.662
 3604SOL    HW211712   6.816   2.226   2.599
 3605SOL     OW11713   5.899   4.194   6.424
 3605SOL    HW111714   5.970   4.182   6.493
 3605SOL    HW211715   5.841   4.272   6.448
 3606SOL     OW11716   6.665   4.388   5.589
 3606SOL    HW111717   6.714   4.461   5.542
 3606SOL    HW211718   6.613   4.426   5.666
 3607SOL     OW11719   5.194   0.975   0.586
 3607SOL    HW111720   5.113   0.917   0.594
 3607SOL    HW211721   5.185   1.053   0.649
 3608SOL     OW11722   0.583   2.086   1.401
 3608SOL    HW111723   0.662   2.038   1.365
 3608SOL    HW211724   0.552   2.154   1.334
 3609SOL     OW11725   6.654   0.670   4.402
 3609SOL    HW111726   6.603   0.619   4.472
 3609SOL    HW211727   6.659   0.766   4.428
 3610SOL     OW11728   0.544   6.620   5.228
 3610SOL    HW111729   0.635   6.616   5.268
 3610SOL    HW211730   0.479   6.571   5.286
 3611SOL     OW11731   3.728   5.244   5.636
 3611SOL    HW111732   3.677   5.329   5.649
 3611SOL    HW211733   3.684   5.188   5.566
 3612SOL     OW11734   1.191   6.138   6.585
 3612SOL    HW111735   1.273   6.157   6.640
 3612SOL    HW211736   1.113   6.185   6.624
 3613SOL     OW11737   4.903   4.957   0.560
 3613SOL    HW111738   4.873   4.971   0.654
 3613SOL    HW211739   4.889   4.861   0.534
 3614SOL     OW11740   3.973   3.350   3.647
 3614SOL    HW111741   4.027   3.417   3.596
 3614SOL    HW211742   3.877   3.358   3.623
 3615SOL     OW11743   6.042   5.132   5.695
 3615SOL    HW111744   6.044   5.054   5.758
 3615SOL    HW211745   5.971   5.118   5.626
 3616SOL     OW11746   6.751   2.142   6.495
 3616SOL    HW111747   6.670   2.089   6.471
 3616SOL    HW211748   6.723   2.226   6.542
 3617SOL     OW11749   6.113   2.477   6.701
 3617SOL    HW111750   6.143   2.389   6.663
 3617SOL    HW211751   6.015   2.488   6.684
 3618SOL     OW11752   1.580   1.544   5.600
 3618SOL    HW111753   1.558   1.561   5.504
 3618SOL    HW211754   1.656   1.602   5.627
 3619SOL     OW11755   6.070   2.343   3.974
 3619SOL    HW111756   5.980   2.325   4.014
 3619SOL    HW211757   6.141   2.329   4.043
 3620SOL     OW11758   5.712   0.277   5.659
 3620SOL    HW111759   5.771   0.245   5.733
 3620SOL    HW211760   5.630   0.220   5.654
 3621SOL     OW11761   2.849   2.822   5.765
 3621SOL    HW111762   2.904   2.779   5.693
 3621SOL    HW211763   2.855   2.767   5.848
 3622SOL     OW11764   0.620   1.185   2.713
 3622SOL    HW111765   0.661   1.276   2.718
 3622SOL    HW211766   0.520   1.194   2.713
 3623SOL     OW11767   5.609   5.121   4.024
 3623SOL    HW111768   5.509   5.121   4.022
 3623SOL    HW211769   5.642   5.040   4.074
 3624SOL     OW11770   2.152   6.264   3.323
 3624SOL    HW111771   2.212   6.290   3.399
 3624SOL    HW211772   2.064   6.310   3.331
 3625SOL     OW11773   6.267   3.390   5.951
 3625SOL    HW111774   6.197   3.460   5.936
 3625SOL    HW211775   6.222   3.301   5.963
 3626SOL     OW11776   2.060   3.426   4.821
 3626SOL    HW111777   2.013   3.347   4.859
 3626SOL    HW211778   2.057   3.501   4.887
 3627SOL     OW11779   3.943   3.974   3.393
 3627SOL    HW111780   4.026   3.925   3.418
 3627SOL    HW211781   3.914   4.033   3.468
 3628SOL     OW11782   2.269   5.668   1.762
 3628SOL    HW111783   2.308   5.579   1.786
 3628SOL    HW211784   2.177   5.676   1.801
 3629SOL     OW11785   6.096   2.362   5.534
 3629SOL    HW111786   6.075   2.325   5.443
 3629SOL    HW211787   6.158   2.440   5.524
 3630SOL     OW11788   5.722   2.032   4.646
 3630SOL    HW111789   5.760   2.005   4.557
 3630SOL    HW211790   5.709   2.131   4.649
 3631SOL     OW11791   2.360   0.066   4.761
 3631SOL    HW111792   2.447   0.115   4.759
 3631SOL    HW211793   2.376   6.992   4.778
 3632SOL     OW11794   5.429   0.904   1.254
 3632SOL    HW111795   5.348   0.876   1.305
 3632SOL    HW211796   5.434   1.004   1.252
 3633SOL     OW11797   2.736   2.427   5.874
 3633SOL    HW111798   2.791   2.386   5.801
 3633SOL    HW211799   2.641   2.399   5.864
 3634SOL     OW11800   0.437   6.716   4.600
 3634SOL    HW111801   0.400   6.624   4.591
 3634SOL    HW211802   0.500   6.720   4.678
 3635SOL     OW11803   3.061   1.310   5.041
 3635SOL    HW111804   2.963   1.305   5.021
 3635SOL    HW211805   3.091   1.405   5.035
 3636SOL     OW11806   0.253   5.899   6.103
 3636SOL    HW111807   0.300   5.812   6.088
 3636SOL    HW211808   0.206   5.897   6.191
 3637SOL     OW11809   6.199   2.249   0.767
 3637SOL    HW111810   6.130   2.303   0.814
 3637SOL    HW211811   6.186   2.152   0.789
 3638SOL     OW11812   6.561   4.553   4.193
 3638SOL    HW111813   6.588   4.595   4.106
 3638SOL    HW211814   6.462   4.556   4.201
 3639SOL     OW11815   3.671   3.643   1.126
 3639SOL    HW111816   3.707   3.565   1.074
 3639SOL    HW211817   3.584   3.618   1.168
 3640SOL     OW11818   3.762   6.287   6.957
 3640SOL    HW111819   3.836   6.229   6.923
 3640SOL    HW211820   3.705   6.234   7.020
 3641SOL     OW11821   3.588   1.639   4.616
 3641SOL    HW111822   3.655   1.711   4.593
 3641SOL    HW211823   3.506   1.652   4.561
 3642SOL     OW11824   4.850   1.131   5.624
 3642SOL    HW111825   4.800   1.049   5.655
 3642SOL    HW211826   4.940   1.104   5.592
 3643SOL     OW11827   3.348   5.603   4.380
 3643SOL    HW111828   3.325   5.700   4.376
 3643SOL    HW211829   3.380   5.581   4.472
 3644SOL     OW11830   7.018   1.820   1.224
 3644SOL    HW111831   0.031   1.830   1.317
 3644SOL    HW211832   7.001   1.723   1.205
 3645SOL     OW11833   5.637   1.603   3.712
 3645SOL    HW111834   5.731   1.613   3.744
 3645SOL    HW211835   5.576   1.593   3.791
 3646SOL     OW11836   6.673   4.600   5.330
 3646SOL    HW111837   6.598   4.664   5.311
 3646SOL    HW211838   6.663   4.520   5.270
 3647SOL     OW11839   1.534   3.115   0.194
 3647SOL    HW111840   1.612   3.092   0.135
 3647SOL    HW211841   1.492   3.031   0.228
 3648SOL     OW11842   4.087   5.584   2.798
 3648SOL    HW111843   4.024   5.512   2.767
 3648SOL    HW211844   4.067   5.669   2.750
 3649SOL     OW11845   4.210   3.210   0.747
 3649SOL    HW111846   4.111   3.199   0.752
 3649SOL    HW211847   4.237   3.295   0.792
 3650SOL     OW11848   6.763   5.714   0.866
 3650SOL    HW111849   6.727   5.785   0.805
 3650SOL    HW211850   6.710   5.630   0.854
 3651SOL     OW11851   0.391   6.124   2.190
 3651SOL    HW111852   0.314   6.064   2.209
 3651SOL    HW211853   0.393   6.147   2.093
 3652SOL     OW11854   4.740   6.573   3.351
 3652SOL    HW111855   4.829   6.529   3.341
 3652SOL    HW211856   4.668   6.508   3.326
 3653SOL     OW11857   6.471   1.143   3.131
 3653SOL    HW111858   6.535   1.115   3.203
 3653SOL    HW211859   6.412   1.066   3.107
 3654SOL     OW11860   2.141   6.481   0.875
 3654SOL    HW111861   2.058   6.435   0.843
 3654SOL    HW211862   2.221   6.437   0.834
 3655SOL     OW11863   1.283   6.791   3.902
 3655SOL    HW111864   1.264   6.804   4.000
 3655SOL    HW211865   1.244   6.704   3.872
 3656SOL     OW11866   1.453   2.359   1.464
 3656SOL    HW111867   1.528   2.423   1.445
 3656SOL    HW211868   1.431   2.307   1.382
 3657SOL     OW11869   4.333   5.537   6.482
 3657SOL    HW111870   4.411   5.503   6.535
 3657SOL    HW211871   4.346   5.513   6.386
 3658SOL     OW11872   1.003   6.031   5.229
 3658SOL    HW111873   1.009   6.114   5.286
 3658SOL    HW211874   1.088   5.980   5.237
 3659SOL     OW11875   2.502   4.342   6.820
 3659SOL    HW111876   2.415   4.392   6.826
 3659SOL    HW211877   2.516   4.290   6.904
 3660SOL     OW11878   4.571   6.262   2.186
 3660SOL    HW111879   4.476   6.288   2.199
 3660SOL    HW211880   4.625   6.292   2.264
 3661SOL     OW11881   4.849   2.557   6.442
 3661SOL    HW111882   4.944   2.549   6.413
 3661SOL    HW211883   4.789   2.512   6.375
 3662SOL     OW11884   3.591   6.833   4.686
 3662SOL    HW111885   3.529   6.754   4.683
 3662SOL    HW211886   3.560   6.897   4.757
 3663SOL     OW11887   1.386   1.469   0.412
 3663SOL    HW111888   1.436   1.383   0.400
 3663SOL    HW211889   1.384   1.493   0.509
 3664SOL     OW11890   5.202   1.518   0.576
 3664SOL    HW111891   5.236   1.602   0.619
 3664SOL    HW211892   5.124   1.540   0.517
 3665SOL     OW11893   0.197   5.852   5.464
 3665SOL    HW111894   0.224   5.825   5.556
 3665SOL    HW211895   0.097   5.862   5.459
 3666SOL     OW11896   1.894   4.441   3.848
 3666SOL    HW111897   1.876   4.538   3.864
 3666SOL    HW211898   1.947   4.431   3.763
 3667SOL     OW11899   6.082   0.669   0.232
 3667SOL    HW111900   5.983   0.658   0.235
 3667SOL    HW211901   6.126   0.591   0.276
 3668SOL     OW11902   1.569   6.639   2.352
 3668SOL    HW111903   1.487   6.681   2.392
 3668SOL    HW211904   1.625   6.599   2.425
 3669SOL     OW11905   5.825   1.435   4.393
 3669SOL    HW111906   5.897   1.502   4.377
 3669SOL    HW211907   5.810   1.424   4.491
 3670SOL     OW11908   2.340   5.722   0.350
 3670SOL    HW111909   2.247   5.757   0.355
 3670SOL    HW211910   2.351   5.667   0.267
 3671SOL     OW11911   6.398   0.585   3.104
 3671SOL    HW111912   6.498   0.585   3.107
 3671SOL    HW211913   6.361   0.610   3.193
 3672SOL     OW11914   6.051   2.059   0.514
 3672SOL    HW111915   6.052   1.995   0.590
 3672SOL    HW211916   5.959   2.064   0.475
 3673SOL     OW11917   4.047   1.100   6.294
 3673SOL    HW111918   3.950   1.100   6.320
 3673SOL    HW211919   4.101   1.140   6.368
 3674SOL     OW11920   0.290   6.537   6.555
 3674SOL    HW111921   0.332   6.588   6.630
 3674SOL    HW211922   0.361   6.484   6.507
 3675SOL     OW11923   1.741   2.467   5.056
 3675SOL    HW111924   1.680   2.391   5.034
 3675SOL    HW211925   1.827   2.455   5.008
 3676SOL     OW11926   4.076   5.104   4.059
 3676SOL    HW111927   4.108   5.106   3.965
 3676SOL    HW211928   4.003   5.172   4.071
 3677SOL     OW11929   0.900   5.768   3.228
 3677SOL    HW111930   0.852   5.818   3.156
 3677SOL    HW211931   0.991   5.742   3.195
 3678SOL     OW11932   0.602   2.942   3.795
 3678SOL    HW111933   0.674   2.898   3.848
 3678SOL    HW211934   0.536   2.984   3.857
 3679SOL     OW11935   0.268   0.668   2.486
 3679SOL    HW111936   0.361   0.633   2.483
 3679SOL    HW211937   0.257   0.739   2.417
 3680SOL     OW11938   6.214   3.086   3.813
 3680SOL    HW111939   6.214   3.142   3.731
 3680SOL    HW211940   6.265   3.001   3.796
 3681SOL     OW11941   0.658   0.937   6.157
 3681SOL    HW111942   0.633   0.845   6.127
 3681SOL    HW211943   0.751   0.957   6.127
 3682SOL     OW11944   5.972   2.358   5.780
 3682SOL    HW111945   6.006   2.273   5.818
 3682SOL    HW211946   6.008   2.371   5.688
 3683SOL     OW11947   6.622   0.416   4.838
 3683SOL    HW111948   6.636   0.351   4.912
 3683SOL    HW211949   6.543   0.388   4.784
 3684SOL     OW11950   1.906   3.025   1.422
 3684SOL    HW111951   1.810   3.049   1.435
 3684SOL    HW211952   1.963   3.107   1.434
 3685SOL     OW11953   6.309   6.143   5.724
 3685SOL    HW111954   6.245   6.190   5.783
 3685SOL    HW211955   6.336   6.056   5.767
 3686SOL     OW11956   6.243   5.143   2.933
 3686SOL    HW111957   6.263   5.209   3.006
 3686SOL    HW211958   6.146   5.147   2.909
 3687SOL     OW11959   3.265   6.362   6.049
 3687SOL    HW111960   3.255   6.381   5.952
 3687SOL    HW211961   3.189   6.305   6.080
 3688SOL     OW11962   1.100   3.962   0.019
 3688SOL    HW111963   1.067   3.871   0.046
 3688SOL    HW211964   1.151   4.003   0.094
 3689SOL     OW11965   0.821   0.400   5.297
 3689SOL    HW111966   0.848   0.458   5.220
 3689SOL    HW211967   0.742   0.440   5.343
 3690SOL     OW11968   4.693   0.653   6.067
 3690SOL    HW111969   4.767   0.608   6.017
 3690SOL    HW211970   4.727   0.738   6.108
 3691SOL     OW11971   2.671   2.693   6.699
 3691SOL    HW111972   2.754   2.637   6.693
 3691SOL    HW211973   2.673   2.762   6.626
 3692SOL     OW11974   0.850   5.485   4.865
 3692SOL    HW111975   0.799   5.400   4.849
 3692SOL    HW211976   0.872   5.492   4.962
 3693SOL     OW11977   1.406   2.541   2.970
 3693SOL    HW111978   1.450   2.631   2.964
 3693SOL    HW211979   1.453   2.486   3.040
 3694SOL     OW11980   0.591   5.437   3.545
 3694SOL    HW111981   0.668   5.397   3.596
 3694SOL    HW211982   0.585   5.534   3.566
 3695SOL     OW11983   0.481   2.196   2.457
 3695SOL    HW111984   0.515   2.110   2.418
 3695SOL    HW211985   0.552   2.238   2.513
 3696SOL     OW11986   4.538   6.396   5.502
 3696SOL    HW111987   4.636   6.405   5.481
 3696SOL    HW211988   4.504   6.480   5.543
 3697SOL     OW11989   6.788   6.242   3.358
 3697SOL    HW111990   6.691   6.257   3.380
 3697SOL    HW211991   6.840   6.326   3.373
 3698SOL     OW11992   3.390   0.097   5.786
 3698SOL    HW111993   3.393   0.187   5.831
 3698SOL    HW211994   3.421   0.106   5.692
 3699SOL     OW11995   6.701   3.962   3.126
 3699SOL    HW111996   6.612   4.003   3.102
 3699SOL    HW211997   6.693   3.912   3.212
 3700SOL     OW11998   5.908   0.585   3.302
 3700SOL    HW111999   5.815   0.570   3.334
 3700SOL    HW212000   5.918   0.679   3.270
 3701SOL     OW12001   0.544   0.854   3.969
 3701SOL    HW112002   0.490   0.938   3.979
 3701SOL    HW212003   0.609   0.847   4.045
 3702SOL     OW12004   4.492   0.106   1.624
 3702SOL    HW112005   4.394   0.111   1.646
 3702SOL    HW212006   4.539   0.054   1.695
 3703SOL     OW12007   4.130   3.925   5.663
 3703SOL    HW112008   4.212   3.976   5.635
 3703SOL    HW212009   4.122   3.927   5.762
 3704SOL     OW12010   2.851   0.711   2.234
 3704SOL    HW112011   2.844   0.801   2.277
 3704SOL    HW212012   2.765   0.687   2.190
 3705SOL     OW12013   4.954   6.952   3.961
 3705SOL    HW112014   4.979   6.895   4.039
 3705SOL    HW212015   4.966   0.026   3.985
 3706SOL     OW12016   1.664   2.622   4.317
 3706SOL    HW112017   1.727   2.651   4.244
 3706SOL    HW212018   1.661   2.523   4.320
 3707SOL     OW12019   5.436   3.028   5.344
 3707SOL    HW112020   5.365   3.093   5.314
 3707SOL    HW212021   5.465   2.973   5.266
 3708SOL     OW12022   5.877   0.157   6.644
 3708SOL    HW112023   5.934   0.165   6.562
 3708SOL    HW212024   5.812   0.232   6.647
 3709SOL     OW12025   3.783   1.146   6.320
 3709SOL    HW112026   3.685   1.141   6.301
 3709SOL    HW212027   3.798   1.202   6.402
 3710SOL     OW12028   6.752   5.938   0.273
 3710SOL    HW112029   6.741   6.017   0.334
 3710SOL    HW212030   6.686   5.945   0.198
 3711SOL     OW12031   0.312   5.660   2.683
 3711SOL    HW112032   0.222   5.657   2.726
 3711SOL    HW212033   0.374   5.715   2.739
 3712SOL     OW12034   6.849   6.347   6.661
 3712SOL    HW112035   6.947   6.351   6.679
 3712SOL    HW212036   6.822   6.252   6.645
 3713SOL     OW12037   2.201   6.429   4.760
 3713SOL    HW112038   2.201   6.341   4.806
 3713SOL    HW212039   2.133   6.428   4.687
 3714SOL     OW12040   5.411   6.441   4.767
 3714SOL    HW112041   5.328   6.497   4.760
 3714SOL    HW212042   5.467   6.473   4.843
 3715SOL     OW12043   5.830   4.336   5.073
 3715SOL    HW112044   5.796   4.251   5.113
 3715SOL    HW212045   5.876   4.315   4.986
 3716SOL     OW12046   0.025   6.476   4.336
 3716SOL    HW112047   7.012   6.385   4.315
 3716SOL    HW212048   6.971   6.537   4.356
 3717SOL     OW12049   5.838   5.601   0.285
 3717SOL    HW112050   5.802   5.694   0.299
 3717SOL    HW212051   5.862   5.589   0.189
 3718SOL     OW12052   1.621   6.579   6.291
 3718SOL    HW112053   1.681   6.509   6.251
 3718SOL    HW212054   1.669   6.626   6.365
 3719SOL     OW12055   4.654   4.288   1.127
 3719SOL    HW112056   4.745   4.329   1.121
 3719SOL    HW212057   4.652   4.223   1.203
 3720SOL     OW12058   6.503   2.735   6.826
 3720SOL    HW112059   6.572   2.711   6.757
 3720SOL    HW212060   6.442   2.657   6.840
 3721SOL     OW12061   5.260   4.942   0.049
 3721SOL    HW112062   5.191   4.902   0.110
 3721SOL    HW212063   5.345   4.889   0.055
 3722SOL     OW12064   6.692   6.311   2.298
 3722SOL    HW112065   6.736   6.266   2.220
 3722SOL    HW212066   6.651   6.243   2.358
 3723SOL     OW12067   5.732   6.907   1.805
 3723SOL    HW112068   5.649   6.905   1.859
 3723SOL    HW212069   5.801   6.963   1.852
 3724SOL     OW12070   1.837   5.045   6.883
 3724SOL    HW112071   1.926   5.002   6.867
 3724SOL    HW212072   1.816   5.043   6.980
 3725SOL     OW12073   5.998   5.935   6.960
 3725SOL    HW112074   6.041   6.020   6.932
 3725SOL    HW212075   5.899   5.949   6.970
 3726SOL     OW12076   6.966   3.985   1.378
 3726SOL    HW112077   6.939   4.019   1.287
 3726SOL    HW212078   6.894   3.925   1.413
 3727SOL     OW12079   0.469   3.289   5.981
 3727SOL    HW112080   0.420   3.305   5.895
 3727SOL    HW212081   0.476   3.374   6.032
 3728SOL     OW12082   2.076   3.381   0.156
 3728SOL    HW112083   2.004   3.445   0.183
 3728SOL    HW212084   2.069   3.297   0.210
 3729SOL     OW12085   0.731   2.604   3.035
 3729SOL    HW112086   0.755   2.515   2.996
 3729SOL    HW212087   0.705   2.667   2.962
 3730SOL     OW12088   2.610   6.380   0.291
 3730SOL    HW112089   2.575   6.412   0.203
 3730SOL    HW212090   2.566   6.292   0.314
 3731SOL     OW12091   4.814   1.768   0.424
 3731SOL    HW112092   4.726   1.722   0.420
 3731SOL    HW212093   4.803   1.863   0.394
 3732SOL     OW12094   2.098   3.404   5.544
 3732SOL    HW112095   2.030   3.343   5.586
 3732SOL    HW212096   2.137   3.360   5.463
 3733SOL     OW12097   2.213   3.963   1.665
 3733SOL    HW112098   2.249   3.875   1.693
 3733SOL    HW212099   2.130   3.984   1.718
 3734SOL     OW12100   4.459   1.459   1.700
 3734SOL    HW112101   4.464   1.501   1.791
 3734SOL    HW212102   4.443   1.361   1.709
 3735SOL     OW12103   1.064   2.032   2.821
 3735SOL    HW112104   1.028   1.954   2.873
 3735SOL    HW212105   1.032   2.117   2.862
 3736SOL     OW12106   0.184   3.115   0.593
 3736SOL    HW112107   0.281   3.140   0.598
 3736SOL    HW212108   0.169   3.054   0.515
 3737SOL     OW12109   4.910   0.419   3.572
 3737SOL    HW112110   4.942   0.451   3.483
 3737SOL    HW212111   4.865   0.330   3.561
 3738SOL     OW12112   6.273   5.767   3.137
 3738SOL    HW112113   6.351   5.793   3.195
 3738SOL    HW212114   6.307   5.737   3.048
 3739SOL     OW12115   1.960   4.034   2.960
 3739SOL    HW112116   2.045   4.077   2.992
 3739SOL    HW212117   1.977   3.988   2.873
 3740SOL     OW12118   4.246   0.646   6.906
 3740SOL    HW112119   4.304   0.641   6.988
 3740SOL    HW212120   4.228   0.554   6.872
 3741SOL     OW12121   4.840   4.018   1.185
 3741SOL    HW112122   4.809   4.055   1.273
 3741SOL    HW212123   4.762   3.980   1.135
 3742SOL     OW12124   2.864   2.304   5.668
 3742SOL    HW112125   2.874   2.305   5.568
 3742SOL    HW212126   2.871   2.210   5.701
 3743SOL     OW12127   6.037   4.973   0.870
 3743SOL    HW112128   6.083   4.889   0.900
 3743SOL    HW212129   6.098   5.051   0.884
 3744SOL     OW12130   0.760   5.760   4.469
 3744SOL    HW112131   0.737   5.732   4.375
 3744SOL    HW212132   0.736   5.687   4.532
 3745SOL     OW12133   3.341   5.148   3.039
 3745SOL    HW112134   3.351   5.049   3.051
 3745SOL    HW212135   3.245   5.173   3.050
 3746SOL     OW12136   4.489   1.381   1.315
 3746SOL    HW112137   4.453   1.384   1.222
 3746SOL    HW212138   4.458   1.462   1.365
 3747SOL     OW12139   3.032   6.470   6.413
 3747SOL    HW112140   3.089   6.494   6.334
 3747SOL    HW212141   2.991   6.552   6.451
 3748SOL     OW12142   5.892   1.039   1.690
 3748SOL    HW112143   5.928   1.128   1.717
 3748SOL    HW212144   5.793   1.037   1.705
 3749SOL     OW12145   2.019   6.943   4.539
 3749SOL    HW112146   1.927   6.919   4.509
 3749SOL    HW212147   2.057   6.870   4.595
 3750SOL     OW12148   1.496   3.848   0.542
 3750SOL    HW112149   1.481   3.760   0.496
 3750SOL    HW212150   1.526   3.831   0.636
 3751SOL     OW12151   0.013   3.785   2.855
 3751SOL    HW112152   7.012   3.717   2.786
 3751SOL    HW212153   6.977   3.865   2.845
 3752SOL     OW12154   5.204   0.584   5.975
 3752SOL    HW112155   5.161   0.669   5.945
 3752SOL    HW212156   5.302   0.588   5.957
 3753SOL     OW12157   6.407   0.668   4.596
 3753SOL    HW112158   6.345   0.628   4.664
 3753SOL    HW212159   6.464   0.738   4.640
 3754SOL     OW12160   2.217   0.439   1.958
 3754SOL    HW112161   2.263   0.387   1.886
 3754SOL    HW212162   2.164   0.514   1.917
 3755SOL     OW12163   3.321   4.990   4.675
 3755SOL    HW112164   3.421   4.997   4.682
 3755SOL    HW212165   3.287   4.933   4.750
 3756SOL     OW12166   2.736   5.730   0.080
 3756SOL    HW112167   2.787   5.693   0.158
 3756SOL    HW212168   2.676   5.803   0.112
 3757SOL     OW12169   6.340   5.031   1.927
 3757SOL    HW112170   6.429   5.037   1.882
 3757SOL    HW212171   6.309   5.123   1.953
 3758SOL     OW12172   2.084   1.033   4.173
 3758SOL    HW112173   2.103   1.046   4.270
 3758SOL    HW212174   1.985   1.029   4.158
 3759SOL     OW12175   5.510   0.835   4.506
 3759SOL    HW112176   5.524   0.749   4.556
 3759SOL    HW212177   5.415   0.842   4.477
 3760SOL     OW12178   0.362   0.464   3.908
 3760SOL    HW112179   0.346   0.542   3.969
 3760SOL    HW212180   0.278   0.441   3.859
 3761SOL     OW12181   5.884   1.369   4.668
 3761SOL    HW112182   5.907   1.450   4.722
 3761SOL    HW212183   5.789   1.344   4.686
 3762SOL     OW12184   1.638   3.986   2.557
 3762SOL    HW112185   1.650   4.080   2.588
 3762SOL    HW212186   1.597   3.932   2.630
 3763SOL     OW12187   7.006   4.084   0.402
 3763SOL    HW112188   0.071   4.045   0.432
 3763SOL    HW212189   6.962   4.130   0.479
 3764SOL     OW12190   1.821   6.909   3.223
 3764SOL    HW112191   1.751   6.886   3.292
 3764SOL    HW212192   1.863   6.825   3.189
 3765SOL     OW12193   6.241   1.927   1.331
 3765SOL    HW112194   6.246   2.007   1.391
 3765SOL    HW212195   6.216   1.957   1.239
 3766SOL     OW12196   2.115   2.620   3.802
 3766SOL    HW112197   2.092   2.549   3.736
 3766SOL    HW212198   2.055   2.611   3.882
 3767SOL     OW12199   3.080   4.386   6.216
 3767SOL    HW112200   3.018   4.443   6.161
 3767SOL    HW212201   3.057   4.398   6.313
 3768SOL     OW12202   1.500   0.955   4.211
 3768SOL    HW112203   1.497   0.968   4.112
 3768SOL    HW212204   1.583   0.997   4.247
 3769SOL     OW12205   5.670   5.654   4.991
 3769SOL    HW112206   5.623   5.567   4.982
 3769SOL    HW212207   5.666   5.686   5.086
 3770SOL     OW12208   0.862   1.326   0.513
 3770SOL    HW112209   0.862   1.237   0.558
 3770SOL    HW212210   0.932   1.328   0.442
 3771SOL     OW12211   0.018   5.039   0.995
 3771SOL    HW112212   7.006   5.126   0.960
 3771SOL    HW212213   6.995   5.017   1.081
 3772SOL     OW12214   1.197   6.628   0.556
 3772SOL    HW112215   1.268   6.558   0.547
 3772SOL    HW212216   1.238   6.713   0.587
 3773SOL     OW12217   5.611   4.002   5.785
 3773SOL    HW112218   5.558   4.075   5.829
 3773SOL    HW212219   5.550   3.929   5.755
 3774SOL     OW12220   5.318   5.714   1.716
 3774SOL    HW112221   5.363   5.775   1.651
 3774SOL    HW212222   5.256   5.766   1.774
 3775SOL     OW12223   4.184   5.027   3.059
 3775SOL    HW112224   4.129   5.067   2.986
 3775SOL    HW212225   4.132   4.955   3.105
 3776SOL     OW12226   3.863   3.019   6.088
 3776SOL    HW112227   3.825   3.103   6.049
 3776SOL    HW212228   3.962   3.030   6.101
 3777SOL     OW12229   2.604   6.529   3.996
 3777SOL    HW112230   2.512   6.502   4.025
 3777SOL    HW212231   2.669   6.458   4.023
 3778SOL     OW12232   3.217   6.256   4.539
 3778SOL    HW112233   3.157   6.188   4.498
 3778SOL    HW212234   3.226   6.237   4.637
 3779SOL     OW12235   0.258   5.155   0.828
 3779SOL    HW112236   0.322   5.098   0.776
 3779SOL    HW212237   0.201   5.096   0.886
 3780SOL     OW12238   0.228   2.227   2.361
 3780SOL    HW112239   0.323   2.214   2.389
 3780SOL    HW212240   0.225   2.259   2.267
 3781SOL     OW12241   1.083   6.583   5.023
 3781SOL    HW112242   1.101   6.602   5.120
 3781SOL    HW212243   1.019   6.652   4.988
 3782SOL     OW12244   3.931   6.102   2.241
 3782SOL    HW112245   3.859   6.032   2.245
 3782SOL    HW212246   3.912   6.164   2.165
 3783SOL     OW12247   5.502   4.802   5.289
 3783SOL    HW112248   5.405   4.819   5.277
 3783SOL    HW212249   5.519   4.704   5.290
 3784SOL     OW12250   5.565   2.618   2.301
 3784SOL    HW112251   5.549   2.690   2.368
 3784SOL    HW212252   5.477   2.585   2.266
 3785SOL     OW12253   0.499   3.196   5.250
 3785SOL    HW112254   0.546   3.142   5.180
 3785SOL    HW212255   0.562   3.214   5.326
 3786SOL     OW12256   2.632   2.308   3.526
 3786SOL    HW112257   2.615   2.395   3.572
 3786SOL    HW212258   2.545   2.259   3.514
 3787SOL     OW12259   4.097   0.374   2.704
 3787SOL    HW112260   4.081   0.472   2.698
 3787SOL    HW212261   4.195   0.356   2.703
 3788SOL     OW12262   7.015   3.456   4.813
 3788SOL    HW112263   7.020   3.357   4.799
 3788SOL    HW212264   6.941   3.477   4.877
 3789SOL     OW12265   1.039   2.470   3.074
 3789SOL    HW112266   0.995   2.385   3.046
 3789SOL    HW212267   1.043   2.475   3.173
 3790SOL     OW12268   1.330   5.746   0.201
 3790SOL    HW112269   1.331   5.742   0.101
 3790SOL    HW212270   1.350   5.840   0.231
 3791SOL     OW12271   5.452   1.597   5.869
 3791SOL    HW112272   5.445   1.691   5.904
 3791SOL    HW212273   5.451   1.533   5.946
 3792SOL     OW12274   0.722   0.569   4.448
 3792SOL    HW112275   0.690   0.575   4.353
 3792SOL    HW212276   0.818   0.542   4.449
 3793SOL     OW12277   6.030   5.825   0.575
 3793SOL    HW112278   5.993   5.917   0.568
 3793SOL    HW212279   5.957   5.762   0.602
 3794SOL     OW12280   1.748   3.647   1.071
 3794SOL    HW112281   1.651   3.660   1.089
 3794SOL    HW212282   1.779   3.561   1.111
 3795SOL     OW12283   3.014   5.942   1.042
 3795SOL    HW112284   2.945   5.929   0.971
 3795SOL    HW212285   3.093   5.991   1.004
 3796SOL     OW12286   4.124   2.314   1.013
 3796SOL    HW112287   4.189   2.384   1.043
 3796SOL    HW212288   4.051   2.357   0.961
 3797SOL     OW12289   1.259   4.005   2.525
 3797SOL    HW112290   1.321   3.995   2.603
 3797SOL    HW212291   1.216   3.917   2.505
 3798SOL     OW12292   2.593   6.637   3.280
 3798SOL    HW112293   2.586   6.553   3.227
 3798SOL    HW212294   2.644   6.706   3.228
 3799SOL     OW12295   6.355   2.559   2.839
 3799SOL    HW112296   6.276   2.605   2.879
 3799SOL    HW212297   6.437   2.616   2.850
 3800SOL     OW12298   5.169   1.467   3.058
 3800SOL    HW112299   5.243   1.421   3.008
 3800SOL    HW212300   5.187   1.565   3.060
 3801SOL     OW12301   5.180   6.656   1.813
 3801SOL    HW112302   5.156   6.564   1.781
 3801SOL    HW212303   5.224   6.650   1.902
 3802SOL     OW12304   0.340   1.474   2.124
 3802SOL    HW112305   0.344   1.387   2.174
 3802SOL    HW212306   0.328   1.549   2.189
 3803SOL     OW12307   3.091   4.029   3.774
 3803SOL    HW112308   3.078   3.944   3.723
 3803SOL    HW212309   3.058   4.018   3.867
 3804SOL     OW12310   3.807   0.592   4.565
 3804SOL    HW112311   3.852   0.615   4.479
 3804SOL    HW212312   3.708   0.604   4.556
 3805SOL     OW12313   2.637   2.624   1.115
 3805SOL    HW112314   2.582   2.691   1.065
 3805SOL    HW212315   2.576   2.564   1.167
 3806SOL     OW12316   3.932   4.611   6.414
 3806SOL    HW112317   3.914   4.514   6.399
 3806SOL    HW212318   4.027   4.623   6.442
 3807SOL     OW12319   1.637   4.969   4.370
 3807SOL    HW112320   1.596   4.926   4.290
 3807SOL    HW212321   1.617   5.066   4.370
 3808SOL     OW12322   4.845   0.308   5.844
 3808SOL    HW112323   4.868   0.388   5.899
 3808SOL    HW212324   4.844   0.333   5.747
 3809SOL     OW12325   6.169   2.090   1.095
 3809SOL    HW112326   6.210   2.172   1.136
 3809SOL    HW212327   6.077   2.077   1.132
 3810SOL     OW12328   6.650   2.397   3.225
 3810SOL    HW112329   6.701   2.354   3.299
 3810SOL    HW212330   6.679   2.492   3.213
 3811SOL     OW12331   0.124   5.351   4.690
 3811SOL    HW112332   0.195   5.415   4.720
 3811SOL    HW212333   0.116   5.277   4.757
 3812SOL     OW12334   3.438   5.900   6.795
 3812SOL    HW112335   3.354   5.855   6.823
 3812SOL    HW212336   3.438   5.994   6.828
 3813SOL     OW12337   6.127   3.974   0.950
 3813SOL    HW112338   6.210   3.968   1.006
 3813SOL    HW212339   6.057   3.914   0.989
 3814SOL     OW12340   0.043   6.994   3.785
 3814SOL    HW112341   0.081   6.921   3.728
 3814SOL    HW212342   0.107   7.014   3.859
 3815SOL     OW12343   5.119   3.195   0.751
 3815SOL    HW112344   5.181   3.273   0.763
 3815SOL    HW212345   5.165   3.111   0.780
 3816SOL     OW12346   0.408   6.850   5.184
 3816SOL    HW112347   0.463   6.767   5.178
 3816SOL    HW212348   0.398   6.878   5.279
 3817SOL     OW12349   5.008   3.334   2.524
 3817SOL    HW112350   4.912   3.319   2.501
 3817SOL    HW212351   5.036   3.425   2.494
 3818SOL     OW12352   0.253   0.477   0.954
 3818SOL    HW112353   0.215   0.552   1.007
 3818SOL    HW212354   0.200   0.394   0.971
 3819SOL     OW12355   6.278   4.131   2.888
 3819SOL    HW112356   6.333   4.214   2.885
 3819SOL    HW212357   6.303   4.072   2.810
 3820SOL     OW12358   5.631   6.473   3.849
 3820SOL    HW112359   5.609   6.571   3.850
 3820SOL    HW212360   5.685   6.451   3.768
 3821SOL     OW12361   0.668   6.999   0.257
 3821SOL    HW112362   0.718   0.049   0.212
 3821SOL    HW212363   0.692   6.998   0.354
 3822SOL     OW12364   3.431   0.409   6.675
 3822SOL    HW112365   3.496   0.452   6.613
 3822SOL    HW212366   3.411   0.316   6.644
 3823SOL     OW12367   4.534   4.799   6.483
 3823SOL    HW112368   4.455   4.853   6.510
 3823SOL    HW212369   4.618   4.846   6.512
 3824SOL     OW12370   1.199   2.840   0.610
 3824SOL    HW112371   1.115   2.889   0.585
 3824SOL    HW212372   1.232   2.788   0.532
 3825SOL     OW12373   1.115   4.347   0.814
 3825SOL    HW112374   1.019   4.330   0.795
 3825SOL    HW212375   1.123   4.408   0.893
 3826SOL     OW12376   6.724   4.090   2.591
 3826SOL    HW112377   6.775   4.074   2.507
 3826SOL    HW212378   6.769   4.042   2.667
 3827SOL     OW12379   0.835   0.752   1.218
 3827SOL    HW112380   0.848   0.789   1.126
 3827SOL    HW212381   0.913   0.775   1.275
 3828SOL     OW12382   3.647   4.199   4.978
 3828SOL    HW112383   3.665   4.140   4.900
 3828SOL    HW212384   3.663   4.294   4.953
 3829SOL     OW12385   0.550   5.404   2.334
 3829SOL    HW112386   0.461   5.425   2.375
 3829SOL    HW212387   0.622   5.426   2.400
 3830SOL     OW12388   0.277   0.654   5.363
 3830SOL    HW112389   0.333   0.725   5.319
 3830SOL    HW212390   0.256   0.681   5.457
 3831SOL     OW12391   4.173   2.223   3.023
 3831SOL    HW112392   4.207   2.129   3.009
 3831SOL    HW212393   4.180   2.247   3.119
 3832SOL     OW12394   0.381   0.489   1.631
 3832SOL    HW112395   0.462   0.457   1.681
 3832SOL    HW212396   0.410   0.548   1.556
 3833SOL     OW12397   1.761   6.476   6.551
 3833SOL    HW112398   1.839   6.478   6.489
 3833SOL    HW212399   1.712   6.389   6.540
 3834SOL     OW12400   4.362   4.237   1.350
 3834SOL    HW112401   4.324   4.155   1.393
 3834SOL    HW212402   4.414   4.289   1.418
 3835SOL     OW12403   3.646   6.037   5.360
 3835SOL    HW112404   3.674   6.128   5.391
 3835SOL    HW212405   3.710   6.004   5.290
 3836SOL     OW12406   0.455   4.869   5.799
 3836SOL    HW112407   0.522   4.904   5.734
 3836SOL    HW212408   0.371   4.922   5.792
 3837SOL     OW12409   3.933   5.161   5.266
 3837SOL    HW112410   3.859   5.112   5.219
 3837SOL    HW212411   3.929   5.142   5.364
 3838SOL     OW12412   1.475   1.126   3.155
 3838SOL    HW112413   1.490   1.035   3.116
 3838SOL    HW212414   1.431   1.184   3.086
 3839SOL     OW12415   4.623   0.783   2.877
 3839SOL    HW112416   4.620   0.859   2.812
 3839SOL    HW212417   4.530   0.760   2.906
 3840SOL     OW12418   2.490   1.682   6.171
 3840SOL    HW112419   2.514   1.585   6.166
 3840SOL    HW212420   2.552   1.728   6.234
 3841SOL     OW12421   0.779   4.334   4.031
 3841SOL    HW112422   0.865   4.331   4.082
 3841SOL    HW212423   0.703   4.316   4.093
 3842SOL     OW12424   2.304   2.429   4.212
 3842SOL    HW112425   2.279   2.461   4.303
 3842SOL    HW212426   2.363   2.496   4.167
 3843SOL     OW12427   5.617   3.658   1.024
 3843SOL    HW112428   5.672   3.635   0.944
 3843SOL    HW212429   5.641   3.597   1.100
 3844SOL     OW12430   1.439   4.477   6.715
 3844SOL    HW112431   1.501   4.441   6.785
 3844SOL    HW212432   1.366   4.529   6.759
 3845SOL     OW12433   2.316   5.959   0.006
 3845SOL    HW112434   2.244   6.028   7.015
 3845SOL    HW212435   2.355   5.934   6.941
 3846SOL     OW12436   0.482   3.327   4.426
 3846SOL    HW112437   0.389   3.365   4.426
 3846SOL    HW212438   0.527   3.350   4.513
 3847SOL     OW12439   5.553   1.943   4.181
 3847SOL    HW112440   5.468   1.946   4.233
 3847SOL    HW212441   5.551   2.013   4.109
 3848SOL     OW12442   4.896   3.367   3.144
 3848SOL    HW112443   4.989   3.378   3.179
 3848SOL    HW212444   4.898   3.305   3.065
 3849SOL     OW12445   0.511   7.010   6.938
 3849SOL    HW112446   0.424   0.035   6.931
 3849SOL    HW212447   0.515   6.938   6.868
 3850SOL     OW12448   3.250   2.889   1.051
 3850SOL    HW112449   3.331   2.887   1.110
 3850SOL    HW212450   3.170   2.861   1.104
 3851SOL     OW12451   6.449   4.897   3.718
 3851SOL    HW112452   6.368   4.840   3.733
 3851SOL    HW212453   6.519   4.844   3.670
 3852SOL     OW12454   3.644   6.699   4.241
 3852SOL    HW112455   3.672   6.785   4.198
 3852SOL    HW212456   3.553   6.674   4.210
 3853SOL     OW12457   1.611   1.914   3.385
 3853SOL    HW112458   1.616   1.842   3.316
 3853SOL    HW212459   1.600   1.872   3.475
 3854SOL     OW12460   1.099   3.122   3.184
 3854SOL    HW112461   1.102   3.091   3.089
 3854SOL    HW212462   1.187   3.104   3.227
 3855SOL     OW12463   4.020   6.438   0.507
 3855SOL    HW112464   4.007   6.343   0.478
 3855SOL    HW212465   4.095   6.443   0.572
 3856SOL     OW12466   0.766   1.635   5.839
 3856SOL    HW112467   0.831   1.584   5.782
 3856SOL    HW212468   0.706   1.689   5.780
 3857SOL     OW12469   1.311   6.466   5.718
 3857SOL    HW112470   1.349   6.420   5.799
 3857SOL    HW212471   1.354   6.428   5.635
 3858SOL     OW12472   3.325   1.319   5.624
 3858SOL    HW112473   3.266   1.305   5.545
 3858SOL    HW212474   3.320   1.239   5.684
 3859SOL     OW12475   6.226   0.962   1.089
 3859SOL    HW112476   6.158   1.030   1.116
 3859SOL    HW212477   6.286   1.000   1.020
 3860SOL     OW12478   1.696   1.267   4.490
 3860SOL    HW112479   1.615   1.277   4.547
 3860SOL    HW212480   1.681   1.309   4.401
 3861SOL     OW12481   4.581   5.944   2.779
 3861SOL    HW112482   4.645   5.989   2.718
 3861SOL    HW212483   4.537   6.012   2.837
 3862SOL     OW12484   0.969   0.454   4.428
 3862SOL    HW112485   0.945   0.402   4.346
 3862SOL    HW212486   1.062   0.432   4.455
 3863SOL     OW12487   5.928   1.595   6.649
 3863SOL    HW112488   5.985   1.607   6.568
 3863SOL    HW212489   5.888   1.683   6.674
 3864SOL     OW12490   2.484   0.734   5.055
 3864SOL    HW112491   2.429   0.781   5.124
 3864SOL    HW212492   2.462   0.636   5.056
 3865SOL     OW12493   4.142   1.676   0.556
 3865SOL    HW112494   4.133   1.696   0.459
 3865SOL    HW212495   4.174   1.582   0.568
 3866SOL     OW12496   3.668   1.422   6.628
 3866SOL    HW112497   3.718   1.366   6.694
 3866SOL    HW212498   3.655   1.514   6.665
 3867SOL     OW12499   1.234   3.967   3.406
 3867SOL    HW112500   1.300   3.992   3.477
 3867SOL    HW212501   1.232   3.867   3.396
 3868SOL     OW12502   4.150   0.382   6.828
 3868SOL    HW112503   4.189   0.306   6.880
 3868SOL    HW212504   4.177   0.374   6.732
 3869SOL     OW12505   6.425   2.965   3.559
 3869SOL    HW112506   6.447   2.906   3.636
 3869SOL    HW212507   6.509   2.991   3.512
 3870SOL     OW12508   6.652   6.558   1.842
 3870SOL    HW112509   6.665   6.657   1.850
 3870SOL    HW212510   6.663   6.530   1.746
 3871SOL     OW12511   3.175   6.978   3.325
 3871SOL    HW112512   3.259   6.924   3.313
 3871SOL    HW212513   3.120   6.938   3.398
 3872SOL     OW12514   2.914   3.319   4.237
 3872SOL    HW112515   2.927   3.369   4.152
 3872SOL    HW212516   2.975   3.356   4.307
 3873SOL     OW12517   5.273   3.899   0.858
 3873SOL    HW112518   5.309   3.900   0.951
 3873SOL    HW212519   5.180   3.863   0.859
 3874SOL     OW12520   4.152   0.950   0.443
 3874SOL    HW112521   4.094   0.957   0.524
 3874SOL    HW212522   4.174   1.042   0.410
 3875SOL     OW12523   1.853   2.519   3.581
 3875SOL    HW112524   1.872   2.615   3.561
 3875SOL    HW212525   1.899   2.461   3.514
 3876SOL     OW12526   3.601   5.364   1.203
 3876SOL    HW112527   3.561   5.443   1.250
 3876SOL    HW212528   3.560   5.280   1.239
 3877SOL     OW12529   6.521   2.698   1.277
 3877SOL    HW112530   6.608   2.724   1.317
 3877SOL    HW212531   6.490   2.612   1.318
 3878SOL     OW12532   4.892   6.358   4.560
 3878SOL    HW112533   4.940   6.443   4.579
 3878SOL    HW212534   4.878   6.308   4.646
 3879SOL     OW12535   5.639   5.223   0.922
 3879SOL    HW112536   5.672   5.293   0.985
 3879SOL    HW212537   5.716   5.185   0.871
 3880SOL     OW12538   5.103   4.159   4.542
 3880SOL    HW112539   5.067   4.177   4.633
 3880SOL    HW212540   5.045   4.093   4.495
 3881SOL     OW12541   1.337   3.635   1.823
 3881SOL    HW112542   1.353   3.542   1.788
 3881SOL    HW212543   1.361   3.638   1.920
 3882SOL     OW12544   0.199   1.141   6.663
 3882SOL    HW112545   0.256   1.206   6.713
 3882SOL    HW212546   0.110   1.133   6.708
 3883SOL     OW12547   3.910   1.274   2.592
 3883SOL    HW112548   4.004   1.289   2.622
 3883SOL    HW212549   3.879   1.353   2.539
 3884SOL     OW12550   0.555   5.759   2.515
 3884SOL    HW112551   0.535   5.809   2.599
 3884SOL    HW212552   0.471   5.713   2.482
 3885SOL     OW12553   6.643   5.679   2.778
 3885SOL    HW112554   6.636   5.599   2.837
 3885SOL    HW212555   6.583   5.751   2.812
 3886SOL     OW12556   4.385   5.873   5.271
 3886SOL    HW112557   4.313   5.821   5.318
 3886SOL    HW212558   4.472   5.857   5.317
 3887SOL     OW12559   0.731   6.816   0.074
 3887SOL    HW112560   0.681   6.870   0.142
 3887SOL    HW212561   0.754   6.875   7.019
 3888SOL     OW12562   6.626   0.209   5.039
 3888SOL    HW112563   6.619   0.191   5.137
 3888SOL    HW212564   6.595   0.128   4.988
 3889SOL     OW12565   0.013   3.391   0.290
 3889SOL    HW112566   0.106   3.358   0.305
 3889SOL    HW212567   6.976   3.314   0.266
 3890SOL     OW12568   5.782   4.920   3.608
 3890SOL    HW112569   5.784   4.822   3.587
 3890SOL    HW212570   5.692   4.944   3.644
 3891SOL     OW12571   5.310   3.914   4.377
 3891SOL    HW112572   5.342   4.001   4.415
 3891SOL    HW212573   5.211   3.917   4.365
 3892SOL     OW12574   0.288   2.633   0.738
 3892SOL    HW112575   0.319   2.585   0.820
 3892SOL    HW212576   0.189   2.650   0.746
 3893SOL     OW12577   4.095   3.708   0.437
 3893SOL    HW112578   4.150   3.683   0.517
 3893SOL    HW212579   4.074   3.805   0.441
 3894SOL     OW12580   4.711   1.189   0.149
 3894SOL    HW112581   4.806   1.157   0.149
 3894SOL    HW212582   4.658   1.138   0.216
 3895SOL     OW12583   0.829   0.365   5.750
 3895SOL    HW112584   0.873   0.301   5.813
 3895SOL    HW212585   0.875   0.361   5.661
 3896SOL     OW12586   0.623   1.116   5.929
 3896SOL    HW112587   0.613   1.038   5.991
 3896SOL    HW212588   0.537   1.167   5.926
 3897SOL     OW12589   3.916   5.517   2.471
 3897SOL    HW112590   3.881   5.611   2.476
 3897SOL    HW212591   3.854   5.457   2.520
 3898SOL     OW12592   2.600   2.710   6.062
 3898SOL    HW112593   2.676   2.655   6.029
 3898SOL    HW212594   2.536   2.727   5.988
 3899SOL     OW12595   4.798   6.695   5.674
 3899SOL    HW112596   4.832   6.789   5.671
 3899SOL    HW212597   4.873   6.632   5.657
 3900SOL     OW12598   4.674   2.644   3.668
 3900SOL    HW112599   4.621   2.580   3.724
 3900SOL    HW212600   4.760   2.602   3.641
 3901SOL     OW12601   3.346   0.936   6.323
 3901SOL    HW112602   3.348   0.853   6.268
 3901SOL    HW212603   3.339   0.912   6.420
 3902SOL     OW12604   6.684   2.913   1.831
 3902SOL    HW112605   6.605   2.908   1.770
 3902SOL    HW212606   6.760   2.861   1.792
 3903SOL     OW12607   3.561   5.941   0.490
 3903SOL    HW112608   3.559   6.041   0.482
 3903SOL    HW212609   3.630   5.915   0.558
 3904SOL     OW12610   2.256   1.388   6.084
 3904SOL    HW112611   2.336   1.342   6.047
 3904SOL    HW212612   2.264   1.395   6.183
 3905SOL     OW12613   0.105   6.907   6.606
 3905SOL    HW112614   0.060   6.981   6.557
 3905SOL    HW212615   0.073   6.905   6.701
 3906SOL     OW12616   5.519   5.983   5.115
 3906SOL    HW112617   5.573   5.973   5.032
 3906SOL    HW212618   5.544   5.911   5.180
 3907SOL     OW12619   6.076   0.850   3.491
 3907SOL    HW112620   6.107   0.865   3.397
 3907SOL    HW212621   5.981   0.881   3.500
 3908SOL     OW12622   0.933   2.534   6.820
 3908SOL    HW112623   0.903   2.443   6.850
 3908SOL    HW212624   0.867   2.603   6.848
 3909SOL     OW12625   6.220   5.949   5.299
 3909SOL    HW112626   6.269   5.864   5.318
 3909SOL    HW212627   6.228   5.971   5.202
 3910SOL     OW12628   3.109   3.906   2.944
 3910SOL    HW112629   3.116   3.891   2.846
 3910SOL    HW212630   3.032   3.855   2.981
 3911SOL     OW12631   5.489   1.636   5.080
 3911SOL    HW112632   5.550   1.716   5.085
 3911SOL    HW212633   5.395   1.665   5.100
 3912SOL     OW12634   5.261   0.754   5.297
 3912SOL    HW112635   5.285   0.709   5.382
 3912SOL    HW212636   5.277   0.852   5.305
 3913SOL     OW12637   2.654   6.456   6.055
 3913SOL    HW112638   2.562   6.415   6.056
 3913SOL    HW212639   2.645   6.556   6.059
 3914SOL     OW12640   2.716   1.008   1.645
 3914SOL    HW112641   2.716   1.100   1.683
 3914SOL    HW212642   2.736   1.012   1.547
 3915SOL     OW12643   4.909   5.531   1.392
 3915SOL    HW112644   4.843   5.604   1.372
 3915SOL    HW212645   4.976   5.565   1.458
 3916SOL     OW12646   1.045   0.081   4.134
 3916SOL    HW112647   1.073   0.168   4.094
 3916SOL    HW212648   1.021   0.095   4.230
 3917SOL     OW12649   6.905   6.054   0.065
 3917SOL    HW112650   6.836   6.090   0.002
 3917SOL    HW212651   6.860   6.002   0.138
 3918SOL     OW12652   5.373   6.090   1.541
 3918SOL    HW112653   5.421   6.004   1.525
 3918SOL    HW212654   5.362   6.104   1.640
 3919SOL     OW12655   3.737   6.539   0.185
 3919SOL    HW112656   3.831   6.571   0.202
 3919SOL    HW212657   3.723   6.528   0.087
 3920SOL     OW12658   3.162   3.271   0.806
 3920SOL    HW112659   3.239   3.325   0.773
 3920SOL    HW212660   3.140   3.199   0.740
 3921SOL     OW12661   0.449   3.569   1.595
 3921SOL    HW112662   0.370   3.546   1.540
 3921SOL    HW212663   0.475   3.664   1.578
 3922SOL     OW12664   6.753   3.564   1.930
 3922SOL    HW112665   6.826   3.627   1.955
 3922SOL    HW212666   6.706   3.534   2.013
 3923SOL     OW12667   6.943   0.696   0.064
 3923SOL    HW112668   6.975   0.758   7.015
 3923SOL    HW212669   6.991   0.716   0.149
 3924SOL     OW12670   6.039   5.021   3.303
 3924SOL    HW112671   5.995   5.009   3.213
 3924SOL    HW212672   6.049   5.118   3.322
 3925SOL     OW12673   2.726   5.450   1.281
 3925SOL    HW112674   2.821   5.457   1.251
 3925SOL    HW212675   2.701   5.353   1.291
 3926SOL     OW12676   6.525   5.206   2.979
 3926SOL    HW112677   6.511   5.274   3.052
 3926SOL    HW212678   6.464   5.128   2.995
 3927SOL     OW12679   6.584   2.636   4.105
 3927SOL    HW112680   6.649   2.683   4.166
 3927SOL    HW212681   6.523   2.704   4.064
 3928SOL     OW12682   4.036   6.042   6.228
 3928SOL    HW112683   4.111   5.981   6.253
 3928SOL    HW212684   4.073   6.132   6.204
 3929SOL     OW12685   6.995   0.825   5.227
 3929SOL    HW112686   6.994   0.851   5.130
 3929SOL    HW212687   0.066   0.820   5.259
 3930SOL     OW12688   2.805   2.038   3.711
 3930SOL    HW112689   2.888   1.985   3.696
 3930SOL    HW212690   2.829   2.133   3.730
 3931SOL     OW12691   1.423   0.559   1.451
 3931SOL    HW112692   1.434   0.460   1.465
 3931SOL    HW212693   1.463   0.584   1.363
 3932SOL     OW12694   1.744   4.782   3.276
 3932SOL    HW112695   1.830   4.781   3.327
 3932SOL    HW212696   1.754   4.726   3.193
 3933SOL     OW12697   2.024   6.570   6.856
 3933SOL    HW112698   1.953   6.499   6.853
 3933SOL    HW212699   2.079   6.566   6.773
 3934SOL     OW12700   6.739   1.192   6.998
 3934SOL    HW112701   6.794   1.133   6.939
 3934SOL    HW212702   6.667   1.236   6.944
 3935SOL     OW12703   2.920   6.377   7.001
 3935SOL    HW112704   2.879   6.459   0.019
 3935SOL    HW212705   3.014   6.368   0.008
 3936SOL     OW12706   6.999   5.394   5.528
 3936SOL    HW112707   7.001   5.430   5.622
 3936SOL    HW212708   7.011   5.469   5.463
 3937SOL     OW12709   6.856   2.118   3.612
 3937SOL    HW112710   6.810   2.032   3.588
 3937SOL    HW212711   6.831   2.144   3.705
 3938SOL     OW12712   0.504   1.896   3.810
 3938SOL    HW112713   0.521   1.984   3.765
 3938SOL    HW212714   0.435   1.846   3.758
 3939SOL     OW12715   2.556   2.416   2.640
 3939SOL    HW112716   2.600   2.356   2.572
 3939SOL    HW212717   2.458   2.423   2.620
 3940SOL     OW12718   5.120   4.953   1.182
 3940SOL    HW112719   5.024   4.972   1.163
 3940SOL    HW212720   5.172   4.959   1.097
 3941SOL     OW12721   5.094   3.422   5.832
 3941SOL    HW112722   5.033   3.431   5.910
 3941SOL    HW212723   5.081   3.333   5.788
 3942SOL     OW12724   0.586   6.846   6.732
 3942SOL    HW112725   0.585   6.752   6.765
 3942SOL    HW212726   0.563   6.847   6.634
 3943SOL     OW12727   0.087   3.303   2.953
 3943SOL    HW112728   0.034   3.339   3.029
 3943SOL    HW212729   0.025   3.266   2.883
 3944SOL     OW12730   4.511   2.559   5.145
 3944SOL    HW112731   4.434   2.568   5.208
 3944SOL    HW212732   4.496   2.482   5.083
 3945SOL     OW12733   0.422   1.760   0.348
 3945SOL    HW112734   0.498   1.793   0.293
 3945SOL    HW212735   0.376   1.837   0.392
 3946SOL     OW12736   5.837   5.298   5.306
 3946SOL    HW112737   5.829   5.397   5.291
 3946SOL    HW212738   5.817   5.278   5.402
 3947SOL     OW12739   5.404   6.309   0.800
 3947SOL    HW112740   5.308   6.311   0.828
 3947SOL    HW212741   5.413   6.255   0.716
 3948SOL     OW12742   1.164   5.171   2.388
 3948SOL    HW112743   1.072   5.138   2.408
 3948SOL    HW212744   1.179   5.259   2.432
 3949SOL     OW12745   4.774   0.446   3.241
 3949SOL    HW112746   4.728   0.358   3.247
 3949SOL    HW212747   4.708   0.519   3.258
 3950SOL     OW12748   1.865   4.156   0.665
 3950SOL    HW112749   1.875   4.253   0.639
 3950SOL    HW212750   1.787   4.117   0.617
 3951SOL     OW12751   5.270   0.140   1.194
 3951SOL    HW112752   5.290   0.191   1.278
 3951SOL    HW212753   5.348   0.081   1.172
 3952SOL     OW12754   6.298   2.819   2.446
 3952SOL    HW112755   6.242   2.759   2.389
 3952SOL    HW212756   6.276   2.802   2.542
 3953SOL     OW12757   3.670   4.808   1.536
 3953SOL    HW112758   3.697   4.714   1.513
 3953SOL    HW212759   3.672   4.864   1.453
 3954SOL     OW12760   3.994   5.226   4.838
 3954SOL    HW112761   3.989   5.281   4.922
 3954SOL    HW212762   4.081   5.243   4.792
 3955SOL     OW12763   3.181   6.210   6.818
 3955SOL    HW112764   3.174   6.224   6.720
 3955SOL    HW212765   3.090   6.195   6.857
 3956SOL     OW12766   0.864   0.705   2.833
 3956SOL    HW112767   0.905   0.765   2.902
 3956SOL    HW212768   0.776   0.743   2.804
 3957SOL     OW12769   4.964   6.466   4.166
 3957SOL    HW112770   4.945   6.519   4.084
 3957SOL    HW212771   4.879   6.429   4.203
 3958SOL     OW12772   5.815   1.136   4.800
 3958SOL    HW112773   5.832   1.043   4.832
 3958SOL    HW212774   5.894   1.193   4.822
 3959SOL     OW12775   3.750   0.420   0.718
 3959SOL    HW112776   3.832   0.478   0.730
 3959SOL    HW212777   3.765   0.332   0.763
 3960SOL     OW12778   4.840   2.136   6.440
 3960SOL    HW112779   4.828   2.059   6.378
 3960SOL    HW212780   4.919   2.190   6.411
 3961SOL     OW12781   5.469   1.603   2.750
 3961SOL    HW112782   5.396   1.662   2.785
 3961SOL    HW212783   5.537   1.659   2.703
 3962SOL     OW12784   3.037   4.003   7.002
 3962SOL    HW112785   2.977   4.071   0.022
 3962SOL    HW212786   3.128   4.008   0.020
 3963SOL     OW12787   4.903   5.518   3.709
 3963SOL    HW112788   4.891   5.458   3.788
 3963SOL    HW212789   4.962   5.594   3.733
 3964SOL     OW12790   4.992   5.378   4.007
 3964SOL    HW112791   4.949   5.441   4.071
 3964SOL    HW212792   5.088   5.402   3.995
 3965SOL     OW12793   4.943   2.728   4.897
 3965SOL    HW112794   4.844   2.736   4.903
 3965SOL    HW212795   4.982   2.728   4.989
 3966SOL     OW12796   5.177   6.302   6.299
 3966SOL    HW112797   5.216   6.323   6.389
 3966SOL    HW212798   5.153   6.388   6.253
 3967SOL     OW12799   2.087   3.480   2.711
 3967SOL    HW112800   2.089   3.405   2.644
 3967SOL    HW212801   2.180   3.514   2.725
 3968SOL     OW12802   4.497   0.119   1.006
 3968SOL    HW112803   4.512   0.021   1.020
 3968SOL    HW212804   4.409   0.145   1.046
 3969SOL     OW12805   1.502   4.086   2.344
 3969SOL    HW112806   1.553   4.016   2.394
 3969SOL    HW212807   1.404   4.078   2.364
 3970SOL     OW12808   6.173   6.189   3.167
 3970SOL    HW112809   6.119   6.268   3.140
 3970SOL    HW212810   6.213   6.205   3.257
 3971SOL     OW12811   3.124   5.430   3.394
 3971SOL    HW112812   3.218   5.402   3.375
 3971SOL    HW212813   3.079   5.358   3.447
 3972SOL     OW12814   1.281   4.092   0.787
 3972SOL    HW112815   1.232   4.178   0.780
 3972SOL    HW212816   1.379   4.109   0.776
 3973SOL     OW12817   1.673   5.587   6.304
 3973SOL    HW112818   1.664   5.642   6.221
 3973SOL    HW212819   1.585   5.546   6.327
 3974SOL     OW12820   1.986   0.261   5.321
 3974SOL    HW112821   1.988   0.216   5.410
 3974SOL    HW212822   1.967   0.193   5.250
 3975SOL     OW12823   5.168   1.276   5.196
 3975SOL    HW112824   5.222   1.286   5.279
 3975SOL    HW212825   5.186   1.187   5.154
 3976SOL     OW12826   1.279   5.827   1.759
 3976SOL    HW112827   1.349   5.766   1.796
 3976SOL    HW212828   1.323   5.904   1.714
 3977SOL     OW12829   2.615   3.857   5.911
 3977SOL    HW112830   2.525   3.872   5.871
 3977SOL    HW212831   2.644   3.938   5.962
 3978SOL     OW12832   5.772   5.396   4.725
 3978SOL    HW112833   5.799   5.389   4.821
 3978SOL    HW212834   5.712   5.319   4.701
 3979SOL     OW12835   3.406   0.272   0.066
 3979SOL    HW112836   3.429   0.366   0.041
 3979SOL    HW212837   3.490   0.222   0.086
 3980SOL     OW12838   5.719   6.147   0.624
 3980SOL    HW112839   5.756   6.158   0.716
 3980SOL    HW212840   5.762   6.213   0.563
 3981SOL     OW12841   3.403   0.239   0.526
 3981SOL    HW112842   3.408   0.219   0.624
 3981SOL    HW212843   3.369   0.332   0.514
 3982SOL     OW12844   2.346   6.887   3.399
 3982SOL    HW112845   2.361   6.887   3.300
 3982SOL    HW212846   2.424   6.843   3.444
 3983SOL     OW12847   5.154   4.853   4.079
 3983SOL    HW112848   5.208   4.818   4.156
 3983SOL    HW212849   5.132   4.950   4.095
 3984SOL     OW12850   6.578   1.349   2.424
 3984SOL    HW112851   6.524   1.295   2.489
 3984SOL    HW212852   6.647   1.401   2.473
 3985SOL     OW12853   2.616   4.623   6.685
 3985SOL    HW112854   2.519   4.632   6.663
 3985SOL    HW212855   2.656   4.549   6.631
 3986SOL     OW12856   5.115   1.628   2.411
 3986SOL    HW112857   5.182   1.691   2.450
 3986SOL    HW212858   5.064   1.584   2.484
 3987SOL     OW12859   3.824   5.102   3.236
 3987SOL    HW112860   3.811   5.161   3.156
 3987SOL    HW212861   3.921   5.091   3.254
 3988SOL     OW12862   3.399   4.469   6.826
 3988SOL    HW112863   3.412   4.530   6.904
 3988SOL    HW212864   3.474   4.483   6.761
 3989SOL     OW12865   6.875   2.937   7.012
 3989SOL    HW112866   6.830   2.887   0.064
 3989SOL    HW212867   6.952   2.883   6.977
 3990SOL     OW12868   4.533   2.156   3.033
 3990SOL    HW112869   4.602   2.085   3.022
 3990SOL    HW212870   4.442   2.115   3.032
 3991SOL     OW12871   6.339   0.751   2.685
 3991SOL    HW112872   6.320   0.706   2.597
 3991SOL    HW212873   6.438   0.749   2.702
 3992SOL     OW12874   2.956   1.589   0.352
 3992SOL    HW112875   2.975   1.493   0.375
 3992SOL    HW212876   2.980   1.605   0.256
 3993SOL     OW12877   1.339   1.922   2.306
 3993SOL    HW112878   1.245   1.942   2.335
 3993SOL    HW212879   1.386   2.007   2.282
 3994SOL     OW12880   1.592   0.145   6.088
 3994SOL    HW112881   1.623   0.174   6.179
 3994SOL    HW212882   1.531   0.067   6.097
 3995SOL     OW12883   2.605   3.390   6.084
 3995SOL    HW112884   2.603   3.296   6.051
 3995SOL    HW212885   2.676   3.441   6.033
 3996SOL     OW12886   0.728   6.903   4.573
 3996SOL    HW112887   0.708   6.887   4.670
 3996SOL    HW212888   0.748   7.000   4.559
 3997SOL     OW12889   5.310   1.416   3.493
 3997SOL    HW112890   5.308   1.342   3.560
 3997SOL    HW212891   5.395   1.468   3.503
 3998SOL     OW12892   4.343   1.158   3.634
 3998SOL    HW112893   4.377   1.117   3.549
 3998SOL    HW212894   4.362   1.096   3.710
 3999SOL     OW12895   5.515   3.304   4.163
 3999SOL    HW112896   5.530   3.309   4.064
 3999SOL    HW212897   5.490   3.211   4.188
 4000SOL     OW12898   3.465   6.925   3.329
 4000SOL    HW112899   3.554   6.900   3.292
 4000SOL    HW212900   3.446   7.021   3.311
 4001SOL     OW12901   2.370   1.658   3.393
 4001SOL    HW112902   2.272   1.673   3.408
 4001SOL    HW212903   2.398   1.572   3.435
 4002SOL     OW12904   3.017   4.050   0.320
 4002SOL    HW112905   3.050   4.123   0.380
 4002SOL    HW212906   3.094   4.009   0.272
 4003SOL     OW12907   3.659   0.134   4.220
 4003SOL    HW112908   3.566   0.164   4.239
 4003SOL    HW212909   3.723   0.209   4.239
 4004SOL     OW12910   5.141   1.750   3.805
 4004SOL    HW112911   5.182   1.662   3.781
 4004SOL    HW212912   5.148   1.813   3.727
 4005SOL     OW12913   4.994   5.467   6.927
 4005SOL    HW112914   5.020   5.412   7.007
 4005SOL    HW212915   5.051   5.442   6.849
 4006SOL     OW12916   4.363   5.639   2.535
 4006SOL    HW112917   4.435   5.602   2.477
 4006SOL    HW212918   4.309   5.705   2.483
 4007SOL     OW12919   0.227   2.891   6.840
 4007SOL    HW112920   0.221   2.936   6.751
 4007SOL    HW212921   0.153   2.824   6.848
 4008SOL     OW12922   2.782   1.976   4.606
 4008SOL    HW112923   2.815   2.047   4.542
 4008SOL    HW212924   2.735   1.905   4.554
 4009SOL     OW12925   4.311   3.584   1.524
 4009SOL    HW112926   4.371   3.517   1.570
 4009SOL    HW212927   4.367   3.646   1.470
 4010SOL     OW12928   2.656   3.047   1.188
 4010SOL    HW112929   2.576   3.095   1.151
 4010SOL    HW212930   2.630   3.001   1.273
 4011SOL     OW12931   0.402   1.150   2.048
 4011SOL    HW112932   0.388   1.152   2.147
 4011SOL    HW212933   0.359   1.068   2.011
 4012SOL     OW12934   6.349   4.589   1.861
 4012SOL    HW112935   6.266   4.587   1.916
 4012SOL    HW212936   6.417   4.528   1.902
 4013SOL     OW12937   3.184   1.581   4.953
 4013SOL    HW112938   3.114   1.561   4.885
 4013SOL    HW212939   3.273   1.589   4.908
 4014SOL     OW12940   5.184   6.432   2.715
 4014SOL    HW112941   5.137   6.499   2.657
 4014SOL    HW212942   5.245   6.479   2.778
 4015SOL     OW12943   4.971   5.034   6.359
 4015SOL    HW112944   5.068   5.034   6.334
 4015SOL    HW212945   4.916   5.027   6.276
 4016SOL     OW12946   2.768   6.268   6.236
 4016SOL    HW112947   2.722   6.341   6.184
 4016SOL    HW212948   2.734   6.179   6.206
 4017SOL     OW12949   6.939   5.959   0.885
 4017SOL    HW112950   6.871   5.885   0.884
 4017SOL    HW212951   6.955   5.987   0.980
 4018SOL     OW12952   3.670   6.101   2.686
 4018SOL    HW112953   3.754   6.135   2.728
 4018SOL    HW212954   3.630   6.172   2.628
 4019SOL     OW12955   5.063   4.367   3.574
 4019SOL    HW112956   5.093   4.306   3.500
 4019SOL    HW212957   4.993   4.429   3.539
 4020SOL     OW12958   4.865   1.797   5.050
 4020SOL    HW112959   4.874   1.882   5.102
 4020SOL    HW212960   4.930   1.798   4.974
 4021SOL     OW12961   3.789   4.997   5.825
 4021SOL    HW112962   3.727   4.971   5.899
 4021SOL    HW212963   3.881   4.961   5.845
 4022SOL     OW12964   5.265   1.694   6.574
 4022SOL    HW112965   5.255   1.625   6.502
 4022SOL    HW212966   5.257   1.785   6.533
 4023SOL     OW12967   6.337   1.578   4.664
 4023SOL    HW112968   6.267   1.619   4.605
 4023SOL    HW212969   6.408   1.537   4.607
 4024SOL     OW12970   3.589   6.741   3.649
 4024SOL    HW112971   3.547   6.829   3.628
 4024SOL    HW212972   3.677   6.756   3.694
 4025SOL     OW12973   0.489   4.123   2.700
 4025SOL    HW112974   0.527   4.144   2.611
 4025SOL    HW212975   0.553   4.066   2.752
 4026SOL     OW12976   5.849   5.839   4.083
 4026SOL    HW112977   5.942   5.828   4.118
 4026SOL    HW212978   5.783   5.805   4.150
 4027SOL     OW12979   3.571   4.088   1.984
 4027SOL    HW112980   3.525   4.163   2.031
 4027SOL    HW212981   3.591   4.115   1.890
 4028SOL     OW12982   1.753   1.997   4.468
 4028SOL    HW112983   1.702   2.077   4.438
 4028SOL    HW212984   1.740   1.922   4.403
 4029SOL     OW12985   2.899   4.131   5.851
 4029SOL    HW112986   2.838   4.098   5.924
 4029SOL    HW212987   2.881   4.081   5.767
 4030SOL     OW12988   1.002   2.244   5.472
 4030SOL    HW112989   0.990   2.198   5.384
 4030SOL    HW212990   0.934   2.210   5.537
 4031SOL     OW12991   4.740   5.347   3.900
 4031SOL    HW112992   4.832   5.335   3.937
 4031SOL    HW212993   4.722   5.444   3.887
 4032SOL     OW12994   6.292   6.539   4.092
 4032SOL    HW112995   6.304   6.616   4.029
 4032SOL    HW212996   6.370   6.478   4.086
 4033SOL     OW12997   3.007   3.913   4.474
 4033SOL    HW112998   2.986   3.935   4.379
 4033SOL    HW212999   3.054   3.990   4.517
 4034SOL     OW13000   6.345   1.192   4.596
 4034SOL    HW113001   6.402   1.274   4.603
 4034SOL    HW213002   6.255   1.218   4.560
 4035SOL     OW13003   0.568   4.721   0.031
 4035SOL    HW113004   0.552   4.623   0.046
 4035SOL    HW213005   0.587   4.765   0.118
 4036SOL     OW13006   6.181   6.113   2.681
 4036SOL    HW113007   6.175   6.197   2.627
 4036SOL    HW213008   6.273   6.103   2.718
 4037SOL     OW13009   1.393   3.711   6.178
 4037SOL    HW113010   1.413   3.717   6.080
 4037SOL    HW213011   1.314   3.767   6.199
 4038SOL     OW13012   4.958   4.389   2.824
 4038SOL    HW113013   5.046   4.395   2.870
 4038SOL    HW213014   4.924   4.480   2.803
 4039SOL     OW13015   5.174   5.794   0.549
 4039SOL    HW113016   5.127   5.840   0.624
 4039SOL    HW213017   5.273   5.798   0.564
 4040SOL     OW13018   2.934   0.584   1.332
 4040SOL    HW113019   2.884   0.503   1.363
 4040SOL    HW213020   2.868   0.652   1.298
 4041SOL     OW13021   1.176   6.054   2.984
 4041SOL    HW113022   1.143   6.147   2.967
 4041SOL    HW213023   1.230   6.053   3.068
 4042SOL     OW13024   6.189   5.581   2.126
 4042SOL    HW113025   6.090   5.576   2.108
 4042SOL    HW213026   6.227   5.658   2.075
 4043SOL     OW13027   5.060   2.167   2.530
 4043SOL    HW113028   5.056   2.205   2.437
 4043SOL    HW213029   4.996   2.091   2.537
 4044SOL     OW13030   6.010   0.401   3.130
 4044SOL    HW113031   6.104   0.400   3.163
 4044SOL    HW213032   5.957   0.468   3.182
 4045SOL     OW13033   2.068   4.907   6.835
 4045SOL    HW113034   2.159   4.947   6.825
 4045SOL    HW213035   2.073   4.827   6.896
 4046SOL     OW13036   0.792   2.127   1.957
 4046SOL    HW113037   0.706   2.121   2.007
 4046SOL    HW213038   0.777   2.178   1.872
 4047SOL     OW13039   3.265   3.566   1.644
 4047SOL    HW113040   3.183   3.599   1.597
 4047SOL    HW213041   3.239   3.497   1.712
 4048SOL     OW13042   5.459   1.183   1.236
 4048SOL    HW113043   5.470   1.192   1.334
 4048SOL    HW213044   5.515   1.251   1.189
 4049SOL     OW13045   5.818   6.975   5.618
 4049SOL    HW113046   5.889   6.910   5.644
 4049SOL    HW213047   5.746   6.928   5.568
 4050SOL     OW13048   1.756   6.314   0.252
 4050SOL    HW113049   1.794   6.392   0.303
 4050SOL    HW213050   1.660   6.332   0.231
 4051SOL     OW13051   3.021   4.895   0.482
 4051SOL    HW113052   3.003   4.909   0.384
 4051SOL    HW213053   2.964   4.957   0.535
 4052SOL     OW13054   0.323   0.661   0.216
 4052SOL    HW113055   0.319   0.713   0.130
 4052SOL    HW213056   0.350   0.567   0.196
 4053SOL     OW13057   3.323   5.102   3.773
 4053SOL    HW113058   3.276   5.080   3.858
 4053SOL    HW213059   3.417   5.068   3.776
 4054SOL     OW13060   3.301   2.413   0.807
 4054SOL    HW113061   3.287   2.423   0.906
 4054SOL    HW213062   3.289   2.502   0.763
 4055SOL     OW13063   2.953   2.657   6.373
 4055SOL    HW113064   2.904   2.725   6.319
 4055SOL    HW213065   3.032   2.624   6.321
 4056SOL     OW13066   3.696   2.818   6.787
 4056SOL    HW113067   3.602   2.790   6.807
 4056SOL    HW213068   3.697   2.911   6.750
 4057SOL     OW13069   4.832   3.346   6.718
 4057SOL    HW113070   4.805   3.379   6.809
 4057SOL    HW213071   4.915   3.394   6.688
 4058SOL     OW13072   2.335   1.048   5.094
 4058SOL    HW113073   2.302   1.002   5.176
 4058SOL    HW213074   2.267   1.114   5.062
 4059SOL     OW13075   1.831   1.926   4.709
 4059SOL    HW113076   1.890   1.846   4.701
 4059SOL    HW213077   1.803   1.956   4.618
 4060SOL     OW13078   4.202   4.717   3.929
 4060SOL    HW113079   4.275   4.670   3.980
 4060SOL    HW213080   4.136   4.756   3.994
 4061SOL     OW13081   3.471   4.460   1.688
 4061SOL    HW113082   3.501   4.536   1.746
 4061SOL    HW213083   3.371   4.462   1.681
 4062SOL     OW13084   3.122   1.145   2.634
 4062SOL    HW113085   3.054   1.180   2.569
 4062SOL    HW213086   3.110   1.192   2.722
 4063SOL     OW13087   3.130   5.442   5.927
 4063SOL    HW113088   3.099   5.524   5.974
 4063SOL    HW213089   3.109   5.449   5.830
 4064SOL     OW13090   0.640   0.245   2.898
 4064SOL    HW113091   0.708   0.198   2.841
 4064SOL    HW213092   0.664   0.342   2.904
 4065SOL     OW13093   6.853   6.901   0.886
 4065SOL    HW113094   6.893   6.854   0.964
 4065SOL    HW213095   6.784   6.842   0.844
 4066SOL     OW13096   5.630   3.997   1.779
 4066SOL    HW113097   5.686   4.062   1.728
 4066SOL    HW213098   5.546   4.041   1.809
 4067SOL     OW13099   5.575   1.199   2.939
 4067SOL    HW113100   5.624   1.239   3.016
 4067SOL    HW213101   5.631   1.203   2.857
 4068SOL     OW13102   5.721   0.570   4.034
 4068SOL    HW113103   5.635   0.550   3.988
 4068SOL    HW213104   5.784   0.493   4.021
 4069SOL     OW13105   5.534   4.866   1.062
 4069SOL    HW113106   5.543   4.931   1.137
 4069SOL    HW213107   5.625   4.844   1.026
 4070SOL     OW13108   2.103   3.715   3.048
 4070SOL    HW113109   2.090   3.616   3.037
 4070SOL    HW213110   2.110   3.736   3.146
 4071SOL     OW13111   1.520   0.451   4.361
 4071SOL    HW113112   1.570   0.396   4.428
 4071SOL    HW213113   1.464   0.392   4.303
 4072SOL     OW13114   1.344   0.013   4.279
 4072SOL    HW113115   1.405   6.960   4.300
 4072SOL    HW213116   1.278   7.008   4.209
 4073SOL     OW13117   2.782   5.697   6.265
 4073SOL    HW113118   2.857   5.716   6.328
 4073SOL    HW213119   2.737   5.611   6.292
 4074SOL     OW13120   0.872   2.724   1.089
 4074SOL    HW113121   0.818   2.650   1.049
 4074SOL    HW213122   0.814   2.782   1.145
 4075SOL     OW13123   4.673   1.066   3.131
 4075SOL    HW113124   4.741   1.127   3.171
 4075SOL    HW213125   4.680   0.975   3.172
 4076SOL     OW13126   1.781   3.453   4.466
 4076SOL    HW113127   1.837   3.527   4.429
 4076SOL    HW213128   1.704   3.434   4.405
 4077SOL     OW13129   3.499   0.977   6.972
 4077SOL    HW113130   3.497   0.979   0.049
 4077SOL    HW213131   3.568   0.911   6.942
 4078SOL     OW13132   6.182   4.038   1.491
 4078SOL    HW113133   6.089   4.006   1.473
 4078SOL    HW213134   6.190   4.134   1.464
 4079SOL     OW13135   0.843   1.095   3.414
 4079SOL    HW113136   0.795   1.023   3.364
 4079SOL    HW213137   0.912   1.053   3.473
 4080SOL     OW13138   3.055   3.603   1.468
 4080SOL    HW113139   3.096   3.675   1.411
 4080SOL    HW213140   3.067   3.515   1.423
 4081SOL     OW13141   2.164   1.625   5.368
 4081SOL    HW113142   2.200   1.715   5.344
 4081SOL    HW213143   2.141   1.623   5.465
 4082SOL     OW13144   1.047   2.613   5.056
 4082SOL    HW113145   1.088   2.591   5.145
 4082SOL    HW213146   1.120   2.641   4.992
 4083SOL     OW13147   5.611   4.960   3.314
 4083SOL    HW113148   5.662   4.987   3.396
 4083SOL    HW213149   5.659   4.885   3.268
 4084SOL     OW13150   4.531   1.655   3.589
 4084SOL    HW113151   4.560   1.736   3.640
 4084SOL    HW213152   4.490   1.684   3.502
 4085SOL     OW13153   2.793   5.698   2.203
 4085SOL    HW113154   2.810   5.615   2.149
 4085SOL    HW213155   2.697   5.722   2.197
 4086SOL     OW13156   6.663   5.695   6.610
 4086SOL    HW113157   6.679   5.738   6.699
 4086SOL    HW213158   6.742   5.639   6.586
 4087SOL     OW13159   2.277   6.817   2.670
 4087SOL    HW113160   2.298   6.861   2.758
 4087SOL    HW213161   2.253   6.721   2.686
 4088SOL     OW13162   0.249   1.217   5.664
 4088SOL    HW113163   0.326   1.220   5.599
 4088SOL    HW213164   0.208   1.308   5.671
 4089SOL     OW13165   0.157   6.742   3.173
 4089SOL    HW113166   0.146   6.821   3.114
 4089SOL    HW213167   0.253   6.733   3.200
 4090SOL     OW13168   2.364   6.989   5.370
 4090SOL    HW113169   2.447   6.944   5.335
 4090SOL    HW213170   2.287   6.969   5.308
 4091SOL     OW13171   2.288   5.671   1.085
 4091SOL    HW113172   2.302   5.717   1.172
 4091SOL    HW213173   2.376   5.640   1.049
 4092SOL     OW13174   4.900   3.487   4.470
 4092SOL    HW113175   4.804   3.514   4.458
 4092SOL    HW213176   4.932   3.519   4.559
 4093SOL     OW13177   5.109   5.807   2.890
 4093SOL    HW113178   5.120   5.709   2.910
 4093SOL    HW213179   5.022   5.822   2.843
 4094SOL     OW13180   0.042   5.566   6.808
 4094SOL    HW113181   0.056   5.470   6.833
 4094SOL    HW213182   0.008   5.617   6.888
 4095SOL     OW13183   0.240   4.890   0.301
 4095SOL    HW113184   0.159   4.901   0.360
 4095SOL    HW213185   0.220   4.928   0.210
 4096SOL     OW13186   1.953   1.826   6.515
 4096SOL    HW113187   1.879   1.856   6.455
 4096SOL    HW213188   1.958   1.885   6.595
 4097SOL     OW13189   0.365   4.309   5.154
 4097SOL    HW113190   0.286   4.276   5.206
 4097SOL    HW213191   0.449   4.269   5.191
 4098SOL     OW13192   2.381   5.208   3.068
 4098SOL    HW113193   2.420   5.293   3.104
 4098SOL    HW213194   2.455   5.147   3.040
 4099SOL     OW13195   4.343   4.489   5.761
 4099SOL    HW113196   4.314   4.583   5.783
 4099SOL    HW213197   4.296   4.425   5.822
 4100SOL     OW13198   1.699   0.999   3.627
 4100SOL    HW113199   1.619   0.951   3.591
 4100SOL    HW213200   1.758   1.027   3.551
 4101SOL     OW13201   6.220   0.593   0.011
 4101SOL    HW113202   6.156   0.620   0.082
 4101SOL    HW213203   6.310   0.574   0.052
 4102SOL     OW13204   1.898   0.686   7.009
 4102SOL    HW113205   1.947   0.668   6.924
 4102SOL    HW213206   1.958   0.669   0.064
 4103SOL     OW13207   1.503   6.931   1.770
 4103SOL    HW113208   1.548   7.002   1.823
 4103SOL    HW213209   1.526   6.842   1.807
 4104SOL     OW13210   0.336   5.655   3.759
 4104SOL    HW113211   0.367   5.601   3.837
 4104SOL    HW213212   0.407   5.658   3.689
 4105SOL     OW13213   4.443   1.386   0.980
 4105SOL    HW113214   4.361   1.352   0.935
 4105SOL    HW213215   4.512   1.314   0.985
 4106SOL     OW13216   0.135   1.755   4.028
 4106SOL    HW113217   0.077   1.795   3.957
 4106SOL    HW213218   0.163   1.663   4.000
 4107SOL     OW13219   0.253   6.224   6.485
 4107SOL    HW113220   0.324   6.291   6.467
 4107SOL    HW213221   0.183   6.228   6.413
 4108SOL     OW13222   6.941   5.240   4.011
 4108SOL    HW113223   6.856   5.234   4.064
 4108SOL    HW213224   7.013   5.279   4.067
 4109SOL     OW13225   6.130   5.907   3.316
 4109SOL    HW113226   6.180   5.857   3.245
 4109SOL    HW213227   6.120   6.002   3.288
 4110SOL     OW13228   5.016   3.489   0.106
 4110SOL    HW113229   4.935   3.442   0.139
 4110SOL    HW213230   5.057   3.437   0.031
 4111SOL     OW13231   6.953   4.270   5.250
 4111SOL    HW113232   6.888   4.343   5.229
 4111SOL    HW213233   0.001   4.305   5.311
 4112SOL     OW13234   4.342   0.518   5.246
 4112SOL    HW113235   4.244   0.499   5.249
 4112SOL    HW213236   4.357   0.609   5.208
 4113SOL     OW13237   4.995   4.282   4.826
 4113SOL    HW113238   5.089   4.269   4.856
 4113SOL    HW213239   4.983   4.376   4.793
 4114SOL     OW13240   6.598   1.366   3.004
 4114SOL    HW113241   6.568   1.462   3.006
 4114SOL    HW213242   6.522   1.307   3.030
 4115SOL     OW13243   3.068   4.914   3.666
 4115SOL    HW113244   3.009   4.983   3.708
 4115SOL    HW213245   3.162   4.929   3.695
 4116SOL     OW13246   5.210   2.726   3.393
 4116SOL    HW113247   5.290   2.727   3.334
 4116SOL    HW213248   5.135   2.679   3.347
 4117SOL     OW13249   1.097   2.578   2.521
 4117SOL    HW113250   1.042   2.560   2.602
 4117SOL    HW213251   1.194   2.566   2.543
 4118SOL     OW13252   6.836   6.237   6.279
 4118SOL    HW113253   6.749   6.271   6.244
 4118SOL    HW213254   6.841   6.254   6.378
 4119SOL     OW13255   1.918   0.970   3.152
 4119SOL    HW113256   1.857   0.962   3.231
 4119SOL    HW213257   1.883   1.040   3.090
 4120SOL     OW13258   2.048   1.075   6.473
 4120SOL    HW113259   2.023   1.008   6.403
 4120SOL    HW213260   2.036   1.168   6.435
 4121SOL     OW13261   6.900   6.843   2.072
 4121SOL    HW113262   6.842   6.829   1.992
 4121SOL    HW213263   6.845   6.878   2.148
 4122SOL     OW13264   0.576   4.870   4.215
 4122SOL    HW113265   0.606   4.782   4.252
 4122SOL    HW213266   0.605   4.944   4.276
 4123SOL     OW13267   3.733   4.922   2.710
 4123SOL    HW113268   3.636   4.915   2.731
 4123SOL    HW213269   3.747   4.911   2.611
 4124SOL     OW13270   6.250   5.811   0.756
 4124SOL    HW113271   6.239   5.827   0.854
 4124SOL    HW213272   6.161   5.820   0.711
 4125SOL     OW13273   5.434   2.246   2.032
 4125SOL    HW113274   5.439   2.335   2.078
 4125SOL    HW213275   5.396   2.257   1.941
 4126SOL     OW13276   1.105   2.351   2.112
 4126SOL    HW113277   1.032   2.415   2.134
 4126SOL    HW213278   1.132   2.364   2.016
 4127SOL     OW13279   3.794   2.169   4.247
 4127SOL    HW113280   3.819   2.074   4.269
 4127SOL    HW213281   3.723   2.200   4.309
 4128SOL     OW13282   0.761   3.403   1.071
 4128SOL    HW113283   0.726   3.472   1.135
 4128SOL    HW213284   0.857   3.386   1.091
 4129SOL     OW13285   2.677   2.899   0.782
 4129SOL    HW113286   2.583   2.874   0.804
 4129SOL    HW213287   2.700   2.866   0.690
 4130SOL     OW13288   6.131   3.092   1.188
 4130SOL    HW113289   6.199   3.037   1.237
 4130SOL    HW213290   6.087   3.155   1.252
 4131SOL     OW13291   4.775   0.874   2.035
 4131SOL    HW113292   4.862   0.833   2.007
 4131SOL    HW213293   4.787   0.973   2.046
 4132SOL     OW13294   6.570   3.929   4.718
 4132SOL    HW113295   6.506   3.996   4.757
 4132SOL    HW213296   6.658   3.937   4.765
 4133SOL     OW13297   5.931   6.659   1.908
 4133SOL    HW113298   5.881   6.709   1.838
 4133SOL    HW213299   6.028   6.684   1.904
 4134SOL     OW13300   2.295   2.898   1.343
 4134SOL    HW113301   2.298   2.803   1.312
 4134SOL    HW213302   2.385   2.925   1.377
 4135SOL     OW13303   6.943   1.243   2.141
 4135SOL    HW113304   7.017   1.270   2.203
 4135SOL    HW213305   6.866   1.209   2.194
 4136SOL     OW13306   0.926   4.116   1.974
 4136SOL    HW113307   0.952   4.203   2.017
 4136SOL    HW213308   0.826   4.113   1.965
 4137SOL     OW13309   1.656   2.921   0.442
 4137SOL    HW113310   1.736   2.874   0.403
 4137SOL    HW213311   1.588   2.853   0.470
 4138SOL     OW13312   4.212   6.203   1.031
 4138SOL    HW113313   4.219   6.303   1.035
 4138SOL    HW213314   4.181   6.168   1.120
 4139SOL     OW13315   1.798   1.853   2.872
 4139SOL    HW113316   1.829   1.760   2.847
 4139SOL    HW213317   1.877   1.907   2.899
 4140SOL     OW13318   2.289   2.583   4.432
 4140SOL    HW113319   2.260   2.677   4.414
 4140SOL    HW213320   2.342   2.580   4.517
 4141SOL     OW13321   4.343   0.303   0.019
 4141SOL    HW113322   4.323   0.225   0.079
 4141SOL    HW213323   4.355   0.385   0.075
 4142SOL     OW13324   6.593   4.285   2.984
 4142SOL    HW113325   6.640   4.282   2.895
 4142SOL    HW213326   6.568   4.380   3.005
 4143SOL     OW13327   5.853   3.184   0.668
 4143SOL    HW113328   5.779   3.119   0.684
 4143SOL    HW213329   5.931   3.161   0.726
 4144SOL     OW13330   5.768   2.065   0.438
 4144SOL    HW113331   5.736   2.158   0.422
 4144SOL    HW213332   5.706   2.019   0.502
 4145SOL     OW13333   0.200   6.503   0.940
 4145SOL    HW113334   0.222   6.409   0.965
 4145SOL    HW213335   0.122   6.534   0.995
 4146SOL     OW13336   5.734   6.417   3.584
 4146SOL    HW113337   5.712   6.324   3.553
 4146SOL    HW213338   5.820   6.447   3.541
 4147SOL     OW13339   4.878   4.210   5.375
 4147SOL    HW113340   4.910   4.188   5.283
 4147SOL    HW213341   4.902   4.135   5.437
 4148SOL     OW13342   3.006   0.792   5.488
 4148SOL    HW113343   2.951   0.834   5.416
 4148SOL    HW213344   3.028   0.859   5.558
 4149SOL     OW13345   1.988   3.278   0.883
 4149SOL    HW113346   1.892   3.257   0.899
 4149SOL    HW213347   2.039   3.268   0.969
 4150SOL     OW13348   6.056   2.435   6.301
 4150SOL    HW113349   6.012   2.408   6.216
 4150SOL    HW213350   6.002   2.508   6.345
 4151SOL     OW13351   2.419   6.829   4.803
 4151SOL    HW113352   2.502   6.801   4.853
 4151SOL    HW213353   2.411   6.773   4.720
 4152SOL     OW13354   2.954   5.638   1.886
 4152SOL    HW113355   3.022   5.633   1.814
 4152SOL    HW213356   2.943   5.734   1.914
 4153SOL     OW13357   6.737   4.940   1.580
 4153SOL    HW113358   6.692   4.962   1.666
 4153SOL    HW213359   6.668   4.926   1.509
 4154SOL     OW13360   0.535   5.801   5.166
 4154SOL    HW113361   0.539   5.701   5.170
 4154SOL    HW213362   0.628   5.838   5.160
 4155SOL     OW13363   0.823   1.978   1.324
 4155SOL    HW113364   0.815   1.999   1.227
 4155SOL    HW213365   0.893   1.908   1.337
 4156SOL     OW13366   6.965   4.894   5.101
 4156SOL    HW113367   6.964   4.850   5.191
 4156SOL    HW213368   6.871   4.914   5.073
 4157SOL     OW13369   6.694   6.289   1.904
 4157SOL    HW113370   6.689   6.389   1.900
 4157SOL    HW213371   6.765   6.262   1.969
 4158SOL     OW13372   2.041   2.489   1.857
 4158SOL    HW113373   2.050   2.579   1.901
 4158SOL    HW213374   2.009   2.422   1.924
 4159SOL     OW13375   2.793   1.442   3.177
 4159SOL    HW113376   2.716   1.483   3.227
 4159SOL    HW213377   2.787   1.343   3.181
 4160SOL     OW13378   6.557   0.033   0.040
 4160SOL    HW113379   6.656   0.043   0.040
 4160SOL    HW213380   6.516   0.096   6.998
 4161SOL     OW13381   2.243   1.747   1.425
 4161SOL    HW113382   2.340   1.726   1.436
 4161SOL    HW213383   2.211   1.715   1.336
 4162SOL     OW13384   6.464   5.874   1.128
 4162SOL    HW113385   6.520   5.871   1.212
 4162SOL    HW213386   6.428   5.783   1.109
 4163SOL     OW13387   4.252   6.749   1.283
 4163SOL    HW113388   4.259   6.650   1.294
 4163SOL    HW213389   4.342   6.785   1.255
 4164SOL     OW13390   6.860   6.528   5.009
 4164SOL    HW113391   6.825   6.434   5.010
 4164SOL    HW213392   6.823   6.579   5.086
 4165SOL     OW13393   3.902   1.146   5.763
 4165SOL    HW113394   3.979   1.109   5.712
 4165SOL    HW213395   3.897   1.103   5.853
 4166SOL     OW13396   5.728   0.623   2.620
 4166SOL    HW113397   5.680   0.537   2.603
 4166SOL    HW213398   5.826   0.607   2.618
 4167SOL     OW13399   3.303   4.940   5.839
 4167SOL    HW113400   3.330   4.846   5.820
 4167SOL    HW213401   3.341   4.968   5.928
 4168SOL     OW13402   6.712   4.671   0.278
 4168SOL    HW113403   6.704   4.647   0.375
 4168SOL    HW213404   6.690   4.591   0.222
 4169SOL     OW13405   5.246   4.176   4.894
 4169SOL    HW113406   5.320   4.110   4.911
 4169SOL    HW213407   5.285   4.267   4.882
 4170SOL     OW13408   4.887   2.944   4.709
 4170SOL    HW113409   4.901   3.039   4.737
 4170SOL    HW213410   4.823   2.900   4.772
 4171SOL     OW13411   1.590   4.027   1.337
 4171SOL    HW113412   1.688   4.042   1.341
 4171SOL    HW213413   1.560   3.972   1.416
 4172SOL     OW13414   3.433   3.646   0.866
 4172SOL    HW113415   3.412   3.619   0.960
 4172SOL    HW213416   3.519   3.698   0.865
 4173SOL     OW13417   4.502   2.850   5.259
 4173SOL    HW113418   4.587   2.878   5.305
 4173SOL    HW213419   4.512   2.756   5.225
 4174SOL     OW13420   4.888   0.343   4.343
 4174SOL    HW113421   4.924   0.301   4.426
 4174SOL    HW213422   4.927   0.298   4.262
 4175SOL     OW13423   1.667   4.377   6.293
 4175SOL    HW113424   1.717   4.330   6.366
 4175SOL    HW213425   1.732   4.409   6.224
 4176SOL     OW13426   5.113   6.691   0.126
 4176SOL    HW113427   5.153   6.639   0.051
 4176SOL    HW213428   5.079   6.628   0.196
 4177SOL     OW13429   4.676   4.855   4.856
 4177SOL    HW113430   4.702   4.869   4.761
 4177SOL    HW213431   4.583   4.817   4.861
 4178SOL     OW13432   3.303   5.906   2.303
 4178SOL    HW113433   3.321   5.909   2.402
 4178SOL    HW213434   3.262   5.993   2.274
 4179SOL     OW13435   5.010   3.232   4.397
 4179SOL    HW113436   5.094   3.234   4.342
 4179SOL    HW213437   4.992   3.324   4.433
 4180SOL     OW13438   5.608   3.336   0.729
 4180SOL    HW113439   5.704   3.308   0.723
 4180SOL    HW213440   5.603   3.435   0.740
 4181SOL     OW13441   5.231   0.365   5.796
 4181SOL    HW113442   5.327   0.388   5.777
 4181SOL    HW213443   5.201   0.414   5.878
 4182SOL     OW13444   0.778   5.903   4.047
 4182SOL    HW113445   0.722   5.858   4.117
 4182SOL    HW213446   0.845   5.962   4.091
 4183SOL     OW13447   2.327   1.055   1.934
 4183SOL    HW113448   2.259   1.010   1.875
 4183SOL    HW213449   2.403   0.992   1.951
 4184SOL     OW13450   3.346   6.781   2.620
 4184SOL    HW113451   3.341   6.847   2.545
 4184SOL    HW213452   3.389   6.824   2.700
 4185SOL     OW13453   0.178   3.792   3.462
 4185SOL    HW113454   0.273   3.819   3.441
 4185SOL    HW213455   0.128   3.778   3.376
 4186SOL     OW13456   2.035   5.650   6.570
 4186SOL    HW113457   2.076   5.604   6.649
 4186SOL    HW213458   2.067   5.606   6.486
 4187SOL     OW13459   2.391   3.313   0.142
 4187SOL    HW113460   2.322   3.272   0.202
 4187SOL    HW213461   2.354   3.320   0.049
 4188SOL     OW13462   5.482   0.469   6.021
 4188SOL    HW113463   5.482   0.369   6.027
 4188SOL    HW213464   5.526   0.496   5.935
 4189SOL     OW13465   4.849   5.633   3.465
 4189SOL    HW113466   4.882   5.583   3.545
 4189SOL    HW213467   4.830   5.568   3.391
 4190SOL     OW13468   6.947   6.487   1.098
 4190SOL    HW113469   6.916   6.448   1.012
 4190SOL    HW213470   6.978   6.414   1.159
 4191SOL     OW13471   4.865   3.830   5.902
 4191SOL    HW113472   4.809   3.883   5.966
 4191SOL    HW213473   4.812   3.809   5.820
 4192SOL     OW13474   1.164   1.401   2.199
 4192SOL    HW113475   1.228   1.384   2.274
 4192SOL    HW213476   1.115   1.316   2.178
 4193SOL     OW13477   5.713   0.659   0.456
 4193SOL    HW113478   5.652   0.737   0.447
 4193SOL    HW213479   5.747   0.632   0.365
 4194SOL     OW13480   3.809   0.581   5.532
 4194SOL    HW113481   3.842   0.668   5.569
 4194SOL    HW213482   3.775   0.524   5.606
 4195SOL     OW13483   4.760   6.417   1.787
 4195SOL    HW113484   4.837   6.423   1.850
 4195SOL    HW213485   4.703   6.338   1.811
 4196SOL     OW13486   6.710   2.858   3.666
 4196SOL    HW113487   6.748   2.765   3.667
 4196SOL    HW213488   6.699   2.889   3.572
 4197SOL     OW13489   3.924   6.272   5.948
 4197SOL    HW113490   3.862   6.343   5.981
 4197SOL    HW213491   3.870   6.200   5.903
 4198SOL     OW13492   6.497   0.458   2.024
 4198SOL    HW113493   6.511   0.446   2.123
 4198SOL    HW213494   6.531   0.548   1.997
 4199SOL     OW13495   1.554   3.732   6.399
 4199SOL    HW113496   1.509   3.707   6.314
 4199SOL    HW213497   1.602   3.819   6.387
 4200SOL     OW13498   3.596   0.951   4.975
 4200SOL    HW113499   3.613   1.034   4.923
 4200SOL    HW213500   3.629   0.872   4.923
 4201SOL     OW13501   6.260   6.897   3.425
 4201SOL    HW113502   6.188   6.919   3.358
 4201SOL    HW213503   6.319   6.977   3.437
 4202SOL     OW13504   3.619   5.608   6.813
 4202SOL    HW113505   3.665   5.674   6.873
 4202SOL    HW213506   3.685   5.542   6.780
 4203SOL     OW13507   5.128   5.089   0.566
 4203SOL    HW113508   5.165   5.084   0.659
 4203SOL    HW213509   5.048   5.029   0.558
 4204SOL     OW13510   3.761   3.331   5.689
 4204SOL    HW113511   3.685   3.352   5.750
 4204SOL    HW213512   3.769   3.403   5.620
 4205SOL     OW13513   3.697   5.845   4.891
 4205SOL    HW113514   3.621   5.893   4.934
 4205SOL    HW213515   3.666   5.756   4.858
 4206SOL     OW13516   0.936   1.299   5.159
 4206SOL    HW113517   0.877   1.225   5.192
 4206SOL    HW213518   0.982   1.269   5.075
 4207SOL     OW13519   1.876   2.034   1.303
 4207SOL    HW113520   1.797   2.045   1.242
 4207SOL    HW213521   1.860   2.084   1.388
 4208SOL     OW13522   1.624   4.556   5.279
 4208SOL    HW113523   1.577   4.603   5.204
 4208SOL    HW213524   1.591   4.462   5.285
 4209SOL     OW13525   6.890   5.966   2.893
 4209SOL    HW113526   6.873   5.871   2.919
 4209SOL    HW213527   6.868   6.025   2.970
 4210SOL     OW13528   3.772   3.166   4.590
 4210SOL    HW113529   3.781   3.068   4.578
 4210SOL    HW213530   3.771   3.212   4.501
 4211SOL     OW13531   3.495   1.739   5.176
 4211SOL    HW113532   3.578   1.693   5.143
 4211SOL    HW213533   3.424   1.672   5.193
 4212SOL     OW13534   0.247   0.983   3.462
 4212SOL    HW113535   0.333   0.944   3.430
 4212SOL    HW213536   0.174   0.961   3.397
 4213SOL     OW13537   2.949   1.021   3.267
 4213SOL    HW113538   3.042   1.059   3.265
 4213SOL    HW213539   2.939   0.962   3.347
 4214SOL     OW13540   0.626   5.579   4.619
 4214SOL    HW113541   0.625   5.624   4.708
 4214SOL    HW213542   0.650   5.482   4.630
 4215SOL     OW13543   4.982   6.635   5.377
 4215SOL    HW113544   5.008   6.731   5.371
 4215SOL    HW213545   5.056   6.578   5.342
 4216SOL     OW13546   1.591   0.687   2.662
 4216SOL    HW113547   1.678   0.643   2.642
 4216SOL    HW213548   1.606   0.766   2.721
 4217SOL     OW13549   1.039   0.097   1.674
 4217SOL    HW113550   1.076   0.021   1.728
 4217SOL    HW213551   1.103   0.173   1.676
 4218SOL     OW13552   3.395   1.151   1.309
 4218SOL    HW113553   3.321   1.129   1.246
 4218SOL    HW213554   3.464   1.079   1.306
 4219SOL     OW13555   4.499   6.159   4.651
 4219SOL    HW113556   4.496   6.189   4.555
 4219SOL    HW213557   4.591   6.126   4.673
 4220SOL     OW13558   5.427   2.112   1.687
 4220SOL    HW113559   5.486   2.083   1.762
 4220SOL    HW213560   5.365   2.183   1.719
 4221SOL     OW13561   6.160   5.359   0.005
 4221SOL    HW113562   6.136   5.264   7.009
 4221SOL    HW213563   6.253   5.364   0.041
 4222SOL     OW13564   5.465   1.886   3.377
 4222SOL    HW113565   5.526   1.966   3.376
 4222SOL    HW213566   5.405   1.889   3.297
 4223SOL     OW13567   4.334   3.970   0.950
 4223SOL    HW113568   4.307   4.062   0.921
 4223SOL    HW213569   4.252   3.913   0.957
 4224SOL     OW13570   5.743   4.578   5.078
 4224SOL    HW113571   5.686   4.586   5.160
 4224SOL    HW213572   5.781   4.486   5.073
 4225SOL     OW13573   1.415   2.219   5.649
 4225SOL    HW113574   1.429   2.318   5.657
 4225SOL    HW213575   1.485   2.181   5.588
 4226SOL     OW13576   0.983   5.903   4.601
 4226SOL    HW113577   0.947   5.991   4.630
 4226SOL    HW213578   0.919   5.860   4.537
 4227SOL     OW13579   5.133   5.874   1.842
 4227SOL    HW113580   5.080   5.858   1.758
 4227SOL    HW213581   5.149   5.972   1.853
 4228SOL     OW13582   0.625   6.168   5.166
 4228SOL    HW113583   0.645   6.168   5.068
 4228SOL    HW213584   0.699   6.124   5.216
 4229SOL     OW13585   5.209   6.008   5.461
 4229SOL    HW113586   5.119   6.003   5.504
 4229SOL    HW213587   5.275   6.047   5.525
 4230SOL     OW13588   1.220   7.015   2.752
 4230SOL    HW113589   1.240   0.063   2.685
 4230SOL    HW213590   1.259   0.017   2.841
 4231SOL     OW13591   5.013   0.620   5.640
 4231SOL    HW113592   5.007   0.593   5.544
 4231SOL    HW213593   4.921   0.626   5.679
 4232SOL     OW13594   2.286   5.697   3.548
 4232SOL    HW113595   2.312   5.768   3.613
 4232SOL    HW213596   2.293   5.607   3.591
 4233SOL     OW13597   0.126   0.024   4.149
 4233SOL    HW113598   0.064   6.968   4.149
 4233SOL    HW213599   0.183   0.022   4.231
 4234SOL     OW13600   1.742   5.379   5.300
 4234SOL    HW113601   1.841   5.385   5.292
 4234SOL    HW213602   1.712   5.424   5.384
 4235SOL     OW13603   6.557   5.082   5.621
 4235SOL    HW113604   6.642   5.066   5.671
 4235SOL    HW213605   6.492   5.008   5.641
 4236SOL     OW13606   0.453   4.952   2.300
 4236SOL    HW113607   0.482   4.877   2.359
 4236SOL    HW213608   0.524   5.022   2.297
 4237SOL     OW13609   6.318   4.273   4.329
 4237SOL    HW113610   6.324   4.371   4.309
 4237SOL    HW213611   6.239   4.256   4.388
 4238SOL     OW13612   1.063   0.727   3.339
 4238SOL    HW113613   1.064   0.729   3.239
 4238SOL    HW213614   1.024   0.640   3.371
 4239SOL     OW13615   4.210   0.968   2.824
 4239SOL    HW113616   4.115   0.979   2.850
 4239SOL    HW213617   4.235   1.039   2.758
 4240SOL     OW13618   2.007   5.230   0.017
 4240SOL    HW113619   2.005   5.133   0.043
 4240SOL    HW213620   2.011   5.286   0.100
 4241SOL     OW13621   6.056   1.683   0.264
 4241SOL    HW113622   6.075   1.635   0.178
 4241SOL    HW213623   5.999   1.763   0.245
 4242SOL     OW13624   2.370   2.268   3.757
 4242SOL    HW113625   2.319   2.219   3.828
 4242SOL    HW213626   2.369   2.366   3.777
 4243SOL     OW13627   4.996   1.781   2.736
 4243SOL    HW113628   4.932   1.709   2.762
 4243SOL    HW213629   4.950   1.848   2.678
 4244SOL     OW13630   3.663   3.694   1.832
 4244SOL    HW113631   3.602   3.771   1.812
 4244SOL    HW213632   3.705   3.662   1.747
 4245SOL     OW13633   6.553   1.942   6.756
 4245SOL    HW113634   6.538   1.843   6.767
 4245SOL    HW213635   6.651   1.960   6.751
 4246SOL     OW13636   6.219   4.424   3.171
 4246SOL    HW113637   6.152   4.415   3.244
 4246SOL    HW213638   6.172   4.452   3.087
 4247SOL     OW13639   0.247   6.112   4.167
 4247SOL    HW113640   0.261   6.086   4.071
 4247SOL    HW213641   0.267   6.209   4.178
 4248SOL     OW13642   2.398   1.939   4.829
 4248SOL    HW113643   2.372   1.846   4.857
 4248SOL    HW213644   2.448   1.984   4.904
 4249SOL     OW13645   6.653   2.940   5.482
 4249SOL    HW113646   6.689   2.916   5.572
 4249SOL    HW213647   6.697   2.884   5.412
 4250SOL     OW13648   6.487   4.502   3.120
 4250SOL    HW113649   6.558   4.517   3.189
 4250SOL    HW213650   6.419   4.437   3.155
 4251SOL     OW13651   6.021   4.761   0.358
 4251SOL    HW113652   6.044   4.757   0.455
 4251SOL    HW213653   5.925   4.787   0.348
 4252SOL     OW13654   6.588   5.997   4.898
 4252SOL    HW113655   6.658   5.926   4.894
 4252SOL    HW213656   6.604   6.063   4.824
 4253SOL     OW13657   3.018   0.315   2.554
 4253SOL    HW113658   2.934   0.363   2.531
 4253SOL    HW213659   3.090   0.342   2.490
 4254SOL     OW13660   1.210   3.026   1.623
 4254SOL    HW113661   1.160   3.060   1.703
 4254SOL    HW213662   1.231   3.102   1.562
 4255SOL     OW13663   6.180   2.283   3.366
 4255SOL    HW113664   6.256   2.253   3.424
 4255SOL    HW213665   6.103   2.311   3.423
 4256SOL     OW13666   1.161   6.366   0.855
 4256SOL    HW113667   1.245   6.408   0.891
 4256SOL    HW213668   1.155   6.272   0.890
 4257SOL     OW13669   3.389   0.592   5.478
 4257SOL    HW113670   3.322   0.573   5.406
 4257SOL    HW213671   3.466   0.641   5.439
 4258SOL     OW13672   6.136   6.980   1.740
 4258SOL    HW113673   6.209   6.924   1.702
 4258SOL    HW213674   6.047   6.949   1.705
 4259SOL     OW13675   2.416   0.905   6.887
 4259SOL    HW113676   2.338   0.955   6.924
 4259SOL    HW213677   2.420   0.917   6.788
 4260SOL     OW13678   4.734   6.065   4.029
 4260SOL    HW113679   4.743   6.071   4.129
 4260SOL    HW213680   4.757   5.973   3.999
 4261SOL     OW13681   2.570   0.195   1.956
 4261SOL    HW113682   2.533   0.232   2.041
 4261SOL    HW213683   2.602   0.101   1.971
 4262SOL     OW13684   1.370   4.864   5.586
 4262SOL    HW113685   1.448   4.805   5.567
 4262SOL    HW213686   1.347   4.917   5.504
 4263SOL     OW13687   2.636   6.679   4.419
 4263SOL    HW113688   2.665   6.584   4.413
 4263SOL    HW213689   2.559   6.687   4.481
 4264SOL     OW13690   6.776   1.626   1.626
 4264SOL    HW113691   6.806   1.623   1.721
 4264SOL    HW213692   6.699   1.688   1.617
 4265SOL     OW13693   6.207   1.784   6.845
 4265SOL    HW113694   6.292   1.765   6.894
 4265SOL    HW213695   6.142   1.826   6.908
 4266SOL     OW13696   2.488   5.247   0.205
 4266SOL    HW113697   2.478   5.212   0.299
 4266SOL    HW213698   2.547   5.328   0.207
 4267SOL     OW13699   2.182   3.816   5.046
 4267SOL    HW113700   2.277   3.843   5.057
 4267SOL    HW213701   2.125   3.897   5.036
 4268SOL     OW13702   1.493   6.790   0.091
 4268SOL    HW113703   1.498   6.868   0.153
 4268SOL    HW213704   1.579   6.779   0.043
 4269SOL     OW13705   1.988   1.529   0.446
 4269SOL    HW113706   2.006   1.462   0.374
 4269SOL    HW213707   1.901   1.506   0.491
 4270SOL     OW13708   3.231   2.980   3.934
 4270SOL    HW113709   3.163   3.001   4.004
 4270SOL    HW213710   3.213   3.035   3.852
 4271SOL     OW13711   0.336   0.500   5.595
 4271SOL    HW113712   0.408   0.432   5.611
 4271SOL    HW213713   0.247   0.458   5.612
 4272SOL     OW13714   0.153   4.982   4.667
 4272SOL    HW113715   0.149   4.885   4.643
 4272SOL    HW213716   0.125   4.995   4.761
 4273SOL     OW13717   4.681   6.615   4.156
 4273SOL    HW113718   4.745   6.630   4.232
 4273SOL    HW213719   4.712   6.666   4.076
 4274SOL     OW13720   1.073   6.590   3.220
 4274SOL    HW113721   1.027   6.651   3.155
 4274SOL    HW213722   1.004   6.541   3.274
 4275SOL     OW13723   6.754   1.595   6.061
 4275SOL    HW113724   6.691   1.532   6.016
 4275SOL    HW213725   6.806   1.546   6.131
 4276SOL     OW13726   1.244   5.141   2.739
 4276SOL    HW113727   1.166   5.082   2.756
 4276SOL    HW213728   1.263   5.195   2.821
 4277SOL     OW13729   6.811   4.688   4.078
 4277SOL    HW113730   6.873   4.619   4.115
 4277SOL    HW213731   6.860   4.744   4.011
 4278SOL     OW13732   6.756   0.852   4.860
 4278SOL    HW113733   6.663   0.860   4.825
 4278SOL    HW213734   6.777   0.930   4.918
 4279SOL     OW13735   3.732   6.559   5.129
 4279SOL    HW113736   3.782   6.473   5.125
 4279SOL    HW213737   3.670   6.558   5.207
 4280SOL     OW13738   5.358   1.439   5.636
 4280SOL    HW113739   5.396   1.473   5.722
 4280SOL    HW213740   5.268   1.481   5.620
 4281SOL     OW13741   1.929   4.546   4.440
 4281SOL    HW113742   1.935   4.464   4.498
 4281SOL    HW213743   1.952   4.521   4.346
 4282SOL     OW13744   2.361   1.962   0.066
 4282SOL    HW113745   2.395   1.945   0.158
 4282SOL    HW213746   2.268   1.926   0.058
 4283SOL     OW13747   1.772   0.161   4.340
 4283SOL    HW113748   1.736   0.210   4.420
 4283SOL    HW213749   1.870   0.144   4.353
 4284SOL     OW13750   5.375   6.762   2.225
 4284SOL    HW113751   5.450   6.758   2.292
 4284SOL    HW213752   5.288   6.772   2.273
 4285SOL     OW13753   0.485   6.837   6.467
 4285SOL    HW113754   0.446   6.930   6.470
 4285SOL    HW213755   0.481   6.803   6.373
 4286SOL     OW13756   5.354   5.776   6.658
 4286SOL    HW113757   5.290   5.717   6.608
 4286SOL    HW213758   5.311   5.807   6.743
 4287SOL     OW13759   5.839   0.520   5.601
 4287SOL    HW113760   5.776   0.446   5.623
 4287SOL    HW213761   5.921   0.512   5.657
 4288SOL     OW13762   0.713   6.091   3.614
 4288SOL    HW113763   0.791   6.046   3.570
 4288SOL    HW213764   0.702   6.182   3.575
 4289SOL     OW13765   5.626   2.548   1.702
 4289SOL    HW113766   5.688   2.609   1.752
 4289SOL    HW213767   5.573   2.493   1.767
 4290SOL     OW13768   2.307   6.411   1.318
 4290SOL    HW113769   2.230   6.350   1.301
 4290SOL    HW213770   2.293   6.459   1.405
 4291SOL     OW13771   4.728   3.330   1.765
 4291SOL    HW113772   4.823   3.336   1.793
 4291SOL    HW213773   4.678   3.268   1.826
 4292SOL     OW13774   6.394   4.592   5.535
 4292SOL    HW113775   6.423   4.560   5.625
 4292SOL    HW213776   6.345   4.520   5.487
 4293SOL     OW13777   6.577   4.184   6.328
 4293SOL    HW113778   6.570   4.084   6.330
 4293SOL    HW213779   6.627   4.211   6.246
 4294SOL     OW13780   4.561   3.107   0.210
 4294SOL    HW113781   4.511   3.176   0.262
 4294SOL    HW213782   4.515   3.094   0.122
 4295SOL     OW13783   3.835   6.870   4.863
 4295SOL    HW113784   3.852   6.772   4.854
 4295SOL    HW213785   3.750   6.894   4.817
 4296SOL     OW13786   2.700   1.592   0.441
 4296SOL    HW113787   2.693   1.674   0.498
 4296SOL    HW213788   2.794   1.579   0.412
 4297SOL     OW13789   5.209   0.104   5.250
 4297SOL    HW113790   5.294   0.141   5.287
 4297SOL    HW213791   5.177   0.163   5.176
 4298SOL     OW13792   1.650   5.376   6.626
 4298SOL    HW113793   1.613   5.294   6.669
 4298SOL    HW213794   1.589   5.453   6.645
 4299SOL     OW13795   1.233   2.762   6.718
 4299SOL    HW113796   1.204   2.671   6.747
 4299SOL    HW213797   1.320   2.756   6.669
 4300SOL     OW13798   2.774   1.881   6.223
 4300SOL    HW113799   2.853   1.939   6.246
 4300SOL    HW213800   2.718   1.868   6.305
 4301SOL     OW13801   2.657   1.425   0.654
 4301SOL    HW113802   2.665   1.475   0.740
 4301SOL    HW213803   2.659   1.489   0.578
 4302SOL     OW13804   1.050   6.467   5.555
 4302SOL    HW113805   1.120   6.452   5.625
 4302SOL    HW213806   1.005   6.380   5.534
 4303SOL     OW13807   5.831   4.461   3.442
 4303SOL    HW113808   5.838   4.363   3.458
 4303SOL    HW213809   5.779   4.477   3.358
 4304SOL     OW13810   3.246   3.863   4.309
 4304SOL    HW113811   3.204   3.874   4.399
 4304SOL    HW213812   3.326   3.805   4.316
 4305SOL     OW13813   6.317   1.792   4.055
 4305SOL    HW113814   6.271   1.708   4.083
 4305SOL    HW213815   6.400   1.769   4.004
 4306SOL     OW13816   0.166   3.813   6.796
 4306SOL    HW113817   0.087   3.777   6.846
 4306SOL    HW213818   0.169   3.773   6.704
 4307SOL     OW13819   4.767   4.954   5.864
 4307SOL    HW113820   4.729   4.875   5.815
 4307SOL    HW213821   4.865   4.961   5.846
 4308SOL     OW13822   5.503   5.777   6.291
 4308SOL    HW113823   5.422   5.719   6.305
 4308SOL    HW213824   5.475   5.873   6.290
 4309SOL     OW13825   0.352   6.856   0.487
 4309SOL    HW113826   0.351   6.876   0.389
 4309SOL    HW213827   0.271   6.803   0.511
 4310SOL     OW13828   1.878   2.284   3.754
 4310SOL    HW113829   1.836   2.290   3.845
 4310SOL    HW213830   1.859   2.368   3.703
 4311SOL     OW13831   1.449   5.582   3.117
 4311SOL    HW113832   1.502   5.560   3.198
 4311SOL    HW213833   1.445   5.502   3.057
 4312SOL     OW13834   1.187   5.481   1.421
 4312SOL    HW113835   1.141   5.446   1.340
 4312SOL    HW213836   1.230   5.405   1.471
 4313SOL     OW13837   5.744   1.448   1.748
 4313SOL    HW113838   5.782   1.522   1.803
 4313SOL    HW213839   5.645   1.459   1.743
 4314SOL     OW13840   5.407   2.971   3.638
 4314SOL    HW113841   5.404   3.065   3.670
 4314SOL    HW213842   5.351   2.961   3.555
 4315SOL     OW13843   1.775   0.511   2.302
 4315SOL    HW113844   1.817   0.504   2.392
 4315SOL    HW213845   1.759   0.608   2.280
 4316SOL     OW13846   5.002   0.052   1.168
 4316SOL    HW113847   5.043   0.113   1.236
 4316SOL    HW213848   5.059   0.049   1.087
 4317SOL     OW13849   3.093   1.107   4.710
 4317SOL    HW113850   3.003   1.087   4.748
 4317SOL    HW213851   3.154   1.136   4.784
 4318SOL     OW13852   0.818   3.682   3.268
 4318SOL    HW113853   0.783   3.765   3.312
 4318SOL    HW213854   0.743   3.621   3.246
 4319SOL     OW13855   2.790   3.111   0.356
 4319SOL    HW113856   2.831   3.193   0.396
 4319SOL    HW213857   2.837   3.087   0.271
 4320SOL     OW13858   1.378   6.072   1.692
 4320SOL    HW113859   1.343   6.114   1.775
 4320SOL    HW213860   1.373   6.138   1.617
 4321SOL     OW13861   6.582   0.602   4.151
 4321SOL    HW113862   6.640   0.526   4.120
 4321SOL    HW213863   6.615   0.637   4.238
 4322SOL     OW13864   5.998   1.364   6.720
 4322SOL    HW113865   5.964   1.457   6.705
 4322SOL    HW213866   6.071   1.366   6.788
 4323SOL     OW13867   5.696   3.346   1.990
 4323SOL    HW113868   5.619   3.403   1.959
 4323SOL    HW213869   5.769   3.405   2.026
 4324SOL     OW13870   5.601   4.753   6.791
 4324SOL    HW113871   5.667   4.822   6.820
 4324SOL    HW213872   5.649   4.674   6.753
 4325SOL     OW13873   0.808   1.031   6.909
 4325SOL    HW113874   0.884   1.095   6.918
 4325SOL    HW213875   0.842   0.942   6.878
 4326SOL     OW13876   0.162   2.934   5.287
 4326SOL    HW113877   0.141   2.906   5.381
 4326SOL    HW213878   0.193   3.029   5.287
 4327SOL     OW13879   5.996   5.689   2.615
 4327SOL    HW113880   6.073   5.710   2.676
 4327SOL    HW213881   6.019   5.717   2.522
 4328SOL     OW13882   4.507   4.830   6.132
 4328SOL    HW113883   4.528   4.918   6.174
 4328SOL    HW213884   4.460   4.845   6.045
 4329SOL     OW13885   3.205   1.878   6.103
 4329SOL    HW113886   3.301   1.862   6.080
 4329SOL    HW213887   3.151   1.884   6.020
 4330SOL     OW13888   3.006   0.540   5.228
 4330SOL    HW113889   3.048   0.558   5.317
 4330SOL    HW213890   2.982   0.627   5.184
 4331SOL     OW13891   5.008   3.351   1.391
 4331SOL    HW113892   4.924   3.352   1.444
 4331SOL    HW213893   4.997   3.292   1.311
 4332SOL     OW13894   5.592   4.016   2.256
 4332SOL    HW113895   5.595   3.917   2.246
 4332SOL    HW213896   5.497   4.046   2.265
 4333SOL     OW13897   4.483   1.475   4.884
 4333SOL    HW113898   4.569   1.511   4.848
 4333SOL    HW213899   4.502   1.393   4.939
 4334SOL     OW13900   2.621   1.968   2.141
 4334SOL    HW113901   2.662   1.877   2.135
 4334SOL    HW213902   2.664   2.029   2.074
 4335SOL     OW13903   2.871   3.593   3.478
 4335SOL    HW113904   2.876   3.495   3.458
 4335SOL    HW213905   2.853   3.606   3.575
 4336SOL     OW13906   1.094   6.909   5.214
 4336SOL    HW113907   1.082   7.009   5.213
 4336SOL    HW213908   1.169   6.884   5.153
 4337SOL     OW13909   1.289   4.502   0.134
 4337SOL    HW113910   1.286   4.602   0.133
 4337SOL    HW213911   1.351   4.471   0.207
 4338SOL     OW13912   4.739   6.099   4.741
 4338SOL    HW113913   4.712   6.047   4.822
 4338SOL    HW213914   4.820   6.153   4.761
 4339SOL     OW13915   5.674   2.952   5.615
 4339SOL    HW113916   5.670   2.856   5.645
 4339SOL    HW213917   5.591   2.999   5.645
 4340SOL     OW13918   6.079   3.995   3.286
 4340SOL    HW113919   6.021   3.913   3.297
 4340SOL    HW213920   6.174   3.967   3.271
 4341SOL     OW13921   1.094   4.293   1.733
 4341SOL    HW113922   1.012   4.250   1.772
 4341SOL    HW213923   1.174   4.236   1.753
 4342SOL     OW13924   6.762   2.946   4.108
 4342SOL    HW113925   6.676   2.997   4.114
 4342SOL    HW213926   6.762   2.873   4.176
 4343SOL     OW13927   2.879   6.646   7.020
 4343SOL    HW113928   2.929   6.644   6.933
 4343SOL    HW213929   2.874   6.741   0.030
 4344SOL     OW13930   2.082   5.256   3.332
 4344SOL    HW113931   2.054   5.200   3.409
 4344SOL    HW213932   2.032   5.342   3.333
 4345SOL     OW13933   1.778   3.008   5.473
 4345SOL    HW113934   1.782   3.072   5.549
 4345SOL    HW213935   1.760   2.916   5.508
 4346SOL     OW13936   2.255   3.000   1.592
 4346SOL    HW113937   2.276   2.962   1.502
 4346SOL    HW213938   2.196   2.937   1.642
 4347SOL     OW13939   6.993   0.978   1.259
 4347SOL    HW113940   0.000   0.988   1.164
 4347SOL    HW213941   0.049   0.983   1.320
 4348SOL     OW13942   0.064   2.982   2.683
 4348SOL    HW113943   0.103   3.015   2.597
 4348SOL    HW213944   0.137   2.973   2.751
 4349SOL     OW13945   0.009   1.646   2.862
 4349SOL    HW113946   7.001   1.653   2.767
 4349SOL    HW213947   0.090   1.703   2.876
 4350SOL     OW13948   4.776   2.045   4.077
 4350SOL    HW113949   4.760   1.947   4.089
 4350SOL    HW213950   4.845   2.075   4.143
 4351SOL     OW13951   2.096   6.121   0.806
 4351SOL    HW113952   2.192   6.150   0.804
 4351SOL    HW213953   2.087   6.039   0.862
 4352SOL     OW13954   0.831   2.056   1.652
 4352SOL    HW113955   0.795   1.964   1.669
 4352SOL    HW213956   0.792   2.092   1.567
 4353SOL     OW13957   3.066   4.916   1.094
 4353SOL    HW113958   3.022   4.835   1.134
 4353SOL    HW213959   3.151   4.935   1.143
 4354SOL     OW13960   1.848   6.455   5.741
 4354SOL    HW113961   1.939   6.457   5.784
 4354SOL    HW213962   1.838   6.533   5.680
 4355SOL     OW13963   3.591   0.135   2.038
 4355SOL    HW113964   3.618   0.205   1.972
 4355SOL    HW213965   3.593   0.045   1.995
 4356SOL     OW13966   4.796   4.031   1.938
 4356SOL    HW113967   4.811   4.097   2.010
 4356SOL    HW213968   4.732   4.068   1.871
 4357SOL     OW13969   6.231   6.931   6.854
 4357SOL    HW113970   6.159   6.952   6.787
 4357SOL    HW213971   6.269   6.840   6.835
 4358SOL     OW13972   6.493   6.188   0.454
 4358SOL    HW113973   6.487   6.089   0.451
 4358SOL    HW213974   6.423   6.224   0.517
 4359SOL     OW13975   1.402   2.048   4.820
 4359SOL    HW113976   1.341   1.971   4.805
 4359SOL    HW213977   1.495   2.015   4.837
 4360SOL     OW13978   1.736   3.474   2.602
 4360SOL    HW113979   1.716   3.377   2.586
 4360SOL    HW213980   1.780   3.513   2.522
 4361SOL     OW13981   3.078   2.677   1.710
 4361SOL    HW113982   3.027   2.608   1.761
 4361SOL    HW213983   3.154   2.633   1.662
 4362SOL     OW13984   6.145   3.886   5.212
 4362SOL    HW113985   6.183   3.913   5.301
 4362SOL    HW213986   6.181   3.796   5.186
 4363SOL     OW13987   5.165   2.066   5.797
 4363SOL    HW113988   5.206   1.987   5.752
 4363SOL    HW213989   5.221   2.147   5.780
 4364SOL     OW13990   2.880   3.823   5.380
 4364SOL    HW113991   2.964   3.801   5.429
 4364SOL    HW213992   2.896   3.899   5.317
 4365SOL     OW13993   2.879   1.186   1.970
 4365SOL    HW113994   2.809   1.163   2.037
 4365SOL    HW213995   2.928   1.103   1.942
 4366SOL     OW13996   5.655   6.765   0.872
 4366SOL    HW113997   5.561   6.793   0.850
 4366SOL    HW213998   5.694   6.830   0.938
 4367SOL     OW13999   1.099   5.057   5.693
 4367SOL    HW114000   1.118   4.986   5.761
 4367SOL    HW214001   1.090   5.015   5.602
 4368SOL     OW14002   3.869   5.357   1.165
 4368SOL    HW114003   3.778   5.372   1.203
 4368SOL    HW214004   3.864   5.284   1.096
 4369SOL     OW14005   4.375   5.798   2.826
 4369SOL    HW114006   4.371   5.740   2.744
 4369SOL    HW214007   4.458   5.855   2.822
 4370SOL     OW14008   5.125   4.385   3.070
 4370SOL    HW114009   5.125   4.293   3.109
 4370SOL    HW214010   5.194   4.441   3.116
 4371SOL     OW14011   6.321   0.221   1.316
 4371SOL    HW114012   6.313   0.156   1.241
 4371SOL    HW214013   6.244   0.208   1.379
 4372SOL     OW14014   4.395   1.550   2.657
 4372SOL    HW114015   4.318   1.602   2.693
 4372SOL    HW214016   4.441   1.502   2.732
 4373SOL     OW14017   0.251   3.436   6.859
 4373SOL    HW114018   0.175   3.437   6.794
 4373SOL    HW214019   0.221   3.475   6.945
 4374SOL     OW14020   1.282   1.838   1.459
 4374SOL    HW114021   1.247   1.930   1.475
 4374SOL    HW214022   1.339   1.810   1.536
 4375SOL     OW14023   2.639   0.289   3.924
 4375SOL    HW114024   2.722   0.298   3.981
 4375SOL    HW214025   2.646   0.351   3.846
 4376SOL     OW14026   6.954   0.113   2.263
 4376SOL    HW114027   6.884   0.114   2.192
 4376SOL    HW214028   6.964   0.204   2.302
 4377SOL     OW14029   5.643   3.821   0.459
 4377SOL    HW114030   5.611   3.911   0.431
 4377SOL    HW214031   5.723   3.830   0.519
 4378SOL     OW14032   1.676   0.947   2.732
 4378SOL    HW114033   1.629   1.011   2.671
 4378SOL    HW214034   1.773   0.943   2.708
 4379SOL     OW14035   2.810   1.611   4.326
 4379SOL    HW114036   2.786   1.704   4.298
 4379SOL    HW214037   2.793   1.600   4.424
 4380SOL     OW14038   1.185   0.591   1.800
 4380SOL    HW114039   1.132   0.521   1.751
 4380SOL    HW214040   1.153   0.682   1.772
 4381SOL     OW14041   1.459   5.624   4.879
 4381SOL    HW114042   1.499   5.548   4.931
 4381SOL    HW214043   1.360   5.613   4.874
 4382SOL     OW14044   6.619   3.282   6.116
 4382SOL    HW114045   6.609   3.377   6.145
 4382SOL    HW214046   6.588   3.222   6.190
 4383SOL     OW14047   6.303   4.145   6.436
 4383SOL    HW114048   6.331   4.177   6.345
 4383SOL    HW214049   6.379   4.095   6.479
 4384SOL     OW14050   6.461   0.797   3.449
 4384SOL    HW114051   6.445   0.860   3.373
 4384SOL    HW214052   6.375   0.783   3.499
 4385SOL     OW14053   4.444   2.385   4.905
 4385SOL    HW114054   4.346   2.395   4.923
 4385SOL    HW214055   4.474   2.295   4.937
 4386SOL     OW14056   1.150   3.780   5.088
 4386SOL    HW114057   1.051   3.796   5.088
 4386SOL    HW214058   1.192   3.831   5.163
 4387SOL     OW14059   6.575   2.589   1.629
 4387SOL    HW114060   6.626   2.561   1.547
 4387SOL    HW214061   6.621   2.553   1.710
 4388SOL     OW14062   5.015   2.069   6.087
 4388SOL    HW114063   5.053   2.160   6.070
 4388SOL    HW214064   4.964   2.038   6.007
 4389SOL     OW14065   6.966   3.719   1.292
 4389SOL    HW114066   0.011   3.769   1.239
 4389SOL    HW214067   6.916   3.657   1.232
 4390SOL     OW14068   4.819   6.864   1.162
 4390SOL    HW114069   4.884   6.938   1.178
 4390SOL    HW214070   4.850   6.782   1.209
 4391SOL     OW14071   2.470   4.888   6.251
 4391SOL    HW114072   2.448   4.965   6.310
 4391SOL    HW214073   2.502   4.811   6.306
 4392SOL     OW14074   0.711   1.756   4.372
 4392SOL    HW114075   0.765   1.672   4.363
 4392SOL    HW214076   0.615   1.732   4.390
 4393SOL     OW14077   5.914   0.563   1.996
 4393SOL    HW114078   5.938   0.611   2.080
 4393SOL    HW214079   5.974   0.483   1.985
 4394SOL     OW14080   1.013   6.735   1.714
 4394SOL    HW114081   1.019   6.728   1.614
 4394SOL    HW214082   1.078   6.804   1.746
 4395SOL     OW14083   1.798   0.108   1.508
 4395SOL    HW114084   1.785   0.207   1.517
 4395SOL    HW214085   1.830   0.072   1.596
 4396SOL     OW14086   1.483   1.647   3.725
 4396SOL    HW114087   1.563   1.609   3.678
 4396SOL    HW214088   1.411   1.577   3.728
 4397SOL     OW14089   1.943   2.997   3.877
 4397SOL    HW114090   1.887   2.941   3.816
 4397SOL    HW214091   2.034   2.957   3.884
 4398SOL     OW14092   2.065   3.796   5.957
 4398SOL    HW114093   2.078   3.731   6.032
 4398SOL    HW214094   2.088   3.888   5.988
 4399SOL     OW14095   2.003   5.707   1.922
 4399SOL    HW114096   1.957   5.694   2.010
 4399SOL    HW214097   1.964   5.645   1.854
 4400SOL     OW14098   2.165   6.837   3.898
 4400SOL    HW114099   2.177   6.790   3.985
 4400SOL    HW214100   2.086   6.798   3.850
 4401SOL     OW14101   4.093   6.487   4.803
 4401SOL    HW114102   4.016   6.537   4.841
 4401SOL    HW214103   4.063   6.431   4.726
 4402SOL     OW14104   0.818   0.475   2.229
 4402SOL    HW114105   0.864   0.525   2.156
 4402SOL    HW214106   0.727   0.514   2.244
 4403SOL     OW14107   1.012   6.004   1.185
 4403SOL    HW114108   1.046   6.043   1.100
 4403SOL    HW214109   1.070   5.926   1.211
 4404SOL     OW14110   1.215   5.793   5.659
 4404SOL    HW114111   1.306   5.752   5.657
 4404SOL    HW214112   1.224   5.893   5.653
 4405SOL     OW14113   2.640   5.099   3.511
 4405SOL    HW114114   2.721   5.091   3.453
 4405SOL    HW214115   2.654   5.048   3.596
 4406SOL     OW14116   6.744   3.520   1.210
 4406SOL    HW114117   6.691   3.552   1.131
 4406SOL    HW214118   6.709   3.432   1.241
 4407SOL     OW14119   0.168   5.318   1.327
 4407SOL    HW114120   0.243   5.374   1.290
 4407SOL    HW214121   0.200   5.225   1.341
 4408SOL     OW14122   3.063   5.982   7.001
 4408SOL    HW114123   2.992   6.040   6.961
 4408SOL    HW214124   3.106   5.927   6.929
 4409SOL     OW14125   4.128   1.109   1.413
 4409SOL    HW114126   4.115   1.086   1.509
 4409SOL    HW214127   4.046   1.084   1.361
 4410SOL     OW14128   0.193   5.942   0.700
 4410SOL    HW114129   0.128   5.867   0.713
 4410SOL    HW214130   0.248   5.953   0.783
 4411SOL     OW14131   3.730   4.883   5.578
 4411SOL    HW114132   3.767   4.924   5.661
 4411SOL    HW214133   3.667   4.947   5.534
 4412SOL     OW14134   5.248   6.481   4.497
 4412SOL    HW114135   5.224   6.554   4.561
 4412SOL    HW214136   5.212   6.394   4.531
 4413SOL     OW14137   4.258   6.437   4.117
 4413SOL    HW114138   4.352   6.452   4.086
 4413SOL    HW214139   4.246   6.341   4.142
 4414SOL     OW14140   4.471   5.401   1.836
 4414SOL    HW114141   4.457   5.446   1.748
 4414SOL    HW214142   4.386   5.357   1.865
 4415SOL     OW14143   3.720   4.119   0.911
 4415SOL    HW114144   3.696   4.216   0.916
 4415SOL    HW214145   3.709   4.077   1.001
 4416SOL     OW14146   3.986   1.663   4.204
 4416SOL    HW114147   4.060   1.711   4.252
 4416SOL    HW214148   4.016   1.570   4.183
 4417SOL     OW14149   6.412   2.856   4.064
 4417SOL    HW114150   6.322   2.823   4.094
 4417SOL    HW214151   6.428   2.947   4.101
 4418SOL     OW14152   5.968   2.076   1.952
 4418SOL    HW114153   6.019   1.999   1.990
 4418SOL    HW214154   5.912   2.045   1.875
 4419SOL     OW14155   6.161   6.502   5.927
 4419SOL    HW114156   6.098   6.572   5.961
 4419SOL    HW214157   6.111   6.417   5.909
 4420SOL     OW14158   3.519   1.893   1.375
 4420SOL    HW114159   3.446   1.842   1.421
 4420SOL    HW214160   3.605   1.878   1.422
 4421SOL     OW14161   1.429   3.056   5.462
 4421SOL    HW114162   1.407   3.027   5.369
 4421SOL    HW214163   1.472   3.147   5.459
 4422SOL     OW14164   0.977   5.160   6.858
 4422SOL    HW114165   0.974   5.089   6.928
 4422SOL    HW214166   0.924   5.239   6.888
 4423SOL     OW14167   6.509   4.549   5.773
 4423SOL    HW114168   6.534   4.636   5.815
 4423SOL    HW214169   6.491   4.481   5.844
 4424SOL     OW14170   5.354   5.844   4.230
 4424SOL    HW114171   5.413   5.827   4.152
 4424SOL    HW214172   5.334   5.942   4.236
 4425SOL     OW14173   1.690   5.290   0.662
 4425SOL    HW114174   1.593   5.265   0.655
 4425SOL    HW214175   1.711   5.317   0.756
 4426SOL     OW14176   1.077   0.325   4.015
 4426SOL    HW114177   0.983   0.326   3.981
 4426SOL    HW214178   1.102   0.416   4.047
 4427SOL     OW14179   3.827   6.266   2.867
 4427SOL    HW114180   3.889   6.314   2.928
 4427SOL    HW214181   3.765   6.332   2.824
 4428SOL     OW14182   5.238   0.900   4.530
 4428SOL    HW114183   5.150   0.943   4.549
 4428SOL    HW214184   5.294   0.961   4.475
 4429SOL     OW14185   2.921   6.505   2.953
 4429SOL    HW114186   2.947   6.488   3.048
 4429SOL    HW214187   2.949   6.598   2.928
 4430SOL     OW14188   5.556   4.996   4.403
 4430SOL    HW114189   5.582   5.074   4.346
 4430SOL    HW214190   5.457   4.985   4.402
 4431SOL     OW14191   3.306   0.458   3.629
 4431SOL    HW114192   3.238   0.512   3.680
 4431SOL    HW214193   3.395   0.468   3.673
 4432SOL     OW14194   2.287   3.425   6.414
 4432SOL    HW114195   2.201   3.378   6.394
 4432SOL    HW214196   2.363   3.363   6.397
 4433SOL     OW14197   0.553   2.357   4.232
 4433SOL    HW114198   0.465   2.380   4.273
 4433SOL    HW214199   0.546   2.269   4.185
 4434SOL     OW14200   5.975   1.280   1.776
 4434SOL    HW114201   5.883   1.318   1.781
 4434SOL    HW214202   6.038   1.348   1.739
 4435SOL     OW14203   3.983   3.887   0.858
 4435SOL    HW114204   3.963   3.804   0.806
 4435SOL    HW214205   3.926   3.962   0.825
 4436SOL     OW14206   4.176   1.771   1.475
 4436SOL    HW114207   4.098   1.762   1.414
 4436SOL    HW214208   4.148   1.821   1.557
 4437SOL     OW14209   0.426   3.301   2.647
 4437SOL    HW114210   0.412   3.348   2.735
 4437SOL    HW214211   0.507   3.243   2.653
 4438SOL     OW14212   4.647   0.115   5.585
 4438SOL    HW114213   4.586   0.155   5.653
 4438SOL    HW214214   4.639   0.166   5.499
 4439SOL     OW14215   0.894   5.397   2.943
 4439SOL    HW114216   0.813   5.449   2.966
 4439SOL    HW214217   0.970   5.459   2.924
 4440SOL     OW14218   2.859   4.483   1.029
 4440SOL    HW114219   2.832   4.396   1.069
 4440SOL    HW214220   2.789   4.513   0.964
 4441SOL     OW14221   0.597   1.688   0.575
 4441SOL    HW114222   0.523   1.686   0.508
 4441SOL    HW214223   0.561   1.669   0.666
 4442SOL     OW14224   1.152   5.112   6.028
 4442SOL    HW114225   1.246   5.127   5.996
 4442SOL    HW214226   1.090   5.170   5.976
 4443SOL     OW14227   0.937   4.652   6.350
 4443SOL    HW114228   0.912   4.559   6.374
 4443SOL    HW214229   0.972   4.700   6.431
 4444SOL     OW14230   4.585   3.909   0.513
 4444SOL    HW114231   4.632   3.972   0.575
 4444SOL    HW214232   4.571   3.821   0.559
 4445SOL     OW14233   1.252   5.404   6.975
 4445SOL    HW114234   1.343   5.431   7.007
 4445SOL    HW214235   1.258   5.378   6.878
 4446SOL     OW14236   5.621   1.860   0.115
 4446SOL    HW114237   5.622   1.760   0.110
 4446SOL    HW214238   5.541   1.890   0.167
 4447SOL     OW14239   6.060   4.803   5.502
 4447SOL    HW114240   6.045   4.711   5.540
 4447SOL    HW214241   5.990   4.865   5.537
 4448SOL     OW14242   2.801   6.912   1.033
 4448SOL    HW114243   2.870   6.981   1.009
 4448SOL    HW214244   2.710   6.952   1.025
 4449SOL     OW14245   4.533   1.062   6.395
 4449SOL    HW114246   4.511   1.094   6.488
 4449SOL    HW214247   4.451   1.023   6.353
 4450SOL     OW14248   3.406   1.633   0.402
 4450SOL    HW114249   3.475   1.678   0.460
 4450SOL    HW214250   3.333   1.597   0.460
 4451SOL     OW14251   4.650   4.827   4.006
 4451SOL    HW114252   4.684   4.868   4.091
 4451SOL    HW214253   4.727   4.801   3.949
 4452SOL     OW14254   5.880   6.179   4.634
 4452SOL    HW114255   5.882   6.096   4.579
 4452SOL    HW214256   5.790   6.222   4.626
 4453SOL     OW14257   1.044   2.793   2.061
 4453SOL    HW114258   0.984   2.716   2.082
 4453SOL    HW214259   0.994   2.879   2.076
 4454SOL     OW14260   0.133   1.445   6.599
 4454SOL    HW114261   0.121   1.351   6.630
 4454SOL    HW214262   0.169   1.501   6.674
 4455SOL     OW14263   6.029   5.575   5.159
 4455SOL    HW114264   6.086   5.613   5.085
 4455SOL    HW214265   6.086   5.561   5.240
 4456SOL     OW14266   2.232   5.959   3.804
 4456SOL    HW114267   2.148   5.926   3.847
 4456SOL    HW214268   2.210   6.032   3.740
 4457SOL     OW14269   1.960   2.182   4.816
 4457SOL    HW114270   1.915   2.109   4.765
 4457SOL    HW214271   2.042   2.145   4.860
 4458SOL     OW14272   2.102   3.554   1.629
 4458SOL    HW114273   2.081   3.647   1.600
 4458SOL    HW214274   2.193   3.551   1.671
 4459SOL     OW14275   2.222   1.594   4.506
 4459SOL    HW114276   2.211   1.655   4.427
 4459SOL    HW214277   2.266   1.509   4.476
 4460SOL     OW14278   0.419   3.595   4.044
 4460SOL    HW114279   0.396   3.509   3.998
 4460SOL    HW214280   0.518   3.597   4.061
 4461SOL     OW14281   1.534   0.621   1.208
 4461SOL    HW114282   1.463   0.560   1.175
 4461SOL    HW214283   1.544   0.699   1.146
 4462SOL     OW14284   6.035   3.868   2.338
 4462SOL    HW114285   5.993   3.845   2.426
 4462SOL    HW214286   5.969   3.917   2.281
 4463SOL     OW14287   5.357   1.247   0.949
 4463SOL    HW114288   5.424   1.198   1.004
 4463SOL    HW214289   5.313   1.318   1.004
 4464SOL     OW14290   0.698   5.463   0.454
 4464SOL    HW114291   0.602   5.468   0.425
 4464SOL    HW214292   0.712   5.380   0.507
 4465SOL     OW14293   2.642   5.487   0.289
 4465SOL    HW114294   2.740   5.486   0.267
 4465SOL    HW214295   2.630   5.522   0.382
 4466SOL     OW14296   2.246   1.970   3.371
 4466SOL    HW114297   2.196   2.015   3.445
 4466SOL    HW214298   2.264   1.875   3.395
 4467SOL     OW14299   2.627   5.498   4.046
 4467SOL    HW114300   2.720   5.465   4.063
 4467SOL    HW214301   2.604   5.569   4.113
 4468SOL     OW14302   1.136   3.397   0.509
 4468SOL    HW114303   1.115   3.494   0.500
 4468SOL    HW214304   1.070   3.354   0.571
 4469SOL     OW14305   2.377   0.621   1.184
 4469SOL    HW114306   2.404   0.601   1.091
 4469SOL    HW214307   2.305   0.691   1.184
 4470SOL     OW14308   0.621   0.651   2.272
 4470SOL    HW114309   0.555   0.657   2.197
 4470SOL    HW214310   0.676   0.734   2.274
 4471SOL     OW14311   2.338   3.031   6.667
 4471SOL    HW114312   2.331   2.951   6.608
 4471SOL    HW214313   2.335   3.003   6.762
 4472SOL     OW14314   1.365   2.424   1.086
 4472SOL    HW114315   1.440   2.468   1.134
 4472SOL    HW214316   1.336   2.481   1.009
 4473SOL     OW14317   6.489   2.848   3.811
 4473SOL    HW114318   6.578   2.863   3.768
 4473SOL    HW214319   6.491   2.880   3.906
 4474SOL     OW14320   3.121   0.694   1.796
 4474SOL    HW114321   3.050   0.627   1.777
 4474SOL    HW214322   3.193   0.652   1.852
 4475SOL     OW14323   0.921   3.515   2.164
 4475SOL    HW114324   0.955   3.516   2.070
 4475SOL    HW214325   0.832   3.561   2.168
 4476SOL     OW14326   5.573   1.182   4.348
 4476SOL    HW114327   5.648   1.142   4.401
 4476SOL    HW214328   5.584   1.281   4.343
 4477SOL     OW14329   1.742   0.422   5.188
 4477SOL    HW114330   1.789   0.446   5.273
 4477SOL    HW214331   1.686   0.500   5.158
 4478SOL     OW14332   0.987   0.308   1.378
 4478SOL    HW114333   0.923   0.272   1.310
 4478SOL    HW214334   1.080   0.280   1.355
 4479SOL     OW14335   1.181   1.813   0.138
 4479SOL    HW114336   1.243   1.803   0.060
 4479SOL    HW214337   1.223   1.872   0.207
 4480SOL     OW14338   0.766   4.531   4.664
 4480SOL    HW114339   0.730   4.618   4.699
 4480SOL    HW214340   0.691   4.465   4.658
 4481SOL     OW14341   2.386   5.508   5.350
 4481SOL    HW114342   2.334   5.588   5.381
 4481SOL    HW214343   2.436   5.470   5.428
 4482SOL     OW14344   2.841   3.867   6.210
 4482SOL    HW114345   2.879   3.776   6.195
 4482SOL    HW214346   2.909   3.936   6.183
 4483SOL     OW14347   0.620   2.338   1.831
 4483SOL    HW114348   0.540   2.284   1.807
 4483SOL    HW214349   0.665   2.371   1.748
 4484SOL     OW14350   2.525   3.159   0.434
 4484SOL    HW114351   2.616   3.119   0.420
 4484SOL    HW214352   2.533   3.259   0.435
 4485SOL     OW14353   4.923   2.198   5.067
 4485SOL    HW114354   4.846   2.138   5.085
 4485SOL    HW214355   4.919   2.277   5.128
 4486SOL     OW14356   5.752   4.878   5.331
 4486SOL    HW114357   5.825   4.810   5.324
 4486SOL    HW214358   5.664   4.836   5.308
 4487SOL     OW14359   1.785   2.770   6.620
 4487SOL    HW114360   1.830   2.728   6.541
 4487SOL    HW214361   1.840   2.847   6.653
 4488SOL     OW14362   1.109   3.788   3.662
 4488SOL    HW114363   1.082   3.880   3.691
 4488SOL    HW214364   1.060   3.765   3.578
 4489SOL     OW14365   5.020   5.151   5.098
 4489SOL    HW114366   5.074   5.072   5.067
 4489SOL    HW214367   4.990   5.203   5.018
 4490SOL     OW14368   5.647   2.117   1.167
 4490SOL    HW114369   5.639   2.020   1.147
 4490SOL    HW214370   5.579   2.143   1.236
 4491SOL     OW14371   0.629   3.578   3.092
 4491SOL    HW114372   0.619   3.519   3.172
 4491SOL    HW214373   0.649   3.522   3.012
 4492SOL     OW14374   6.057   0.859   1.371
 4492SOL    HW114375   6.049   0.819   1.462
 4492SOL    HW214376   6.045   0.788   1.302
 4493SOL     OW14377   5.446   6.784   4.774
 4493SOL    HW114378   5.444   6.883   4.791
 4493SOL    HW214379   5.527   6.744   4.816
 4494SOL     OW14380   0.616   0.678   6.038
 4494SOL    HW114381   0.528   0.645   6.004
 4494SOL    HW214382   0.673   0.706   5.961
 4495SOL     OW14383   3.361   6.033   2.556
 4495SOL    HW114384   3.348   5.971   2.633
 4495SOL    HW214385   3.281   6.093   2.546
 4496SOL     OW14386   4.698   5.941   6.615
 4496SOL    HW114387   4.778   5.911   6.668
 4496SOL    HW214388   4.723   5.954   6.520
 4497SOL     OW14389   3.513   2.351   0.065
 4497SOL    HW114390   3.458   2.292   0.123
 4497SOL    HW214391   3.594   2.301   0.034
 4498SOL     OW14392   6.934   5.279   6.490
 4498SOL    HW114393   0.009   5.271   6.510
 4498SOL    HW214394   6.922   5.328   6.404
 4499SOL     OW14395   6.466   1.616   2.917
 4499SOL    HW114396   6.384   1.670   2.899
 4499SOL    HW214397   6.532   1.628   2.843
 4500SOL     OW14398   4.244   4.778   6.731
 4500SOL    HW114399   4.156   4.742   6.761
 4500SOL    HW214400   4.305   4.786   6.810
 4501SOL     OW14401   5.804   2.265   2.115
 4501SOL    HW114402   5.859   2.190   2.079
 4501SOL    HW214403   5.843   2.352   2.085
 4502SOL     OW14404   0.814   3.552   6.868
 4502SOL    HW114405   0.717   3.543   6.847
 4502SOL    HW214406   0.857   3.613   6.802
 4503SOL     OW14407   3.009   0.227   1.961
 4503SOL    HW114408   3.058   0.193   1.880
 4503SOL    HW214409   2.992   0.151   2.023
 4504SOL     OW14410   6.832   1.790   3.984
 4504SOL    HW114411   6.843   1.698   4.020
 4504SOL    HW214412   6.889   1.801   3.902
 4505SOL     OW14413   6.624   4.594   2.441
 4505SOL    HW114414   6.545   4.598   2.379
 4505SOL    HW214415   6.593   4.579   2.534
 4506SOL     OW14416   5.103   3.029   4.157
 4506SOL    HW114417   5.138   2.968   4.228
 4506SOL    HW214418   5.153   3.116   4.160
 4507SOL     OW14419   6.721   3.213   3.326
 4507SOL    HW114420   6.752   3.227   3.232
 4507SOL    HW214421   6.630   3.253   3.337
 4508SOL     OW14422   0.550   4.340   0.351
 4508SOL    HW114423   0.461   4.308   0.384
 4508SOL    HW214424   0.622   4.290   0.400
 4509SOL     OW14425   5.185   2.070   2.750
 4509SOL    HW114426   5.163   2.079   2.653
 4509SOL    HW214427   5.101   2.051   2.802
 4510SOL     OW14428   4.479   1.462   4.002
 4510SOL    HW114429   4.425   1.385   3.970
 4510SOL    HW214430   4.456   1.482   4.098
 4511SOL     OW14431   6.998   3.690   0.937
 4511SOL    HW114432   6.904   3.675   0.965
 4511SOL    HW214433   0.012   3.607   0.895
 4512SOL     OW14434   3.221   2.285   6.088
 4512SOL    HW114435   3.131   2.290   6.130
 4512SOL    HW214436   3.289   2.261   6.158
 4513SOL     OW14437   0.564   5.645   6.415
 4513SOL    HW114438   0.544   5.729   6.465
 4513SOL    HW214439   0.632   5.663   6.344
 4514SOL     OW14440   3.556   3.434   6.846
 4514SOL    HW114441   3.499   3.358   6.877
 4514SOL    HW214442   3.622   3.456   6.917
 4515SOL     OW14443   5.596   0.920   4.833
 4515SOL    HW114444   5.582   1.000   4.773
 4515SOL    HW214445   5.535   0.846   4.804
 4516SOL     OW14446   3.257   0.949   5.828
 4516SOL    HW114447   3.205   0.969   5.745
 4516SOL    HW214448   3.199   0.898   5.892
 4517SOL     OW14449   4.551   0.071   6.761
 4517SOL    HW114450   4.537   0.169   6.773
 4517SOL    HW214451   4.632   0.056   6.704
 4518SOL     OW14452   1.273   6.758   0.804
 4518SOL    HW114453   1.317   6.668   0.806
 4518SOL    HW214454   1.182   6.751   0.845
 4519SOL     OW14455   4.963   6.974   0.152
 4519SOL    HW114456   4.875   7.015   0.176
 4519SOL    HW214457   4.953   6.875   0.146
 4520SOL     OW14458   3.917   6.003   5.265
 4520SOL    HW114459   3.966   6.004   5.178
 4520SOL    HW214460   3.979   6.031   5.338
 4521SOL     OW14461   4.980   1.782   4.779
 4521SOL    HW114462   5.041   1.860   4.794
 4521SOL    HW214463   4.996   1.743   4.688
 4522SOL     OW14464   5.663   3.554   3.828
 4522SOL    HW114465   5.728   3.514   3.762
 4522SOL    HW214466   5.714   3.587   3.907
 4523SOL     OW14467   0.969   3.744   6.731
 4523SOL    HW114468   0.894   3.793   6.775
 4523SOL    HW214469   0.963   3.757   6.632
 4524SOL     OW14470   0.252   3.860   2.566
 4524SOL    HW114471   0.342   3.891   2.537
 4524SOL    HW214472   0.262   3.788   2.635
 4525SOL     OW14473   2.223   2.568   5.674
 4525SOL    HW114474   2.208   2.574   5.575
 4525SOL    HW214475   2.299   2.628   5.700
 4526SOL     OW14476   0.737   0.648   6.645
 4526SOL    HW114477   0.654   0.593   6.652
 4526SOL    HW214478   0.741   0.691   6.555
 4527SOL     OW14479   6.814   6.944   2.706
 4527SOL    HW114480   6.859   6.907   2.787
 4527SOL    HW214481   6.722   6.975   2.730
 4528SOL     OW14482   4.173   0.612   6.096
 4528SOL    HW114483   4.123   0.661   6.166
 4528SOL    HW214484   4.270   0.605   6.121
 4529SOL     OW14485   2.680   1.172   6.373
 4529SOL    HW114486   2.710   1.183   6.468
 4529SOL    HW214487   2.752   1.204   6.312
 4530SOL     OW14488   2.316   6.189   5.051
 4530SOL    HW114489   2.391   6.243   5.089
 4530SOL    HW214490   2.230   6.240   5.060
 4531SOL     OW14491   1.573   4.075   6.468
 4531SOL    HW114492   1.662   4.093   6.509
 4531SOL    HW214493   1.510   4.150   6.490
 4532SOL     OW14494   4.639   0.858   2.508
 4532SOL    HW114495   4.606   0.863   2.414
 4532SOL    HW214496   4.623   0.766   2.545
 4533SOL     OW14497   1.355   1.176   2.741
 4533SOL    HW114498   1.321   1.084   2.762
 4533SOL    HW214499   1.379   1.223   2.826
 4534SOL     OW14500   4.343   1.706   4.951
 4534SOL    HW114501   4.384   1.615   4.961
 4534SOL    HW214502   4.414   1.775   4.964
 4535SOL     OW14503   3.658   1.767   1.076
 4535SOL    HW114504   3.731   1.812   1.127
 4535SOL    HW214505   3.629   1.685   1.126
 4536SOL     OW14506   2.375   2.018   5.614
 4536SOL    HW114507   2.474   2.033   5.615
 4536SOL    HW214508   2.328   2.104   5.599
 4537SOL     OW14509   3.492   3.874   3.394
 4537SOL    HW114510   3.406   3.921   3.374
 4537SOL    HW214511   3.484   3.777   3.371
 4538SOL     OW14512   1.153   2.405   1.816
 4538SOL    HW114513   1.127   2.326   1.760
 4538SOL    HW214514   1.070   2.452   1.846
 4539SOL     OW14515   2.780   5.148   4.759
 4539SOL    HW114516   2.785   5.216   4.686
 4539SOL    HW214517   2.688   5.148   4.798
 4540SOL     OW14518   0.773   0.835   0.790
 4540SOL    HW114519   0.797   0.747   0.749
 4540SOL    HW214520   0.682   0.863   0.759
 4541SOL     OW14521   4.508   1.637   6.641
 4541SOL    HW114522   4.587   1.611   6.697
 4541SOL    HW214523   4.446   1.559   6.634
 4542SOL     OW14524   6.558   2.986   1.172
 4542SOL    HW114525   6.598   2.998   1.081
 4542SOL    HW214526   6.578   2.894   1.205
 4543SOL     OW14527   4.236   2.176   0.785
 4543SOL    HW114528   4.319   2.229   0.767
 4543SOL    HW214529   4.183   2.219   0.859
 4544SOL     OW14530   4.858   4.470   1.147
 4544SOL    HW114531   4.875   4.461   1.245
 4544SOL    HW214532   4.941   4.502   1.101
 4545SOL     OW14533   0.902   4.639   5.228
 4545SOL    HW114534   0.887   4.550   5.272
 4545SOL    HW214535   0.894   4.628   5.129
 4546SOL     OW14536   3.119   0.858   6.068
 4546SOL    HW114537   3.088   0.909   6.148
 4546SOL    HW214538   3.196   0.799   6.093
 4547SOL     OW14539   6.652   0.330   6.984
 4547SOL    HW114540   6.721   0.273   0.006
 4547SOL    HW214541   6.639   0.297   6.890
 4548SOL     OW14542   2.479   2.590   3.166
 4548SOL    HW114543   2.495   2.600   3.067
 4548SOL    HW214544   2.414   2.661   3.196
 4549SOL     OW14545   4.961   4.252   2.584
 4549SOL    HW114546   4.877   4.214   2.544
 4549SOL    HW214547   4.937   4.316   2.657
 4550SOL     OW14548   0.372   4.583   3.519
 4550SOL    HW114549   0.361   4.677   3.485
 4550SOL    HW214550   0.388   4.585   3.618
 4551SOL     OW14551   0.817   4.106   4.943
 4551SOL    HW114552   0.839   4.201   4.924
 4551SOL    HW214553   0.856   4.048   4.871
 4552SOL     OW14554   6.096   1.548   1.644
 4552SOL    HW114555   6.130   1.641   1.636
 4552SOL    HW214556   6.006   1.541   1.601
 4553SOL     OW14557   5.200   4.603   6.766
 4553SOL    HW114558   5.118   4.660   6.760
 4553SOL    HW214559   5.218   4.561   6.677
 4554SOL     OW14560   0.101   6.311   1.264
 4554SOL    HW114561   0.117   6.215   1.286
 4554SOL    HW214562   0.183   6.350   1.222
 4555SOL     OW14563   1.152   0.972   6.672
 4555SOL    HW114564   1.090   0.895   6.689
 4555SOL    HW214565   1.112   1.056   6.709
 4556SOL     OW14566   6.152   3.155   5.898
 4556SOL    HW114567   6.054   3.135   5.896
 4556SOL    HW214568   6.194   3.126   5.812
 4557SOL     OW14569   6.161   5.106   4.636
 4557SOL    HW114570   6.088   5.078   4.699
 4557SOL    HW214571   6.136   5.080   4.543
 4558SOL     OW14572   6.660   2.850   4.977
 4558SOL    HW114573   6.606   2.863   5.060
 4558SOL    HW214574   6.699   2.758   4.977
 4559SOL     OW14575   0.304   2.670   2.843
 4559SOL    HW114576   0.355   2.729   2.906
 4559SOL    HW214577   0.248   2.606   2.895
 4560SOL     OW14578   6.327   4.147   2.172
 4560SOL    HW114579   6.427   4.147   2.177
 4560SOL    HW214580   6.294   4.053   2.161
 4561SOL     OW14581   3.134   2.211   3.984
 4561SOL    HW114582   3.164   2.204   4.080
 4561SOL    HW214583   3.174   2.137   3.931
 4562SOL     OW14584   2.181   6.336   0.483
 4562SOL    HW114585   2.216   6.385   0.562
 4562SOL    HW214586   2.197   6.390   0.400
 4563SOL     OW14587   6.827   3.301   1.801
 4563SOL    HW114588   6.781   3.232   1.857
 4563SOL    HW214589   6.782   3.389   1.814
 4564SOL     OW14590   6.749   4.454   1.885
 4564SOL    HW114591   6.723   4.491   1.795
 4564SOL    HW214592   6.667   4.422   1.932
 4565SOL     OW14593   2.047   0.614   4.825
 4565SOL    HW114594   1.986   0.555   4.878
 4565SOL    HW214595   2.096   0.559   4.757
 4566SOL     OW14596   0.677   4.080   0.981
 4566SOL    HW114597   0.628   4.133   0.911
 4566SOL    HW214598   0.763   4.046   0.943
 4567SOL     OW14599   6.805   0.259   6.379
 4567SOL    HW114600   6.730   0.252   6.314
 4567SOL    HW214601   6.864   0.336   6.355
 4568SOL     OW14602   0.607   3.810   4.082
 4568SOL    HW114603   0.571   3.833   4.172
 4568SOL    HW214604   0.705   3.791   4.088
 4569SOL     OW14605   3.234   1.098   3.233
 4569SOL    HW114606   3.299   1.070   3.162
 4569SOL    HW214607   3.278   1.164   3.293
 4570SOL     OW14608   6.304   5.417   1.773
 4570SOL    HW114609   6.256   5.473   1.705
 4570SOL    HW214610   6.402   5.419   1.755
 4571SOL     OW14611   4.700   2.945   6.334
 4571SOL    HW114612   4.651   3.029   6.357
 4571SOL    HW214613   4.701   2.884   6.413
 4572SOL     OW14614   2.446   2.530   6.642
 4572SOL    HW114615   2.524   2.584   6.673
 4572SOL    HW214616   2.478   2.454   6.585
 4573SOL     OW14617   0.809   6.163   0.814
 4573SOL    HW114618   0.835   6.201   0.725
 4573SOL    HW214619   0.715   6.190   0.836
 4574SOL     OW14620   5.931   4.122   6.847
 4574SOL    HW114621   6.010   4.182   6.861
 4574SOL    HW214622   5.949   4.060   6.770
 4575SOL     OW14623   6.175   0.936   4.399
 4575SOL    HW114624   6.175   0.957   4.497
 4575SOL    HW214625   6.172   0.837   4.387
 4576SOL     OW14626   2.829   4.972   5.121
 4576SOL    HW114627   2.756   4.915   5.084
 4576SOL    HW214628   2.888   4.916   5.180
 4577SOL     OW14629   1.254   2.257   2.980
 4577SOL    HW114630   1.233   2.355   2.970
 4577SOL    HW214631   1.315   2.228   2.907
 4578SOL     OW14632   0.476   0.600   3.087
 4578SOL    HW114633   0.481   0.693   3.050
 4578SOL    HW214634   0.408   0.547   3.035
 4579SOL     OW14635   4.743   0.327   2.055
 4579SOL    HW114636   4.830   0.374   2.035
 4579SOL    HW214637   4.667   0.384   2.025
 4580SOL     OW14638   5.458   4.001   0.108
 4580SOL    HW114639   5.401   3.922   0.133
 4580SOL    HW214640   5.475   4.057   0.189
 4581SOL     OW14641   2.713   6.552   2.307
 4581SOL    HW114642   2.735   6.466   2.353
 4581SOL    HW214643   2.617   6.576   2.325
 4582SOL     OW14644   4.985   0.355   3.086
 4582SOL    HW114645   4.947   0.289   3.022
 4582SOL    HW214646   4.914   0.383   3.151
 4583SOL     OW14647   2.334   0.994   6.072
 4583SOL    HW114648   2.410   0.930   6.075
 4583SOL    HW214649   2.258   0.953   6.022
 4584SOL     OW14650   1.778   0.119   5.872
 4584SOL    HW114651   1.876   0.124   5.892
 4584SOL    HW214652   1.726   0.142   5.955
 4585SOL     OW14653   1.677   3.594   3.269
 4585SOL    HW114654   1.698   3.679   3.219
 4585SOL    HW214655   1.687   3.610   3.367
 4586SOL     OW14656   4.740   4.155   0.301
 4586SOL    HW114657   4.671   4.224   0.283
 4586SOL    HW214658   4.733   4.123   0.395
 4587SOL     OW14659   3.072   3.701   5.059
 4587SOL    HW114660   3.076   3.660   5.151
 4587SOL    HW214661   3.015   3.783   5.062
 4588SOL     OW14662   3.244   3.467   5.651
 4588SOL    HW114663   3.263   3.563   5.630
 4588SOL    HW214664   3.326   3.425   5.690
 4589SOL     OW14665   5.311   5.661   2.087
 4589SOL    HW114666   5.336   5.727   2.016
 4589SOL    HW214667   5.384   5.595   2.100
 4590SOL     OW14668   3.543   5.764   2.293
 4590SOL    HW114669   3.529   5.667   2.278
 4590SOL    HW214670   3.459   5.814   2.271
 4591SOL     OW14671   2.553   0.589   5.762
 4591SOL    HW114672   2.650   0.566   5.754
 4591SOL    HW214673   2.544   0.681   5.802
 4592SOL     OW14674   2.792   1.758   3.871
 4592SOL    HW114675   2.719   1.697   3.904
 4592SOL    HW214676   2.753   1.829   3.813
 4593SOL     OW14677   0.153   6.012   2.934
 4593SOL    HW114678   0.204   6.013   2.848
 4593SOL    HW214679   0.056   5.996   2.915
 4594SOL     OW14680   2.766   6.821   3.157
 4594SOL    HW114681   2.715   6.906   3.162
 4594SOL    HW214682   2.794   6.804   3.062
 4595SOL     OW14683   4.912   2.195   5.836
 4595SOL    HW114684   4.983   2.129   5.811
 4595SOL    HW214685   4.822   2.152   5.827
 4596SOL     OW14686   0.689   0.758   1.846
 4596SOL    HW114687   0.635   0.683   1.807
 4596SOL    HW214688   0.646   0.790   1.930
 4597SOL     OW14689   2.333   4.985   6.918
 4597SOL    HW114690   2.315   4.973   7.016
 4597SOL    HW214691   2.408   5.049   6.905
 4598SOL     OW14692   2.292   5.322   6.968
 4598SOL    HW114693   2.317   5.366   0.031
 4598SOL    HW214694   2.194   5.301   6.969
 4599SOL     OW14695   2.056   3.265   2.527
 4599SOL    HW114696   1.956   3.275   2.533
 4599SOL    HW214697   2.078   3.196   2.458
 4600SOL     OW14698   0.261   6.754   6.172
 4600SOL    HW114699   0.183   6.740   6.234
 4600SOL    HW214700   0.255   6.845   6.131
 4601SOL     OW14701   1.005   1.007   4.595
 4601SOL    HW114702   1.027   0.910   4.589
 4601SOL    HW214703   1.086   1.061   4.571
 4602SOL     OW14704   2.629   0.259   6.328
 4602SOL    HW114705   2.647   0.351   6.362
 4602SOL    HW214706   2.682   0.243   6.244
 4603SOL     OW14707   4.180   6.065   1.288
 4603SOL    HW114708   4.266   6.085   1.335
 4603SOL    HW214709   4.135   5.988   1.333
 4604SOL     OW14710   4.806   6.737   5.948
 4604SOL    HW114711   4.791   6.731   5.850
 4604SOL    HW214712   4.898   6.706   5.971
 4605SOL     OW14713   2.189   0.098   1.555
 4605SOL    HW114714   2.190   0.037   1.475
 4605SOL    HW214715   2.203   0.045   1.638
 4606SOL     OW14716   0.488   6.871   2.698
 4606SOL    HW114717   0.422   6.937   2.661
 4606SOL    HW214718   0.460   6.779   2.672
 4607SOL     OW14719   1.778   3.793   3.078
 4607SOL    HW114720   1.863   3.741   3.070
 4607SOL    HW214721   1.721   3.777   2.998
 4608SOL     OW14722   0.240   3.448   4.462
 4608SOL    HW114723   0.196   3.483   4.379
 4608SOL    HW214724   0.212   3.505   4.540
 4609SOL     OW14725   4.417   5.818   6.565
 4609SOL    HW114726   4.512   5.788   6.550
 4609SOL    HW214727   4.358   5.776   6.496
 4610SOL     OW14728   5.142   2.336   0.015
 4610SOL    HW114729   5.235   2.323   7.006
 4610SOL    HW214730   5.079   2.331   6.960
 4611SOL     OW14731   0.202   0.898   6.104
 4611SOL    HW114732   0.167   0.985   6.137
 4611SOL    HW214733   0.192   0.893   6.004
 4612SOL     OW14734   2.468   6.267   2.431
 4612SOL    HW114735   2.477   6.187   2.372
 4612SOL    HW214736   2.374   6.273   2.464
 4613SOL     OW14737   1.794   4.694   2.995
 4613SOL    HW114738   1.773   4.653   2.906
 4613SOL    HW214739   1.777   4.792   2.992
 4614SOL     OW14740   6.236   3.582   3.806
 4614SOL    HW114741   6.324   3.536   3.792
 4614SOL    HW214742   6.241   3.642   3.886
 4615SOL     OW14743   1.074   0.811   1.380
 4615SOL    HW114744   1.054   0.731   1.436
 4615SOL    HW214745   1.144   0.789   1.313
 4616SOL     OW14746   6.560   2.483   5.167
 4616SOL    HW114747   6.516   2.414   5.225
 4616SOL    HW214748   6.491   2.545   5.130
 4617SOL     OW14749   0.706   2.639   1.996
 4617SOL    HW114750   0.642   2.563   2.004
 4617SOL    HW214751   0.661   2.724   2.023
 4618SOL     OW14752   2.784   3.619   5.538
 4618SOL    HW114753   2.809   3.700   5.484
 4618SOL    HW214754   2.866   3.584   5.584
 4619SOL     OW14755   3.417   6.069   3.963
 4619SOL    HW114756   3.426   6.047   3.866
 4619SOL    HW214757   3.435   5.987   4.017
 4620SOL     OW14758   0.864   5.648   1.307
 4620SOL    HW114759   0.960   5.678   1.305
 4620SOL    HW214760   0.858   5.553   1.277
 4621SOL     OW14761   4.945   0.530   1.989
 4621SOL    HW114762   4.987   0.603   1.934
 4621SOL    HW214763   4.984   0.531   2.081
 4622SOL     OW14764   4.568   5.083   0.891
 4622SOL    HW114765   4.623   5.160   0.923
 4622SOL    HW214766   4.483   5.117   0.853
 4623SOL     OW14767   3.810   5.196   1.515
 4623SOL    HW114768   3.861   5.139   1.450
 4623SOL    HW214769   3.718   5.159   1.526
 4624SOL     OW14770   3.842   1.440   3.516
 4624SOL    HW114771   3.816   1.482   3.603
 4624SOL    HW214772   3.938   1.460   3.496
 4625SOL     OW14773   1.879   5.509   1.742
 4625SOL    HW114774   1.833   5.478   1.659
 4625SOL    HW214775   1.946   5.441   1.771
 4626SOL     OW14776   4.065   3.896   1.961
 4626SOL    HW114777   4.050   3.828   1.889
 4626SOL    HW214778   4.002   3.973   1.947
 4627SOL     OW14779   0.265   5.963   4.662
 4627SOL    HW114780   0.284   5.872   4.624
 4627SOL    HW214781   0.325   5.981   4.739
 4628SOL     OW14782   4.432   4.962   3.248
 4628SOL    HW114783   4.372   4.997   3.175
 4628SOL    HW214784   4.396   4.874   3.280
 4629SOL     OW14785   2.283   6.109   6.224
 4629SOL    HW114786   2.287   6.010   6.228
 4629SOL    HW214787   2.357   6.148   6.279
 4630SOL     OW14788   1.118   5.213   2.135
 4630SOL    HW114789   1.140   5.193   2.231
 4630SOL    HW214790   1.067   5.298   2.130
 4631SOL     OW14791   0.829   0.386   3.896
 4631SOL    HW114792   0.763   0.445   3.942
 4631SOL    HW214793   0.783   0.332   3.826
 4632SOL     OW14794   2.901   5.457   2.883
 4632SOL    HW114795   2.970   5.484   2.816
 4632SOL    HW214796   2.835   5.394   2.841
 4633SOL     OW14797   5.032   1.487   4.402
 4633SOL    HW114798   5.111   1.436   4.437
 4633SOL    HW214799   5.063   1.575   4.366
 4634SOL     OW14800   2.898   3.910   5.064
 4634SOL    HW114801   2.887   3.997   5.113
 4634SOL    HW214802   2.828   3.903   4.993
 4635SOL     OW14803   4.473   5.121   1.198
 4635SOL    HW114804   4.502   5.029   1.172
 4635SOL    HW214805   4.509   5.142   1.289
 4636SOL     OW14806   1.360   5.212   0.646
 4636SOL    HW114807   1.292   5.263   0.594
 4636SOL    HW214808   1.399   5.140   0.588
 4637SOL     OW14809   1.365   6.510   0.960
 4637SOL    HW114810   1.445   6.560   0.927
 4637SOL    HW214811   1.389   6.457   1.041
 4638SOL     OW14812   3.773   5.294   6.964
 4638SOL    HW114813   3.718   5.275   0.023
 4638SOL    HW214814   3.762   5.219   6.899
 4639SOL     OW14815   2.561   2.330   0.331
 4639SOL    HW114816   2.479   2.378   0.361
 4639SOL    HW214817   2.570   2.244   0.382
 4640SOL     OW14818   6.133   2.785   5.433
 4640SOL    HW114819   6.058   2.851   5.443
 4640SOL    HW214820   6.124   2.739   5.345
 4641SOL     OW14821   1.758   6.627   3.698
 4641SOL    HW114822   1.719   6.653   3.609
 4641SOL    HW214823   1.729   6.534   3.721
 4642SOL     OW14824   1.739   1.644   3.597
 4642SOL    HW114825   1.798   1.722   3.575
 4642SOL    HW214826   1.760   1.612   3.690
 4643SOL     OW14827   6.668   2.123   0.354
 4643SOL    HW114828   6.751   2.121   0.298
 4643SOL    HW214829   6.599   2.178   0.307
 4644SOL     OW14830   0.249   0.670   6.236
 4644SOL    HW114831   0.348   0.655   6.233
 4644SOL    HW214832   0.226   0.757   6.194
 4645SOL     OW14833   1.837   0.897   4.052
 4645SOL    HW114834   1.802   0.982   4.091
 4645SOL    HW214835   1.786   0.820   4.090
 4646SOL     OW14836   2.531   5.175   4.282
 4646SOL    HW114837   2.447   5.129   4.312
 4646SOL    HW214838   2.512   5.227   4.199
 4647SOL     OW14839   1.759   6.252   3.452
 4647SOL    HW114840   1.737   6.198   3.371
 4647SOL    HW214841   1.675   6.278   3.498
 4648SOL     OW14842   2.850   1.210   4.023
 4648SOL    HW114843   2.872   1.126   4.072
 4648SOL    HW214844   2.914   1.282   4.049
 4649SOL     OW14845   5.829   1.123   0.967
 4649SOL    HW114846   5.871   1.134   0.877
 4649SOL    HW214847   5.899   1.136   1.037
 4650SOL     OW14848   4.819   5.747   1.046
 4650SOL    HW114849   4.758   5.753   1.125
 4650SOL    HW214850   4.775   5.693   0.975
 4651SOL     OW14851   6.115   4.002   6.007
 4651SOL    HW114852   6.126   3.940   6.086
 4651SOL    HW214853   6.093   3.948   5.926
 4652SOL     OW14854   0.094   5.306   4.245
 4652SOL    HW114855   0.125   5.222   4.289
 4652SOL    HW214856   0.173   5.365   4.229
 4653SOL     OW14857   4.853   5.508   0.200
 4653SOL    HW114858   4.917   5.562   0.254
 4653SOL    HW214859   4.875   5.411   0.209
 4654SOL     OW14860   6.786   6.881   4.960
 4654SOL    HW114861   6.790   6.812   4.888
 4654SOL    HW214862   6.830   6.965   4.928
 4655SOL     OW14863   5.304   3.328   1.717
 4655SOL    HW114864   5.266   3.251   1.767
 4655SOL    HW214865   5.241   3.355   1.644
 4656SOL     OW14866   0.503   0.598   1.402
 4656SOL    HW114867   0.481   0.646   1.317
 4656SOL    HW214868   0.549   0.661   1.466
 4657SOL     OW14869   5.663   6.666   1.681
 4657SOL    HW114870   5.572   6.674   1.641
 4657SOL    HW214871   5.689   6.754   1.720
 4658SOL     OW14872   2.630   2.860   5.628
 4658SOL    HW114873   2.566   2.920   5.677
 4658SOL    HW214874   2.718   2.861   5.674
 4659SOL     OW14875   3.679   4.166   1.290
 4659SOL    HW114876   3.691   4.080   1.241
 4659SOL    HW214877   3.581   4.185   1.302
 4660SOL     OW14878   1.676   0.021   4.025
 4660SOL    HW114879   1.668   0.061   4.116
 4660SOL    HW214880   1.754   6.981   4.023
 4661SOL     OW14881   2.567   3.981   5.620
 4661SOL    HW114882   2.488   4.042   5.628
 4661SOL    HW214883   2.570   3.942   5.528
 4662SOL     OW14884   2.910   0.039   5.314
 4662SOL    HW114885   2.891   0.121   5.262
 4662SOL    HW214886   2.957   0.063   5.399
 4663SOL     OW14887   1.012   6.782   0.175
 4663SOL    HW114888   1.033   6.684   0.176
 4663SOL    HW214889   0.917   6.796   0.148
 4664SOL     OW14890   6.609   6.600   0.821
 4664SOL    HW114891   6.644   6.652   0.743
 4664SOL    HW214892   6.509   6.607   0.825
 4665SOL     OW14893   2.058   1.022   5.515
 4665SOL    HW114894   1.983   1.059   5.571
 4665SOL    HW214895   2.146   1.043   5.560
 4666SOL     OW14896   1.977   2.464   0.064
 4666SOL    HW114897   1.976   2.460   6.987
 4666SOL    HW214898   1.939   2.379   0.101
 4667SOL     OW14899   6.674   3.972   1.567
 4667SOL    HW114900   6.694   3.877   1.541
 4667SOL    HW214901   6.722   3.993   1.652
 4668SOL     OW14902   4.253   2.032   5.134
 4668SOL    HW114903   4.193   1.957   5.165
 4668SOL    HW214904   4.216   2.070   5.049
 4669SOL     OW14905   5.037   0.440   0.226
 4669SOL    HW114906   4.948   0.475   0.255
 4669SOL    HW214907   5.093   0.515   0.193
 4670SOL     OW14908   1.392   3.294   0.031
 4670SOL    HW114909   1.426   3.212   0.075
 4670SOL    HW214910   1.406   3.287   6.955
 4671SOL     OW14911   0.979   3.374   6.990
 4671SOL    HW114912   0.928   3.449   6.948
 4671SOL    HW214913   1.026   3.408   0.048
 4672SOL     OW14914   4.224   4.731   5.792
 4672SOL    HW114915   4.160   4.694   5.859
 4672SOL    HW214916   4.230   4.830   5.804
 4673SOL     OW14917   5.344   0.734   6.736
 4673SOL    HW114918   5.329   0.645   6.692
 4673SOL    HW214919   5.274   0.799   6.706
 4674SOL     OW14920   6.728   1.534   0.682
 4674SOL    HW114921   6.769   1.492   0.601
 4674SOL    HW214922   6.643   1.487   0.705
 4675SOL     OW14923   3.520   6.450   6.628
 4675SOL    HW114924   3.524   6.356   6.593
 4675SOL    HW214925   3.462   6.453   6.709
 4676SOL     OW14926   0.844   6.480   4.846
 4676SOL    HW114927   0.746   6.495   4.862
 4676SOL    HW214928   0.879   6.549   4.782
 4677SOL     OW14929   3.144   0.263   0.036
 4677SOL    HW114930   3.129   0.344   7.003
 4677SOL    HW214931   3.242   0.248   0.048
 4678SOL     OW14932   1.994   5.274   1.513
 4678SOL    HW114933   2.022   5.323   1.595
 4678SOL    HW214934   2.019   5.327   1.432
 4679SOL     OW14935   2.678   1.476   6.322
 4679SOL    HW114936   2.685   1.545   6.393
 4679SOL    HW214937   2.624   1.399   6.356
 4680SOL     OW14938   2.109   5.259   1.232
 4680SOL    HW114939   2.110   5.355   1.260
 4680SOL    HW214940   2.028   5.242   1.176
 4681SOL     OW14941   6.783   5.802   4.917
 4681SOL    HW114942   6.850   5.819   4.990
 4681SOL    HW214943   6.803   5.860   4.839
 4682SOL     OW14944   3.930   5.856   6.888
 4682SOL    HW114945   3.960   5.858   6.793
 4682SOL    HW214946   3.966   5.774   6.933
 4683SOL     OW14947   5.944   3.853   2.620
 4683SOL    HW114948   5.985   3.854   2.711
 4683SOL    HW214949   5.844   3.854   2.629
 4684SOL     OW14950   1.341   2.174   4.004
 4684SOL    HW114951   1.268   2.107   4.018
 4684SOL    HW214952   1.340   2.240   4.080
 4685SOL     OW14953   6.342   5.300   4.635
 4685SOL    HW114954   6.421   5.270   4.581
 4685SOL    HW214955   6.273   5.228   4.636
 4686SOL     OW14956   5.262   5.414   0.343
 4686SOL    HW114957   5.203   5.493   0.326
 4686SOL    HW214958   5.205   5.333   0.358
 4687SOL     OW14959   6.381   4.097   4.521
 4687SOL    HW114960   6.366   4.167   4.452
 4687SOL    HW214961   6.467   4.050   4.504
 4688SOL     OW14962   0.523   3.493   6.160
 4688SOL    HW114963   0.618   3.462   6.166
 4688SOL    HW214964   0.483   3.495   6.251
 4689SOL     OW14965   6.389   0.196   5.631
 4689SOL    HW114966   6.342   0.135   5.567
 4689SOL    HW214967   6.388   0.289   5.595
 4690SOL     OW14968   1.258   0.985   0.076
 4690SOL    HW114969   1.291   1.024   7.013
 4690SOL    HW214970   1.251   0.886   0.067
 4691SOL     OW14971   2.514   4.236   0.905
 4691SOL    HW114972   2.496   4.200   0.996
 4691SOL    HW214973   2.570   4.170   0.854
 4692SOL     OW14974   7.010   5.030   2.901
 4692SOL    HW114975   0.078   4.992   2.915
 4692SOL    HW214976   6.991   5.037   2.803
 4693SOL     OW14977   0.320   1.230   4.490
 4693SOL    HW114978   0.254   1.305   4.492
 4693SOL    HW214979   0.322   1.190   4.398
 4694SOL     OW14980   2.996   0.586   0.384
 4694SOL    HW114981   2.964   0.659   0.444
 4694SOL    HW214982   2.972   0.609   0.289
 4695SOL     OW14983   4.248   3.221   1.749
 4695SOL    HW114984   4.257   3.128   1.713
 4695SOL    HW214985   4.315   3.281   1.705
 4696SOL     OW14986   1.078   3.621   6.155
 4696SOL    HW114987   1.142   3.557   6.198
 4696SOL    HW214988   1.027   3.670   6.226
 4697SOL     OW14989   2.006   3.428   0.464
 4697SOL    HW114990   1.968   3.341   0.494
 4697SOL    HW214991   2.047   3.476   0.542
 4698SOL     OW14992   5.565   4.543   1.780
 4698SOL    HW114993   5.495   4.513   1.715
 4698SOL    HW214994   5.523   4.558   1.870
 4699SOL     OW14995   0.195   6.717   2.113
 4699SOL    HW114996   0.215   6.721   2.211
 4699SOL    HW214997   0.101   6.745   2.097
 4700SOL     OW14998   5.025   2.072   1.403
 4700SOL    HW114999   5.061   2.059   1.495
 4700SOL    HW215000   4.948   2.011   1.389
 4701SOL     OW15001   0.763   1.491   6.704
 4701SOL    HW115002   0.667   1.510   6.683
 4701SOL    HW215003   0.792   1.408   6.656
 4702SOL     OW15004   4.418   3.881   6.775
 4702SOL    HW115005   4.377   3.811   6.833
 4702SOL    HW215006   4.447   3.959   6.831
 4703SOL     OW15007   1.036   1.689   3.173
 4703SOL    HW115008   0.966   1.710   3.242
 4703SOL    HW215009   1.118   1.745   3.192
 4704SOL     OW15010   0.102   5.835   1.110
 4704SOL    HW115011   0.093   5.934   1.126
 4704SOL    HW215012   0.115   5.789   1.197
 4705SOL     OW15013   3.508   3.037   4.324
 4705SOL    HW115014   3.553   3.124   4.302
 4705SOL    HW215015   3.439   3.052   4.394
 4706SOL     OW15016   3.857   5.921   6.487
 4706SOL    HW115017   3.819   5.924   6.394
 4706SOL    HW215018   3.783   5.904   6.552
 4707SOL     OW15019   2.023   5.603   1.021
 4707SOL    HW115020   2.120   5.619   1.038
 4707SOL    HW215021   1.975   5.597   1.108
 4708SOL     OW15022   3.268   2.540   0.445
 4708SOL    HW115023   3.322   2.558   0.363
 4708SOL    HW215024   3.315   2.577   0.525
 4709SOL     OW15025   3.860   4.923   5.093
 4709SOL    HW115026   3.847   4.942   4.995
 4709SOL    HW215027   3.954   4.895   5.110
 4710SOL     OW15028   4.911   1.630   6.577
 4710SOL    HW115029   4.998   1.669   6.548
 4710SOL    HW215030   4.871   1.578   6.502
 4711SOL     OW15031   3.483   6.990   2.777
 4711SOL    HW115032   3.468   0.065   2.790
 4711SOL    HW215033   3.581   6.972   2.768
 4712SOL     OW15034   1.891   4.732   1.283
 4712SOL    HW115035   1.897   4.660   1.214
 4712SOL    HW215036   1.874   4.690   1.373
 4713SOL     OW15037   3.063   4.875   1.489
 4713SOL    HW115038   2.974   4.864   1.445
 4713SOL    HW215039   3.090   4.788   1.531
 4714SOL     OW15040   2.056   1.432   0.899
 4714SOL    HW115041   2.047   1.357   0.834
 4714SOL    HW215042   2.089   1.397   0.986
 4715SOL     OW15043   6.880   2.829   2.426
 4715SOL    HW115044   6.912   2.887   2.351
 4715SOL    HW215045   6.784   2.805   2.409
 4716SOL     OW15046   3.670   4.883   6.427
 4716SOL    HW115047   3.694   4.979   6.415
 4716SOL    HW215048   3.718   4.846   6.506
 4717SOL     OW15049   0.976   5.948   2.297
 4717SOL    HW115050   0.988   6.038   2.338
 4717SOL    HW215051   0.940   5.884   2.366
 4718SOL     OW15052   5.230   1.896   6.383
 4718SOL    HW115053   5.310   1.870   6.329
 4718SOL    HW215054   5.147   1.872   6.333
 4719SOL     OW15055   5.513   3.736   3.152
 4719SOL    HW115056   5.535   3.679   3.073
 4719SOL    HW215057   5.481   3.678   3.227
 4720SOL     OW15058   2.363   6.539   5.901
 4720SOL    HW115059   2.270   6.538   5.864
 4720SOL    HW215060   2.360   6.525   6.000
 4721SOL     OW15061   0.965   2.053   0.814
 4721SOL    HW115062   0.955   2.099   0.726
 4721SOL    HW215063   0.972   2.121   0.887
 4722SOL     OW15064   1.469   6.248   0.374
 4722SOL    HW115065   1.381   6.200   0.373
 4722SOL    HW215066   1.476   6.307   0.293
 4723SOL     OW15067   2.525   6.041   5.942
 4723SOL    HW115068   2.531   6.049   5.842
 4723SOL    HW215069   2.495   6.128   5.980
 4724SOL     OW15070   4.018   6.524   2.385
 4724SOL    HW115071   4.099   6.532   2.328
 4724SOL    HW215072   3.947   6.475   2.335
 4725SOL     OW15073   5.132   6.388   3.113
 4725SOL    HW115074   5.094   6.409   3.203
 4725SOL    HW215075   5.103   6.458   3.047
 4726SOL     OW15076   1.092   4.088   6.576
 4726SOL    HW115077   0.994   4.086   6.598
 4726SOL    HW215078   1.142   4.125   6.654
 4727SOL     OW15079   6.694   5.698   0.412
 4727SOL    HW115080   6.742   5.763   0.354
 4727SOL    HW215081   6.751   5.674   0.491
 4728SOL     OW15082   5.793   1.358   0.571
 4728SOL    HW115083   5.704   1.348   0.615
 4728SOL    HW215084   5.817   1.455   0.567
 4729SOL     OW15085   1.874   0.485   2.573
 4729SOL    HW115086   1.942   0.519   2.639
 4729SOL    HW215087   1.859   0.388   2.589
 4730SOL     OW15088   2.622   6.158   5.337
 4730SOL    HW115089   2.692   6.142   5.407
 4730SOL    HW215090   2.532   6.141   5.376
 4731SOL     OW15091   5.895   0.633   5.332
 4731SOL    HW115092   5.964   0.704   5.347
 4731SOL    HW215093   5.878   0.584   5.417
 4732SOL     OW15094   6.686   3.831   6.647
 4732SOL    HW115095   6.686   3.772   6.728
 4732SOL    HW215096   6.716   3.778   6.568
 4733SOL     OW15097   0.285   3.701   2.809
 4733SOL    HW115098   0.198   3.742   2.834
 4733SOL    HW215099   0.279   3.601   2.818
 4734SOL     OW15100   5.138   3.056   6.657
 4734SOL    HW115101   5.041   3.053   6.681
 4734SOL    HW215102   5.166   2.966   6.623
 4735SOL     OW15103   0.972   4.154   4.197
 4735SOL    HW115104   0.990   4.237   4.146
 4735SOL    HW215105   0.982   4.075   4.137
 4736SOL     OW15106   6.785   1.054   6.514
 4736SOL    HW115107   6.809   0.967   6.471
 4736SOL    HW215108   6.758   1.119   6.443
 4737SOL     OW15109   2.502   4.646   1.970
 4737SOL    HW115110   2.592   4.647   2.014
 4737SOL    HW215111   2.452   4.564   2.000
 4738SOL     OW15112   6.544   5.978   1.551
 4738SOL    HW115113   6.559   6.073   1.580
 4738SOL    HW215114   6.631   5.929   1.551
 4739SOL     OW15115   4.100   0.510   2.214
 4739SOL    HW115116   4.142   0.599   2.226
 4739SOL    HW215117   4.160   0.439   2.250
 4740SOL     OW15118   0.712   1.659   2.516
 4740SOL    HW115119   0.736   1.684   2.610
 4740SOL    HW215120   0.629   1.708   2.489
 4741SOL     OW15121   4.075   2.394   1.327
 4741SOL    HW115122   4.010   2.402   1.252
 4741SOL    HW215123   4.112   2.485   1.349
 4742SOL     OW15124   2.430   0.108   0.484
 4742SOL    HW115125   2.408   0.011   0.471
 4742SOL    HW215126   2.525   0.124   0.456
 4743SOL     OW15127   1.851   3.977   2.369
 4743SOL    HW115128   1.947   4.003   2.360
 4743SOL    HW215129   1.825   3.982   2.465
 4744SOL     OW15130   1.823   5.894   0.876
 4744SOL    HW115131   1.846   5.819   0.814
 4744SOL    HW215132   1.773   5.965   0.825
 4745SOL     OW15133   2.528   3.806   0.316
 4745SOL    HW115134   2.492   3.782   0.406
 4745SOL    HW215135   2.453   3.841   0.259
 4746SOL     OW15136   4.693   5.137   4.642
 4746SOL    HW115137   4.615   5.077   4.623
 4746SOL    HW215138   4.661   5.218   4.691
 4747SOL     OW15139   1.623   3.062   1.162
 4747SOL    HW115140   1.633   2.966   1.134
 4747SOL    HW215141   1.573   3.067   1.248
 4748SOL     OW15142   1.681   6.318   2.136
 4748SOL    HW115143   1.634   6.403   2.113
 4748SOL    HW215144   1.777   6.325   2.110
 4749SOL     OW15145   2.243   6.672   0.585
 4749SOL    HW115146   2.265   6.590   0.639
 4749SOL    HW215147   2.153   6.706   0.612
 4750SOL     OW15148   6.140   3.426   5.027
 4750SOL    HW115149   6.042   3.440   5.046
 4750SOL    HW215150   6.156   3.438   4.929
 4751SOL     OW15151   4.458   1.673   2.420
 4751SOL    HW115152   4.392   1.631   2.358
 4751SOL    HW215153   4.448   1.634   2.511
 4752SOL     OW15154   4.799   1.913   0.096
 4752SOL    HW115155   4.744   1.935   0.016
 4752SOL    HW215156   4.755   1.950   0.178
 4753SOL     OW15157   1.936   6.707   4.888
 4753SOL    HW115158   1.921   6.671   4.980
 4753SOL    HW215159   1.866   6.775   4.867
 4754SOL     OW15160   4.248   3.866   6.381
 4754SOL    HW115161   4.152   3.865   6.354
 4754SOL    HW215162   4.266   3.947   6.438
 4755SOL     OW15163   1.343   0.375   1.902
 4755SOL    HW115164   1.320   0.309   1.830
 4755SOL    HW215165   1.283   0.454   1.894
 4756SOL     OW15166   6.237   4.376   0.177
 4756SOL    HW115167   6.306   4.306   0.196
 4756SOL    HW215168   6.148   4.344   0.208
 4757SOL     OW15169   1.526   2.806   1.597
 4757SOL    HW115170   1.574   2.719   1.603
 4757SOL    HW215171   1.585   2.874   1.553
 4758SOL     OW15172   1.600   6.917   3.389
 4758SOL    HW115173   1.520   6.876   3.346
 4758SOL    HW215174   1.576   7.008   3.423
 4759SOL     OW15175   0.739   5.086   0.290
 4759SOL    HW115176   0.808   5.065   0.360
 4759SOL    HW215177   0.688   5.003   0.267
 4760SOL     OW15178   1.239   0.225   0.549
 4760SOL    HW115179   1.316   0.271   0.592
 4760SOL    HW215180   1.210   0.147   0.605
 4761SOL     OW15181   0.359   6.743   0.884
 4761SOL    HW115182   0.318   6.652   0.886
 4761SOL    HW215183   0.287   6.811   0.870
 4762SOL     OW15184   1.621   5.272   2.450
 4762SOL    HW115185   1.712   5.235   2.430
 4762SOL    HW215186   1.551   5.209   2.416
 4763SOL     OW15187   4.797   5.838   1.727
 4763SOL    HW115188   4.787   5.738   1.720
 4763SOL    HW215189   4.842   5.872   1.645
 4764SOL     OW15190   4.677   3.973   5.516
 4764SOL    HW115191   4.684   4.072   5.517
 4764SOL    HW215192   4.654   3.942   5.424
 4765SOL     OW15193   3.055   1.837   4.968
 4765SOL    HW115194   3.101   1.751   4.988
 4765SOL    HW215195   2.985   1.822   4.898
 4766SOL     OW15196   6.036   6.633   4.262
 4766SOL    HW115197   6.104   6.665   4.327
 4766SOL    HW215198   6.078   6.570   4.196
 4767SOL     OW15199   2.392   4.994   5.124
 4767SOL    HW115200   2.376   4.992   5.223
 4767SOL    HW215201   2.474   4.942   5.102
 4768SOL     OW15202   4.662   2.756   6.513
 4768SOL    HW115203   4.598   2.718   6.580
 4768SOL    HW215204   4.714   2.682   6.470
 4769SOL     OW15205   3.661   5.918   1.500
 4769SOL    HW115206   3.562   5.905   1.506
 4769SOL    HW215207   3.681   5.989   1.432
 4770SOL     OW15208   6.320   2.033   5.447
 4770SOL    HW115209   6.383   2.003   5.518
 4770SOL    HW215210   6.226   2.027   5.480
 4771SOL     OW15211   2.561   0.125   5.713
 4771SOL    HW115212   2.612   0.087   5.635
 4771SOL    HW215213   2.464   0.102   5.704
 4772SOL     OW15214   2.873   5.187   0.814
 4772SOL    HW115215   2.959   5.168   0.766
 4772SOL    HW215216   2.824   5.260   0.766
 4773SOL     OW15217   2.595   5.433   4.942
 4773SOL    HW115218   2.650   5.459   4.863
 4773SOL    HW215219   2.614   5.495   5.018
 4774SOL     OW15220   1.788   4.170   0.334
 4774SOL    HW115221   1.701   4.142   0.372
 4774SOL    HW215222   1.862   4.148   0.398
 4775SOL     OW15223   5.692   6.399   4.660
 4775SOL    HW115224   5.659   6.464   4.591
 4775SOL    HW215225   5.629   6.396   4.737
 4776SOL     OW15226   1.237   0.605   5.774
 4776SOL    HW115227   1.314   0.567   5.826
 4776SOL    HW215228   1.239   0.569   5.681
 4777SOL     OW15229   1.090   5.612   0.490
 4777SOL    HW115230   1.137   5.596   0.577
 4777SOL    HW215231   1.053   5.705   0.489
 4778SOL     OW15232   0.746   2.445   4.400
 4778SOL    HW115233   0.669   2.410   4.347
 4778SOL    HW215234   0.714   2.474   4.490
 4779SOL     OW15235   6.482   0.981   3.892
 4779SOL    HW115236   6.570   0.951   3.928
 4779SOL    HW215237   6.413   0.911   3.908
 4780SOL     OW15238   5.250   2.626   5.653
 4780SOL    HW115239   5.293   2.704   5.608
 4780SOL    HW215240   5.186   2.582   5.590
 4781SOL     OW15241   1.811   5.689   2.161
 4781SOL    HW115242   1.740   5.759   2.147
 4781SOL    HW215243   1.768   5.603   2.188
 4782SOL     OW15244   5.701   5.415   5.610
 4782SOL    HW115245   5.605   5.440   5.619
 4782SOL    HW215246   5.742   5.466   5.534
 4783SOL     OW15247   5.679   3.609   0.748
 4783SOL    HW115248   5.588   3.633   0.716
 4783SOL    HW215249   5.745   3.678   0.716
 4784SOL     OW15250   5.460   2.911   6.681
 4784SOL    HW115251   5.480   2.914   6.779
 4784SOL    HW215252   5.363   2.894   6.667
 4785SOL     OW15253   0.400   5.936   3.558
 4785SOL    HW115254   0.372   5.994   3.634
 4785SOL    HW215255   0.435   5.994   3.484
 4786SOL     OW15256   2.526   6.984   1.075
 4786SOL    HW115257   2.466   0.008   1.140
 4786SOL    HW215258   2.471   6.933   1.010
 4787SOL     OW15259   4.126   1.948   4.266
 4787SOL    HW115260   4.170   1.912   4.184
 4787SOL    HW215261   4.135   2.048   4.268
 4788SOL     OW15262   6.525   5.930   0.097
 4788SOL    HW115263   6.438   5.882   0.104
 4788SOL    HW215264   6.511   6.018   0.052
 4789SOL     OW15265   4.934   1.178   1.831
 4789SOL    HW115266   4.972   1.270   1.843
 4789SOL    HW215267   4.874   1.156   1.908
 4790SOL     OW15268   5.585   1.402   5.233
 4790SOL    HW115269   5.623   1.344   5.161
 4790SOL    HW215270   5.537   1.479   5.193
 4791SOL     OW15271   0.353   2.847   1.116
 4791SOL    HW115272   0.364   2.940   1.081
 4791SOL    HW215273   0.284   2.847   1.188
 4792SOL     OW15274   1.929   3.779   4.438
 4792SOL    HW115275   1.904   3.843   4.365
 4792SOL    HW215276   1.882   3.806   4.522
 4793SOL     OW15277   1.132   3.891   6.071
 4793SOL    HW115278   1.163   3.917   6.162
 4793SOL    HW215279   1.108   3.794   6.070
 4794SOL     OW15280   4.911   0.694   4.022
 4794SOL    HW115281   4.812   0.678   4.018
 4794SOL    HW215282   4.942   0.688   4.117
 4795SOL     OW15283   0.677   0.509   4.082
 4795SOL    HW115284   0.585   0.469   4.087
 4795SOL    HW215285   0.673   0.594   4.030
 4796SOL     OW15286   3.541   1.446   6.250
 4796SOL    HW115287   3.522   1.423   6.155
 4796SOL    HW215288   3.508   1.373   6.309
 4797SOL     OW15289   0.503   5.332   4.763
 4797SOL    HW115290   0.450   5.414   4.784
 4797SOL    HW215291   0.454   5.251   4.794
 4798SOL     OW15292   5.365   5.106   6.669
 4798SOL    HW115293   5.298   5.043   6.708
 4798SOL    HW215294   5.337   5.131   6.576
 4799SOL     OW15295   3.536   2.651   6.388
 4799SOL    HW115296   3.595   2.616   6.315
 4799SOL    HW215297   3.451   2.686   6.348
 4800SOL     OW15298   1.960   4.973   0.112
 4800SOL    HW115299   1.894   4.969   0.187
 4800SOL    HW215300   2.032   4.905   0.127
 4801SOL     OW15301   4.775   2.347   1.528
 4801SOL    HW115302   4.779   2.268   1.589
 4801SOL    HW215303   4.773   2.431   1.583
 4802SOL     OW15304   0.224   5.959   2.681
 4802SOL    HW115305   0.286   6.025   2.637
 4802SOL    HW215306   0.191   5.895   2.612
 4803SOL     OW15307   5.498   4.826   0.059
 4803SOL    HW115308   5.547   4.767   0.124
 4803SOL    HW215309   5.512   4.791   6.989
 4804SOL     OW15310   5.063   1.891   0.199
 4804SOL    HW115311   4.985   1.907   0.138
 4804SOL    HW215312   5.038   1.918   0.292
 4805SOL     OW15313   6.484   2.399   1.348
 4805SOL    HW115314   6.509   2.385   1.252
 4805SOL    HW215315   6.491   2.312   1.397
 4806SOL     OW15316   1.482   2.914   3.098
 4806SOL    HW115317   1.430   2.873   3.173
 4806SOL    HW215318   1.469   3.014   3.099
 4807SOL     OW15319   1.101   3.185   6.837
 4807SOL    HW115320   1.199   3.203   6.845
 4807SOL    HW215321   1.050   3.250   6.894
 4808SOL     OW15322   3.927   6.044   1.038
 4808SOL    HW115323   3.893   5.964   1.089
 4808SOL    HW215324   4.015   6.021   0.996
 4809SOL     OW15325   3.270   5.039   1.593
 4809SOL    HW115326   3.179   5.014   1.559
 4809SOL    HW215327   3.300   4.971   1.660
 4810SOL     OW15328   0.971   4.503   3.791
 4810SOL    HW115329   0.881   4.487   3.830
 4810SOL    HW215330   1.028   4.551   3.858
 4811SOL     OW15331   3.561   4.134   4.718
 4811SOL    HW115332   3.576   4.161   4.623
 4811SOL    HW215333   3.477   4.177   4.752
 4812SOL     OW15334   0.607   6.475   2.010
 4812SOL    HW115335   0.584   6.463   2.107
 4812SOL    HW215336   0.604   6.572   1.986
 4813SOL     OW15337   6.148   1.336   6.994
 4813SOL    HW115338   6.097   1.267   0.022
 4813SOL    HW215339   6.108   1.426   7.010
 4814SOL     OW15340   6.766   4.157   1.796
 4814SOL    HW115341   6.707   4.232   1.826
 4814SOL    HW215342   6.815   4.184   1.714
 4815SOL     OW15343   5.619   5.223   2.368
 4815SOL    HW115344   5.569   5.137   2.378
 4815SOL    HW215345   5.568   5.297   2.411
 4816SOL     OW15346   1.483   6.530   2.136
 4816SOL    HW115347   1.541   6.560   2.212
 4816SOL    HW215348   1.415   6.465   2.171
 4817SOL     OW15349   3.769   1.333   1.442
 4817SOL    HW115350   3.752   1.248   1.492
 4817SOL    HW215351   3.733   1.410   1.493
 4818SOL     OW15352   2.589   0.224   4.806
 4818SOL    HW115353   2.685   0.241   4.783
 4818SOL    HW215354   2.531   0.287   4.754
 4819SOL     OW15355   2.816   1.923   1.090
 4819SOL    HW115356   2.873   1.857   1.042
 4819SOL    HW215357   2.869   2.006   1.107
 4820SOL     OW15358   0.125   4.004   2.379
 4820SOL    HW115359   0.179   4.085   2.404
 4820SOL    HW215360   0.138   3.933   2.449
 4821SOL     OW15361   6.617   5.439   1.772
 4821SOL    HW115362   6.682   5.467   1.700
 4821SOL    HW215363   6.616   5.509   1.844
 4822SOL     OW15364   1.825   3.808   3.580
 4822SOL    HW115365   1.886   3.814   3.501
 4822SOL    HW215366   1.865   3.858   3.657
 4823SOL     OW15367   1.240   0.387   4.475
 4823SOL    HW115368   1.303   0.430   4.541
 4823SOL    HW215369   1.293   0.333   4.410
 4824SOL     OW15370   5.507   2.347   3.023
 4824SOL    HW115371   5.477   2.274   2.962
 4824SOL    HW215372   5.607   2.342   3.035
 4825SOL     OW15373   1.692   3.263   4.267
 4825SOL    HW115374   1.602   3.302   4.282
 4825SOL    HW215375   1.718   3.275   4.171
 4826SOL     OW15376   0.104   6.473   0.648
 4826SOL    HW115377   0.140   6.493   0.739
 4826SOL    HW215378   0.180   6.456   0.585
 4827SOL     OW15379   4.655   1.197   1.021
 4827SOL    HW115380   4.717   1.179   0.944
 4827SOL    HW215381   4.630   1.111   1.065
 4828SOL     OW15382   5.631   3.435   1.631
 4828SOL    HW115383   5.730   3.444   1.637
 4828SOL    HW215384   5.591   3.438   1.722
 4829SOL     OW15385   3.309   0.689   6.215
 4829SOL    HW115386   3.376   0.618   6.237
 4829SOL    HW215387   3.220   0.646   6.198
 4830SOL     OW15388   5.116   6.212   3.391
 4830SOL    HW115389   5.174   6.167   3.323
 4830SOL    HW215390   5.065   6.142   3.441
 4831SOL     OW15391   6.521   5.053   5.291
 4831SOL    HW115392   6.617   5.064   5.314
 4831SOL    HW215393   6.468   5.039   5.375
 4832SOL     OW15394   3.468   2.937   5.763
 4832SOL    HW115395   3.515   2.856   5.796
 4832SOL    HW215396   3.369   2.921   5.762
 4833SOL     OW15397   4.600   1.320   3.292
 4833SOL    HW115398   4.637   1.338   3.383
 4833SOL    HW215399   4.666   1.349   3.223
 4834SOL     OW15400   4.164   0.942   0.786
 4834SOL    HW115401   4.076   0.951   0.739
 4834SOL    HW215402   4.210   0.859   0.755
 4835SOL     OW15403   1.769   6.976   6.273
 4835SOL    HW115404   1.780   7.004   6.368
 4835SOL    HW215405   1.831   0.005   6.215
 4836SOL     OW15406   5.067   1.732   4.269
 4836SOL    HW115407   5.024   1.749   4.181
 4836SOL    HW215408   5.086   1.819   4.315
 4837SOL     OW15409   2.908   3.166   1.326
 4837SOL    HW115410   2.832   3.123   1.277
 4837SOL    HW215411   2.964   3.096   1.369
 4838SOL     OW15412   3.812   4.896   2.156
 4838SOL    HW115413   3.727   4.855   2.123
 4838SOL    HW215414   3.823   4.875   2.253
 4839SOL     OW15415   0.183   5.127   5.216
 4839SOL    HW115416   0.212   5.215   5.178
 4839SOL    HW215417   0.101   5.140   5.271
 4840SOL     OW15418   5.783   6.327   0.212
 4840SOL    HW115419   5.861   6.383   0.243
 4840SOL    HW215420   5.698   6.373   0.236
 4841SOL     OW15421   3.358   5.855   1.665
 4841SOL    HW115422   3.371   5.914   1.746
 4841SOL    HW215423   3.274   5.883   1.617
 4842SOL     OW15424   3.613   5.319   2.003
 4842SOL    HW115425   3.642   5.349   2.094
 4842SOL    HW215426   3.670   5.363   1.933
 4843SOL     OW15427   6.997   3.692   6.960
 4843SOL    HW115428   6.912   3.688   6.907
 4843SOL    HW215429   6.996   3.774   7.018
 4844SOL     OW15430   6.520   3.873   0.023
 4844SOL    HW115431   6.606   3.915   0.051
 4844SOL    HW215432   6.536   3.777   7.020
 4845SOL     OW15433   6.246   5.679   4.302
 4845SOL    HW115434   6.159   5.638   4.331
 4845SOL    HW215435   6.322   5.625   4.338
 4846SOL     OW15436   0.841   3.090   0.689
 4846SOL    HW115437   0.909   3.161   0.711
 4846SOL    HW215438   0.887   3.014   0.644
 4847SOL     OW15439   3.622   2.174   5.558
 4847SOL    HW115440   3.615   2.262   5.511
 4847SOL    HW215441   3.713   2.164   5.597
 4848SOL     OW15442   1.677   1.697   3.211
 4848SOL    HW115443   1.650   1.603   3.230
 4848SOL    HW215444   1.629   1.729   3.130
 4849SOL     OW15445   1.660   6.863   6.719
 4849SOL    HW115446   1.695   6.796   6.784
 4849SOL    HW215447   1.719   6.943   6.717
 4850SOL     OW15448   3.281   0.848   2.233
 4850SOL    HW115449   3.380   0.841   2.240
 4850SOL    HW215450   3.250   0.934   2.275
 4851SOL     OW15451   4.334   6.339   5.861
 4851SOL    HW115452   4.411   6.330   5.798
 4851SOL    HW215453   4.341   6.428   5.908
 4852SOL     OW15454   1.645   0.654   6.937
 4852SOL    HW115455   1.628   0.685   6.844
 4852SOL    HW215456   1.739   0.678   6.963
 4853SOL     OW15457   3.615   1.731   2.561
 4853SOL    HW115458   3.534   1.678   2.534
 4853SOL    HW215459   3.609   1.823   2.524
 4854SOL     OW15460   4.765   5.824   2.211
 4854SOL    HW115461   4.841   5.828   2.146
 4854SOL    HW215462   4.682   5.794   2.164
 4855SOL     OW15463   5.609   1.682   2.055
 4855SOL    HW115464   5.539   1.736   2.007
 4855SOL    HW215465   5.609   1.707   2.152
 4856SOL     OW15466   2.845   4.773   3.430
 4856SOL    HW115467   2.842   4.771   3.530
 4856SOL    HW215468   2.754   4.755   3.394
 4857SOL     OW15469   1.323   1.751   5.579
 4857SOL    HW115470   1.291   1.659   5.598
 4857SOL    HW215471   1.244   1.811   5.563
 4858SOL     OW15472   2.131   1.686   4.207
 4858SOL    HW115473   2.151   1.768   4.153
 4858SOL    HW215474   2.195   1.614   4.183
 4859SOL     OW15475   1.248   5.732   4.533
 4859SOL    HW115476   1.157   5.754   4.569
 4859SOL    HW215477   1.252   5.758   4.436
 4860SOL     OW15478   4.144   5.076   2.035
 4860SOL    HW115479   4.056   5.111   2.067
 4860SOL    HW215480   4.187   5.023   2.108
 4861SOL     OW15481   5.380   5.444   6.960
 4861SOL    HW115482   5.477   5.433   6.984
 4861SOL    HW215483   5.326   5.379   7.013
 4862SOL     OW15484   2.103   5.337   3.892
 4862SOL    HW115485   2.027   5.328   3.827
 4862SOL    HW215486   2.080   5.290   3.977
 4863SOL     OW15487   5.975   4.489   0.857
 4863SOL    HW115488   5.943   4.430   0.931
 4863SOL    HW215489   6.075   4.489   0.856
 4864SOL     OW15490   3.351   0.966   3.688
 4864SOL    HW115491   3.432   0.999   3.639
 4864SOL    HW215492   3.294   0.913   3.625
 4865SOL     OW15493   2.533   0.226   5.263
 4865SOL    HW115494   2.463   0.177   5.210
 4865SOL    HW215495   2.592   0.277   5.201
 4866SOL     OW15496   6.572   3.773   1.115
 4866SOL    HW115497   6.602   3.705   1.048
 4866SOL    HW215498   6.538   3.727   1.197
 4867SOL     OW15499   4.427   5.478   2.186
 4867SOL    HW115500   4.496   5.529   2.136
 4867SOL    HW215501   4.343   5.473   2.132
 4868SOL     OW15502   6.648   4.845   2.192
 4868SOL    HW115503   6.646   4.831   2.093
 4868SOL    HW215504   6.642   4.757   2.239
 4869SOL     OW15505   1.407   1.775   0.657
 4869SOL    HW115506   1.408   1.801   0.754
 4869SOL    HW215507   1.313   1.768   0.626
 4870SOL     OW15508   0.925   6.401   2.091
 4870SOL    HW115509   0.974   6.318   2.061
 4870SOL    HW215510   0.882   6.444   2.011
 4871SOL     OW15511   1.105   0.648   4.692
 4871SOL    HW115512   1.064   0.558   4.710
 4871SOL    HW215513   1.130   0.655   4.596
 4872SOL     OW15514   6.427   6.681   3.061
 4872SOL    HW115515   6.339   6.647   3.093
 4872SOL    HW215516   6.497   6.660   3.129
 4873SOL     OW15517   6.689   5.290   4.698
 4873SOL    HW115518   6.668   5.259   4.605
 4873SOL    HW215519   6.698   5.390   4.699
 4874SOL     OW15520   4.934   2.161   2.908
 4874SOL    HW115521   4.851   2.105   2.910
 4874SOL    HW215522   4.911   2.256   2.929
 4875SOL     OW15523   4.992   0.044   6.937
 4875SOL    HW115524   4.993   7.011   7.020
 4875SOL    HW215525   4.987   0.141   6.961
 4876SOL     OW15526   0.394   1.230   3.399
 4876SOL    HW115527   0.358   1.143   3.433
 4876SOL    HW215528   0.470   1.260   3.456
 4877SOL     OW15529   0.477   2.248   5.299
 4877SOL    HW115530   0.389   2.295   5.304
 4877SOL    HW215531   0.525   2.258   5.386
 4878SOL     OW15532   0.156   1.752   1.802
 4878SOL    HW115533   0.191   1.665   1.835
 4878SOL    HW215534   0.099   1.737   1.721
 4879SOL     OW15535   5.001   1.838   2.232
 4879SOL    HW115536   5.044   1.784   2.305
 4879SOL    HW215537   4.971   1.777   2.159
 4880SOL     OW15538   6.625   3.571   0.386
 4880SOL    HW115539   6.682   3.557   0.305
 4880SOL    HW215540   6.641   3.497   0.452
 4881SOL     OW15541   1.643   2.196   0.896
 4881SOL    HW115542   1.577   2.225   0.827
 4881SOL    HW215543   1.727   2.249   0.886
 4882SOL     OW15544   4.475   2.272   5.199
 4882SOL    HW115545   4.525   2.207   5.143
 4882SOL    HW215546   4.515   2.275   5.291
 4883SOL     OW15547   5.061   3.986   1.844
 4883SOL    HW115548   4.965   3.979   1.870
 4883SOL    HW215549   5.081   4.079   1.815
 4884SOL     OW15550   2.810   5.438   0.689
 4884SOL    HW115551   2.849   5.518   0.735
 4884SOL    HW215552   2.713   5.454   0.670
 4885SOL     OW15553   2.321   4.413   1.938
 4885SOL    HW115554   2.264   4.484   1.896
 4885SOL    HW215555   2.334   4.338   1.874
 4886SOL     OW15556   2.782   6.775   1.465
 4886SOL    HW115557   2.742   6.686   1.489
 4886SOL    HW215558   2.710   6.844   1.464
 4887SOL     OW15559   1.160   6.461   1.466
 4887SOL    HW115560   1.100   6.472   1.386
 4887SOL    HW215561   1.178   6.551   1.506
 4888SOL     OW15562   2.555   6.716   2.953
 4888SOL    HW115563   2.502   6.640   2.990
 4888SOL    HW215564   2.500   6.799   2.955
 4889SOL     OW15565   6.744   1.771   4.773
 4889SOL    HW115566   6.675   1.755   4.702
 4889SOL    HW215567   6.724   1.857   4.821
 4890SOL     OW15568   0.886   2.110   5.245
 4890SOL    HW115569   0.798   2.077   5.211
 4890SOL    HW215570   0.960   2.062   5.199
 4891SOL     OW15571   2.212   5.018   6.574
 4891SOL    HW115572   2.168   4.930   6.556
 4891SOL    HW215573   2.144   5.091   6.569
 4892SOL     OW15574   5.426   6.435   2.350
 4892SOL    HW115575   5.445   6.457   2.446
 4892SOL    HW215576   5.509   6.449   2.295
 4893SOL     OW15577   0.142   3.187   2.161
 4893SOL    HW115578   0.110   3.228   2.076
 4893SOL    HW215579   0.239   3.165   2.153
 4894SOL     OW15580   3.268   6.906   2.345
 4894SOL    HW115581   3.259   6.808   2.327
 4894SOL    HW215582   3.179   6.950   2.337
 4895SOL     OW15583   0.868   4.919   3.592
 4895SOL    HW115584   0.817   4.998   3.559
 4895SOL    HW215585   0.806   4.840   3.600
 4896SOL     OW15586   2.426   4.914   2.982
 4896SOL    HW115587   2.333   4.878   2.989
 4896SOL    HW215588   2.491   4.844   3.011
 4897SOL     OW15589   1.562   6.083   5.312
 4897SOL    HW115590   1.583   5.987   5.331
 4897SOL    HW215591   1.646   6.136   5.315
 4898SOL     OW15592   3.991   1.070   5.112
 4898SOL    HW115593   4.024   1.029   5.027
 4898SOL    HW215594   3.951   1.000   5.170
 4899SOL     OW15595   5.645   5.394   2.667
 4899SOL    HW115596   5.560   5.383   2.615
 4899SOL    HW215597   5.637   5.347   2.755
 4900SOL     OW15598   4.563   6.227   5.780
 4900SOL    HW115599   4.601   6.236   5.688
 4900SOL    HW215600   4.612   6.154   5.829
 4901SOL     OW15601   1.698   1.848   5.139
 4901SOL    HW115602   1.732   1.846   5.233
 4901SOL    HW215603   1.673   1.755   5.110
 4902SOL     OW15604   1.957   0.502   6.410
 4902SOL    HW115605   1.871   0.544   6.382
 4902SOL    HW215606   2.015   0.572   6.452
 4903SOL     OW15607   4.227   5.519   0.978
 4903SOL    HW115608   4.296   5.515   0.906
 4903SOL    HW215609   4.224   5.612   1.016
 4904SOL     OW15610   2.360   0.639   5.294
 4904SOL    HW115611   2.371   0.549   5.253
 4904SOL    HW215612   2.424   0.650   5.370
 4905SOL     OW15613   2.610   0.037   3.200
 4905SOL    HW115614   2.514   0.039   3.171
 4905SOL    HW215615   2.619   0.079   3.290
 4906SOL     OW15616   4.799   2.937   5.104
 4906SOL    HW115617   4.784   3.023   5.056
 4906SOL    HW215618   4.889   2.939   5.148
 4907SOL     OW15619   4.944   1.428   0.715
 4907SOL    HW115620   4.860   1.400   0.670
 4907SOL    HW215621   4.993   1.494   0.658
 4908SOL     OW15622   4.804   0.286   0.707
 4908SOL    HW115623   4.708   0.310   0.721
 4908SOL    HW215624   4.862   0.345   0.764
 4909SOL     OW15625   6.814   4.404   3.940
 4909SOL    HW115626   6.856   4.481   3.987
 4909SOL    HW215627   6.744   4.363   3.998
 4910SOL     OW15628   5.938   1.105   4.317
 4910SOL    HW115629   5.998   1.040   4.362
 4910SOL    HW215630   5.850   1.107   4.364
 4911SOL     OW15631   1.725   2.889   2.982
 4911SOL    HW115632   1.785   2.954   3.029
 4911SOL    HW215633   1.637   2.884   3.029
 4912SOL     OW15634   5.205   2.297   5.569
 4912SOL    HW115635   5.183   2.203   5.542
 4912SOL    HW215636   5.132   2.334   5.627
 4913SOL     OW15637   5.625   3.248   6.009
 4913SOL    HW115638   5.682   3.328   6.031
 4913SOL    HW215639   5.565   3.270   5.932
 4914SOL     OW15640   4.394   0.293   5.742
 4914SOL    HW115641   4.382   0.330   5.650
 4914SOL    HW215642   4.480   0.326   5.780
 4915SOL     OW15643   2.825   6.095   5.530
 4915SOL    HW115644   2.873   6.115   5.615
 4915SOL    HW215645   2.833   5.998   5.509
 4916SOL     OW15646   6.983   0.593   4.063
 4916SOL    HW115647   0.047   0.548   4.086
 4916SOL    HW215648   7.000   0.666   3.998
 4917SOL     OW15649   3.831   5.811   1.190
 4917SOL    HW115650   3.869   5.723   1.216
 4917SOL    HW215651   3.744   5.798   1.143
 4918SOL     OW15652   6.291   5.802   1.987
 4918SOL    HW115653   6.203   5.829   1.948
 4918SOL    HW215654   6.365   5.833   1.928
 4919SOL     OW15655   3.376   2.926   2.229
 4919SOL    HW115656   3.285   2.965   2.214
 4919SOL    HW215657   3.412   2.957   2.317
 4920SOL     OW15658   5.337   0.293   5.025
 4920SOL    HW115659   5.405   0.366   5.026
 4920SOL    HW215660   5.378   0.209   4.989
 4921SOL     OW15661   1.063   5.289   0.122
 4921SOL    HW115662   1.094   5.200   0.153
 4921SOL    HW215663   1.142   5.345   0.096
 4922SOL     OW15664   3.314   2.223   5.328
 4922SOL    HW115665   3.312   2.141   5.270
 4922SOL    HW215666   3.245   2.288   5.298
 4923SOL     OW15667   2.720   1.810   2.952
 4923SOL    HW115668   2.742   1.876   2.882
 4923SOL    HW215669   2.621   1.793   2.953
 4924SOL     OW15670   2.270   1.880   5.379
 4924SOL    HW115671   2.317   1.952   5.329
 4924SOL    HW215672   2.319   1.860   5.464
 4925SOL     OW15673   4.350   0.326   2.703
 4925SOL    HW115674   4.395   0.362   2.784
 4925SOL    HW215675   4.352   0.226   2.706
 4926SOL     OW15676   5.544   1.590   1.431
 4926SOL    HW115677   5.535   1.584   1.531
 4926SOL    HW215678   5.520   1.502   1.390
 4927SOL     OW15679   3.046   2.859   6.153
 4927SOL    HW115680   3.068   2.957   6.152
 4927SOL    HW215681   2.954   2.846   6.189
 4928SOL     OW15682   1.059   1.321   0.320
 4928SOL    HW115683   1.020   1.252   0.259
 4928SOL    HW215684   1.124   1.377   0.269
 4929SOL     OW15685   0.037   6.990   3.426
 4929SOL    HW115686   0.030   0.057   3.469
 4929SOL    HW215687   0.075   6.925   3.492
 4930SOL     OW15688   6.513   0.042   1.978
 4930SOL    HW115689   6.458   0.018   2.058
 4930SOL    HW215690   6.453   0.076   1.905
 4931SOL     OW15691   5.945   6.218   1.768
 4931SOL    HW115692   6.043   6.200   1.769
 4931SOL    HW215693   5.914   6.243   1.860
 4932SOL     OW15694   3.595   3.564   3.574
 4932SOL    HW115695   3.597   3.553   3.475
 4932SOL    HW215696   3.517   3.621   3.599
 4933SOL     OW15697   2.357   6.408   4.072
 4933SOL    HW115698   2.381   6.480   4.137
 4933SOL    HW215699   2.418   6.330   4.085
 4934SOL     OW15700   3.657   6.179   3.137
 4934SOL    HW115701   3.694   6.209   3.049
 4934SOL    HW215702   3.572   6.227   3.155
 4935SOL     OW15703   1.521   2.323   7.003
 4935SOL    HW115704   1.542   2.266   0.060
 4935SOL    HW215705   1.559   2.280   6.921
 4936SOL     OW15706   2.306   4.654   0.837
 4936SOL    HW115707   2.295   4.716   0.759
 4936SOL    HW215708   2.216   4.632   0.876
 4937SOL     OW15709   5.356   3.063   5.033
 4937SOL    HW115710   5.299   3.101   5.106
 4937SOL    HW215711   5.302   3.055   4.950
 4938SOL     OW15712   3.374   5.679   5.410
 4938SOL    HW115713   3.434   5.663   5.331
 4938SOL    HW215714   3.315   5.599   5.424
 4939SOL     OW15715   5.081   2.560   5.147
 4939SOL    HW115716   5.116   2.474   5.110
 4939SOL    HW215717   4.986   2.546   5.176
 4940SOL     OW15718   1.597   0.877   4.660
 4940SOL    HW115719   1.514   0.921   4.627
 4940SOL    HW215720   1.585   0.853   4.757
 4941SOL     OW15721   3.934   1.700   6.936
 4941SOL    HW115722   4.005   1.688   6.867
 4941SOL    HW215723   3.934   1.795   6.968
 4942SOL     OW15724   5.047   3.568   5.166
 4942SOL    HW115725   5.014   3.560   5.260
 4942SOL    HW215726   4.969   3.569   5.103
 4943SOL     OW15727   4.637   2.238   0.097
 4943SOL    HW115728   4.590   2.248   0.010
 4943SOL    HW215729   4.574   2.256   0.172
 4944SOL     OW15730   2.296   4.170   2.985
 4944SOL    HW115731   2.332   4.263   2.988
 4944SOL    HW215732   2.235   4.159   2.906
 4945SOL     OW15733   1.280   0.031   3.766
 4945SOL    HW115734   1.340   0.076   3.832
 4945SOL    HW215735   1.291   6.955   3.772
 4946SOL     OW15736   1.037   2.794   1.702
 4946SOL    HW115737   0.951   2.749   1.725
 4946SOL    HW215738   1.028   2.893   1.716
 4947SOL     OW15739   0.843   6.821   0.584
 4947SOL    HW115740   0.751   6.796   0.613
 4947SOL    HW215741   0.891   6.866   0.659
 4948SOL     OW15742   2.648   0.674   2.513
 4948SOL    HW115743   2.564   0.668   2.458
 4948SOL    HW215744   2.647   0.603   2.583
 4949SOL     OW15745   4.743   0.583   5.681
 4949SOL    HW115746   4.646   0.568   5.695
 4949SOL    HW215747   4.783   0.504   5.634
 4950SOL     OW15748   2.810   6.374   4.079
 4950SOL    HW115749   2.896   6.409   4.117
 4950SOL    HW215750   2.830   6.307   4.007
 4951SOL     OW15751   4.764   1.490   4.559
 4951SOL    HW115752   4.699   1.458   4.489
 4951SOL    HW215753   4.856   1.491   4.520
 4952SOL     OW15754   0.065   6.039   4.493
 4952SOL    HW115755   0.033   5.949   4.463
 4952SOL    HW215756   0.161   6.032   4.521
 4953SOL     OW15757   2.375   5.198   1.199
 4953SOL    HW115758   2.422   5.133   1.259
 4953SOL    HW215759   2.276   5.188   1.209
 4954SOL     OW15760   5.089   4.827   0.258
 4954SOL    HW115761   5.144   4.798   0.336
 4954SOL    HW215762   5.004   4.774   0.256
 4955SOL     OW15763   1.512   6.343   0.124
 4955SOL    HW115764   1.543   6.315   0.033
 4955SOL    HW215765   1.447   6.419   0.115
 4956SOL     OW15766   4.076   6.924   5.927
 4956SOL    HW115767   4.160   6.967   5.895
 4956SOL    HW215768   4.094   6.829   5.951
 4957SOL     OW15769   0.013   1.235   4.284
 4957SOL    HW115770   0.083   1.164   4.292
 4957SOL    HW215771   0.021   1.279   4.195
 4958SOL     OW15772   0.877   6.419   6.242
 4958SOL    HW115773   0.971   6.395   6.219
 4958SOL    HW215774   0.814   6.360   6.192
 4959SOL     OW15775   1.161   0.574   6.694
 4959SOL    HW115776   1.108   0.498   6.731
 4959SOL    HW215777   1.227   0.605   6.762
 4960SOL     OW15778   4.021   6.744   4.234
 4960SOL    HW115779   3.930   6.784   4.246
 4960SOL    HW215780   4.047   6.694   4.316
 4961SOL     OW15781   5.918   0.295   4.619
 4961SOL    HW115782   5.899   0.208   4.666
 4961SOL    HW215783   5.925   0.279   4.521
 4962SOL     OW15784   5.861   2.698   2.264
 4962SOL    HW115785   5.806   2.779   2.242
 4962SOL    HW215786   5.807   2.635   2.319
 4963SOL     OW15787   0.454   5.632   1.500
 4963SOL    HW115788   0.481   5.717   1.545
 4963SOL    HW215789   0.507   5.556   1.537
 4964SOL     OW15790   3.572   5.702   3.555
 4964SOL    HW115791   3.589   5.770   3.482
 4964SOL    HW215792   3.487   5.654   3.536
 4965SOL     OW15793   0.363   0.005   4.794
 4965SOL    HW115794   0.306   6.969   4.737
 4965SOL    HW215795   0.325   0.097   4.796
 4966SOL     OW15796   2.877   6.152   4.785
 4966SOL    HW115797   2.914   6.146   4.877
 4966SOL    HW215798   2.830   6.067   4.761
 4967SOL     OW15799   4.065   2.669   6.386
 4967SOL    HW115800   3.982   2.706   6.428
 4967SOL    HW215801   4.083   2.578   6.424
 4968SOL     OW15802   4.851   3.011   3.632
 4968SOL    HW115803   4.754   3.004   3.656
 4968SOL    HW215804   4.906   2.964   3.701
 4969SOL     OW15805   1.615   0.890   1.730
 4969SOL    HW115806   1.533   0.859   1.780
 4969SOL    HW215807   1.608   0.988   1.713
 4970SOL     OW15808   1.234   2.270   4.869
 4970SOL    HW115809   1.174   2.280   4.949
 4970SOL    HW215810   1.295   2.192   4.882
 4971SOL     OW15811   6.417   6.136   3.064
 4971SOL    HW115812   6.323   6.143   3.097
 4971SOL    HW215813   6.467   6.220   3.086
 4972SOL     OW15814   2.297   3.628   0.823
 4972SOL    HW115815   2.263   3.691   0.893
 4972SOL    HW215816   2.358   3.561   0.865
 4973SOL     OW15817   5.931   6.179   2.064
 4973SOL    HW115818   6.016   6.171   2.116
 4973SOL    HW215819   5.854   6.169   2.126
 4974SOL     OW15820   5.624   5.903   2.560
 4974SOL    HW115821   5.608   5.888   2.462
 4974SOL    HW215822   5.557   5.852   2.613
 4975SOL     OW15823   5.748   5.838   0.800
 4975SOL    HW115824   5.717   5.810   0.709
 4975SOL    HW215825   5.816   5.773   0.834
 4976SOL     OW15826   3.295   0.279   4.731
 4976SOL    HW115827   3.284   0.312   4.824
 4976SOL    HW215828   3.274   0.353   4.667
 4977SOL     OW15829   4.531   3.692   0.696
 4977SOL    HW115830   4.605   3.630   0.672
 4977SOL    HW215831   4.526   3.703   0.795
 4978SOL     OW15832   5.834   3.987   5.595
 4978SOL    HW115833   5.749   4.015   5.641
 4978SOL    HW215834   5.849   4.046   5.516
 4979SOL     OW15835   0.391   1.284   5.192
 4979SOL    HW115836   0.419   1.281   5.096
 4979SOL    HW215837   0.293   1.267   5.199
 4980SOL     OW15838   3.728   5.360   2.568
 4980SOL    HW115839   3.702   5.435   2.629
 4980SOL    HW215840   3.650   5.299   2.556
 4981SOL     OW15841   4.471   7.007   6.093
 4981SOL    HW115842   4.419   0.026   6.167
 4981SOL    HW215843   4.543   0.047   6.063
 4982SOL     OW15844   1.999   2.027   6.698
 4982SOL    HW115845   2.006   2.071   6.788
 4982SOL    HW215846   1.910   2.047   6.658
 4983SOL     OW15847   5.280   2.714   3.965
 4983SOL    HW115848   5.284   2.649   3.890
 4983SOL    HW215849   5.279   2.664   4.052
 4984SOL     OW15850   5.042   3.706   4.632
 4984SOL    HW115851   5.119   3.642   4.622
 4984SOL    HW215852   5.012   3.735   4.542
 4985SOL     OW15853   5.348   5.286   3.514
 4985SOL    HW115854   5.437   5.327   3.533
 4985SOL    HW215855   5.319   5.311   3.421
 4986SOL     OW15856   6.118   4.321   2.426
 4986SOL    HW115857   6.110   4.222   2.415
 4986SOL    HW215858   6.107   4.344   2.523
 4987SOL     OW15859   0.345   3.166   1.159
 4987SOL    HW115860   0.346   3.170   1.259
 4987SOL    HW215861   0.440   3.160   1.126
 4988SOL     OW15862   0.232   1.553   4.299
 4988SOL    HW115863   0.252   1.514   4.209
 4988SOL    HW215864   0.240   1.653   4.294
 4989SOL     OW15865   6.122   1.346   0.852
 4989SOL    HW115866   6.220   1.362   0.846
 4989SOL    HW215867   6.080   1.418   0.908
 4990SOL     OW15868   0.922   2.670   5.369
 4990SOL    HW115869   0.873   2.717   5.296
 4990SOL    HW215870   0.901   2.714   5.457
 4991SOL     OW15871   0.646   3.333   3.799
 4991SOL    HW115872   0.629   3.326   3.701
 4991SOL    HW215873   0.661   3.429   3.824
 4992SOL     OW15874   3.401   0.772   5.010
 4992SOL    HW115875   3.454   0.696   4.972
 4992SOL    HW215876   3.453   0.857   5.000
 4993SOL     OW15877   2.987   5.631   3.748
 4993SOL    HW115878   2.966   5.658   3.654
 4993SOL    HW215879   2.986   5.532   3.755
 4994SOL     OW15880   0.892   6.600   2.543
 4994SOL    HW115881   0.843   6.680   2.507
 4994SOL    HW215882   0.897   6.529   2.473
 4995SOL     OW15883   7.011   3.159   6.421
 4995SOL    HW115884   0.026   3.243   6.382
 4995SOL    HW215885   0.005   3.156   6.519
 4996SOL     OW15886   0.722   1.810   1.751
 4996SOL    HW115887   0.726   1.710   1.754
 4996SOL    HW215888   0.702   1.845   1.843
 4997SOL     OW15889   6.596   2.022   2.964
 4997SOL    HW115890   6.511   2.053   2.921
 4997SOL    HW215891   6.662   2.096   2.965
 4998SOL     OW15892   1.810   4.736   5.098
 4998SOL    HW115893   1.862   4.689   5.026
 4998SOL    HW215894   1.872   4.794   5.151
 4999SOL     OW15895   4.765   5.321   0.964
 4999SOL    HW115896   4.830   5.329   1.040
 4999SOL    HW215897   4.789   5.388   0.894
 5000SOL     OW15898   0.850   0.289   4.821
 5000SOL    HW115899   0.813   0.241   4.900
 5000SOL    HW215900   0.832   0.387   4.829
 5001SOL     OW15901   2.196   4.014   6.079
 5001SOL    HW115902   2.206   4.021   6.178
 5001SOL    HW215903   2.164   4.101   6.042
 5002SOL     OW15904   2.150   1.718   2.641
 5002SOL    HW115905   2.064   1.744   2.597
 5002SOL    HW215906   2.130   1.674   2.729
 5003SOL     OW15907   0.277   6.665   2.863
 5003SOL    HW115908   0.299   6.657   2.766
 5003SOL    HW215909   0.361   6.679   2.916
 5004SOL     OW15910   2.296   5.810   6.278
 5004SOL    HW115911   2.335   5.811   6.370
 5004SOL    HW215912   2.354   5.756   6.218
 5005SOL     OW15913   3.853   2.598   0.440
 5005SOL    HW115914   3.834   2.691   0.409
 5005SOL    HW215915   3.949   2.576   0.422
 5006SOL     OW15916   5.350   6.864   5.356
 5006SOL    HW115917   5.337   6.790   5.291
 5006SOL    HW215918   5.421   6.926   5.323
 5007SOL     OW15919   4.237   1.111   5.881
 5007SOL    HW115920   4.194   1.197   5.908
 5007SOL    HW215921   4.192   1.075   5.799
 5008SOL     OW15922   6.143   1.142   3.224
 5008SOL    HW115923   6.117   1.200   3.147
 5008SOL    HW215924   6.062   1.121   3.279
 5009SOL     OW15925   0.916   5.846   1.694
 5009SOL    HW115926   0.971   5.917   1.737
 5009SOL    HW215927   0.917   5.764   1.750
 5010SOL     OW15928   3.754   4.102   3.900
 5010SOL    HW115929   3.820   4.030   3.922
 5010SOL    HW215930   3.773   4.139   3.810
 5011SOL     OW15931   1.558   3.090   1.952
 5011SOL    HW115932   1.619   3.014   1.927
 5011SOL    HW215933   1.609   3.176   1.946
 5012SOL     OW15934   6.817   3.122   6.022
 5012SOL    HW115935   6.734   3.167   6.054
 5012SOL    HW215936   6.848   3.164   5.937
 5013SOL     OW15937   4.230   1.163   6.472
 5013SOL    HW115938   4.277   1.175   6.559
 5013SOL    HW215939   4.263   1.080   6.427
 5014SOL     OW15940   6.129   5.746   0.335
 5014SOL    HW115941   6.132   5.792   0.424
 5014SOL    HW215942   6.038   5.708   0.320
 5015SOL     OW15943   4.212   1.959   3.665
 5015SOL    HW115944   4.312   1.959   3.669
 5015SOL    HW215945   4.179   2.053   3.654
 5016SOL     OW15946   1.686   0.475   2.855
 5016SOL    HW115947   1.622   0.415   2.904
 5016SOL    HW215948   1.636   0.550   2.813
 5017SOL     OW15949   2.549   2.106   0.509
 5017SOL    HW115950   2.600   2.101   0.595
 5017SOL    HW215951   2.463   2.156   0.525
 5018SOL     OW15952   6.984   4.306   2.253
 5018SOL    HW115953   6.933   4.231   2.294
 5018SOL    HW215954   6.974   4.388   2.310
 5019SOL     OW15955   2.559   4.043   0.487
 5019SOL    HW115956   2.566   4.029   0.585
 5019SOL    HW215957   2.534   3.957   0.442
 5020SOL     OW15958   5.276   5.489   6.093
 5020SOL    HW115959   5.357   5.431   6.087
 5020SOL    HW215960   5.281   5.560   6.022
 5021SOL     OW15961   1.967   5.047   5.678
 5021SOL    HW115962   2.003   4.954   5.678
 5021SOL    HW215963   2.040   5.111   5.656
 5022SOL     OW15964   1.960   6.170   0.448
 5022SOL    HW115965   2.020   6.241   0.484
 5022SOL    HW215966   1.882   6.213   0.402
 5023SOL     OW15967   6.154   3.157   0.770
 5023SOL    HW115968   6.198   3.239   0.806
 5023SOL    HW215969   6.189   3.138   0.678
 5024SOL     OW15970   6.734   4.122   3.543
 5024SOL    HW115971   6.689   4.146   3.457
 5024SOL    HW215972   6.809   4.058   3.525
 5025SOL     OW15973   5.044   1.240   2.944
 5025SOL    HW115974   5.129   1.187   2.935
 5025SOL    HW215975   5.066   1.337   2.950
 5026SOL     OW15976   5.895   5.426   4.974
 5026SOL    HW115977   5.913   5.456   5.068
 5026SOL    HW215978   5.966   5.363   4.945
 5027SOL     OW15979   0.543   6.408   3.108
 5027SOL    HW115980   0.446   6.383   3.101
 5027SOL    HW215981   0.599   6.326   3.092
 5028SOL     OW15982   0.532   6.294   1.792
 5028SOL    HW115983   0.592   6.229   1.746
 5028SOL    HW215984   0.588   6.364   1.837
 5029SOL     OW15985   6.885   2.820   1.682
 5029SOL    HW115986   6.939   2.858   1.758
 5029SOL    HW215987   6.913   2.726   1.664
 5030SOL     OW15988   6.618   0.283   6.707
 5030SOL    HW115989   6.685   0.223   6.665
 5030SOL    HW215990   6.540   0.229   6.738
 5031SOL     OW15991   5.956   1.344   4.134
 5031SOL    HW115992   5.906   1.428   4.159
 5031SOL    HW215993   5.955   1.281   4.212
 5032SOL     OW15994   1.696   5.144   0.307
 5032SOL    HW115995   1.739   5.229   0.338
 5032SOL    HW215996   1.747   5.066   0.342
 5033SOL     OW15997   2.825   4.607   5.637
 5033SOL    HW115998   2.883   4.542   5.686
 5033SOL    HW215999   2.816   4.579   5.542
 5034SOL     OW16000   6.486   2.087   2.528
 5034SOL    HW116001   6.475   2.164   2.590
 5034SOL    HW216002   6.405   2.081   2.469
 5035SOL     OW16003   4.373   5.228   0.771
 5035SOL    HW116004   4.382   5.235   0.672
 5035SOL    HW216005   4.382   5.319   0.811
 5036SOL     OW16006   1.153   6.095   0.312
 5036SOL    HW116007   1.121   6.190   0.321
 5036SOL    HW216008   1.074   6.034   0.316
 5037SOL     OW16009   4.124   1.481   3.517
 5037SOL    HW116010   4.196   1.460   3.451
 5037SOL    HW216011   4.143   1.568   3.561
 5038SOL     OW16012   1.282   6.052   5.679
 5038SOL    HW116013   1.242   6.086   5.764
 5038SOL    HW216014   1.345   6.121   5.642
 5039SOL     OW16015   2.384   2.888   5.393
 5039SOL    HW116016   2.352   2.959   5.456
 5039SOL    HW216017   2.417   2.931   5.309
 5040SOL     OW16018   2.892   3.607   6.767
 5040SOL    HW116019   2.892   3.661   6.851
 5040SOL    HW216020   2.838   3.524   6.780
 5041SOL     OW16021   1.131   3.478   1.505
 5041SOL    HW116022   1.117   3.399   1.565
 5041SOL    HW216023   1.109   3.562   1.555
 5042SOL     OW16024   5.975   3.929   6.671
 5042SOL    HW116025   5.948   3.896   6.580
 5042SOL    HW216026   6.039   3.864   6.711
 5043SOL     OW16027   3.438   0.838   3.897
 5043SOL    HW116028   3.424   0.888   3.812
 5043SOL    HW216029   3.528   0.860   3.935
 5044SOL     OW16030   6.127   5.935   3.775
 5044SOL    HW116031   6.062   5.979   3.712
 5044SOL    HW216032   6.077   5.885   3.845
 5045SOL     OW16033   5.999   3.573   0.211
 5045SOL    HW116034   5.949   3.625   0.142
 5045SOL    HW216035   5.988   3.617   0.300
 5046SOL     OW16036   3.659   3.040   4.975
 5046SOL    HW116037   3.752   3.014   5.001
 5046SOL    HW216038   3.605   3.057   5.058
 5047SOL     OW16039   6.110   0.668   2.516
 5047SOL    HW116040   6.074   0.749   2.563
 5047SOL    HW216041   6.096   0.587   2.573
 5048SOL     OW16042   6.981   2.304   1.998
 5048SOL    HW116043   6.916   2.328   2.071
 5048SOL    HW216044   7.002   2.206   2.004
 5049SOL     OW16045   0.912   1.856   1.995
 5049SOL    HW116046   0.989   1.809   1.952
 5049SOL    HW216047   0.923   1.955   1.986
 5050SOL     OW16048   0.365   2.159   1.818
 5050SOL    HW116049   0.376   2.068   1.777
 5050SOL    HW216050   0.325   2.221   1.751
 5051SOL     OW16051   2.714   3.991   1.077
 5051SOL    HW116052   2.740   3.915   1.017
 5051SOL    HW216053   2.639   3.962   1.136
 5052SOL     OW16054   4.254   4.790   0.908
 5052SOL    HW116055   4.188   4.715   0.907
 5052SOL    HW216056   4.321   4.775   0.981
 5053SOL     OW16057   2.270   4.219   1.711
 5053SOL    HW116058   2.223   4.261   1.633
 5053SOL    HW216059   2.292   4.124   1.688
 5054SOL     OW16060   3.456   6.373   4.855
 5054SOL    HW116061   3.502   6.303   4.910
 5054SOL    HW216062   3.397   6.329   4.788
 5055SOL     OW16063   0.794   2.054   4.724
 5055SOL    HW116064   0.877   1.998   4.730
 5055SOL    HW216065   0.796   2.106   4.639
 5056SOL     OW16066   0.278   3.688   6.301
 5056SOL    HW116067   0.315   3.713   6.212
 5056SOL    HW216068   0.348   3.639   6.353
 5057SOL     OW16069   1.025   5.968   3.552
 5057SOL    HW116070   0.943   5.917   3.525
 5057SOL    HW216071   1.020   5.988   3.650
 5058SOL     OW16072   4.146   4.160   6.872
 5058SOL    HW116073   4.237   4.200   6.873
 5058SOL    HW216074   4.125   4.122   6.962
 5059SOL     OW16075   3.677   2.096   4.964
 5059SOL    HW116076   3.687   2.052   5.053
 5059SOL    HW216077   3.582   2.122   4.950
 5060SOL     OW16078   0.144   3.634   5.019
 5060SOL    HW116079   0.072   3.616   4.953
 5060SOL    HW216080   0.226   3.665   4.971
 5061SOL     OW16081   3.480   3.745   4.362
 5061SOL    HW116082   3.560   3.804   4.347
 5061SOL    HW216083   3.489   3.700   4.451
 5062SOL     OW16084   4.785   1.007   2.692
 5062SOL    HW116085   4.879   0.981   2.669
 5062SOL    HW216086   4.726   0.989   2.614
 5063SOL     OW16087   1.604   6.202   2.402
 5063SOL    HW116088   1.689   6.158   2.431
 5063SOL    HW216089   1.618   6.248   2.314
 5064SOL     OW16090   4.448   5.499   0.838
 5064SOL    HW116091   4.476   5.489   0.933
 5064SOL    HW216092   4.520   5.462   0.778
 5065SOL     OW16093   2.229   0.056   3.128
 5065SOL    HW116094   2.149   0.045   3.069
 5065SOL    HW216095   2.212   0.014   3.217
 5066SOL     OW16096   2.025   4.806   1.912
 5066SOL    HW116097   1.935   4.792   1.872
 5066SOL    HW216098   2.017   4.812   2.011
 5067SOL     OW16099   4.080   2.182   1.548
 5067SOL    HW116100   4.085   2.220   1.456
 5067SOL    HW216101   4.037   2.248   1.609
 5068SOL     OW16102   3.908   5.775   0.845
 5068SOL    HW116103   3.885   5.696   0.900
 5068SOL    HW216104   3.992   5.817   0.880
 5069SOL     OW16105   2.935   4.131   6.459
 5069SOL    HW116106   2.961   4.078   6.379
 5069SOL    HW216107   2.968   4.086   6.542
 5070SOL     OW16108   5.810   3.232   4.230
 5070SOL    HW116109   5.713   3.238   4.207
 5070SOL    HW216110   5.826   3.272   4.320
 5071SOL     OW16111   4.046   1.006   3.561
 5071SOL    HW116112   4.034   1.075   3.490
 5071SOL    HW216113   4.023   1.045   3.650
 5072SOL     OW16114   1.192   0.703   0.951
 5072SOL    HW116115   1.126   0.776   0.934
 5072SOL    HW216116   1.253   0.694   0.872
 5073SOL     OW16117   2.480   6.586   2.701
 5073SOL    HW116118   2.471   6.674   2.747
 5073SOL    HW216119   2.576   6.562   2.692
 5074SOL     OW16120   3.784   1.912   1.559
 5074SOL    HW116121   3.743   1.886   1.647
 5074SOL    HW216122   3.806   2.009   1.561
 5075SOL     OW16123   1.614   3.102   6.757
 5075SOL    HW116124   1.584   3.030   6.820
 5075SOL    HW216125   1.711   3.090   6.737
 5076SOL     OW16126   5.216   1.247   0.104
 5076SOL    HW116127   5.303   1.252   0.152
 5076SOL    HW216128   5.219   1.172   0.038
 5077SOL     OW16129   1.363   4.031   4.679
 5077SOL    HW116130   1.412   4.048   4.593
 5077SOL    HW216131   1.398   4.091   4.750
 5078SOL     OW16132   0.648   1.282   3.565
 5078SOL    HW116133   0.722   1.234   3.518
 5078SOL    HW216134   0.655   1.380   3.548
 5079SOL     OW16135   1.786   2.373   5.988
 5079SOL    HW116136   1.799   2.319   5.905
 5079SOL    HW216137   1.873   2.384   6.034
 5080SOL     OW16138   5.991   5.394   5.737
 5080SOL    HW116139   5.901   5.384   5.694
 5080SOL    HW216140   6.033   5.304   5.748
 5081SOL     OW16141   3.550   6.214   5.061
 5081SOL    HW116142   3.505   6.290   5.109
 5081SOL    HW216143   3.649   6.226   5.064
 5082SOL     OW16144   4.710   6.362   0.741
 5082SOL    HW116145   4.719   6.373   0.642
 5082SOL    HW216146   4.701   6.265   0.764
 5083SOL     OW16147   2.817   0.889   2.570
 5083SOL    HW116148   2.755   0.818   2.538
 5083SOL    HW216149   2.848   0.867   2.663
 5084SOL     OW16150   0.873   5.310   5.495
 5084SOL    HW116151   0.864   5.241   5.423
 5084SOL    HW216152   0.939   5.379   5.466
 5085SOL     OW16153   1.416   3.779   5.876
 5085SOL    HW116154   1.319   3.795   5.859
 5085SOL    HW216155   1.470   3.812   5.799
 5086SOL     OW16156   1.039   4.876   3.044
 5086SOL    HW116157   0.964   4.811   3.041
 5086SOL    HW216158   1.121   4.835   3.004
 5087SOL     OW16159   6.816   5.435   2.484
 5087SOL    HW116160   6.851   5.463   2.573
 5087SOL    HW216161   6.875   5.472   2.412
 5088SOL     OW16162   4.411   6.021   2.222
 5088SOL    HW116163   4.477   6.074   2.168
 5088SOL    HW216164   4.423   6.042   2.319
 5089SOL     OW16165   5.272   3.891   4.676
 5089SOL    HW116166   5.247   3.982   4.641
 5089SOL    HW216167   5.188   3.838   4.693
 5090SOL     OW16168   1.713   0.007   3.733
 5090SOL    HW116169   1.654   6.952   3.715
 5090SOL    HW216170   1.705   0.033   3.829
 5091SOL     OW16171   6.751   0.148   0.399
 5091SOL    HW116172   6.720   0.232   0.354
 5091SOL    HW216173   6.816   0.172   0.472
 5092SOL     OW16174   3.707   3.918   4.323
 5092SOL    HW116175   3.706   3.982   4.246
 5092SOL    HW216176   3.797   3.875   4.331
 5093SOL     OW16177   2.303   1.383   2.344
 5093SOL    HW116178   2.331   1.334   2.261
 5093SOL    HW216179   2.352   1.347   2.423
 5094SOL     OW16180   2.387   5.315   6.719
 5094SOL    HW116181   2.440   5.239   6.681
 5094SOL    HW216182   2.356   5.291   6.811
 5095SOL     OW16183   0.460   1.189   3.144
 5095SOL    HW116184   0.430   1.191   3.240
 5095SOL    HW216185   0.466   1.095   3.113
 5096SOL     OW16186   5.086   4.030   6.246
 5096SOL    HW116187   5.099   4.102   6.314
 5096SOL    HW216188   5.126   3.944   6.279
 5097SOL     OW16189   6.254   6.608   6.554
 5097SOL    HW116190   6.318   6.601   6.478
 5097SOL    HW216191   6.304   6.631   6.638
 5098SOL     OW16192   4.007   2.212   2.055
 5098SOL    HW116193   3.992   2.165   2.143
 5098SOL    HW216194   3.918   2.233   2.014
 5099SOL     OW16195   0.348   6.028   1.684
 5099SOL    HW116196   0.416   5.975   1.734
 5099SOL    HW216197   0.379   6.041   1.590
 5100SOL     OW16198   4.757   4.525   2.675
 5100SOL    HW116199   4.700   4.464   2.729
 5100SOL    HW216200   4.701   4.601   2.640
 5101SOL     OW16201   3.925   0.163   5.785
 5101SOL    HW116202   3.913   0.197   5.692
 5101SOL    HW216203   3.883   0.072   5.793
 5102SOL     OW16204   4.610   5.606   3.919
 5102SOL    HW116205   4.596   5.607   4.018
 5102SOL    HW216206   4.522   5.598   3.872
 5103SOL     OW16207   0.520   0.825   4.977
 5103SOL    HW116208   0.612   0.864   4.970
 5103SOL    HW216209   0.462   0.865   4.906
 5104SOL     OW16210   3.369   6.302   1.936
 5104SOL    HW116211   3.437   6.362   1.894
 5104SOL    HW216212   3.343   6.339   2.025
 5105SOL     OW16213   3.250   3.461   0.074
 5105SOL    HW116214   3.188   3.392   0.112
 5105SOL    HW216215   3.255   3.450   6.998
 5106SOL     OW16216   3.949   2.424   0.829
 5106SOL    HW116217   3.861   2.392   0.864
 5106SOL    HW216218   3.974   2.373   0.747
 5107SOL     OW16219   5.461   2.713   1.400
 5107SOL    HW116220   5.500   2.623   1.378
 5107SOL    HW216221   5.533   2.783   1.392
 5108SOL     OW16222   4.560   4.348   6.011
 5108SOL    HW116223   4.469   4.323   6.045
 5108SOL    HW216224   4.553   4.431   5.956
 5109SOL     OW16225   1.950   3.279   1.575
 5109SOL    HW116226   2.013   3.343   1.531
 5109SOL    HW216227   1.943   3.301   1.672
 5110SOL     OW16228   6.430   6.678   6.329
 5110SOL    HW116229   6.512   6.647   6.377
 5110SOL    HW216230   6.395   6.603   6.272
 5111SOL     OW16231   1.049   6.268   4.543
 5111SOL    HW116232   1.007   6.195   4.597
 5111SOL    HW216233   1.098   6.331   4.604
 5112SOL     OW16234   0.740   0.104   2.625
 5112SOL    HW116235   0.754   0.200   2.599
 5112SOL    HW216236   0.698   0.055   2.548
 5113SOL     OW16237   1.963   5.082   0.576
 5113SOL    HW116238   1.905   5.014   0.530
 5113SOL    HW216239   2.052   5.085   0.532
 5114SOL     OW16240   3.684   0.064   0.590
 5114SOL    HW116241   3.763   0.068   0.652
 5114SOL    HW216242   3.705   0.002   0.514
 5115SOL     OW16243   2.035   3.968   1.458
 5115SOL    HW116244   2.017   3.876   1.422
 5115SOL    HW216245   2.096   3.962   1.536
 5116SOL     OW16246   2.799   6.622   6.552
 5116SOL    HW116247   2.865   6.582   6.617
 5116SOL    HW216248   2.753   6.549   6.502
 5117SOL     OW16249   0.648   3.247   4.201
 5117SOL    HW116250   0.611   3.258   4.108
 5117SOL    HW216251   0.577   3.268   4.268
 5118SOL     OW16252   6.148   0.454   0.385
 5118SOL    HW116253   6.069   0.459   0.446
 5118SOL    HW216254   6.228   0.422   0.437
 5119SOL     OW16255   5.398   1.899   0.275
 5119SOL    HW116256   5.362   1.985   0.239
 5119SOL    HW216257   5.344   1.823   0.239
 5120SOL     OW16258   5.160   0.685   5.041
 5120SOL    HW116259   5.097   0.755   5.008
 5120SOL    HW216260   5.206   0.718   5.124
 5121SOL     OW16261   3.281   3.799   6.947
 5121SOL    HW116262   3.307   3.874   6.886
 5121SOL    HW216263   3.222   3.835   7.020
 5122SOL     OW16264   4.011   5.383   3.058
 5122SOL    HW116265   3.965   5.392   3.147
 5122SOL    HW216266   4.050   5.470   3.032
 5123SOL     OW16267   5.113   2.283   2.266
 5123SOL    HW116268   5.053   2.274   2.187
 5123SOL    HW216269   5.189   2.344   2.243
 5124SOL     OW16270   1.931   6.359   3.864
 5124SOL    HW116271   1.885   6.407   3.789
 5124SOL    HW216272   1.921   6.410   3.949
 5125SOL     OW16273   0.398   1.477   3.947
 5125SOL    HW116274   0.462   1.407   3.914
 5125SOL    HW216275   0.445   1.565   3.954
 5126SOL     OW16276   1.627   6.649   0.535
 5126SOL    HW116277   1.664   6.616   0.449
 5126SOL    HW216278   1.696   6.639   0.607
 5127SOL     OW16279   1.829   5.842   0.214
 5127SOL    HW116280   1.858   5.747   0.203
 5127SOL    HW216281   1.849   5.893   0.130
 5128SOL     OW16282   0.193   5.728   1.369
 5128SOL    HW116283   0.290   5.718   1.347
 5128SOL    HW216284   0.183   5.768   1.461
 5129SOL     OW16285   4.380   6.210   1.390
 5129SOL    HW116286   4.438   6.140   1.430
 5129SOL    HW216287   4.372   6.287   1.453
 5130SOL     OW16288   6.319   4.887   2.552
 5130SOL    HW116289   6.381   4.898   2.474
 5130SOL    HW216290   6.277   4.797   2.549
 5131SOL     OW16291   0.781   3.143   3.361
 5131SOL    HW116292   0.839   3.137   3.442
 5131SOL    HW216293   0.791   3.059   3.307
 5132SOL     OW16294   3.351   3.784   6.272
 5132SOL    HW116295   3.371   3.867   6.219
 5132SOL    HW216296   3.437   3.741   6.299
 5133SOL     OW16297   3.300   5.586   0.021
 5133SOL    HW116298   3.221   5.551   0.071
 5133SOL    HW216299   3.324   5.521   6.971
 5134SOL     OW16300   0.765   3.016   1.561
 5134SOL    HW116301   0.826   2.979   1.490
 5134SOL    HW216302   0.678   2.967   1.558
 5135SOL     OW16303   7.010   2.224   5.560
 5135SOL    HW116304   6.931   2.278   5.529
 5135SOL    HW216305   6.992   2.187   5.651
 5136SOL     OW16306   5.155   0.632   4.588
 5136SOL    HW116307   5.056   0.639   4.600
 5136SOL    HW216308   5.194   0.723   4.573
 5137SOL     OW16309   5.822   3.431   6.425
 5137SOL    HW116310   5.815   3.362   6.353
 5137SOL    HW216311   5.733   3.443   6.469
 5138SOL     OW16312   3.778   3.040   6.366
 5138SOL    HW116313   3.697   2.990   6.394
 5138SOL    HW216314   3.786   3.038   6.266
 5139SOL     OW16315   1.719   6.597   4.254
 5139SOL    HW116316   1.760   6.606   4.345
 5139SOL    HW216317   1.789   6.609   4.184
 5140SOL     OW16318   2.682   1.811   0.725
 5140SOL    HW116319   2.589   1.841   0.746
 5140SOL    HW216320   2.729   1.882   0.673
 5141SOL     OW16321   5.670   3.963   1.177
 5141SOL    HW116322   5.758   3.936   1.138
 5141SOL    HW216323   5.597   3.909   1.135
 5142SOL     OW16324   6.097   2.814   4.437
 5142SOL    HW116325   6.118   2.847   4.346
 5142SOL    HW216326   6.048   2.727   4.431
 5143SOL     OW16327   1.180   4.704   4.539
 5143SOL    HW116328   1.128   4.785   4.568
 5143SOL    HW216329   1.277   4.723   4.547
 5144SOL     OW16330   1.717   6.623   5.972
 5144SOL    HW116331   1.670   6.702   5.932
 5144SOL    HW216332   1.727   6.551   5.904
 5145SOL     OW16333   2.057   5.234   6.390
 5145SOL    HW116334   2.062   5.175   6.310
 5145SOL    HW216335   1.969   5.281   6.391
 5146SOL     OW16336   4.064   3.918   6.673
 5146SOL    HW116337   4.010   3.840   6.642
 5146SOL    HW216338   4.093   3.903   6.768
 5147SOL     OW16339   0.192   4.382   1.393
 5147SOL    HW116340   0.102   4.365   1.353
 5147SOL    HW216341   0.211   4.480   1.392
 5148SOL     OW16342   0.543   6.146   1.074
 5148SOL    HW116343   0.600   6.074   1.114
 5148SOL    HW216344   0.602   6.219   1.039
 5149SOL     OW16345   6.279   0.584   3.345
 5149SOL    HW116346   6.232   0.503   3.381
 5149SOL    HW216347   6.216   0.662   3.345
 5150SOL     OW16348   2.463   6.111   4.385
 5150SOL    HW116349   2.456   6.054   4.303
 5150SOL    HW216350   2.521   6.065   4.453
 5151SOL     OW16351   5.345   1.408   6.631
 5151SOL    HW116352   5.416   1.420   6.562
 5151SOL    HW216353   5.348   1.484   6.696
 5152SOL     OW16354   2.152   4.827   0.215
 5152SOL    HW116355   2.250   4.843   0.227
 5152SOL    HW216356   2.127   4.739   0.257
 5153SOL     OW16357   1.959   2.234   0.525
 5153SOL    HW116358   2.057   2.228   0.509
 5153SOL    HW216359   1.926   2.146   0.561
 5154SOL     OW16360   2.055   3.404   5.922
 5154SOL    HW116361   2.135   3.436   5.973
 5154SOL    HW216362   1.972   3.429   5.971
 5155SOL     OW16363   3.696   5.978   2.185
 5155SOL    HW116364   3.679   5.883   2.214
 5155SOL    HW216365   3.726   5.979   2.090
 5156SOL     OW16366   6.558   2.559   6.354
 5156SOL    HW116367   6.520   2.651   6.362
 5156SOL    HW216368   6.610   2.552   6.269
 5157SOL     OW16369   4.794   2.809   3.867
 5157SOL    HW116370   4.740   2.753   3.804
 5157SOL    HW216371   4.891   2.803   3.842
 5158SOL     OW16372   3.176   2.100   1.404
 5158SOL    HW116373   3.139   2.068   1.491
 5158SOL    HW216374   3.273   2.121   1.415
 5159SOL     OW16375   0.612   3.598   4.371
 5159SOL    HW116376   0.605   3.501   4.396
 5159SOL    HW216377   0.694   3.613   4.317
 5160SOL     OW16378   1.514   3.720   4.107
 5160SOL    HW116379   1.596   3.708   4.051
 5160SOL    HW216380   1.462   3.635   4.108
 5161SOL     OW16381   1.443   4.461   5.604
 5161SOL    HW116382   1.354   4.505   5.593
 5161SOL    HW216383   1.515   4.531   5.600
 5162SOL     OW16384   6.966   4.907   4.266
 5162SOL    HW116385   6.972   4.824   4.322
 5162SOL    HW216386   0.020   4.968   4.289
 5163SOL     OW16387   4.848   5.065   1.128
 5163SOL    HW116388   4.849   5.165   1.127
 5163SOL    HW216389   4.832   5.032   1.221
 5164SOL     OW16390   5.807   2.510   5.177
 5164SOL    HW116391   5.773   2.501   5.270
 5164SOL    HW216392   5.731   2.533   5.116
 5165SOL     OW16393   5.895   4.792   4.998
 5165SOL    HW116394   5.827   4.721   5.010
 5165SOL    HW216395   5.963   4.787   5.071
 5166SOL     OW16396   1.674   4.985   1.889
 5166SOL    HW116397   1.750   5.040   1.855
 5166SOL    HW216398   1.691   4.889   1.869
 5167SOL     OW16399   6.432   6.887   5.319
 5167SOL    HW116400   6.511   6.867   5.262
 5167SOL    HW216401   6.356   6.917   5.261
 5168SOL     OW16402   4.443   2.443   3.290
 5168SOL    HW116403   4.512   2.498   3.336
 5168SOL    HW216404   4.455   2.452   3.191
 5169SOL     OW16405   3.202   3.912   6.499
 5169SOL    HW116406   3.213   3.897   6.400
 5169SOL    HW216407   3.268   3.980   6.530
 5170SOL     OW16408   6.913   4.735   5.338
 5170SOL    HW116409   6.974   4.680   5.395
 5170SOL    HW216410   6.829   4.684   5.321
 5171SOL     OW16411   2.573   4.643   4.455
 5171SOL    HW116412   2.485   4.679   4.425
 5171SOL    HW216413   2.558   4.572   4.525
 5172SOL     OW16414   0.485   3.316   1.771
 5172SOL    HW116415   0.452   3.335   1.863
 5172SOL    HW216416   0.422   3.356   1.704
 5173SOL     OW16417   5.681   3.958   6.452
 5173SOL    HW116418   5.777   3.961   6.424
 5173SOL    HW216419   5.658   4.042   6.502
 5174SOL     OW16420   2.075   4.614   4.995
 5174SOL    HW116421   2.099   4.622   4.898
 5174SOL    HW216422   2.157   4.628   5.051
 5175SOL     OW16423   1.761   3.935   0.037
 5175SOL    HW116424   1.689   3.933   0.107
 5175SOL    HW216425   1.734   3.877   6.983
 5176SOL     OW16426   4.047   3.346   0.374
 5176SOL    HW116427   4.133   3.396   0.361
 5176SOL    HW216428   4.039   3.275   0.304
 5177SOL     OW16429   4.613   0.212   5.322
 5177SOL    HW116430   4.542   0.192   5.254
 5177SOL    HW216431   4.632   0.310   5.323
 5178SOL     OW16432   2.415   2.509   1.570
 5178SOL    HW116433   2.426   2.586   1.632
 5178SOL    HW216434   2.320   2.479   1.569
 5179SOL     OW16435   4.728   6.529   5.303
 5179SOL    HW116436   4.808   6.581   5.334
 5179SOL    HW216437   4.645   6.582   5.318
 5180SOL     OW16438   3.590   2.588   7.003
 5180SOL    HW116439   3.524   2.654   6.970
 5180SOL    HW216440   3.543   2.516   0.032
 5181SOL     OW16441   3.458   0.703   2.711
 5181SOL    HW116442   3.398   0.783   2.711
 5181SOL    HW216443   3.551   0.731   2.690
 5182SOL     OW16444   5.787   5.035   1.602
 5182SOL    HW116445   5.884   5.061   1.608
 5182SOL    HW216446   5.778   4.936   1.615
 5183SOL     OW16447   4.509   6.626   1.962
 5183SOL    HW116448   4.520   6.635   2.061
 5183SOL    HW216449   4.598   6.606   1.920
 5184SOL     OW16450   1.034   0.944   3.552
 5184SOL    HW116451   1.006   0.856   3.514
 5184SOL    HW216452   1.134   0.948   3.557
 5185SOL     OW16453   3.712   6.431   2.619
 5185SOL    HW116454   3.749   6.359   2.560
 5185SOL    HW216455   3.745   6.520   2.588
 5186SOL     OW16456   6.412   3.704   0.858
 5186SOL    HW116457   6.382   3.678   0.950
 5186SOL    HW216458   6.497   3.655   0.835
 5187SOL     OW16459   6.806   1.303   3.170
 5187SOL    HW116460   6.733   1.273   3.110
 5187SOL    HW216461   6.845   1.389   3.135
 5188SOL     OW16462   0.361   5.140   6.856
 5188SOL    HW116463   0.353   5.082   6.775
 5188SOL    HW216464   0.415   5.093   6.926
 5189SOL     OW16465   4.890   4.976   0.084
 5189SOL    HW116466   4.967   4.957   0.144
 5189SOL    HW216467   4.922   5.026   0.003
 5190SOL     OW16468   0.743   1.826   3.943
 5190SOL    HW116469   0.654   1.828   3.897
 5190SOL    HW216470   0.814   1.801   3.878
 5191SOL     OW16471   3.305   1.208   1.794
 5191SOL    HW116472   3.301   1.126   1.851
 5191SOL    HW216473   3.260   1.189   1.706
 5192SOL     OW16474   5.114   5.524   2.636
 5192SOL    HW116475   5.195   5.489   2.684
 5192SOL    HW216476   5.061   5.447   2.600
 5193SOL     OW16477   4.697   4.307   3.812
 5193SOL    HW116478   4.604   4.346   3.810
 5193SOL    HW216479   4.713   4.255   3.728
 5194SOL     OW16480   5.046   0.826   5.884
 5194SOL    HW116481   5.065   0.870   5.796
 5194SOL    HW216482   5.044   0.896   5.955
 5195SOL     OW16483   6.552   6.935   4.625
 5195SOL    HW116484   6.510   6.889   4.547
 5195SOL    HW216485   6.481   6.966   4.688
 5196SOL     OW16486   0.715   4.340   1.781
 5196SOL    HW116487   0.787   4.409   1.775
 5196SOL    HW216488   0.736   4.265   1.718
 5197SOL     OW16489   1.637   6.380   4.557
 5197SOL    HW116490   1.584   6.322   4.618
 5197SOL    HW216491   1.664   6.327   4.476
 5198SOL     OW16492   2.955   6.563   5.170
 5198SOL    HW116493   2.880   6.561   5.104
 5198SOL    HW216494   3.023   6.631   5.141
 5199SOL     OW16495   2.080   5.503   1.345
 5199SOL    HW116496   2.006   5.565   1.316
 5199SOL    HW216497   2.128   5.544   1.423
 5200SOL     OW16498   1.187   1.891   4.737
 5200SOL    HW116499   1.246   1.826   4.785
 5200SOL    HW216500   1.094   1.883   4.773
 5201SOL     OW16501   5.285   4.750   4.292
 5201SOL    HW116502   5.281   4.768   4.390
 5201SOL    HW216503   5.295   4.652   4.276
 5202SOL     OW16504   4.878   3.068   6.724
 5202SOL    HW116505   4.792   3.031   6.761
 5202SOL    HW216506   4.879   3.167   6.735
 5203SOL     OW16507   1.504   0.196   6.957
 5203SOL    HW116508   1.459   0.134   7.021
 5203SOL    HW216509   1.435   0.245   6.903
 5204SOL     OW16510   3.542   6.861   6.784
 5204SOL    HW116511   3.518   6.764   6.773
 5204SOL    HW216512   3.492   6.898   6.862
 5205SOL     OW16513   6.795   5.735   1.156
 5205SOL    HW116514   6.748   5.769   1.075
 5205SOL    HW216515   6.892   5.759   1.151
 5206SOL     OW16516   0.540   4.349   4.662
 5206SOL    HW116517   0.601   4.270   4.658
 5206SOL    HW216518   0.467   4.332   4.729
 5207SOL     OW16519   0.214   6.822   4.478
 5207SOL    HW116520   0.224   6.920   4.461
 5207SOL    HW216521   0.295   6.787   4.525
 5208SOL     OW16522   5.066   2.368   0.397
 5208SOL    HW116523   4.996   2.347   0.329
 5208SOL    HW216524   5.119   2.447   0.367
 5209SOL     OW16525   4.588   0.201   3.219
 5209SOL    HW116526   4.539   0.240   3.141
 5209SOL    HW216527   4.521   0.162   3.283
 5210SOL     OW16528   5.456   4.559   1.316
 5210SOL    HW116529   5.434   4.507   1.234
 5210SOL    HW216530   5.540   4.611   1.301
 5211SOL     OW16531   4.953   1.820   4.039
 5211SOL    HW116532   5.042   1.800   3.997
 5211SOL    HW216533   4.881   1.791   3.977
 5212SOL     OW16534   1.248   2.554   0.876
 5212SOL    HW116535   1.182   2.628   0.892
 5212SOL    HW216536   1.241   2.523   0.781
 5213SOL     OW16537   4.095   3.396   2.499
 5213SOL    HW116538   4.106   3.441   2.410
 5213SOL    HW216539   4.105   3.297   2.488
 5214SOL     OW16540   5.758   4.409   6.469
 5214SOL    HW116541   5.662   4.381   6.469
 5214SOL    HW216542   5.785   4.439   6.560
 5215SOL     OW16543   6.745   3.055   4.605
 5215SOL    HW116544   6.760   3.086   4.511
 5215SOL    HW216545   6.832   3.042   4.651
 5216SOL     OW16546   5.709   4.670   1.425
 5216SOL    HW116547   5.681   4.722   1.507
 5216SOL    HW216548   5.747   4.582   1.453
 5217SOL     OW16549   3.906   5.783   4.157
 5217SOL    HW116550   3.895   5.779   4.256
 5217SOL    HW216551   3.912   5.878   4.127
 5218SOL     OW16552   0.492   0.429   0.628
 5218SOL    HW116553   0.570   0.446   0.688
 5218SOL    HW216554   0.524   0.421   0.534
 5219SOL     OW16555   2.412   2.083   5.262
 5219SOL    HW116556   2.459   2.059   5.178
 5219SOL    HW216557   2.398   2.182   5.265
 5220SOL     OW16558   2.550   5.418   3.142
 5220SOL    HW116559   2.555   5.504   3.092
 5220SOL    HW216560   2.587   5.431   3.234
 5221SOL     OW16561   6.864   0.176   1.406
 5221SOL    HW116562   6.881   0.267   1.368
 5221SOL    HW216563   6.933   0.157   1.477
 5222SOL     OW16564   4.192   4.782   1.315
 5222SOL    HW116565   4.126   4.710   1.295
 5222SOL    HW216566   4.278   4.764   1.266
 5223SOL     OW16567   0.430   3.151   0.538
 5223SOL    HW116568   0.515   3.203   0.542
 5223SOL    HW216569   0.451   3.053   0.543
 5224SOL     OW16570   0.853   1.552   4.005
 5224SOL    HW116571   0.834   1.649   3.997
 5224SOL    HW216572   0.920   1.524   3.937
 5225SOL     OW16573   6.535   1.160   4.818
 5225SOL    HW116574   6.608   1.169   4.751
 5225SOL    HW216575   6.451   1.200   4.781
 5226SOL     OW16576   0.137   5.844   3.858
 5226SOL    HW116577   0.154   5.749   3.835
 5226SOL    HW216578   0.223   5.893   3.867
 5227SOL     OW16579   6.922   3.448   5.842
 5227SOL    HW116580   6.909   3.506   5.761
 5227SOL    HW216581   6.877   3.491   5.921
 5228SOL     OW16582   1.547   2.887   5.641
 5228SOL    HW116583   1.516   2.958   5.578
 5228SOL    HW216584   1.579   2.808   5.588
 5229SOL     OW16585   3.335   0.077   6.644
 5229SOL    HW116586   3.250   0.112   6.683
 5229SOL    HW216587   3.390   0.036   6.716
 5230SOL     OW16588   6.742   0.185   2.055
 5230SOL    HW116589   6.671   0.122   2.023
 5230SOL    HW216590   6.786   0.227   1.976
 5231SOL     OW16591   5.663   1.675   3.181
 5231SOL    HW116592   5.743   1.696   3.237
 5231SOL    HW216593   5.586   1.653   3.241
 5232SOL     OW16594   1.896   3.821   5.737
 5232SOL    HW116595   1.940   3.831   5.826
 5232SOL    HW216596   1.925   3.896   5.677
 5233SOL     OW16597   3.098   0.391   2.820
 5233SOL    HW116598   3.092   0.364   2.724
 5233SOL    HW216599   3.141   0.317   2.873
 5234SOL     OW16600   1.639   2.596   0.892
 5234SOL    HW116601   1.612   2.685   0.856
 5234SOL    HW216602   1.568   2.528   0.873
 5235SOL     OW16603   2.301   1.571   0.868
 5235SOL    HW116604   2.209   1.534   0.886
 5235SOL    HW216605   2.361   1.549   0.945
 5236SOL     OW16606   3.467   5.225   2.591
 5236SOL    HW116607   3.477   5.132   2.557
 5236SOL    HW216608   3.375   5.258   2.570
 5237SOL     OW16609   1.730   2.377   4.397
 5237SOL    HW116610   1.812   2.325   4.373
 5237SOL    HW216611   1.750   2.438   4.474
 5238SOL     OW16612   1.152   5.282   2.988
 5238SOL    HW116613   1.064   5.329   2.993
 5238SOL    HW216614   1.152   5.203   3.049
 5239SOL     OW16615   3.059   3.985   1.563
 5239SOL    HW116616   3.139   4.014   1.615
 5239SOL    HW216617   2.988   3.953   1.626
 5240SOL     OW16618   2.771   2.835   6.252
 5240SOL    HW116619   2.712   2.792   6.183
 5240SOL    HW216620   2.727   2.828   6.341
 5241SOL     OW16621   1.162   5.774   2.196
 5241SOL    HW116622   1.132   5.681   2.177
 5241SOL    HW216623   1.097   5.820   2.256
 5242SOL     OW16624   4.629   0.897   1.032
 5242SOL    HW116625   4.726   0.883   1.051
 5242SOL    HW216626   4.618   0.934   0.940
 5243SOL     OW16627   1.892   5.857   1.593
 5243SOL    HW116628   1.980   5.818   1.565
 5243SOL    HW216629   1.899   5.957   1.595
 5244SOL     OW16630   4.831   3.518   0.554
 5244SOL    HW116631   4.862   3.498   0.647
 5244SOL    HW216632   4.911   3.532   0.495
 5245SOL     OW16633   4.378   3.938   0.102
 5245SOL    HW116634   4.422   3.989   0.028
 5245SOL    HW216635   4.405   3.978   0.190
 5246SOL     OW16636   6.997   2.885   1.924
 5246SOL    HW116637   6.987   2.828   2.006
 5246SOL    HW216638   0.061   2.935   1.929
 5247SOL     OW16639   3.804   1.418   5.754
 5247SOL    HW116640   3.762   1.484   5.692
 5247SOL    HW216641   3.820   1.332   5.706
 5248SOL     OW16642   6.912   1.707   2.617
 5248SOL    HW116643   6.828   1.760   2.606
 5248SOL    HW216644   6.991   1.762   2.591
 5249SOL     OW16645   0.879   4.721   0.174
 5249SOL    HW116646   0.906   4.662   0.098
 5249SOL    HW216647   0.906   4.678   0.260
 5250SOL     OW16648   2.031   5.594   0.199
 5250SOL    HW116649   2.100   5.640   0.143
 5250SOL    HW216650   2.067   5.506   0.231
 5251SOL     OW16651   1.160   4.263   1.347
 5251SOL    HW116652   1.078   4.302   1.305
 5251SOL    HW216653   1.191   4.323   1.421
 5252SOL     OW16654   3.274   6.443   2.158
 5252SOL    HW116655   3.229   6.530   2.137
 5252SOL    HW216656   3.208   6.378   2.195
 5253SOL     OW16657   5.534   4.851   4.645
 5253SOL    HW116658   5.570   4.811   4.729
 5253SOL    HW216659   5.609   4.889   4.591
 5254SOL     OW16660   5.802   0.128   2.920
 5254SOL    HW116661   5.760   0.214   2.951
 5254SOL    HW216662   5.737   0.053   2.934
 5255SOL     OW16663   5.742   1.958   4.922
 5255SOL    HW116664   5.754   1.986   4.826
 5255SOL    HW216665   5.830   1.961   4.969
 5256SOL     OW16666   4.784   0.801   3.074
 5256SOL    HW116667   4.710   0.788   3.008
 5256SOL    HW216668   4.872   0.787   3.028
 5257SOL     OW16669   4.209   0.614   6.507
 5257SOL    HW116670   4.213   0.708   6.475
 5257SOL    HW216671   4.287   0.596   6.568
 5258SOL     OW16672   5.340   1.385   2.572
 5258SOL    HW116673   5.240   1.388   2.582
 5258SOL    HW216674   5.383   1.421   2.655
 5259SOL     OW16675   5.106   5.552   2.951
 5259SOL    HW116676   5.049   5.511   3.022
 5259SOL    HW216677   5.104   5.494   2.869
 5260SOL     OW16678   2.969   6.033   0.230
 5260SOL    HW116679   2.943   5.957   0.290
 5260SOL    HW216680   2.982   5.998   0.137
 5261SOL     OW16681   6.864   4.761   0.773
 5261SOL    HW116682   6.845   4.663   0.770
 5261SOL    HW216683   6.846   4.795   0.866
 5262SOL     OW16684   2.099   0.131   2.632
 5262SOL    HW116685   2.198   0.116   2.632
 5262SOL    HW216686   2.069   0.158   2.723
 5263SOL     OW16687   1.505   0.814   3.513
 5263SOL    HW116688   1.563   0.828   3.433
 5263SOL    HW216689   1.435   0.747   3.491
 5264SOL     OW16690   6.870   2.122   1.607
 5264SOL    HW116691   6.865   2.043   1.668
 5264SOL    HW216692   6.837   2.096   1.516
 5265SOL     OW16693   5.480   2.547   4.517
 5265SOL    HW116694   5.460   2.489   4.596
 5265SOL    HW216695   5.480   2.491   4.434
 5266SOL     OW16696   2.349   6.396   0.725
 5266SOL    HW116697   2.348   6.304   0.764
 5266SOL    HW216698   2.441   6.435   0.736
 5267SOL     OW16699   4.530   2.502   4.261
 5267SOL    HW116700   4.459   2.450   4.214
 5267SOL    HW216701   4.533   2.595   4.224
 5268SOL     OW16702   5.326   1.103   6.724
 5268SOL    HW116703   5.309   1.201   6.708
 5268SOL    HW216704   5.366   1.062   6.642
 5269SOL     OW16705   0.468   6.488   2.261
 5269SOL    HW116706   0.379   6.446   2.241
 5269SOL    HW216707   0.495   6.468   2.355
 5270SOL     OW16708   6.307   1.941   0.123
 5270SOL    HW116709   6.369   1.864   0.104
 5270SOL    HW216710   6.212   1.909   0.117
 5271SOL     OW16711   6.164   5.521   4.597
 5271SOL    HW116712   6.251   5.475   4.612
 5271SOL    HW216713   6.100   5.495   4.670
 5272SOL     OW16714   3.598   6.544   0.629
 5272SOL    HW116715   3.696   6.559   0.622
 5272SOL    HW216716   3.553   6.632   0.645
 5273SOL     OW16717   1.074   3.125   2.845
 5273SOL    HW116718   1.173   3.139   2.841
 5273SOL    HW216719   1.050   3.042   2.794
 5274SOL     OW16720   4.506   6.591   2.594
 5274SOL    HW116721   4.555   6.513   2.555
 5274SOL    HW216722   4.503   6.584   2.693
 5275SOL     OW16723   2.904   0.413   1.068
 5275SOL    HW116724   2.959   0.487   1.107
 5275SOL    HW216725   2.810   0.443   1.057
 5276SOL     OW16726   2.219   6.496   1.574
 5276SOL    HW116727   2.268   6.563   1.630
 5276SOL    HW216728   2.131   6.534   1.545
 5277SOL     OW16729   2.433   1.075   2.408
 5277SOL    HW116730   2.401   1.086   2.314
 5277SOL    HW216731   2.531   1.097   2.411
 5278SOL     OW16732   4.013   4.818   2.644
 5278SOL    HW116733   3.997   4.847   2.549
 5278SOL    HW216734   3.925   4.798   2.688
 5279SOL     OW16735   2.515   5.642   1.418
 5279SOL    HW116736   2.561   5.593   1.492
 5279SOL    HW216737   2.583   5.670   1.350
 5280SOL     OW16738   3.290   6.317   5.224
 5280SOL    HW116739   3.235   6.249   5.273
 5280SOL    HW216740   3.333   6.379   5.290
 5281SOL     OW16741   0.294   1.517   2.436
 5281SOL    HW116742   0.389   1.490   2.445
 5281SOL    HW216743   0.289   1.609   2.397
 5282SOL     OW16744   2.797   2.068   3.327
 5282SOL    HW116745   2.804   2.127   3.247
 5282SOL    HW216746   2.888   2.052   3.365
 5283SOL     OW16747   5.171   5.463   0.809
 5283SOL    HW116748   5.230   5.478   0.889
 5283SOL    HW216749   5.120   5.546   0.789
 5284SOL     OW16750   5.273   3.888   3.263
 5284SOL    HW116751   5.292   3.949   3.340
 5284SOL    HW216752   5.357   3.873   3.211
 5285SOL     OW16753   3.069   5.075   3.912
 5285SOL    HW116754   2.982   5.079   3.961
 5285SOL    HW216755   3.100   5.168   3.892
 5286SOL     OW16756   1.847   4.556   1.067
 5286SOL    HW116757   1.800   4.534   0.982
 5286SOL    HW216758   1.870   4.471   1.116
 5287SOL     OW16759   2.462   1.259   0.530
 5287SOL    HW116760   2.372   1.300   0.544
 5287SOL    HW216761   2.530   1.311   0.581
 5288SOL     OW16762   2.860   0.264   1.375
 5288SOL    HW116763   2.769   0.287   1.342
 5288SOL    HW216764   2.919   0.240   1.298
 5289SOL     OW16765   0.834   5.378   1.234
 5289SOL    HW116766   0.825   5.309   1.162
 5289SOL    HW216767   0.760   5.367   1.300
 5290SOL     OW16768   3.541   5.594   0.154
 5290SOL    HW116769   3.616   5.569   0.092
 5290SOL    HW216770   3.453   5.577   0.109
 5291SOL     OW16771   2.248   5.105   5.705
 5291SOL    HW116772   2.303   5.050   5.643
 5291SOL    HW216773   2.208   5.045   5.776
 5292SOL     OW16774   5.205   3.352   6.166
 5292SOL    HW116775   5.302   3.353   6.193
 5292SOL    HW216776   5.150   3.325   6.244
 5293SOL     OW16777   0.595   0.161   4.118
 5293SOL    HW116778   0.565   0.067   4.134
 5293SOL    HW216779   0.530   0.224   4.161
 5294SOL     OW16780   5.980   3.260   6.210
 5294SOL    HW116781   6.075   3.230   6.213
 5294SOL    HW216782   5.931   3.206   6.141
 5295SOL     OW16783   5.721   0.896   2.930
 5295SOL    HW116784   5.635   0.860   2.893
 5295SOL    HW216785   5.700   0.966   2.998
 5296SOL     OW16786   1.173   4.564   0.544
 5296SOL    HW116787   1.187   4.473   0.507
 5296SOL    HW216788   1.134   4.557   0.637
 5297SOL     OW16789   2.056   1.069   1.079
 5297SOL    HW116790   2.110   1.153   1.082
 5297SOL    HW216791   1.968   1.085   1.123
 5298SOL     OW16792   6.813   4.672   1.159
 5298SOL    HW116793   6.715   4.667   1.174
 5298SOL    HW216794   6.859   4.695   1.246
 5299SOL     OW16795   3.255   0.869   1.590
 5299SOL    HW116796   3.213   0.849   1.679
 5299SOL    HW216797   3.216   0.808   1.521
 5300SOL     OW16798   0.011   6.384   3.851
 5300SOL    HW116799   6.954   6.346   3.805
 5300SOL    HW216800   0.042   6.320   3.922
 5301SOL     OW16801   4.300   1.428   6.595
 5301SOL    HW116802   4.213   1.379   6.606
 5301SOL    HW216803   4.330   1.420   6.500
 5302SOL     OW16804   6.103   4.444   2.690
 5302SOL    HW116805   6.182   4.482   2.738
 5302SOL    HW216806   6.037   4.517   2.671
 5303SOL     OW16807   6.421   4.240   3.824
 5303SOL    HW116808   6.509   4.203   3.792
 5303SOL    HW216809   6.406   4.212   3.919
 5304SOL     OW16810   4.846   1.924   5.583
 5304SOL    HW116811   4.870   1.885   5.672
 5304SOL    HW216812   4.817   1.851   5.522
 5305SOL     OW16813   2.580   1.120   3.441
 5305SOL    HW116814   2.631   1.094   3.523
 5305SOL    HW216815   2.499   1.062   3.433
 5306SOL     OW16816   3.161   6.271   6.543
 5306SOL    HW116817   3.154   6.352   6.485
 5306SOL    HW216818   3.135   6.190   6.490
 5307SOL     OW16819   4.753   6.936   6.633
 5307SOL    HW116820   4.698   6.915   6.553
 5307SOL    HW216821   4.850   6.939   6.607
 5308SOL     OW16822   6.956   1.193   3.396
 5308SOL    HW116823   6.897   1.228   3.324
 5308SOL    HW216824   6.976   1.097   3.381
 5309SOL     OW16825   3.805   4.035   3.629
 5309SOL    HW116826   3.725   4.077   3.587
 5309SOL    HW216827   3.781   3.947   3.669
 5310SOL     OW16828   5.197   1.959   1.637
 5310SOL    HW116829   5.206   1.937   1.539
 5310SOL    HW216830   5.266   2.026   1.662
 5311SOL     OW16831   1.979   5.438   6.857
 5311SOL    HW116832   1.997   5.387   6.773
 5311SOL    HW216833   1.951   5.374   6.929
 5312SOL     OW16834   0.818   4.155   3.160
 5312SOL    HW116835   0.863   4.129   3.074
 5312SOL    HW216836   0.860   4.105   3.236
 5313SOL     OW16837   1.029   5.773   6.527
 5313SOL    HW116838   1.009   5.799   6.432
 5313SOL    HW216839   0.973   5.828   6.589
 5314SOL     OW16840   4.138   5.164   0.060
 5314SOL    HW116841   4.167   5.249   0.017
 5314SOL    HW216842   4.101   5.183   0.151
 5315SOL     OW16843   5.674   3.085   1.979
 5315SOL    HW116844   5.692   3.080   1.881
 5315SOL    HW216845   5.668   3.181   2.007
 5316SOL     OW16846   6.979   4.500   4.166
 5316SOL    HW116847   6.975   4.400   4.172
 5316SOL    HW216848   0.019   4.536   4.235
 5317SOL     OW16849   5.164   0.030   2.652
 5317SOL    HW116850   5.089   7.009   2.701
 5317SOL    HW216851   5.127   0.092   2.583
 5318SOL     OW16852   0.518   2.815   4.210
 5318SOL    HW116853   0.490   2.900   4.255
 5318SOL    HW216854   0.437   2.766   4.179
 5319SOL     OW16855   4.802   0.503   0.384
 5319SOL    HW116856   4.724   0.440   0.382
 5319SOL    HW216857   4.843   0.501   0.474
 5320SOL     OW16858   5.965   3.928   6.387
 5320SOL    HW116859   6.055   3.893   6.362
 5320SOL    HW216860   5.963   4.027   6.373
 5321SOL     OW16861   1.597   5.522   5.511
 5321SOL    HW116862   1.644   5.579   5.578
 5321SOL    HW216863   1.554   5.444   5.556
 5322SOL     OW16864   3.314   5.636   6.663
 5322SOL    HW116865   3.341   5.706   6.597
 5322SOL    HW216866   3.396   5.591   6.699
 5323SOL     OW16867   4.500   2.030   0.457
 5323SOL    HW116868   4.450   1.977   0.525
 5323SOL    HW216869   4.447   2.111   0.432
 5324SOL     OW16870   4.256   2.911   1.689
 5324SOL    HW116871   4.259   2.858   1.604
 5324SOL    HW216872   4.171   2.891   1.738
 5325SOL     OW16873   5.502   6.447   2.609
 5325SOL    HW116874   5.439   6.471   2.683
 5325SOL    HW216875   5.596   6.453   2.642
 5326SOL     OW16876   6.783   5.785   1.440
 5326SOL    HW116877   6.840   5.867   1.432
 5326SOL    HW216878   6.756   5.754   1.349
 5327SOL     OW16879   6.556   6.928   3.996
 5327SOL    HW116880   6.557   6.946   4.094
 5327SOL    HW216881   6.645   6.952   3.957
 5328SOL     OW16882   3.647   4.253   0.444
 5328SOL    HW116883   3.719   4.211   0.390
 5328SOL    HW216884   3.609   4.185   0.507
 5329SOL     OW16885   0.319   4.533   0.578
 5329SOL    HW116886   0.278   4.614   0.620
 5329SOL    HW216887   0.247   4.471   0.548
 5330SOL     OW16888   4.007   4.029   1.085
 5330SOL    HW116889   4.026   4.127   1.081
 5330SOL    HW216890   3.995   3.993   0.993
 5331SOL     OW16891   4.665   2.519   0.216
 5331SOL    HW116892   4.707   2.513   0.125
 5331SOL    HW216893   4.606   2.600   0.220
 5332SOL     OW16894   6.069   4.254   0.330
 5332SOL    HW116895   6.120   4.175   0.363
 5332SOL    HW216896   5.974   4.228   0.313
 5333SOL     OW16897   1.804   1.120   3.427
 5333SOL    HW116898   1.903   1.116   3.413
 5333SOL    HW216899   1.777   1.212   3.454
 5334SOL     OW16900   4.447   4.474   3.175
 5334SOL    HW116901   4.510   4.541   3.136
 5334SOL    HW216902   4.499   4.407   3.229
 5335SOL     OW16903   0.107   4.792   1.638
 5335SOL    HW116904   0.095   4.770   1.735
 5335SOL    HW216905   0.138   4.887   1.629
 5336SOL     OW16906   1.854   1.979   4.090
 5336SOL    HW116907   1.765   2.014   4.061
 5336SOL    HW216908   1.842   1.927   4.175
 5337SOL     OW16909   6.958   4.333   1.276
 5337SOL    HW116910   6.917   4.252   1.235
 5337SOL    HW216911   6.893   4.375   1.339
 5338SOL     OW16912   6.964   3.464   0.749
 5338SOL    HW116913   6.965   3.509   0.660
 5338SOL    HW216914   6.952   3.366   0.737
 5339SOL     OW16915   6.022   2.818   2.628
 5339SOL    HW116916   6.010   2.719   2.632
 5339SOL    HW216917   6.105   2.844   2.677
 5340SOL     OW16918   5.496   2.408   2.651
 5340SOL    HW116919   5.536   2.487   2.696
 5340SOL    HW216920   5.396   2.416   2.652
 5341SOL     OW16921   4.784   5.327   3.338
 5341SOL    HW116922   4.693   5.364   3.317
 5341SOL    HW216923   4.778   5.228   3.346
 5342SOL     OW16924   6.053   6.991   4.488
 5342SOL    HW116925   6.077   0.051   4.438
 5342SOL    HW216926   5.972   6.949   4.447
 5343SOL     OW16927   4.063   3.666   5.587
 5343SOL    HW116928   4.076   3.764   5.603
 5343SOL    HW216929   4.062   3.648   5.489
 5344SOL     OW16930   0.797   1.653   6.132
 5344SOL    HW116931   0.835   1.565   6.160
 5344SOL    HW216932   0.804   1.662   6.032
 5345SOL     OW16933   5.722   2.175   6.917
 5345SOL    HW116934   5.642   2.181   6.857
 5345SOL    HW216935   5.773   2.091   6.897
 5346SOL     OW16936   3.078   5.348   3.792
 5346SOL    HW116937   3.176   5.365   3.792
 5346SOL    HW216938   3.047   5.328   3.698
 5347SOL     OW16939   6.417   1.857   4.345
 5347SOL    HW116940   6.435   1.950   4.378
 5347SOL    HW216941   6.398   1.859   4.247
 5348SOL     OW16942   5.464   1.936   3.691
 5348SOL    HW116943   5.501   1.975   3.607
 5348SOL    HW216944   5.536   1.890   3.742
 5349SOL     OW16945   0.151   3.089   2.426
 5349SOL    HW116946   0.183   3.175   2.466
 5349SOL    HW216947   0.127   3.103   2.330
 5350SOL     OW16948   2.000   6.503   6.375
 5350SOL    HW116949   2.057   6.581   6.348
 5350SOL    HW216950   2.034   6.420   6.330
 5351SOL     OW16951   0.377   5.283   1.779
 5351SOL    HW116952   0.453   5.257   1.720
 5351SOL    HW216953   0.390   5.244   1.870
 5352SOL     OW16954   2.066   3.568   4.340
 5352SOL    HW116955   2.014   3.646   4.373
 5352SOL    HW216956   2.115   3.525   4.416
 5353SOL     OW16957   4.391   5.855   3.141
 5353SOL    HW116958   4.342   5.942   3.130
 5353SOL    HW216959   4.477   5.859   3.090
 5354SOL     OW16960   3.717   5.529   0.376
 5354SOL    HW116961   3.629   5.528   0.329
 5354SOL    HW216962   3.769   5.609   0.347
 5355SOL     OW16963   4.996   4.874   5.365
 5355SOL    HW116964   4.931   4.949   5.367
 5355SOL    HW216965   4.949   4.789   5.342
 5356SOL     OW16966   0.185   5.054   1.654
 5356SOL    HW116967   0.105   5.108   1.628
 5356SOL    HW216968   0.238   5.104   1.723
 5357SOL     OW16969   5.083   4.515   2.260
 5357SOL    HW116970   4.992   4.508   2.299
 5357SOL    HW216971   5.077   4.554   2.168
 5358SOL     OW16972   4.739   2.023   0.337
 5358SOL    HW116973   4.754   2.119   0.316
 5358SOL    HW216974   4.652   2.013   0.387
 5359SOL     OW16975   1.744   2.062   6.538
 5359SOL    HW116976   1.795   2.033   6.458
 5359SOL    HW216977   1.678   2.133   6.513
 5360SOL     OW16978   4.884   4.807   3.130
 5360SOL    HW116979   4.856   4.853   3.214
 5360SOL    HW216980   4.914   4.713   3.152
 5361SOL     OW16981   2.641   5.867   2.614
 5361SOL    HW116982   2.664   5.820   2.700
 5361SOL    HW216983   2.670   5.962   2.619
 5362SOL     OW16984   5.754   0.556   1.508
 5362SOL    HW116985   5.692   0.601   1.444
 5362SOL    HW216986   5.757   0.607   1.593
 5363SOL     OW16987   5.511   5.423   4.993
 5363SOL    HW116988   5.488   5.423   4.895
 5363SOL    HW216989   5.572   5.347   5.012
 5364SOL     OW16990   4.512   1.145   2.324
 5364SOL    HW116991   4.527   1.049   2.301
 5364SOL    HW216992   4.416   1.160   2.347
 5365SOL     OW16993   3.259   2.943   4.418
 5365SOL    HW116994   3.234   2.855   4.377
 5365SOL    HW216995   3.238   3.017   4.355
 5366SOL     OW16996   6.224   6.501   2.075
 5366SOL    HW116997   6.250   6.413   2.114
 5366SOL    HW216998   6.269   6.513   1.986
 5367SOL     OW16999   6.220   6.080   1.223
 5367SOL    HW117000   6.297   6.038   1.176
 5367SOL    HW217001   6.138   6.072   1.167
 5368SOL     OW17002   6.695   5.762   3.817
 5368SOL    HW117003   6.752   5.841   3.839
 5368SOL    HW217004   6.635   5.741   3.894
 5369SOL     OW17005   2.551   6.055   2.221
 5369SOL    HW117006   2.497   6.084   2.142
 5369SOL    HW217007   2.531   5.959   2.241
 5370SOL     OW17008   2.886   3.898   1.792
 5370SOL    HW117009   2.808   3.835   1.794
 5370SOL    HW217010   2.931   3.897   1.882
 5371SOL     OW17011   6.354   5.346   4.906
 5371SOL    HW117012   6.359   5.329   4.807
 5371SOL    HW217013   6.275   5.300   4.944
 5372SOL     OW17014   0.898   0.309   2.515
 5372SOL    HW117015   0.807   0.328   2.479
 5372SOL    HW217016   0.965   0.366   2.467
 5373SOL     OW17017   3.295   0.629   6.749
 5373SOL    HW117018   3.318   0.677   6.834
 5373SOL    HW217019   3.360   0.554   6.734
 5374SOL     OW17020   2.983   5.000   1.808
 5374SOL    HW117021   2.897   4.957   1.833
 5374SOL    HW217022   3.037   4.937   1.752
 5375SOL     OW17023   1.130   5.422   5.036
 5375SOL    HW117024   1.050   5.477   5.062
 5375SOL    HW217025   1.203   5.483   5.005
 5376SOL     OW17026   0.180   1.401   6.328
 5376SOL    HW117027   0.157   1.445   6.415
 5376SOL    HW217028   0.279   1.393   6.320
 5377SOL     OW17029   2.392   0.566   3.051
 5377SOL    HW117030   2.345   0.622   2.983
 5377SOL    HW217031   2.449   0.624   3.109
 5378SOL     OW17032   5.982   0.998   2.436
 5378SOL    HW117033   6.065   1.047   2.462
 5378SOL    HW217034   5.956   0.936   2.510
 5379SOL     OW17035   1.370   2.898   6.166
 5379SOL    HW117036   1.393   2.914   6.070
 5379SOL    HW217037   1.427   2.956   6.224
 5380SOL     OW17038   4.516   6.651   1.181
 5380SOL    HW117039   4.562   6.621   1.098
 5380SOL    HW217040   4.519   6.751   1.186
 5381SOL     OW17041   4.656   6.390   3.638
 5381SOL    HW117042   4.672   6.488   3.650
 5381SOL    HW217043   4.743   6.342   3.626
 5382SOL     OW17044   4.074   1.944   1.672
 5382SOL    HW117045   3.994   1.953   1.732
 5382SOL    HW217046   4.086   2.027   1.618
 5383SOL     OW17047   2.194   2.819   4.294
 5383SOL    HW117048   2.102   2.784   4.315
 5383SOL    HW217049   2.193   2.919   4.302
 5384SOL     OW17050   5.337   5.639   5.301
 5384SOL    HW117051   5.373   5.547   5.289
 5384SOL    HW217052   5.239   5.639   5.280
 5385SOL     OW17053   4.892   2.617   5.844
 5385SOL    HW117054   4.917   2.684   5.775
 5385SOL    HW217055   4.862   2.663   5.927
 5386SOL     OW17056   6.365   4.149   4.084
 5386SOL    HW117057   6.424   4.077   4.120
 5386SOL    HW217058   6.328   4.203   4.161
 5387SOL     OW17059   1.857   1.619   2.324
 5387SOL    HW117060   1.780   1.557   2.337
 5387SOL    HW217061   1.933   1.569   2.281
 5388SOL     OW17062   0.757   6.910   1.966
 5388SOL    HW117063   0.773   6.977   1.893
 5388SOL    HW217064   0.684   6.848   1.939
 5389SOL     OW17065   4.218   1.851   4.043
 5389SOL    HW117066   4.284   1.797   3.991
 5389SOL    HW217067   4.125   1.823   4.018
 5390SOL     OW17068   6.848   3.021   3.840
 5390SOL    HW117069   6.789   2.971   3.777
 5390SOL    HW217070   6.840   2.982   3.932
 5391SOL     OW17071   2.332   2.711   0.602
 5391SOL    HW117072   2.399   2.779   0.572
 5391SOL    HW217073   2.371   2.655   0.675
 5392SOL     OW17074   5.975   2.337   3.507
 5392SOL    HW117075   6.011   2.324   3.599
 5392SOL    HW217076   5.936   2.251   3.474
 5393SOL     OW17077   3.809   1.812   5.471
 5393SOL    HW117078   3.757   1.793   5.554
 5393SOL    HW217079   3.780   1.748   5.399
 5394SOL     OW17080   1.269   0.789   1.192
 5394SOL    HW117081   1.258   0.743   1.104
 5394SOL    HW217082   1.277   0.888   1.178
 5395SOL     OW17083   6.032   1.591   1.039
 5395SOL    HW117084   6.118   1.638   1.020
 5395SOL    HW217085   6.038   1.543   1.126
 5396SOL     OW17086   5.634   5.547   3.134
 5396SOL    HW117087   5.540   5.552   3.102
 5396SOL    HW217088   5.663   5.636   3.169
 5397SOL     OW17089   0.077   1.221   2.697
 5397SOL    HW117090   7.023   1.193   2.639
 5397SOL    HW217091   0.089   1.320   2.688
 5398SOL     OW17092   5.173   1.895   3.596
 5398SOL    HW117093   5.138   1.956   3.525
 5398SOL    HW217094   5.273   1.888   3.587
 5399SOL     OW17095   2.831   0.618   6.066
 5399SOL    HW117096   2.759   0.685   6.050
 5399SOL    HW217097   2.832   0.552   5.991
 5400SOL     OW17098   3.944   3.207   1.785
 5400SOL    HW117099   3.908   3.115   1.802
 5400SOL    HW217100   4.034   3.200   1.742
 5401SOL     OW17101   6.036   4.260   1.684
 5401SOL    HW117102   5.983   4.274   1.768
 5401SOL    HW217103   6.097   4.182   1.696
 5402SOL     OW17104   1.583   6.859   1.154
 5402SOL    HW117105   1.510   6.876   1.088
 5402SOL    HW217106   1.569   6.915   1.236
 5403SOL     OW17107   5.206   3.231   0.260
 5403SOL    HW117108   5.158   3.274   0.184
 5403SOL    HW217109   5.182   3.134   0.265
 5404SOL     OW17110   6.746   1.179   0.800
 5404SOL    HW117111   6.709   1.101   0.850
 5404SOL    HW217112   6.674   1.247   0.786
 5405SOL     OW17113   5.310   6.175   6.752
 5405SOL    HW117114   5.304   6.078   6.773
 5405SOL    HW217115   5.334   6.226   6.835
 5406SOL     OW17116   3.081   0.074   3.625
 5406SOL    HW117117   3.163   0.125   3.598
 5406SOL    HW217118   3.095   7.000   3.607
 5407SOL     OW17119   1.711   0.028   2.364
 5407SOL    HW117120   1.658   0.112   2.357
 5407SOL    HW217121   1.696   6.996   2.282
 5408SOL     OW17122   3.461   1.954   4.291
 5408SOL    HW117123   3.504   2.020   4.352
 5408SOL    HW217124   3.422   1.879   4.345
 5409SOL     OW17125   1.273   2.898   0.859
 5409SOL    HW117126   1.251   2.878   0.764
 5409SOL    HW217127   1.220   2.976   0.891
 5410SOL     OW17128   0.763   2.320   0.360
 5410SOL    HW117129   0.735   2.379   0.285
 5410SOL    HW217130   0.754   2.225   0.333
 5411SOL     OW17131   3.633   4.930   6.990
 5411SOL    HW117132   3.539   4.928   6.958
 5411SOL    HW217133   3.649   4.854   0.030
 5412SOL     OW17134   6.975   2.445   5.967
 5412SOL    HW117135   0.042   2.452   6.010
 5412SOL    HW217136   6.908   2.496   6.022
 5413SOL     OW17137   0.213   6.650   4.260
 5413SOL    HW117138   0.204   6.727   4.323
 5413SOL    HW217139   0.144   6.581   4.281
 5414SOL     OW17140   5.918   3.538   5.120
 5414SOL    HW117141   5.966   3.531   5.207
 5414SOL    HW217142   5.842   3.473   5.118
 5415SOL     OW17143   3.844   0.269   0.428
 5415SOL    HW117144   3.810   0.292   0.520
 5415SOL    HW217145   3.829   0.171   0.411
 5416SOL     OW17146   3.100   5.310   6.183
 5416SOL    HW117147   3.106   5.345   6.090
 5416SOL    HW217148   3.136   5.378   6.247
 5417SOL     OW17149   4.657   6.006   3.607
 5417SOL    HW117150   4.636   5.908   3.603
 5417SOL    HW217151   4.756   6.019   3.606
 5418SOL     OW17152   6.212   3.884   4.757
 5418SOL    HW117153   6.179   3.959   4.815
 5418SOL    HW217154   6.202   3.910   4.661
 5419SOL     OW17155   4.347   0.081   6.576
 5419SOL    HW117156   4.300   0.169   6.585
 5419SOL    HW217157   4.420   0.076   6.644
 5420SOL     OW17158   0.904   0.921   1.868
 5420SOL    HW117159   0.879   1.017   1.869
 5420SOL    HW217160   0.829   0.867   1.831
 5421SOL     OW17161   3.729   5.168   2.301
 5421SOL    HW117162   3.739   5.267   2.292
 5421SOL    HW217163   3.705   5.129   2.212
 5422SOL     OW17164   2.591   5.715   4.268
 5422SOL    HW117165   2.636   5.766   4.195
 5422SOL    HW217166   2.641   5.727   4.354
 5423SOL     OW17167   5.745   6.104   2.245
 5423SOL    HW117168   5.658   6.149   2.266
 5423SOL    HW217169   5.796   6.089   2.329
 5424SOL     OW17170   4.535   3.949   5.802
 5424SOL    HW117171   4.535   3.950   5.702
 5424SOL    HW217172   4.558   3.858   5.835
 5425SOL     OW17173   1.074   3.529   5.708
 5425SOL    HW117174   1.069   3.524   5.609
 5425SOL    HW217175   0.983   3.516   5.748
 5426SOL     OW17176   5.300   5.292   1.984
 5426SOL    HW117177   5.355   5.373   1.966
 5426SOL    HW217178   5.361   5.213   1.996
 5427SOL     OW17179   4.778   2.717   6.130
 5427SOL    HW117180   4.701   2.661   6.157
 5427SOL    HW217181   4.768   2.809   6.170
 5428SOL     OW17182   6.441   5.320   3.220
 5428SOL    HW117183   6.497   5.381   3.277
 5428SOL    HW217184   6.437   5.230   3.264
 5429SOL     OW17185   3.075   0.180   4.163
 5429SOL    HW117186   3.161   0.153   4.120
 5429SOL    HW217187   3.006   0.110   4.147
 5430SOL     OW17188   3.018   4.069   6.168
 5430SOL    HW117189   3.007   4.165   6.142
 5430SOL    HW217190   3.107   4.036   6.137
 5431SOL     OW17191   3.441   4.830   6.289
 5431SOL    HW117192   3.510   4.846   6.359
 5431SOL    HW217193   3.440   4.734   6.263
 5432SOL     OW17194   5.241   5.222   0.058
 5432SOL    HW117195   5.191   5.208   0.143
 5432SOL    HW217196   5.253   5.134   0.011
 5433SOL     OW17197   1.798   6.967   1.015
 5433SOL    HW117198   1.726   6.920   1.066
 5433SOL    HW217199   1.848   0.006   1.076
 5434SOL     OW17200   5.519   0.561   4.589
 5434SOL    HW117201   5.581   0.497   4.635
 5434SOL    HW217202   5.516   0.541   4.491
 5435SOL     OW17203   6.943   3.931   0.714
 5435SOL    HW117204   6.884   3.852   0.698
 5435SOL    HW217205   0.002   3.923   0.656
 5436SOL     OW17206   1.088   4.352   2.851
 5436SOL    HW117207   1.068   4.328   2.946
 5436SOL    HW217208   1.014   4.407   2.814
 5437SOL     OW17209   3.783   6.152   1.667
 5437SOL    HW117210   3.762   6.247   1.643
 5437SOL    HW217211   3.765   6.094   1.588
 5438SOL     OW17212   5.060   4.826   2.412
 5438SOL    HW117213   5.045   4.732   2.384
 5438SOL    HW217214   5.023   4.841   2.504
 5439SOL     OW17215   1.469   5.173   1.383
 5439SOL    HW117216   1.414   5.222   1.450
 5439SOL    HW217217   1.566   5.196   1.396
 5440SOL     OW17218   5.861   5.866   3.482
 5440SOL    HW117219   5.936   5.917   3.439
 5440SOL    HW217220   5.899   5.788   3.533
 5441SOL     OW17221   4.841   2.823   3.364
 5441SOL    HW117222   4.893   2.805   3.448
 5441SOL    HW217223   4.851   2.919   3.338
 5442SOL     OW17224   4.605   6.873   5.306
 5442SOL    HW117225   4.682   6.929   5.273
 5442SOL    HW217226   4.562   6.919   5.383
 5443SOL     OW17227   4.198   0.316   4.484
 5443SOL    HW117228   4.266   0.354   4.421
 5443SOL    HW217229   4.123   0.381   4.495
 5444SOL     OW17230   6.112   1.159   4.867
 5444SOL    HW117231   6.145   1.252   4.848
 5444SOL    HW217232   6.132   1.136   4.962
 5445SOL     OW17233   5.828   5.058   5.540
 5445SOL    HW117234   5.754   5.035   5.602
 5445SOL    HW217235   5.809   5.018   5.450
 5446SOL     OW17236   0.462   4.749   6.047
 5446SOL    HW117237   0.440   4.797   5.962
 5446SOL    HW217238   0.461   4.650   6.029
 5447SOL     OW17239   1.239   1.512   0.200
 5447SOL    HW117240   1.316   1.497   0.262
 5447SOL    HW217241   1.230   1.609   0.182
 5448SOL     OW17242   4.432   5.444   3.222
 5448SOL    HW117243   4.420   5.541   3.246
 5448SOL    HW217244   4.348   5.394   3.241
 5449SOL     OW17245   2.867   1.907   1.669
 5449SOL    HW117246   2.889   1.902   1.767
 5449SOL    HW217247   2.901   1.825   1.623
 5450SOL     OW17248   4.080   5.613   1.785
 5450SOL    HW117249   4.168   5.659   1.800
 5450SOL    HW217250   4.087   5.552   1.707
 5451SOL     OW17251   0.473   6.838   3.254
 5451SOL    HW117252   0.466   6.937   3.242
 5451SOL    HW217253   0.493   6.794   3.166
 5452SOL     OW17254   1.982   4.845   2.165
 5452SOL    HW117255   2.042   4.829   2.244
 5452SOL    HW217256   1.892   4.874   2.198
 5453SOL     OW17257   5.567   4.231   3.270
 5453SOL    HW117258   5.620   4.306   3.228
 5453SOL    HW217259   5.533   4.261   3.359
 5454SOL     OW17260   5.418   5.635   3.405
 5454SOL    HW117261   5.384   5.546   3.377
 5454SOL    HW217262   5.456   5.683   3.325
 5455SOL     OW17263   1.065   1.820   3.504
 5455SOL    HW117264   0.992   1.774   3.453
 5455SOL    HW217265   1.073   1.915   3.473
 5456SOL     OW17266   6.176   0.920   0.161
 5456SOL    HW117267   6.128   0.832   0.164
 5456SOL    HW217268   6.237   0.928   0.239
 5457SOL     OW17269   5.946   2.609   6.914
 5457SOL    HW117270   5.960   2.598   7.012
 5457SOL    HW217271   5.906   2.525   6.877
 5458SOL     OW17272   6.339   4.639   0.622
 5458SOL    HW117273   6.334   4.587   0.537
 5458SOL    HW217274   6.341   4.737   0.601
 5459SOL     OW17275   2.298   3.853   5.522
 5459SOL    HW117276   2.357   3.806   5.587
 5459SOL    HW217277   2.252   3.786   5.464
 5460SOL     OW17278   1.760   0.197   0.194
 5460SOL    HW117279   1.748   0.275   0.133
 5460SOL    HW217280   1.671   0.163   0.224
 5461SOL     OW17281   6.787   1.034   5.853
 5461SOL    HW117282   6.846   1.062   5.777
 5461SOL    HW217283   6.833   1.052   5.940
 5462SOL     OW17284   5.529   5.529   6.694
 5462SOL    HW117285   5.456   5.597   6.696
 5462SOL    HW217286   5.599   5.552   6.761
 5463SOL     OW17287   0.463   3.202   6.467
 5463SOL    HW117288   0.416   3.120   6.433
 5463SOL    HW217289   0.449   3.209   6.566
 5464SOL     OW17290   0.019   6.175   4.977
 5464SOL    HW117291   0.073   6.209   5.054
 5464SOL    HW217292   6.948   6.209   4.984
 5465SOL     OW17293   6.823   6.046   3.601
 5465SOL    HW117294   6.908   6.064   3.552
 5465SOL    HW217295   6.842   5.982   3.676
 5466SOL     OW17296   5.961   2.667   5.759
 5466SOL    HW117297   6.048   2.618   5.764
 5466SOL    HW217298   5.895   2.613   5.706
 5467SOL     OW17299   5.568   3.584   4.171
 5467SOL    HW117300   5.552   3.485   4.166
 5467SOL    HW217301   5.663   3.604   4.146
 5468SOL     OW17302   0.372   1.239   1.746
 5468SOL    HW117303   0.320   1.286   1.674
 5468SOL    HW217304   0.332   1.262   1.835
 5469SOL     OW17305   2.588   0.647   5.470
 5469SOL    HW117306   2.613   0.706   5.546
 5469SOL    HW217307   2.605   0.552   5.494
 5470SOL     OW17308   3.859   5.269   4.112
 5470SOL    HW117309   3.774   5.217   4.103
 5470SOL    HW217310   3.842   5.366   4.092
 5471SOL     OW17311   5.067   0.502   3.350
 5471SOL    HW117312   5.105   0.423   3.301
 5471SOL    HW217313   5.038   0.571   3.284
 5472SOL     OW17314   2.493   2.082   6.502
 5472SOL    HW117315   2.416   2.052   6.559
 5472SOL    HW217316   2.537   2.002   6.461
 5473SOL     OW17317   2.621   4.186   1.384
 5473SOL    HW117318   2.683   4.185   1.305
 5473SOL    HW217319   2.629   4.274   1.431
 5474SOL     OW17320   0.257   5.257   3.733
 5474SOL    HW117321   0.325   5.222   3.668
 5474SOL    HW217322   0.300   5.322   3.795
 5475SOL     OW17323   0.060   2.454   5.700
 5475SOL    HW117324   0.063   2.371   5.644
 5475SOL    HW217325   0.002   2.438   5.780
 5476SOL     OW17326   2.386   6.466   6.213
 5476SOL    HW117327   2.445   6.466   6.294
 5476SOL    HW217328   2.316   6.536   6.223
 5477SOL     OW17329   1.952   5.532   4.312
 5477SOL    HW117330   2.030   5.580   4.273
 5477SOL    HW217331   1.941   5.560   4.408
 5478SOL     OW17332   5.381   4.907   6.060
 5478SOL    HW117333   5.329   4.823   6.075
 5478SOL    HW217334   5.328   4.968   6.002
 5479SOL     OW17335   3.375   2.118   4.652
 5479SOL    HW117336   3.387   2.184   4.726
 5479SOL    HW217337   3.360   2.027   4.691
 5480SOL     OW17338   6.136   4.146   4.876
 5480SOL    HW117339   6.132   4.158   4.975
 5480SOL    HW217340   6.048   4.170   4.835
 5481SOL     OW17341   4.440   1.131   6.677
 5481SOL    HW117342   4.464   1.212   6.731
 5481SOL    HW217343   4.462   1.049   6.729
 5482SOL     OW17344   4.471   3.367   1.633
 5482SOL    HW117345   4.552   3.409   1.674
 5482SOL    HW217346   4.496   3.278   1.594
 5483SOL     OW17347   6.721   3.865   5.955
 5483SOL    HW117348   6.750   3.921   5.879
 5483SOL    HW217349   6.743   3.910   6.041
 5484SOL     OW17350   6.527   6.421   4.012
 5484SOL    HW117351   6.559   6.333   4.046
 5484SOL    HW217352   6.594   6.460   3.949
 5485SOL     OW17353   3.847   6.881   5.771
 5485SOL    HW117354   3.908   6.922   5.839
 5485SOL    HW217355   3.877   6.788   5.751
 5486SOL     OW17356   1.015   0.818   3.041
 5486SOL    HW117357   1.038   0.913   3.063
 5486SOL    HW217358   1.093   0.775   2.994
 5487SOL     OW17359   6.240   4.941   0.290
 5487SOL    HW117360   6.176   4.864   0.293
 5487SOL    HW217361   6.306   4.933   0.365
 5488SOL     OW17362   5.024   2.342   6.339
 5488SOL    HW117363   5.030   2.414   6.270
 5488SOL    HW217364   5.104   2.283   6.334
 5489SOL     OW17365   1.696   4.961   2.665
 5489SOL    HW117366   1.601   4.961   2.635
 5489SOL    HW217367   1.702   4.919   2.756
 5490SOL     OW17368   2.718   1.126   0.692
 5490SOL    HW117369   2.698   1.223   0.673
 5490SOL    HW217370   2.638   1.083   0.731
 5491SOL     OW17371   1.776   4.884   0.389
 5491SOL    HW117372   1.688   4.854   0.352
 5491SOL    HW217373   1.822   4.807   0.432
 5492SOL     OW17374   0.916   2.399   6.139
 5492SOL    HW117375   0.966   2.392   6.053
 5492SOL    HW217376   0.980   2.386   6.215
 5493SOL     OW17377   3.638   3.281   6.081
 5493SOL    HW117378   3.734   3.277   6.052
 5493SOL    HW217379   3.584   3.323   6.009
 5494SOL     OW17380   6.471   3.627   1.316
 5494SOL    HW117381   6.465   3.616   1.415
 5494SOL    HW217382   6.470   3.537   1.272
 5495SOL     OW17383   4.006   3.603   2.651
 5495SOL    HW117384   4.041   3.521   2.606
 5495SOL    HW217385   4.053   3.615   2.739
 5496SOL     OW17386   3.154   6.050   2.024
 5496SOL    HW117387   3.233   5.996   1.996
 5496SOL    HW217388   3.172   6.147   2.007
 5497SOL     OW17389   0.191   1.431   2.894
 5497SOL    HW117390   0.270   1.448   2.953
 5497SOL    HW217391   0.123   1.503   2.908
 5498SOL     OW17392   4.450   1.527   5.471
 5498SOL    HW117393   4.431   1.606   5.529
 5498SOL    HW217394   4.460   1.446   5.529
 5499SOL     OW17395   6.924   1.584   3.114
 5499SOL    HW117396   6.942   1.663   3.173
 5499SOL    HW217397   6.979   1.591   3.031
 5500SOL     OW17398   2.018   5.559   0.495
 5500SOL    HW117399   2.040   5.644   0.447
 5500SOL    HW217400   2.000   5.487   0.428
 5501SOL     OW17401   2.608   0.321   2.221
 5501SOL    HW117402   2.623   0.417   2.245
 5501SOL    HW217403   2.655   0.262   2.286
 5502SOL     OW17404   6.456   4.302   5.877
 5502SOL    HW117405   6.414   4.278   5.964
 5502SOL    HW217406   6.403   4.264   5.802
 5503SOL     OW17407   1.114   4.335   3.157
 5503SOL    HW117408   1.020   4.306   3.176
 5503SOL    HW217409   1.155   4.373   3.240
 5504SOL     OW17410   3.300   1.921   4.839
 5504SOL    HW117411   3.209   1.934   4.799
 5504SOL    HW217412   3.327   1.825   4.830
 5505SOL     OW17413   2.766   5.559   5.458
 5505SOL    HW117414   2.684   5.523   5.502
 5505SOL    HW217415   2.747   5.576   5.361
 5506SOL     OW17416   6.308   0.833   5.007
 5506SOL    HW117417   6.389   0.815   5.063
 5506SOL    HW217418   6.232   0.774   5.037
 5507SOL     OW17419   2.800   0.013   3.827
 5507SOL    HW117420   2.821   0.108   3.801
 5507SOL    HW217421   2.856   6.974   3.772
 5508SOL     OW17422   2.226   0.277   6.333
 5508SOL    HW117423   2.261   0.370   6.319
 5508SOL    HW217424   2.256   0.219   6.258
 5509SOL     OW17425   5.897   0.008   0.355
 5509SOL    HW117426   5.918   0.094   0.307
 5509SOL    HW217427   5.921   6.954   0.296
 5510SOL     OW17428   4.433   0.617   6.138
 5510SOL    HW117429   4.513   0.663   6.098
 5510SOL    HW217430   4.463   0.546   6.201
 5511SOL     OW17431   0.200   0.456   2.199
 5511SOL    HW117432   0.200   0.444   2.298
 5511SOL    HW217433   0.139   0.388   2.157
 5512SOL     OW17434   0.773   1.638   6.919
 5512SOL    HW117435   0.677   1.622   6.942
 5512SOL    HW217436   0.793   1.599   6.830
 5513SOL     OW17437   4.526   4.448   4.662
 5513SOL    HW117438   4.587   4.486   4.731
 5513SOL    HW217439   4.446   4.407   4.706
 5514SOL     OW17440   5.485   5.059   2.883
 5514SOL    HW117441   5.459   4.986   2.946
 5514SOL    HW217442   5.520   5.137   2.934
 5515SOL     OW17443   6.699   2.530   2.386
 5515SOL    HW117444   6.762   2.504   2.460
 5515SOL    HW217445   6.739   2.503   2.298
 5516SOL     OW17446   1.459   3.014   6.543
 5516SOL    HW117447   1.465   2.921   6.579
 5516SOL    HW217448   1.492   3.079   6.612
 5517SOL     OW17449   3.221   1.866   1.186
 5517SOL    HW117450   3.310   1.847   1.146
 5517SOL    HW217451   3.204   1.964   1.186
 5518SOL     OW17452   5.650   5.199   5.888
 5518SOL    HW117453   5.708   5.248   5.823
 5518SOL    HW217454   5.706   5.137   5.943
 5519SOL     OW17455   5.570   3.266   3.888
 5519SOL    HW117456   5.627   3.183   3.894
 5519SOL    HW217457   5.629   3.346   3.883
 5520SOL     OW17458   1.436   3.773   2.405
 5520SOL    HW117459   1.400   3.861   2.436
 5520SOL    HW217460   1.364   3.722   2.359
 5521SOL     OW17461   5.355   6.581   2.006
 5521SOL    HW117462   5.383   6.616   2.096
 5521SOL    HW217463   5.435   6.543   1.959
 5522SOL     OW17464   2.492   3.354   1.711
 5522SOL    HW117465   2.429   3.403   1.772
 5522SOL    HW217466   2.582   3.349   1.753
 5523SOL     OW17467   3.365   6.839   2.956
 5523SOL    HW117468   3.396   6.898   2.881
 5523SOL    HW217469   3.267   6.851   2.970
 5524SOL     OW17470   1.087   5.222   5.255
 5524SOL    HW117471   1.132   5.249   5.340
 5524SOL    HW217472   1.123   5.277   5.179
 5525SOL     OW17473   6.658   5.202   6.968
 5525SOL    HW117474   6.732   5.252   7.011
 5525SOL    HW217475   6.575   5.210   0.001
 5526SOL     OW17476   6.083   3.281   3.288
 5526SOL    HW117477   5.994   3.255   3.250
 5526SOL    HW217478   6.126   3.200   3.329
 5527SOL     OW17479   1.169   2.696   1.473
 5527SOL    HW117480   1.094   2.721   1.535
 5527SOL    HW217481   1.169   2.597   1.459
 5528SOL     OW17482   0.195   2.511   4.953
 5528SOL    HW117483   0.219   2.558   5.037
 5528SOL    HW217484   0.276   2.466   4.915
 5529SOL     OW17485   2.260   0.820   4.835
 5529SOL    HW117486   2.210   0.736   4.855
 5529SOL    HW217487   2.250   0.885   4.911
 5530SOL     OW17488   0.190   2.428   0.376
 5530SOL    HW117489   0.250   2.355   0.409
 5530SOL    HW217490   0.095   2.403   0.389
 5531SOL     OW17491   3.946   3.319   4.857
 5531SOL    HW117492   3.965   3.239   4.800
 5531SOL    HW217493   3.965   3.297   4.953
 5532SOL     OW17494   1.619   1.268   0.329
 5532SOL    HW117495   1.675   1.186   0.332
 5532SOL    HW217496   1.552   1.261   0.255
 5533SOL     OW17497   3.103   0.640   2.871
 5533SOL    HW117498   3.097   0.651   2.970
 5533SOL    HW217499   3.109   0.543   2.848
 5534SOL     OW17500   1.390   3.543   6.677
 5534SOL    HW117501   1.413   3.487   6.597
 5534SOL    HW217502   1.390   3.639   6.650
 5535SOL     OW17503   6.617   2.912   3.131
 5535SOL    HW117504   6.681   2.979   3.094
 5535SOL    HW217505   6.524   2.945   3.120
 5536SOL     OW17506   2.369   0.836   4.386
 5536SOL    HW117507   2.351   0.910   4.452
 5536SOL    HW217508   2.287   0.782   4.372
 5537SOL     OW17509   3.755   0.557   5.140
 5537SOL    HW117510   3.798   0.641   5.108
 5537SOL    HW217511   3.808   0.478   5.108
 5538SOL     OW17512   3.829   0.871   5.570
 5538SOL    HW117513   3.873   0.859   5.659
 5538SOL    HW217514   3.733   0.897   5.583
 5539SOL     OW17515   1.051   1.156   2.157
 5539SOL    HW117516   0.952   1.163   2.167
 5539SOL    HW217517   1.075   1.066   2.122
 5540SOL     OW17518   5.079   3.214   1.151
 5540SOL    HW117519   5.159   3.259   1.191
 5540SOL    HW217520   5.040   3.273   1.081
 5541SOL     OW17521   5.488   3.437   5.555
 5541SOL    HW117522   5.553   3.438   5.631
 5541SOL    HW217523   5.500   3.518   5.498
 5542SOL     OW17524   5.269   4.977   6.339
 5542SOL    HW117525   5.257   4.881   6.364
 5542SOL    HW217526   5.291   4.984   6.241
 5543SOL     OW17527   2.119   5.936   6.547
 5543SOL    HW117528   2.097   5.843   6.577
 5543SOL    HW217529   2.036   5.981   6.515
 5544SOL     OW17530   5.031   5.328   5.976
 5544SOL    HW117531   5.002   5.395   6.044
 5544SOL    HW217532   4.979   5.341   5.892
 5545SOL     OW17533   4.127   1.633   2.734
 5545SOL    HW117534   4.102   1.713   2.789
 5545SOL    HW217535   4.056   1.564   2.742
 5546SOL     OW17536   0.885   6.097   4.740
 5546SOL    HW117537   0.802   6.149   4.759
 5546SOL    HW217538   0.944   6.099   4.820
 5547SOL     OW17539   4.249   1.947   5.595
 5547SOL    HW117540   4.151   1.965   5.603
 5547SOL    HW217541   4.266   1.849   5.598
 5548SOL     OW17542   6.858   4.276   5.735
 5548SOL    HW117543   6.848   4.177   5.734
 5548SOL    HW217544   6.783   4.318   5.683
 5549SOL     OW17545   4.110   3.429   1.612
 5549SOL    HW117546   4.167   3.348   1.630
 5549SOL    HW217547   4.167   3.502   1.574
 5550SOL     OW17548   2.288   4.265   3.364
 5550SOL    HW117549   2.249   4.354   3.339
 5550SOL    HW217550   2.343   4.275   3.447
 5551SOL     OW17551   1.672   5.203   2.893
 5551SOL    HW117552   1.712   5.225   2.804
 5551SOL    HW217553   1.727   5.244   2.965
 5552SOL     OW17554   6.318   6.890   5.819
 5552SOL    HW117555   6.361   6.956   5.881
 5552SOL    HW217556   6.366   6.891   5.731
 5553SOL     OW17557   4.504   0.331   6.825
 5553SOL    HW117558   4.587   0.377   6.856
 5553SOL    HW217559   4.438   0.326   6.900
 5554SOL     OW17560   4.754   3.381   1.506
 5554SOL    HW117561   4.767   3.384   1.605
 5554SOL    HW217562   4.671   3.432   1.482
 5555SOL     OW17563   0.769   4.018   2.694
 5555SOL    HW117564   0.771   3.972   2.606
 5555SOL    HW217565   0.838   4.090   2.696
 5556SOL     OW17566   6.287   1.105   4.074
 5556SOL    HW117567   6.373   1.069   4.038
 5556SOL    HW217568   6.306   1.181   4.136
 5557SOL     OW17569   3.405   5.641   1.857
 5557SOL    HW117570   3.331   5.629   1.923
 5557SOL    HW217571   3.371   5.622   1.765
 5558SOL     OW17572   3.605   4.038   0.656
 5558SOL    HW117573   3.671   3.974   0.617
 5558SOL    HW217574   3.640   4.073   0.743
 5559SOL     OW17575   1.263   0.220   2.617
 5559SOL    HW117576   1.235   0.315   2.635
 5559SOL    HW217577   1.185   0.169   2.580
 5560SOL     OW17578   6.978   5.541   2.303
 5560SOL    HW117579   0.013   5.507   2.228
 5560SOL    HW217580   6.940   5.630   2.278
 5561SOL     OW17581   2.956   0.527   4.715
 5561SOL    HW117582   3.043   0.521   4.667
 5561SOL    HW217583   2.919   0.435   4.730
 5562SOL     OW17584   4.464   4.394   6.956
 5562SOL    HW117585   4.554   4.423   6.989
 5562SOL    HW217586   4.393   4.455   6.994
 5563SOL     OW17587   3.049   5.198   2.737
 5563SOL    HW117588   3.119   5.240   2.679
 5563SOL    HW217589   3.085   5.187   2.830
 5564SOL     OW17590   5.002   6.750   6.760
 5564SOL    HW117591   4.931   6.758   6.830
 5564SOL    HW217592   5.048   6.839   6.749
 5565SOL     OW17593   4.100   2.937   6.581
 5565SOL    HW117594   4.106   2.960   6.678
 5565SOL    HW217595   4.024   2.873   6.566
 5566SOL     OW17596   2.176   4.428   0.544
 5566SOL    HW117597   2.241   4.463   0.477
 5566SOL    HW217598   2.227   4.388   0.621
 5567SOL     OW17599   0.649   3.604   1.795
 5567SOL    HW117600   0.623   3.658   1.875
 5567SOL    HW217601   0.567   3.563   1.755
 5568SOL     OW17602   4.295   0.486   3.189
 5568SOL    HW117603   4.275   0.568   3.137
 5568SOL    HW217604   4.314   0.510   3.285
 5569SOL     OW17605   2.271   1.766   2.884
 5569SOL    HW117606   2.323   1.748   2.800
 5569SOL    HW217607   2.324   1.828   2.942
 5570SOL     OW17608   6.391   3.430   3.207
 5570SOL    HW117609   6.364   3.389   3.119
 5570SOL    HW217610   6.449   3.509   3.189
 5571SOL     OW17611   6.676   5.212   1.907
 5571SOL    HW117612   6.628   5.242   1.990
 5571SOL    HW217613   6.664   5.280   1.835
 5572SOL     OW17614   1.641   3.729   4.565
 5572SOL    HW117615   1.670   3.715   4.659
 5572SOL    HW217616   1.557   3.678   4.548
 5573SOL     OW17617   1.461   5.469   5.239
 5573SOL    HW117618   1.539   5.480   5.300
 5573SOL    HW217619   1.491   5.431   5.151
 5574SOL     OW17620   0.476   3.032   6.876
 5574SOL    HW117621   0.417   2.953   6.855
 5574SOL    HW217622   0.536   3.009   6.952
 5575SOL     OW17623   0.137   0.177   1.020
 5575SOL    HW117624   0.147   0.195   1.118
 5575SOL    HW217625   0.041   0.158   0.999
 5576SOL     OW17626   1.398   3.991   2.753
 5576SOL    HW117627   1.402   4.080   2.798
 5576SOL    HW217628   1.454   3.926   2.804
 5577SOL     OW17629   2.194   2.872   0.243
 5577SOL    HW117630   2.267   2.917   0.191
 5577SOL    HW217631   2.203   2.896   0.339
 5578SOL     OW17632   3.759   3.976   2.312
 5578SOL    HW117633   3.710   4.001   2.396
 5578SOL    HW217634   3.807   4.056   2.277
 5579SOL     OW17635   0.742   3.918   1.236
 5579SOL    HW117636   0.693   3.832   1.224
 5579SOL    HW217637   0.713   3.984   1.166
 5580SOL     OW17638   4.323   2.078   5.966
 5580SOL    HW117639   4.253   2.118   5.907
 5580SOL    HW217640   4.303   2.102   6.061
 5581SOL     OW17641   1.411   0.885   1.450
 5581SOL    HW117642   1.389   0.846   1.360
 5581SOL    HW217643   1.430   0.811   1.515
 5582SOL     OW17644   2.631   3.782   6.905
 5582SOL    HW117645   2.589   3.868   6.935
 5582SOL    HW217646   2.707   3.759   6.965
 5583SOL     OW17647   3.958   0.747   2.350
 5583SOL    HW117648   3.936   0.842   2.370
 5583SOL    HW217649   4.029   0.742   2.280
 5584SOL     OW17650   6.420   3.497   4.144
 5584SOL    HW117651   6.398   3.442   4.224
 5584SOL    HW217652   6.470   3.441   4.078
 5585SOL     OW17653   5.192   5.377   3.282
 5585SOL    HW117654   5.195   5.277   3.283
 5585SOL    HW217655   5.108   5.406   3.237
 5586SOL     OW17656   0.045   3.806   6.162
 5586SOL    HW117657   0.070   3.822   6.067
 5586SOL    HW217658   0.123   3.764   6.210
 5587SOL     OW17659   4.163   0.391   0.673
 5587SOL    HW117660   4.081   0.444   0.690
 5587SOL    HW217661   4.173   0.321   0.743
 5588SOL     OW17662   2.374   6.225   2.874
 5588SOL    HW117663   2.451   6.219   2.812
 5588SOL    HW217664   2.396   6.180   2.960
 5589SOL     OW17665   6.114   4.184   6.616
 5589SOL    HW117666   6.193   4.164   6.558
 5589SOL    HW217667   6.082   4.100   6.660
 5590SOL     OW17668   6.812   6.392   3.632
 5590SOL    HW117669   6.735   6.442   3.592
 5590SOL    HW217670   6.778   6.316   3.687
 5591SOL     OW17671   0.207   2.071   1.334
 5591SOL    HW117672   0.219   1.995   1.397
 5591SOL    HW217673   0.146   2.139   1.375
 5592SOL     OW17674   2.096   5.726   4.143
 5592SOL    HW117675   2.073   5.685   4.055
 5592SOL    HW217676   2.032   5.801   4.162
 5593SOL     OW17677   0.171   2.910   6.575
 5593SOL    HW117678   0.229   2.921   6.494
 5593SOL    HW217679   0.137   3.000   6.604
 5594SOL     OW17680   5.012   0.903   4.962
 5594SOL    HW117681   5.082   0.968   4.991
 5594SOL    HW217682   5.037   0.863   4.874
 5595SOL     OW17683   0.828   1.383   4.537
 5595SOL    HW117684   0.815   1.461   4.597
 5595SOL    HW217685   0.830   1.413   4.442
 5596SOL     OW17686   4.496   6.187   2.893
 5596SOL    HW117687   4.592   6.213   2.880
 5596SOL    HW217688   4.455   6.243   2.965
 5597SOL     OW17689   4.927   2.170   4.284
 5597SOL    HW117690   5.021   2.161   4.252
 5597SOL    HW217691   4.892   2.260   4.260
 5598SOL     OW17692   5.521   3.795   4.598
 5598SOL    HW117693   5.436   3.842   4.621
 5598SOL    HW217694   5.516   3.763   4.503
 5599SOL     OW17695   1.231   1.217   4.203
 5599SOL    HW117696   1.137   1.228   4.170
 5599SOL    HW217697   1.294   1.235   4.128
 5600SOL     OW17698   0.737   1.176   2.183
 5600SOL    HW117699   0.728   1.206   2.277
 5600SOL    HW217700   0.701   1.246   2.121
 5601SOL     OW17701   2.807   0.540   5.802
 5601SOL    HW117702   2.805   0.441   5.791
 5601SOL    HW217703   2.899   0.574   5.785
 5602SOL     OW17704   6.651   1.632   0.366
 5602SOL    HW117705   6.614   1.543   0.392
 5602SOL    HW217706   6.749   1.635   0.386
 5603SOL     OW17707   5.676   2.465   6.539
 5603SOL    HW117708   5.702   2.400   6.468
 5603SOL    HW217709   5.583   2.497   6.522
 5604SOL     OW17710   6.383   2.262   5.256
 5604SOL    HW117711   6.284   2.274   5.256
 5604SOL    HW217712   6.411   2.212   5.339
 5605SOL     OW17713   0.643   0.485   4.873
 5605SOL    HW117714   0.556   0.524   4.841
 5605SOL    HW217715   0.624   0.410   4.937
 5606SOL     OW17716   4.783   6.830   0.861
 5606SOL    HW117717   4.806   6.847   0.957
 5606SOL    HW217718   4.801   6.734   0.838
 5607SOL     OW17719   5.585   0.049   2.456
 5607SOL    HW117720   5.628   0.131   2.494
 5607SOL    HW217721   5.595   0.048   2.357
 5608SOL     OW17722   4.791   0.168   4.953
 5608SOL    HW117723   4.700   0.136   4.926
 5608SOL    HW217724   4.799   0.265   4.933
 5609SOL     OW17725   2.533   5.005   1.331
 5609SOL    HW117726   2.617   5.058   1.342
 5609SOL    HW217727   2.550   4.927   1.269
 5610SOL     OW17728   4.456   6.454   0.845
 5610SOL    HW117729   4.403   6.372   0.865
 5610SOL    HW217730   4.552   6.429   0.829
 5611SOL     OW17731   0.916   5.284   2.695
 5611SOL    HW117732   0.934   5.193   2.731
 5611SOL    HW217733   0.904   5.348   2.772
 5612SOL     OW17734   3.660   1.674   6.733
 5612SOL    HW117735   3.678   1.773   6.735
 5612SOL    HW217736   3.645   1.641   6.826
 5613SOL     OW17737   5.396   3.669   3.801
 5613SOL    HW117738   5.398   3.610   3.721
 5613SOL    HW217739   5.475   3.648   3.860
 5614SOL     OW17740   4.622   2.719   4.085
 5614SOL    HW117741   4.689   2.724   4.160
 5614SOL    HW217742   4.644   2.788   4.017
 5615SOL     OW17743   0.617   1.123   5.008
 5615SOL    HW117744   0.520   1.145   5.018
 5615SOL    HW217745   0.628   1.054   4.937
 5616SOL     OW17746   2.242   1.733   4.988
 5616SOL    HW117747   2.191   1.660   5.034
 5616SOL    HW217748   2.187   1.816   4.986
 5617SOL     OW17749   2.725   6.794   6.785
 5617SOL    HW117750   2.820   6.809   6.813
 5617SOL    HW217751   2.722   6.732   6.707
 5618SOL     OW17752   6.722   3.958   3.961
 5618SOL    HW117753   6.803   4.015   3.950
 5618SOL    HW217754   6.658   3.977   3.886
 5619SOL     OW17755   3.110   3.674   6.118
 5619SOL    HW117756   3.184   3.719   6.167
 5619SOL    HW217757   3.038   3.650   6.183
 5620SOL     OW17758   3.500   3.145   0.854
 5620SOL    HW117759   3.505   3.148   0.953
 5620SOL    HW217760   3.545   3.225   0.815
 5621SOL     OW17761   1.027   2.315   5.904
 5621SOL    HW117762   1.061   2.249   5.837
 5621SOL    HW217763   1.085   2.396   5.904
 5622SOL     OW17764   4.682   0.133   6.024
 5622SOL    HW117765   4.766   0.080   6.030
 5622SOL    HW217766   4.693   0.206   5.957
 5623SOL     OW17767   2.070   6.042   6.064
 5623SOL    HW117768   2.039   5.960   6.111
 5623SOL    HW217769   2.169   6.048   6.069
 5624SOL     OW17770   0.870   4.733   3.333
 5624SOL    HW117771   0.893   4.641   3.364
 5624SOL    HW217772   0.941   4.766   3.270
 5625SOL     OW17773   6.099   1.492   4.377
 5625SOL    HW117774   6.148   1.571   4.416
 5625SOL    HW217775   6.115   1.412   4.435
 5626SOL     OW17776   2.780   6.577   4.732
 5626SOL    HW117777   2.699   6.557   4.678
 5626SOL    HW217778   2.862   6.557   4.678
 5627SOL     OW17779   1.167   6.040   6.871
 5627SOL    HW117780   1.231   5.977   6.917
 5627SOL    HW217781   1.152   6.009   6.777
 5628SOL     OW17782   1.207   2.691   6.157
 5628SOL    HW117783   1.144   2.712   6.232
 5628SOL    HW217784   1.279   2.759   6.154
 5629SOL     OW17785   3.261   3.693   2.238
 5629SOL    HW117786   3.301   3.717   2.150
 5629SOL    HW217787   3.284   3.763   2.305
 5630SOL     OW17788   1.495   5.339   0.242
 5630SOL    HW117789   1.494   5.357   0.144
 5630SOL    HW217790   1.568   5.274   0.263
 5631SOL     OW17791   4.616   1.942   6.880
 5631SOL    HW117792   4.675   1.933   6.800
 5631SOL    HW217793   4.552   2.018   6.865
 5632SOL     OW17794   3.940   2.691   5.601
 5632SOL    HW117795   3.936   2.748   5.684
 5632SOL    HW217796   3.856   2.706   5.548
 5633SOL     OW17797   6.141   2.866   4.143
 5633SOL    HW117798   6.057   2.892   4.096
 5633SOL    HW217799   6.138   2.768   4.165
 5634SOL     OW17800   2.361   5.943   5.305
 5634SOL    HW117801   2.345   5.947   5.206
 5634SOL    HW217802   2.295   5.881   5.347
 5635SOL     OW17803   2.291   3.679   5.250
 5635SOL    HW117804   2.326   3.772   5.261
 5635SOL    HW217805   2.228   3.675   5.173
 5636SOL     OW17806   3.330   6.528   2.760
 5636SOL    HW117807   3.320   6.617   2.717
 5636SOL    HW217808   3.373   6.464   2.696
 5637SOL     OW17809   5.255   6.693   3.476
 5637SOL    HW117810   5.188   6.749   3.427
 5637SOL    HW217811   5.208   6.635   3.542
 5638SOL     OW17812   5.431   3.841   1.073
 5638SOL    HW117813   5.369   3.814   1.147
 5638SOL    HW217814   5.505   3.774   1.065
 5639SOL     OW17815   0.589   0.465   0.123
 5639SOL    HW117816   0.568   0.394   0.056
 5639SOL    HW217817   0.596   0.553   0.077
 5640SOL     OW17818   2.784   0.994   3.838
 5640SOL    HW117819   2.706   0.967   3.894
 5640SOL    HW217820   2.832   1.070   3.883
 5641SOL     OW17821   0.832   5.122   5.221
 5641SOL    HW117822   0.927   5.116   5.250
 5641SOL    HW217823   0.810   5.217   5.197
 5642SOL     OW17824   1.984   6.813   6.960
 5642SOL    HW117825   2.032   6.888   6.913
 5642SOL    HW217826   1.997   6.728   6.909
 5643SOL     OW17827   4.717   1.232   4.765
 5643SOL    HW117828   4.653   1.254   4.839
 5643SOL    HW217829   4.807   1.268   4.787
 5644SOL     OW17830   3.245   0.050   5.415
 5644SOL    HW117831   3.171   0.092   5.468
 5644SOL    HW217832   3.333   0.075   5.456
 5645SOL     OW17833   6.584   4.030   3.741
 5645SOL    HW117834   6.650   4.059   3.672
 5645SOL    HW217835   6.503   3.991   3.695
 5646SOL     OW17836   1.944   5.101   3.075
 5646SOL    HW117837   2.030   5.118   3.027
 5646SOL    HW217838   1.935   5.165   3.152
 5647SOL     OW17839   4.981   6.349   1.313
 5647SOL    HW117840   4.903   6.311   1.363
 5647SOL    HW217841   4.955   6.368   1.219
 5648SOL     OW17842   1.867   5.858   3.122
 5648SOL    HW117843   1.944   5.918   3.145
 5648SOL    HW217844   1.826   5.822   3.206
 5649SOL     OW17845   1.214   6.531   3.827
 5649SOL    HW117846   1.184   6.464   3.759
 5649SOL    HW217847   1.275   6.486   3.893
 5650SOL     OW17848   0.882   4.578   0.745
 5650SOL    HW117849   0.937   4.653   0.780
 5650SOL    HW217850   0.848   4.523   0.821
 5651SOL     OW17851   1.267   0.697   0.182
 5651SOL    HW117852   1.309   0.738   0.263
 5651SOL    HW217853   1.202   0.627   0.210
 5652SOL     OW17854   0.165   5.461   1.755
 5652SOL    HW117855   0.244   5.403   1.774
 5652SOL    HW217856   0.127   5.438   1.665
 5653SOL     OW17857   0.519   5.688   0.060
 5653SOL    HW117858   0.587   5.629   0.104
 5653SOL    HW217859   0.540   5.696   6.986
 5654SOL     OW17860   1.626   5.233   4.373
 5654SOL    HW117861   1.585   5.231   4.282
 5654SOL    HW217862   1.594   5.314   4.422
 5655SOL     OW17863   6.932   2.472   3.298
 5655SOL    HW117864   6.975   2.411   3.233
 5655SOL    HW217865   6.898   2.420   3.376
 5656SOL     OW17866   6.801   4.066   6.166
 5656SOL    HW117867   6.770   4.145   6.113
 5656SOL    HW217868   6.865   4.097   6.237
 5657SOL     OW17869   4.666   4.235   4.920
 5657SOL    HW117870   4.763   4.252   4.904
 5657SOL    HW217871   4.635   4.161   4.861
 5658SOL     OW17872   3.084   3.138   6.163
 5658SOL    HW117873   3.045   3.178   6.081
 5658SOL    HW217874   3.123   3.210   6.220
 5659SOL     OW17875   3.607   3.629   6.261
 5659SOL    HW117876   3.548   3.565   6.310
 5659SOL    HW217877   3.638   3.587   6.175
 5660SOL     OW17878   4.880   0.301   6.703
 5660SOL    HW117879   4.834   0.352   6.775
 5660SOL    HW217880   4.814   0.274   6.633
 5661SOL     OW17881   1.344   5.153   5.783
 5661SOL    HW117882   1.269   5.106   5.736
 5661SOL    HW217883   1.421   5.089   5.795
 5662SOL     OW17884   2.313   6.965   2.414
 5662SOL    HW117885   2.397   6.937   2.367
 5662SOL    HW217886   2.296   6.904   2.491
 5663SOL     OW17887   1.481   2.706   0.611
 5663SOL    HW117888   1.414   2.632   0.604
 5663SOL    HW217889   1.460   2.762   0.691
 5664SOL     OW17890   5.801   4.018   4.994
 5664SOL    HW117891   5.847   3.932   5.012
 5664SOL    HW217892   5.783   4.027   4.896
 5665SOL     OW17893   1.303   5.770   6.926
 5665SOL    HW117894   1.214   5.737   6.957
 5665SOL    HW217895   1.341   5.707   6.859
 5666SOL     OW17896   6.239   0.949   3.704
 5666SOL    HW117897   6.175   0.903   3.642
 5666SOL    HW217898   6.192   1.026   3.748
 5667SOL     OW17899   1.961   4.978   4.658
 5667SOL    HW117900   1.996   5.072   4.651
 5667SOL    HW217901   1.961   4.936   4.568
 5668SOL     OW17902   6.157   2.655   2.995
 5668SOL    HW117903   6.140   2.752   3.013
 5668SOL    HW217904   6.150   2.603   3.081
 5669SOL     OW17905   6.480   5.135   0.198
 5669SOL    HW117906   6.412   5.069   0.229
 5669SOL    HW217907   6.556   5.139   0.263
 5670SOL     OW17908   1.877   3.050   3.162
 5670SOL    HW117909   1.862   3.057   3.261
 5670SOL    HW217910   1.855   3.138   3.119
 5671SOL     OW17911   6.345   5.691   5.212
 5671SOL    HW117912   6.290   5.738   5.143
 5671SOL    HW217913   6.286   5.635   5.270
 5672SOL     OW17914   4.862   3.834   5.198
 5672SOL    HW117915   4.803   3.756   5.178
 5672SOL    HW217916   4.819   3.918   5.165
 5673SOL     OW17917   1.131   6.783   1.449
 5673SOL    HW117918   1.186   6.761   1.368
 5673SOL    HW217919   1.140   6.880   1.470
 5674SOL     OW17920   2.307   4.748   4.332
 5674SOL    HW117921   2.265   4.690   4.403
 5674SOL    HW217922   2.304   4.843   4.362
 5675SOL     OW17923   3.639   1.610   7.021
 5675SOL    HW117924   3.559   1.586   0.053
 5675SOL    HW217925   3.719   1.559   0.030
 5676SOL     OW17926   2.950   1.905   1.926
 5676SOL    HW117927   2.874   1.860   1.973
 5676SOL    HW217928   2.978   1.986   1.978
 5677SOL     OW17929   6.775   0.713   0.391
 5677SOL    HW117930   6.743   0.657   0.314
 5677SOL    HW217931   6.740   0.806   0.382
 5678SOL     OW17932   4.124   1.344   2.200
 5678SOL    HW117933   4.150   1.374   2.108
 5678SOL    HW217934   4.025   1.349   2.210
 5679SOL     OW17935   6.002   2.012   4.985
 5679SOL    HW117936   5.995   2.105   5.021
 5679SOL    HW217937   6.092   2.000   4.942
 5680SOL     OW17938   1.849   4.919   5.911
 5680SOL    HW117939   1.937   4.952   5.877
 5680SOL    HW217940   1.830   4.829   5.871
 5681SOL     OW17941   0.197   4.203   2.652
 5681SOL    HW117942   0.165   4.230   2.743
 5681SOL    HW217943   0.283   4.152   2.661
 5682SOL     OW17944   2.556   5.772   3.233
 5682SOL    HW117945   2.462   5.747   3.255
 5682SOL    HW217946   2.597   5.820   3.311
 5683SOL     OW17947   4.078   2.727   6.117
 5683SOL    HW117948   4.052   2.712   6.212
 5683SOL    HW217949   4.047   2.650   6.061
 5684SOL     OW17950   2.409   3.853   6.190
 5684SOL    HW117951   2.384   3.919   6.119
 5684SOL    HW217952   2.433   3.766   6.147
 5685SOL     OW17953   1.759   2.145   3.531
 5685SOL    HW117954   1.805   2.166   3.617
 5685SOL    HW217955   1.812   2.182   3.455
 5686SOL     OW17956   3.329   1.069   5.490
 5686SOL    HW117957   3.395   1.000   5.461
 5686SOL    HW217958   3.263   1.085   5.417
 5687SOL     OW17959   0.081   6.122   6.305
 5687SOL    HW117960   0.103   6.025   6.316
 5687SOL    HW217961   7.005   6.135   6.317
 5688SOL     OW17962   2.388   2.808   3.455
 5688SOL    HW117963   2.335   2.845   3.531
 5688SOL    HW217964   2.355   2.716   3.433
 5689SOL     OW17965   2.283   0.313   1.707
 5689SOL    HW117966   2.271   0.247   1.632
 5689SOL    HW217967   2.378   0.343   1.710
 5690SOL     OW17968   0.994   4.750   6.582
 5690SOL    HW117969   1.084   4.770   6.619
 5690SOL    HW217970   0.924   4.800   6.633
 5691SOL     OW17971   3.532   0.916   2.486
 5691SOL    HW117972   3.543   0.984   2.414
 5691SOL    HW217973   3.578   0.831   2.459
 5692SOL     OW17974   4.707   4.532   0.868
 5692SOL    HW117975   4.695   4.525   0.968
 5692SOL    HW217976   4.804   4.522   0.846
 5693SOL     OW17977   4.317   0.275   1.158
 5693SOL    HW117978   4.221   0.289   1.183
 5693SOL    HW217979   4.368   0.242   1.237
 5694SOL     OW17980   0.485   6.768   2.273
 5694SOL    HW117981   0.457   6.673   2.260
 5694SOL    HW217982   0.503   6.810   2.185
 5695SOL     OW17983   0.971   0.635   2.536
 5695SOL    HW117984   0.967   0.681   2.624
 5695SOL    HW217985   0.878   0.615   2.505
 5696SOL     OW17986   1.637   0.689   4.229
 5696SOL    HW117987   1.671   0.738   4.310
 5696SOL    HW217988   1.619   0.594   4.253
 5697SOL     OW17989   6.344   2.405   1.888
 5697SOL    HW117990   6.363   2.452   1.801
 5697SOL    HW217991   6.255   2.361   1.882
 5698SOL     OW17992   1.811   3.548   3.544
 5698SOL    HW117993   1.883   3.530   3.477
 5698SOL    HW217994   1.812   3.645   3.570
 5699SOL     OW17995   2.006   2.192   2.588
 5699SOL    HW117996   1.989   2.145   2.502
 5699SOL    HW217997   2.105   2.194   2.606
 5700SOL     OW17998   6.756   0.140   2.567
 5700SOL    HW117999   6.811   0.223   2.580
 5700SOL    HW218000   6.795   0.066   2.621
 5701SOL     OW18001   7.012   1.247   0.824
 5701SOL    HW118002   6.913   1.237   0.829
 5701SOL    HW218003   0.016   1.340   0.849
 5702SOL     OW18004   1.764   6.623   4.512
 5702SOL    HW118005   1.722   6.537   4.540
 5702SOL    HW218006   1.831   6.651   4.581
 5703SOL     OW18007   6.849   4.353   6.505
 5703SOL    HW118008   6.889   4.286   6.444
 5703SOL    HW218009   6.819   4.308   6.589
 5704SOL     OW18010   5.042   4.236   3.810
 5704SOL    HW118011   4.966   4.254   3.872
 5704SOL    HW218012   5.039   4.301   3.734
 5705SOL     OW18013   6.186   5.579   6.603
 5705SOL    HW118014   6.118   5.607   6.671
 5705SOL    HW218015   6.206   5.482   6.614
 5706SOL     OW18016   5.083   2.949   1.057
 5706SOL    HW118017   5.122   2.897   1.133
 5706SOL    HW218018   5.072   3.045   1.084
 5707SOL     OW18019   5.361   0.260   1.423
 5707SOL    HW118020   5.387   0.221   1.512
 5707SOL    HW218021   5.336   0.356   1.436
 5708SOL     OW18022   4.959   6.079   2.785
 5708SOL    HW118023   4.919   5.988   2.772
 5708SOL    HW218024   4.938   6.112   2.877
 5709SOL     OW18025   6.963   0.848   2.040
 5709SOL    HW118026   6.997   0.756   2.018
 5709SOL    HW218027   6.905   0.880   1.965
 5710SOL     OW18028   2.823   2.369   1.152
 5710SOL    HW118029   2.829   2.432   1.074
 5710SOL    HW218030   2.730   2.371   1.189
 5711SOL     OW18031   5.094   0.678   1.641
 5711SOL    HW118032   5.042   0.599   1.672
 5711SOL    HW218033   5.032   0.753   1.618
 5712SOL     OW18034   6.247   6.235   0.931
 5712SOL    HW118035   6.192   6.280   1.001
 5712SOL    HW218036   6.187   6.205   0.856
 5713SOL     OW18037   2.768   4.977   0.665
 5713SOL    HW118038   2.794   5.057   0.718
 5713SOL    HW218039   2.764   4.897   0.725
 5714SOL     OW18040   6.676   6.551   1.582
 5714SOL    HW118041   6.584   6.522   1.555
 5714SOL    HW218042   6.727   6.580   1.501
 5715SOL     OW18043   0.698   6.823   1.089
 5715SOL    HW118044   0.690   6.794   0.993
 5715SOL    HW218045   0.787   6.796   1.125
 5716SOL     OW18046   0.789   5.289   6.323
 5716SOL    HW118047   0.833   5.222   6.383
 5716SOL    HW218048   0.693   5.300   6.350
 5717SOL     OW18049   2.179   5.125   2.395
 5717SOL    HW118050   2.234   5.163   2.468
 5717SOL    HW218051   2.232   5.123   2.310
 5718SOL     OW18052   0.989   2.953   0.478
 5718SOL    HW118053   0.966   2.856   0.476
 5718SOL    HW218054   0.939   3.002   0.407
 5719SOL     OW18055   2.751   3.674   1.397
 5719SOL    HW118056   2.783   3.626   1.316
 5719SOL    HW218057   2.795   3.763   1.403
 5720SOL     OW18058   1.964   6.593   5.169
 5720SOL    HW118059   2.044   6.633   5.213
 5720SOL    HW218060   1.986   6.501   5.136
 5721SOL     OW18061   5.857   4.377   1.064
 5721SOL    HW118062   5.912   4.299   1.092
 5721SOL    HW218063   5.773   4.380   1.118
 5722SOL     OW18064   0.294   1.595   4.984
 5722SOL    HW118065   0.235   1.579   4.905
 5722SOL    HW218066   0.390   1.583   4.957
 5723SOL     OW18067   3.755   3.472   7.022
 5723SOL    HW118068   3.853   3.460   0.009
 5723SOL    HW218069   3.731   3.568   0.012
 5724SOL     OW18070   6.406   2.385   3.084
 5724SOL    HW118071   6.485   2.403   3.143
 5724SOL    HW218072   6.406   2.450   3.008
 5725SOL     OW18073   5.895   5.487   3.077
 5725SOL    HW118074   5.809   5.491   3.129
 5725SOL    HW218075   5.965   5.537   3.127
 5726SOL     OW18076   5.737   4.626   3.641
 5726SOL    HW118077   5.706   4.548   3.696
 5726SOL    HW218078   5.796   4.594   3.567
 5727SOL     OW18079   0.113   2.716   4.795
 5727SOL    HW118080   0.204   2.758   4.793
 5727SOL    HW218081   0.114   2.637   4.856
 5728SOL     OW18082   4.765   6.190   5.311
 5728SOL    HW118083   4.790   6.224   5.402
 5728SOL    HW218084   4.668   6.166   5.310
 5729SOL     OW18085   1.590   2.073   6.236
 5729SOL    HW118086   1.564   2.137   6.308
 5729SOL    HW218087   1.514   2.011   6.217
 5730SOL     OW18088   6.885   4.567   6.045
 5730SOL    HW118089   6.808   4.628   6.064
 5730SOL    HW218090   6.931   4.597   5.961
 5731SOL     OW18091   6.554   7.005   1.651
 5731SOL    HW118092   6.607   6.995   1.566
 5731SOL    HW218093   6.546   0.079   1.673
 5732SOL     OW18094   1.266   6.335   4.034
 5732SOL    HW118095   1.363   6.355   4.045
 5732SOL    HW218096   1.229   6.298   4.119
 5733SOL     OW18097   4.095   6.719   5.003
 5733SOL    HW118098   4.182   6.735   4.957
 5733SOL    HW218099   4.035   6.798   4.990
 5734SOL     OW18100   1.650   6.407   4.975
 5734SOL    HW118101   1.725   6.403   4.909
 5734SOL    HW218102   1.577   6.346   4.946
 5735SOL     OW18103   2.805   1.752   2.092
 5735SOL    HW118104   2.751   1.686   2.040
 5735SOL    HW218105   2.896   1.715   2.109
 5736SOL     OW18106   0.833   4.739   6.914
 5736SOL    HW118107   0.905   4.673   6.934
 5736SOL    HW218108   0.749   4.712   6.962
 5737SOL     OW18109   6.046   5.967   6.521
 5737SOL    HW118110   6.070   5.964   6.618
 5737SOL    HW218111   6.129   5.979   6.467
 5738SOL     OW18112   2.079   3.373   6.753
 5738SOL    HW118113   2.020   3.358   6.832
 5738SOL    HW218114   2.041   3.447   6.697
 5739SOL     OW18115   1.445   1.244   0.117
 5739SOL    HW118116   1.472   1.148   0.128
 5739SOL    HW218117   1.368   1.249   0.053
 5740SOL     OW18118   4.338   5.941   0.139
 5740SOL    HW118119   4.279   6.008   0.184
 5740SOL    HW218120   4.302   5.849   0.154
 5741SOL     OW18121   6.778   5.928   4.649
 5741SOL    HW118122   6.860   5.888   4.608
 5741SOL    HW218123   6.698   5.876   4.620
 5742SOL     OW18124   6.251   6.847   2.494
 5742SOL    HW118125   6.152   6.851   2.485
 5742SOL    HW218126   6.279   6.888   2.580
 5743SOL     OW18127   2.585   6.871   5.292
 5743SOL    HW118128   2.646   6.811   5.344
 5743SOL    HW218129   2.622   6.884   5.200
 5744SOL     OW18130   5.280   1.722   0.123
 5744SOL    HW118131   5.270   1.623   0.117
 5744SOL    HW218132   5.192   1.766   0.105
 5745SOL     OW18133   1.675   1.667   4.677
 5745SOL    HW118134   1.633   1.689   4.590
 5745SOL    HW218135   1.775   1.663   4.666
 5746SOL     OW18136   5.394   1.566   6.874
 5746SOL    HW118137   5.294   1.556   6.874
 5746SOL    HW218138   5.417   1.664   6.869
 5747SOL     OW18139   0.269   5.181   2.282
 5747SOL    HW118140   0.219   5.232   2.352
 5747SOL    HW218141   0.297   5.092   2.319
 5748SOL     OW18142   2.308   4.844   1.888
 5748SOL    HW118143   2.367   4.764   1.890
 5748SOL    HW218144   2.219   4.821   1.927
 5749SOL     OW18145   1.871   1.887   3.499
 5749SOL    HW118146   1.909   1.849   3.414
 5749SOL    HW218147   1.810   1.963   3.477
 5750SOL     OW18148   6.206   4.749   4.529
 5750SOL    HW118149   6.284   4.799   4.491
 5750SOL    HW218150   6.147   4.717   4.455
 5751SOL     OW18151   2.176   3.267   5.156
 5751SOL    HW118152   2.095   3.262   5.098
 5751SOL    HW218153   2.201   3.176   5.188
 5752SOL     OW18154   6.634   6.752   5.882
 5752SOL    HW118155   6.702   6.747   5.808
 5752SOL    HW218156   6.580   6.668   5.884
 5753SOL     OW18157   3.568   3.129   6.889
 5753SOL    HW118158   3.531   3.136   6.982
 5753SOL    HW218159   3.664   3.158   6.889
 5754SOL     OW18160   5.571   5.510   2.013
 5754SOL    HW118161   5.628   5.435   2.048
 5754SOL    HW218162   5.520   5.479   1.933
 5755SOL     OW18163   3.477   3.640   0.061
 5755SOL    HW118164   3.428   3.553   0.071
 5755SOL    HW218165   3.453   3.682   6.997
 5756SOL     OW18166   6.321   5.122   3.576
 5756SOL    HW118167   6.370   5.058   3.635
 5756SOL    HW218168   6.322   5.089   3.482
 5757SOL     OW18169   6.383   5.636   1.372
 5757SOL    HW118170   6.362   5.655   1.276
 5757SOL    HW218171   6.448   5.561   1.378
 5758SOL     OW18172   2.170   2.134   4.991
 5758SOL    HW118173   2.146   2.057   5.049
 5758SOL    HW218174   2.265   2.125   4.960
 5759SOL     OW18175   4.989   1.840   6.251
 5759SOL    HW118176   5.011   1.921   6.196
 5759SOL    HW218177   4.897   1.809   6.228
 5760SOL     OW18178   1.445   5.114   2.340
 5760SOL    HW118179   1.353   5.140   2.368
 5760SOL    HW218180   1.441   5.059   2.257
 5761SOL     OW18181   4.776   6.848   4.718
 5761SOL    HW118182   4.761   6.929   4.661
 5761SOL    HW218183   4.698   6.787   4.710
 5762SOL     OW18184   5.479   6.453   1.090
 5762SOL    HW118185   5.478   6.544   1.133
 5762SOL    HW218186   5.522   6.459   1.001
 5763SOL     OW18187   1.274   0.393   0.317
 5763SOL    HW118188   1.358   0.443   0.295
 5763SOL    HW218189   1.294   0.321   0.383
 5764SOL     OW18190   5.757   4.375   5.493
 5764SOL    HW118191   5.832   4.440   5.502
 5764SOL    HW218192   5.789   4.293   5.446
 5765SOL     OW18193   6.464   4.352   6.865
 5765SOL    HW118194   6.548   4.299   6.854
 5765SOL    HW218195   6.385   4.294   6.845
 5766SOL     OW18196   3.056   1.866   2.363
 5766SOL    HW118197   3.059   1.965   2.353
 5766SOL    HW218198   2.971   1.839   2.408
 5767SOL     OW18199   0.302   5.976   0.944
 5767SOL    HW118200   0.273   5.909   1.012
 5767SOL    HW218201   0.401   5.970   0.931
 5768SOL     OW18202   6.852   0.979   2.766
 5768SOL    HW118203   6.768   0.934   2.734
 5768SOL    HW218204   6.875   1.055   2.705
 5769SOL     OW18205   3.040   6.100   3.758
 5769SOL    HW118206   3.001   6.141   3.676
 5769SOL    HW218207   3.103   6.027   3.732
 5770SOL     OW18208   6.493   6.895   1.209
 5770SOL    HW118209   6.523   6.929   1.298
 5770SOL    HW218210   6.556   6.926   1.138
 5771SOL     OW18211   1.338   0.444   1.150
 5771SOL    HW118212   1.270   0.484   1.212
 5771SOL    HW218213   1.296   0.424   1.062
 5772SOL     OW18214   5.923   3.432   0.529
 5772SOL    HW118215   5.896   3.348   0.577
 5772SOL    HW218216   5.843   3.471   0.483
 5773SOL     OW18217   5.381   6.367   3.843
 5773SOL    HW118218   5.373   6.334   3.937
 5773SOL    HW218219   5.467   6.417   3.832
 5774SOL     OW18220   2.117   4.766   3.684
 5774SOL    HW118221   2.028   4.729   3.710
 5774SOL    HW218222   2.176   4.768   3.765
 5775SOL     OW18223   6.641   6.618   6.632
 5775SOL    HW118224   6.701   6.605   6.553
 5775SOL    HW218225   6.658   6.708   6.672
 5776SOL     OW18226   5.045   0.391   6.243
 5776SOL    HW118227   5.144   0.389   6.258
 5776SOL    HW218228   4.999   0.415   6.328
 5777SOL     OW18229   6.841   1.441   4.334
 5777SOL    HW118230   6.937   1.421   4.315
 5777SOL    HW218231   6.790   1.355   4.341
 5778SOL     OW18232   1.254   6.394   3.140
 5778SOL    HW118233   1.210   6.474   3.181
 5778SOL    HW218234   1.295   6.419   3.053
 5779SOL     OW18235   4.040   1.413   1.468
 5779SOL    HW118236   4.090   1.329   1.449
 5779SOL    HW218237   3.942   1.397   1.457
 5780SOL     OW18238   0.230   4.059   1.413
 5780SOL    HW118239   0.288   4.141   1.412
 5780SOL    HW218240   0.153   4.074   1.475
 5781SOL     OW18241   2.071   4.389   5.155
 5781SOL    HW118242   2.159   4.358   5.121
 5781SOL    HW218243   2.045   4.474   5.108
 5782SOL     OW18244   1.870   0.964   1.524
 5782SOL    HW118245   1.825   0.953   1.435
 5782SOL    HW218246   1.804   0.944   1.596
 5783SOL     OW18247   1.517   0.216   1.152
 5783SOL    HW118248   1.580   0.246   1.081
 5783SOL    HW218249   1.458   0.293   1.179
 5784SOL     OW18250   0.818   5.975   0.193
 5784SOL    HW118251   0.726   5.966   0.233
 5784SOL    HW218252   0.824   5.920   0.110
 5785SOL     OW18253   1.746   1.629   0.255
 5785SOL    HW118254   1.724   1.560   0.324
 5785SOL    HW218255   1.832   1.605   0.210
 5786SOL     OW18256   1.736   2.897   1.895
 5786SOL    HW118257   1.791   2.954   1.835
 5786SOL    HW218258   1.722   2.807   1.853
 5787SOL     OW18259   6.110   2.297   4.816
 5787SOL    HW118260   6.081   2.306   4.721
 5787SOL    HW218261   6.201   2.254   4.819
 5788SOL     OW18262   3.116   0.929   2.449
 5788SOL    HW118263   3.080   0.983   2.525
 5788SOL    HW218264   3.155   0.844   2.485
 5789SOL     OW18265   4.492   4.101   6.934
 5789SOL    HW118266   4.583   4.063   6.952
 5789SOL    HW218267   4.495   4.200   6.940
 5790SOL     OW18268   5.645   5.763   4.718
 5790SOL    HW118269   5.690   5.752   4.806
 5790SOL    HW218270   5.678   5.694   4.654
 5791SOL     OW18271   3.686   1.146   2.662
 5791SOL    HW118272   3.779   1.151   2.626
 5791SOL    HW218273   3.621   1.148   2.586
 5792SOL     OW18274   4.930   3.771   3.034
 5792SOL    HW118275   4.959   3.684   3.076
 5792SOL    HW218276   4.980   3.785   2.949
 5793SOL     OW18277   5.439   2.357   5.211
 5793SOL    HW118278   5.525   2.307   5.203
 5793SOL    HW218279   5.383   2.340   5.131
 5794SOL     OW18280   3.321   6.464   6.303
 5794SOL    HW118281   3.283   6.433   6.215
 5794SOL    HW218282   3.421   6.463   6.297
 5795SOL     OW18283   1.114   4.917   2.153
 5795SOL    HW118284   1.035   4.893   2.210
 5795SOL    HW218285   1.117   5.016   2.140
 5796SOL     OW18286   4.381   1.822   6.494
 5796SOL    HW118287   4.443   1.765   6.548
 5796SOL    HW218288   4.287   1.793   6.510
 5797SOL     OW18289   5.213   2.566   0.253
 5797SOL    HW118290   5.127   2.598   0.214
 5797SOL    HW218291   5.268   2.523   0.182
 5798SOL     OW18292   1.717   4.100   5.210
 5798SOL    HW118293   1.710   4.000   5.218
 5798SOL    HW218294   1.804   4.130   5.247
 5799SOL     OW18295   1.392   6.205   3.259
 5799SOL    HW118296   1.478   6.198   3.210
 5799SOL    HW218297   1.352   6.296   3.244
 5800SOL     OW18298   0.614   6.780   0.812
 5800SOL    HW118299   0.519   6.758   0.834
 5800SOL    HW218300   0.662   6.697   0.785
 5801SOL     OW18301   2.240   2.477   2.566
 5801SOL    HW118302   2.144   2.464   2.542
 5801SOL    HW218303   2.286   2.527   2.492
 5802SOL     OW18304   0.259   1.486   1.876
 5802SOL    HW118305   0.196   1.410   1.860
 5802SOL    HW218306   0.294   1.481   1.970
 5803SOL     OW18307   0.978   5.171   4.271
 5803SOL    HW118308   0.960   5.162   4.369
 5803SOL    HW218309   1.034   5.093   4.240
 5804SOL     OW18310   6.290   0.745   3.886
 5804SOL    HW118311   6.206   0.708   3.926
 5804SOL    HW218312   6.269   0.787   3.798
 5805SOL     OW18313   2.429   3.217   1.128
 5805SOL    HW118314   2.348   3.160   1.122
 5805SOL    HW218315   2.453   3.250   1.036
 5806SOL     OW18316   0.494   3.321   3.041
 5806SOL    HW118317   0.455   3.269   3.117
 5806SOL    HW218318   0.575   3.274   3.007
 5807SOL     OW18319   1.157   6.972   0.631
 5807SOL    HW118320   1.065   6.976   0.669
 5807SOL    HW218321   1.211   6.905   0.682
 5808SOL     OW18322   5.969   0.508   4.816
 5808SOL    HW118323   5.890   0.565   4.836
 5808SOL    HW218324   5.951   0.453   4.734
 5809SOL     OW18325   0.718   2.088   5.954
 5809SOL    HW118326   0.720   2.162   6.021
 5809SOL    HW218327   0.647   2.022   5.978
 5810SOL     OW18328   3.926   0.033   5.330
 5810SOL    HW118329   3.848   6.995   5.337
 5810SOL    HW218330   3.943   0.056   5.234
 5811SOL     OW18331   2.958   3.406   5.693
 5811SOL    HW118332   3.055   3.428   5.683
 5811SOL    HW218333   2.931   3.341   5.622
 5812SOL     OW18334   5.737   2.834   0.642
 5812SOL    HW118335   5.646   2.811   0.676
 5812SOL    HW218336   5.740   2.823   0.543
 5813SOL     OW18337   4.343   6.787   1.742
 5813SOL    HW118338   4.401   6.867   1.729
 5813SOL    HW218339   4.399   6.706   1.757
 5814SOL     OW18340   5.356   1.855   1.989
 5814SOL    HW118341   5.271   1.850   1.936
 5814SOL    HW218342   5.415   1.926   1.950
 5815SOL     OW18343   6.394   1.660   3.502
 5815SOL    HW118344   6.448   1.650   3.586
 5815SOL    HW218345   6.305   1.615   3.514
 5816SOL     OW18346   6.837   3.984   2.886
 5816SOL    HW118347   6.872   4.078   2.891
 5816SOL    HW218348   6.786   3.963   2.970
 5817SOL     OW18349   5.477   4.686   3.194
 5817SOL    HW118350   5.508   4.685   3.289
 5817SOL    HW218351   5.446   4.778   3.170
 5818SOL     OW18352   2.261   0.157   5.590
 5818SOL    HW118353   2.281   0.121   5.499
 5818SOL    HW218354   2.251   0.256   5.586
 5819SOL     OW18355   4.356   5.046   6.940
 5819SOL    HW118356   4.329   5.077   0.008
 5819SOL    HW218357   4.372   5.125   6.881
 5820SOL     OW18358   5.874   5.136   2.469
 5820SOL    HW118359   5.817   5.192   2.529
 5820SOL    HW218360   5.817   5.072   2.418
 5821SOL     OW18361   6.409   0.864   1.270
 5821SOL    HW118362   6.369   0.777   1.296
 5821SOL    HW218363   6.346   0.913   1.209
 5822SOL     OW18364   2.060   3.190   2.804
 5822SOL    HW118365   1.963   3.166   2.806
 5822SOL    HW218366   2.090   3.201   2.709
 5823SOL     OW18367   1.983   6.509   4.102
 5823SOL    HW118368   2.037   6.590   4.124
 5823SOL    HW218369   2.027   6.427   4.139
 5824SOL     OW18370   0.610   6.962   1.533
 5824SOL    HW118371   0.551   6.984   1.455
 5824SOL    HW218372   0.644   0.023   1.574
 5825SOL     OW18373   6.147   0.423   4.185
 5825SOL    HW118374   6.219   0.363   4.151
 5825SOL    HW218375   6.187   0.511   4.213
 5826SOL     OW18376   0.571   6.860   4.810
 5826SOL    HW118377   0.497   6.925   4.789
 5826SOL    HW218378   0.609   6.880   4.900
 5827SOL     OW18379   2.125   4.808   5.637
 5827SOL    HW118380   2.171   4.725   5.668
 5827SOL    HW218381   2.039   4.784   5.592
 5828SOL     OW18382   4.442   6.941   4.740
 5828SOL    HW118383   4.349   6.961   4.708
 5828SOL    HW218384   4.465   6.846   4.719
 5829SOL     OW18385   2.413   1.254   3.767
 5829SOL    HW118386   2.465   1.272   3.851
 5829SOL    HW218387   2.454   1.176   3.719
 5830SOL     OW18388   4.038   5.656   5.143
 5830SOL    HW118389   3.960   5.687   5.197
 5830SOL    HW218390   4.019   5.564   5.109
 5831SOL     OW18391   1.830   1.538   5.300
 5831SOL    HW118392   1.867   1.490   5.380
 5831SOL    HW218393   1.785   1.622   5.329
 5832SOL     OW18394   2.852   5.098   1.102
 5832SOL    HW118395   2.855   5.164   1.027
 5832SOL    HW218396   2.932   5.039   1.097
 5833SOL     OW18397   4.458   3.685   6.208
 5833SOL    HW118398   4.409   3.667   6.123
 5833SOL    HW218399   4.400   3.738   6.270
 5834SOL     OW18400   5.640   3.654   6.901
 5834SOL    HW118401   5.660   3.751   6.893
 5834SOL    HW218402   5.542   3.641   6.911
 5835SOL     OW18403   5.253   0.975   2.428
 5835SOL    HW118404   5.156   1.000   2.432
 5835SOL    HW218405   5.302   1.020   2.503
 5836SOL     OW18406   3.974   6.810   2.421
 5836SOL    HW118407   3.951   6.858   2.337
 5836SOL    HW218408   4.050   6.747   2.405
 5837SOL     OW18409   3.338   4.056   6.869
 5837SOL    HW118410   3.271   4.125   6.896
 5837SOL    HW218411   3.419   4.062   6.928
 5838SOL     OW18412   2.967   1.723   0.982
 5838SOL    HW118413   3.035   1.691   1.049
 5838SOL    HW218414   3.002   1.708   0.890
 5839SOL     OW18415   1.309   1.922   0.888
 5839SOL    HW118416   1.270   2.014   0.900
 5839SOL    HW218417   1.272   1.861   0.958
 5840SOL     OW18418   0.938   3.690   2.705
 5840SOL    HW118419   0.926   3.669   2.802
 5840SOL    HW218420   0.869   3.641   2.651
 5841SOL     OW18421   5.575   2.127   0.688
 5841SOL    HW118422   5.548   2.168   0.775
 5841SOL    HW218423   5.497   2.079   0.648
 5842SOL     OW18424   3.138   1.568   0.574
 5842SOL    HW118425   3.099   1.646   0.624
 5842SOL    HW218426   3.073   1.537   0.505
 5843SOL     OW18427   1.675   3.254   0.961
 5843SOL    HW118428   1.647   3.343   0.997
 5843SOL    HW218429   1.671   3.186   1.034
 5844SOL     OW18430   0.901   0.568   5.055
 5844SOL    HW118431   0.804   0.567   5.032
 5844SOL    HW218432   0.949   0.630   4.993
 5845SOL     OW18433   1.111   6.017   1.897
 5845SOL    HW118434   1.160   6.060   1.974
 5845SOL    HW218435   1.176   5.963   1.843
 5846SOL     OW18436   6.311   3.981   5.722
 5846SOL    HW118437   6.215   3.957   5.738
 5846SOL    HW218438   6.318   4.079   5.703
 5847SOL     OW18439   2.927   3.162   0.866
 5847SOL    HW118440   2.935   3.064   0.850
 5847SOL    HW218441   3.010   3.208   0.837
 5848SOL     OW18442   2.244   5.811   3.261
 5848SOL    HW118443   2.308   5.789   3.334
 5848SOL    HW218444   2.227   5.730   3.206
 5849SOL     OW18445   2.555   6.120   5.668
 5849SOL    HW118446   2.640   6.117   5.616
 5849SOL    HW218447   2.478   6.138   5.607
 5850SOL     OW18448   1.013   1.792   1.342
 5850SOL    HW118449   0.974   1.701   1.351
 5850SOL    HW218450   1.112   1.788   1.358
 5851SOL     OW18451   5.934   3.080   4.761
 5851SOL    HW118452   5.909   3.171   4.793
 5851SOL    HW218453   5.878   3.011   4.808
 5852SOL     OW18454   5.173   5.227   2.859
 5852SOL    HW118455   5.195   5.147   2.804
 5852SOL    HW218456   5.237   5.301   2.838
 5853SOL     OW18457   3.680   4.659   5.413
 5853SOL    HW118458   3.713   4.734   5.471
 5853SOL    HW218459   3.630   4.696   5.335
 5854SOL     OW18460   2.830   5.207   5.803
 5854SOL    HW118461   2.850   5.177   5.896
 5854SOL    HW218462   2.916   5.230   5.756
 5855SOL     OW18463   1.934   2.557   3.975
 5855SOL    HW118464   1.908   2.472   4.020
 5855SOL    HW218465   1.895   2.635   4.024
 5856SOL     OW18466   1.635   0.122   3.107
 5856SOL    HW118467   1.710   0.103   3.171
 5856SOL    HW218468   1.603   0.036   3.068
 5857SOL     OW18469   7.001   4.376   6.175
 5857SOL    HW118470   6.940   4.308   6.215
 5857SOL    HW218471   6.946   4.448   6.131
 5858SOL     OW18472   2.259   0.692   3.523
 5858SOL    HW118473   2.311   0.625   3.470
 5858SOL    HW218474   2.306   0.708   3.611
 5859SOL     OW18475   6.046   6.958   2.191
 5859SOL    HW118476   5.965   6.924   2.239
 5859SOL    HW218477   6.110   6.883   2.177
 5860SOL     OW18478   0.137   3.060   4.225
 5860SOL    HW118479   0.177   2.993   4.161
 5860SOL    HW218480   0.094   3.134   4.173
 5861SOL     OW18481   4.809   0.868   5.118
 5861SOL    HW118482   4.828   0.912   5.205
 5861SOL    HW218483   4.888   0.877   5.058
 5862SOL     OW18484   6.675   5.048   3.436
 5862SOL    HW118485   6.697   5.125   3.497
 5862SOL    HW218486   6.713   4.964   3.473
 5863SOL     OW18487   3.876   0.234   5.508
 5863SOL    HW118488   3.782   0.258   5.483
 5863SOL    HW218489   3.912   0.167   5.444
 5864SOL     OW18490   3.116   3.703   2.610
 5864SOL    HW118491   3.071   3.651   2.537
 5864SOL    HW218492   3.102   3.801   2.595
 5865SOL     OW18493   5.873   1.039   5.229
 5865SOL    HW118494   5.913   1.032   5.320
 5865SOL    HW218495   5.900   1.126   5.187
 5866SOL     OW18496   3.822   2.949   2.542
 5866SOL    HW118497   3.741   2.935   2.600
 5866SOL    HW218498   3.795   2.938   2.446
 5867SOL     OW18499   2.595   2.340   1.787
 5867SOL    HW118500   2.625   2.434   1.773
 5867SOL    HW218501   2.661   2.278   1.745
 5868SOL     OW18502   0.756   1.383   6.040
 5868SOL    HW118503   0.713   1.410   5.954
 5868SOL    HW218504   0.829   1.317   6.021
 5869SOL     OW18505   1.450   4.791   4.517
 5869SOL    HW118506   1.527   4.848   4.490
 5869SOL    HW218507   1.468   4.750   4.606
 5870SOL     OW18508   4.421   4.737   4.831
 5870SOL    HW118509   4.345   4.794   4.861
 5870SOL    HW218510   4.424   4.654   4.887
 5871SOL     OW18511   3.194   3.587   3.197
 5871SOL    HW118512   3.197   3.622   3.103
 5871SOL    HW218513   3.284   3.596   3.239
 5872SOL     OW18514   3.552   6.158   2.406
 5872SOL    HW118515   3.479   6.104   2.447
 5872SOL    HW218516   3.560   6.135   2.309
 5873SOL     OW18517   3.814   4.963   2.438
 5873SOL    HW118518   3.772   5.040   2.389
 5873SOL    HW218519   3.910   4.955   2.410
 5874SOL     OW18520   2.532   4.800   5.821
 5874SOL    HW118521   2.456   4.776   5.882
 5874SOL    HW218522   2.534   4.737   5.744
 5875SOL     OW18523   3.058   0.956   0.376
 5875SOL    HW118524   3.003   0.893   0.431
 5875SOL    HW218525   3.153   0.951   0.404
 5876SOL     OW18526   3.840   3.296   2.284
 5876SOL    HW118527   3.916   3.359   2.269
 5876SOL    HW218528   3.865   3.205   2.252
 5877SOL     OW18529   5.996   5.090   1.297
 5877SOL    HW118530   5.926   5.019   1.306
 5877SOL    HW218531   6.079   5.050   1.260
 5878SOL     OW18532   2.187   4.695   2.610
 5878SOL    HW118533   2.214   4.603   2.637
 5878SOL    HW218534   2.161   4.747   2.692
 5879SOL     OW18535   0.378   4.007   6.967
 5879SOL    HW118536   0.462   4.022   7.020
 5879SOL    HW218537   0.375   3.912   6.936
 5880SOL     OW18538   2.519   6.282   1.657
 5880SOL    HW118539   2.431   6.235   1.649
 5880SOL    HW218540   2.522   6.358   1.592
 5881SOL     OW18541   0.601   5.018   3.757
 5881SOL    HW118542   0.666   5.092   3.779
 5881SOL    HW218543   0.628   4.935   3.806
 5882SOL     OW18544   5.136   0.405   1.093
 5882SOL    HW118545   5.113   0.421   1.189
 5882SOL    HW218546   5.195   0.325   1.086
 5883SOL     OW18547   6.790   3.064   6.764
 5883SOL    HW118548   6.801   3.043   6.861
 5883SOL    HW218549   6.734   3.146   6.754
 5884SOL     OW18550   0.898   1.264   2.792
 5884SOL    HW118551   0.851   1.310   2.868
 5884SOL    HW218552   0.962   1.328   2.750
 5885SOL     OW18553   6.097   6.346   1.495
 5885SOL    HW118554   6.009   6.303   1.518
 5885SOL    HW218555   6.171   6.289   1.529
 5886SOL     OW18556   0.651   2.243   5.539
 5886SOL    HW118557   0.703   2.185   5.602
 5886SOL    HW218558   0.672   2.339   5.557
 5887SOL     OW18559   3.227   1.098   4.204
 5887SOL    HW118560   3.173   1.132   4.281
 5887SOL    HW218561   3.214   0.999   4.195
 5888SOL     OW18562   2.196   6.176   3.628
 5888SOL    HW118563   2.211   6.237   3.706
 5888SOL    HW218564   2.098   6.163   3.613
 5889SOL     OW18565   2.365   0.395   1.330
 5889SOL    HW118566   2.282   0.400   1.386
 5889SOL    HW218567   2.367   0.473   1.267
 5890SOL     OW18568   2.026   5.965   5.325
 5890SOL    HW118569   2.054   6.060   5.339
 5890SOL    HW218570   1.939   5.948   5.372
 5891SOL     OW18571   3.687   2.852   0.141
 5891SOL    HW118572   3.680   2.772   0.081
 5891SOL    HW218573   3.596   2.874   0.177
 5892SOL     OW18574   0.564   6.521   1.238
 5892SOL    HW118575   0.631   6.533   1.311
 5892SOL    HW218576   0.502   6.600   1.235
 5893SOL     OW18577   1.481   2.262   3.486
 5893SOL    HW118578   1.508   2.348   3.530
 5893SOL    HW218579   1.562   2.207   3.468
 5894SOL     OW18580   1.421   3.515   3.240
 5894SOL    HW118581   1.393   3.435   3.294
 5894SOL    HW218582   1.520   3.528   3.250
 5895SOL     OW18583   5.206   3.090   4.806
 5895SOL    HW118584   5.251   3.077   4.718
 5895SOL    HW218585   5.107   3.099   4.792
 5896SOL     OW18586   3.879   2.220   6.888
 5896SOL    HW118587   3.858   2.282   6.812
 5896SOL    HW218588   3.913   2.273   6.966
 5897SOL     OW18589   4.032   1.255   0.544
 5897SOL    HW118590   3.941   1.285   0.573
 5897SOL    HW218591   4.101   1.315   0.583
 5898SOL     OW18592   2.003   0.020   2.073
 5898SOL    HW118593   1.937   0.087   2.039
 5898SOL    HW218594   2.076   0.068   2.122
 5899SOL     OW18595   5.811   6.903   4.444
 5899SOL    HW118596   5.729   6.948   4.409
 5899SOL    HW218597   5.798   6.803   4.441
 5900SOL     OW18598   4.844   4.966   2.918
 5900SOL    HW118599   4.747   4.984   2.902
 5900SOL    HW218600   4.853   4.901   2.994
 5901SOL     OW18601   2.132   6.431   6.653
 5901SOL    HW118602   2.215   6.397   6.696
 5901SOL    HW218603   2.137   6.415   6.554
 5902SOL     OW18604   6.975   2.736   0.208
 5902SOL    HW118605   7.014   2.720   0.299
 5902SOL    HW218606   6.912   2.661   0.185
 5903SOL     OW18607   6.028   4.449   6.976
 5903SOL    HW118608   6.110   4.414   7.021
 5903SOL    HW218609   6.003   4.537   7.015
 5904SOL     OW18610   0.300   3.590   2.197
 5904SOL    HW118611   0.345   3.598   2.286
 5904SOL    HW218612   0.204   3.617   2.206
 5905SOL     OW18613   6.972   6.168   2.580
 5905SOL    HW118614   6.909   6.246   2.583
 5905SOL    HW218615   0.029   6.191   2.524
 5906SOL     OW18616   5.925   1.352   3.600
 5906SOL    HW118617   5.944   1.312   3.690
 5906SOL    HW218618   6.008   1.396   3.565
 5907SOL     OW18619   0.360   6.337   1.308
 5907SOL    HW118620   0.348   6.366   1.404
 5907SOL    HW218621   0.437   6.386   1.268
 5908SOL     OW18622   0.617   2.597   4.996
 5908SOL    HW118623   0.661   2.611   4.908
 5908SOL    HW218624   0.601   2.686   5.039
 5909SOL     OW18625   0.845   5.990   0.566
 5909SOL    HW118626   0.871   6.030   0.653
 5909SOL    HW218627   0.749   6.012   0.547
 5910SOL     OW18628   1.606   2.095   3.196
 5910SOL    HW118629   1.616   2.040   3.279
 5910SOL    HW218630   1.692   2.094   3.144
 5911SOL     OW18631   6.514   5.437   6.835
 5911SOL    HW118632   6.500   5.380   6.754
 5911SOL    HW218633   6.515   5.380   6.917
 5912SOL     OW18634   6.642   1.523   4.928
 5912SOL    HW118635   6.635   1.622   4.912
 5912SOL    HW218636   6.577   1.496   4.999
 5913SOL     OW18637   5.456   2.995   0.429
 5913SOL    HW118638   5.399   2.914   0.420
 5913SOL    HW218639   5.431   3.044   0.513
 5914SOL     OW18640   1.138   6.338   6.145
 5914SOL    HW118641   1.128   6.245   6.181
 5914SOL    HW218642   1.218   6.381   6.188
 5915SOL     OW18643   3.583   6.800   0.121
 5915SOL    HW118644   3.560   6.882   0.070
 5915SOL    HW218645   3.682   6.793   0.131
 5916SOL     OW18646   1.725   6.804   2.146
 5916SOL    HW118647   1.779   6.727   2.111
 5916SOL    HW218648   1.645   6.769   2.196
 5917SOL     OW18649   2.993   4.422   6.467
 5917SOL    HW118650   3.028   4.452   6.556
 5917SOL    HW218651   2.961   4.328   6.474
 5918SOL     OW18652   2.993   5.958   6.245
 5918SOL    HW118653   3.026   6.046   6.209
 5918SOL    HW218654   2.896   5.949   6.226
 5919SOL     OW18655   3.428   3.313   3.343
 5919SOL    HW118656   3.441   3.258   3.426
 5919SOL    HW218657   3.417   3.252   3.265
 5920SOL     OW18658   6.082   0.169   5.963
 5920SOL    HW118659   6.156   0.234   5.981
 5920SOL    HW218660   6.106   0.079   6.000
 5921SOL     OW18661   3.477   4.819   6.593
 5921SOL    HW118662   3.538   4.858   6.525
 5921SOL    HW218663   3.409   4.761   6.548
 5922SOL     OW18664   6.220   3.701   3.014
 5922SOL    HW118665   6.143   3.662   3.064
 5922SOL    HW218666   6.265   3.771   3.070
 5923SOL     OW18667   6.413   1.097   1.440
 5923SOL    HW118668   6.433   1.016   1.386
 5923SOL    HW218669   6.325   1.087   1.486
 5924SOL     OW18670   5.392   0.148   2.778
 5924SOL    HW118671   5.377   0.227   2.838
 5924SOL    HW218672   5.305   0.112   2.747
 5925SOL     OW18673   4.627   5.240   1.421
 5925SOL    HW118674   4.615   5.321   1.364
 5925SOL    HW218675   4.663   5.267   1.510
 5926SOL     OW18676   4.020   4.776   3.146
 5926SOL    HW118677   3.992   4.764   3.242
 5926SOL    HW218678   3.945   4.819   3.095
 5927SOL     OW18679   1.602   3.691   1.725
 5927SOL    HW118680   1.524   3.736   1.770
 5927SOL    HW218681   1.650   3.757   1.668
 5928SOL     OW18682   4.324   0.722   1.036
 5928SOL    HW118683   4.365   0.769   1.114
 5928SOL    HW218684   4.376   0.639   1.016
 5929SOL     OW18685   0.108   0.259   5.753
 5929SOL    HW118686   0.056   0.341   5.728
 5929SOL    HW218687   0.131   0.208   5.670
 5930SOL     OW18688   1.324   3.345   1.768
 5930SOL    HW118689   1.327   3.332   1.867
 5930SOL    HW218690   1.409   3.310   1.728
 5931SOL     OW18691   5.698   6.063   3.047
 5931SOL    HW118692   5.726   6.148   3.092
 5931SOL    HW218693   5.779   6.007   3.028
 5932SOL     OW18694   3.123   0.278   6.331
 5932SOL    HW118695   3.163   0.277   6.423
 5932SOL    HW218696   3.024   0.268   6.339
 5933SOL     OW18697   6.806   5.241   4.370
 5933SOL    HW118698   6.877   5.310   4.378
 5933SOL    HW218699   6.789   5.220   4.274
 5934SOL     OW18700   3.357   3.744   5.729
 5934SOL    HW118701   3.281   3.744   5.794
 5934SOL    HW218702   3.431   3.801   5.765
 5935SOL     OW18703   0.327   6.515   4.879
 5935SOL    HW118704   0.403   6.579   4.894
 5935SOL    HW218705   0.363   6.423   4.864
 5936SOL     OW18706   3.786   3.254   3.223
 5936SOL    HW118707   3.779   3.160   3.190
 5936SOL    HW218708   3.737   3.262   3.310
 5937SOL     OW18709   0.402   2.638   2.276
 5937SOL    HW118710   0.464   2.707   2.313
 5937SOL    HW218711   0.307   2.667   2.291
 5938SOL     OW18712   6.040   5.110   5.225
 5938SOL    HW118713   6.100   5.112   5.304
 5938SOL    HW218714   5.955   5.159   5.245
 5939SOL     OW18715   3.952   0.055   4.358
 5939SOL    HW118716   3.988   7.013   4.290
 5939SOL    HW218717   3.920   0.137   4.311
 5940SOL     OW18718   4.853   5.310   2.892
 5940SOL    HW118719   4.933   5.310   2.833
 5940SOL    HW218720   4.837   5.217   2.927
 5941SOL     OW18721   6.532   2.305   2.053
 5941SOL    HW118722   6.451   2.328   2.000
 5941SOL    HW218723   6.514   2.322   2.150
 5942SOL     OW18724   6.323   3.265   6.386
 5942SOL    HW118725   6.247   3.309   6.434
 5942SOL    HW218726   6.403   3.262   6.445
 5943SOL     OW18727   3.842   3.403   0.544
 5943SOL    HW118728   3.768   3.411   0.478
 5943SOL    HW218729   3.930   3.402   0.496
 5944SOL     OW18730   0.697   3.446   6.586
 5944SOL    HW118731   0.781   3.402   6.619
 5944SOL    HW218732   0.694   3.441   6.487
 5945SOL     OW18733   0.788   5.872   5.241
 5945SOL    HW118734   0.878   5.904   5.210
 5945SOL    HW218735   0.780   5.885   5.339
 5946SOL     OW18736   4.045   4.481   6.896
 5946SOL    HW118737   4.032   4.401   6.837
 5946SOL    HW218738   4.139   4.483   6.929
 5947SOL     OW18739   3.138   3.386   4.705
 5947SOL    HW118740   3.237   3.377   4.691
 5947SOL    HW218741   3.089   3.348   4.627
 5948SOL     OW18742   5.245   4.001   2.093
 5948SOL    HW118743   5.253   3.913   2.139
 5948SOL    HW218744   5.158   4.005   2.044
 5949SOL     OW18745   5.882   5.548   1.435
 5949SOL    HW118746   5.927   5.470   1.392
 5949SOL    HW218747   5.944   5.591   1.500
 5950SOL     OW18748   5.437   2.493   5.813
 5950SOL    HW118749   5.364   2.527   5.753
 5950SOL    HW218750   5.438   2.545   5.898
 5951SOL     OW18751   1.055   4.966   5.443
 5951SOL    HW118752   1.094   4.896   5.383
 5951SOL    HW218753   0.956   4.969   5.432
 5952SOL     OW18754   4.178   4.720   1.781
 5952SOL    HW118755   4.137   4.763   1.700
 5952SOL    HW218756   4.124   4.742   1.862
 5953SOL     OW18757   6.353   2.605   5.043
 5953SOL    HW118758   6.354   2.669   4.966
 5953SOL    HW218759   6.258   2.585   5.068
 5954SOL     OW18760   0.511   5.660   4.870
 5954SOL    HW118761   0.564   5.613   4.941
 5954SOL    HW218762   0.553   5.749   4.851
 5955SOL     OW18763   5.352   4.877   1.329
 5955SOL    HW118764   5.268   4.925   1.303
 5955SOL    HW218765   5.346   4.781   1.300
 5956SOL     OW18766   5.057   2.709   4.624
 5956SOL    HW118767   5.046   2.805   4.599
 5956SOL    HW218768   4.994   2.687   4.699
 5957SOL     OW18769   1.413   0.985   2.316
 5957SOL    HW118770   1.449   0.891   2.318
 5957SOL    HW218771   1.319   0.985   2.348
 5958SOL     OW18772   3.800   6.921   2.968
 5958SOL    HW118773   3.835   7.005   3.009
 5958SOL    HW218774   3.760   6.942   2.879
 5959SOL     OW18775   5.170   2.009   4.811
 5959SOL    HW118776   5.149   2.105   4.794
 5959SOL    HW218777   5.263   1.989   4.778
 5960SOL     OW18778   3.518   6.508   5.297
 5960SOL    HW118779   3.510   6.604   5.325
 5960SOL    HW218780   3.534   6.452   5.378
 5961SOL     OW18781   3.985   2.004   2.671
 5961SOL    HW118782   3.968   1.948   2.752
 5961SOL    HW218783   4.052   1.958   2.613
 5962SOL     OW18784   5.296   6.462   0.142
 5962SOL    HW118785   5.290   6.399   0.065
 5962SOL    HW218786   5.335   6.549   0.111
 5963SOL     OW18787   3.988   4.728   6.828
 5963SOL    HW118788   3.991   4.630   6.845
 5963SOL    HW218789   3.908   4.750   6.771
 5964SOL     OW18790   1.900   6.913   2.520
 5964SOL    HW118791   1.846   6.975   2.463
 5964SOL    HW218792   1.994   6.948   2.526
 5965SOL     OW18793   1.884   0.078   6.506
 5965SOL    HW118794   1.964   0.054   6.560
 5965SOL    HW218795   1.814   0.118   6.565
 5966SOL     OW18796   1.786   0.422   5.773
 5966SOL    HW118797   1.716   0.449   5.840
 5966SOL    HW218798   1.781   0.324   5.757
 5967SOL     OW18799   2.298   2.272   4.762
 5967SOL    HW118800   2.232   2.220   4.816
 5967SOL    HW218801   2.251   2.320   4.688
 5968SOL     OW18802   5.582   2.537   0.407
 5968SOL    HW118803   5.495   2.498   0.438
 5968SOL    HW218804   5.570   2.634   0.387
 5969SOL     OW18805   5.382   0.995   6.445
 5969SOL    HW118806   5.313   0.959   6.508
 5969SOL    HW218807   5.363   0.961   6.353
 5970SOL     OW18808   0.789   3.498   0.829
 5970SOL    HW118809   0.734   3.457   0.902
 5970SOL    HW218810   0.772   3.597   0.826
 5971SOL     OW18811   6.233   0.215   2.876
 5971SOL    HW118812   6.141   0.177   2.868
 5971SOL    HW218813   6.236   0.280   2.952
 5972SOL     OW18814   4.789   5.196   0.515
 5972SOL    HW118815   4.843   5.268   0.558
 5972SOL    HW218816   4.840   5.110   0.516
 5973SOL     OW18817   1.601   2.959   2.763
 5973SOL    HW118818   1.623   2.881   2.704
 5973SOL    HW218819   1.630   2.939   2.857
 5974SOL     OW18820   3.934   0.546   6.737
 5974SOL    HW118821   4.012   0.510   6.789
 5974SOL    HW218822   3.899   0.475   6.676
 5975SOL     OW18823   5.352   4.794   0.472
 5975SOL    HW118824   5.403   4.726   0.419
 5975SOL    HW218825   5.376   4.885   0.440
 5976SOL     OW18826   3.611   3.739   5.949
 5976SOL    HW118827   3.569   3.824   5.915
 5976SOL    HW218828   3.700   3.728   5.906
 5977SOL     OW18829   0.204   5.247   0.481
 5977SOL    HW118830   0.185   5.190   0.401
 5977SOL    HW218831   0.267   5.320   0.456
 5978SOL     OW18832   3.415   5.419   6.872
 5978SOL    HW118833   3.402   5.326   6.838
 5978SOL    HW218834   3.513   5.440   6.874
 5979SOL     OW18835   6.372   0.721   1.739
 5979SOL    HW118836   6.290   0.772   1.712
 5979SOL    HW218837   6.423   0.694   1.657
 5980SOL     OW18838   3.443   2.799   1.776
 5980SOL    HW118839   3.484   2.865   1.713
 5980SOL    HW218840   3.465   2.706   1.746
 5981SOL     OW18841   4.502   3.011   0.500
 5981SOL    HW118842   4.533   2.950   0.427
 5981SOL    HW218843   4.407   3.037   0.483
 5982SOL     OW18844   6.015   1.958   2.555
 5982SOL    HW118845   6.060   1.874   2.525
 5982SOL    HW218846   5.916   1.948   2.548
 5983SOL     OW18847   0.301   0.841   4.617
 5983SOL    HW118848   0.214   0.854   4.664
 5983SOL    HW218849   0.356   0.925   4.624
 5984SOL     OW18850   6.179   6.516   3.387
 5984SOL    HW118851   6.239   6.562   3.452
 5984SOL    HW218852   6.089   6.558   3.388
 5985SOL     OW18853   6.192   1.889   3.681
 5985SOL    HW118854   6.143   1.915   3.598
 5985SOL    HW218855   6.174   1.793   3.702
 5986SOL     OW18856   4.378   3.778   5.407
 5986SOL    HW118857   4.338   3.865   5.436
 5986SOL    HW218858   4.311   3.727   5.353
 5987SOL     OW18859   6.948   0.660   4.352
 5987SOL    HW118860   6.940   0.619   4.261
 5987SOL    HW218861   6.857   0.668   4.392
 5988SOL     OW18862   3.057   1.492   0.086
 5988SOL    HW118863   3.106   1.434   0.021
 5988SOL    HW218864   3.090   1.586   0.077
 5989SOL     OW18865   0.849   6.009   6.702
 5989SOL    HW118866   0.825   5.931   6.760
 5989SOL    HW218867   0.880   6.085   6.759
 5990SOL     OW18868   3.991   4.577   1.267
 5990SOL    HW118869   3.981   4.580   1.366
 5990SOL    HW218870   3.917   4.524   1.227
 5991SOL     OW18871   4.597   5.958   0.611
 5991SOL    HW118872   4.518   5.916   0.566
 5991SOL    HW218873   4.578   5.971   0.708
 5992SOL     OW18874   3.453   0.532   1.901
 5992SOL    HW118875   3.362   0.520   1.941
 5992SOL    HW218876   3.522   0.495   1.963
 5993SOL     OW18877   6.144   3.377   0.385
 5993SOL    HW118878   6.060   3.380   0.439
 5993SOL    HW218879   6.133   3.434   0.303
 5994SOL     OW18880   6.885   3.061   1.195
 5994SOL    HW118881   6.853   2.966   1.190
 5994SOL    HW218882   6.938   3.073   1.279
 5995SOL     OW18883   4.606   3.328   1.145
 5995SOL    HW118884   4.611   3.428   1.152
 5995SOL    HW218885   4.520   3.303   1.100
 5996SOL     OW18886   2.688   5.699   1.220
 5996SOL    HW118887   2.769   5.755   1.239
 5996SOL    HW218888   2.708   5.603   1.239
 5997SOL     OW18889   6.827   6.818   2.983
 5997SOL    HW118890   6.763   6.753   2.943
 5997SOL    HW218891   6.851   6.789   3.075
 5998SOL     OW18892   5.799   0.870   2.061
 5998SOL    HW118893   5.800   0.938   2.133
 5998SOL    HW218894   5.808   0.779   2.101
 5999SOL     OW18895   4.055   3.507   0.971
 5999SOL    HW118896   4.074   3.527   1.067
 5999SOL    HW218897   4.140   3.478   0.925
 6000SOL     OW18898   0.251   5.511   0.158
 6000SOL    HW118899   0.319   5.491   0.087
 6000SOL    HW218900   0.237   5.610   0.163
 6001SOL     OW18901   5.126   6.306   5.879
 6001SOL    HW118902   5.165   6.340   5.793
 6001SOL    HW218903   5.043   6.357   5.900
 6002SOL     OW18904   6.806   6.864   4.584
 6002SOL    HW118905   6.809   6.773   4.625
 6002SOL    HW218906   6.716   6.905   4.600
 6003SOL     OW18907   6.499   2.610   4.407
 6003SOL    HW118908   6.494   2.626   4.309
 6003SOL    HW218909   6.573   2.665   4.446
 6004SOL     OW18910   5.455   2.718   3.248
 6004SOL    HW118911   5.535   2.692   3.302
 6004SOL    HW218912   5.436   2.647   3.180
 6005SOL     OW18913   4.736   4.059   5.126
 6005SOL    HW118914   4.653   4.023   5.168
 6005SOL    HW218915   4.712   4.132   5.062
 6006SOL     OW18916   3.507   0.131   5.491
 6006SOL    HW118917   3.542   0.225   5.494
 6006SOL    HW218918   3.527   0.091   5.402
 6007SOL     OW18919   0.350   4.257   6.158
 6007SOL    HW118920   0.367   4.341   6.106
 6007SOL    HW218921   0.291   4.278   6.236
 6008SOL     OW18922   2.444   4.297   5.298
 6008SOL    HW118923   2.450   4.354   5.217
 6008SOL    HW218924   2.394   4.213   5.277
 6009SOL     OW18925   4.560   5.608   2.989
 6009SOL    HW118926   4.602   5.692   3.022
 6009SOL    HW218927   4.502   5.569   3.060
 6010SOL     OW18928   6.982   4.213   4.630
 6010SOL    HW118929   7.016   4.301   4.598
 6010SOL    HW218930   6.882   4.216   4.637
 6011SOL     OW18931   4.806   1.581   2.784
 6011SOL    HW118932   4.808   1.499   2.726
 6011SOL    HW218933   4.844   1.559   2.874
 6012SOL     OW18934   6.316   0.297   6.943
 6012SOL    HW118935   6.350   0.241   6.867
 6012SOL    HW218936   6.288   0.387   6.909
 6013SOL     OW18937   4.931   0.952   2.392
 6013SOL    HW118938   4.884   1.039   2.376
 6013SOL    HW218939   4.867   0.886   2.431
 6014SOL     OW18940   3.008   3.227   4.512
 6014SOL    HW118941   3.086   3.165   4.519
 6014SOL    HW218942   2.953   3.201   4.432
 6015SOL     OW18943   6.391   2.427   4.775
 6015SOL    HW118944   6.423   2.500   4.835
 6015SOL    HW218945   6.316   2.461   4.718
 6016SOL     OW18946   4.800   1.597   5.259
 6016SOL    HW118947   4.717   1.617   5.311
 6016SOL    HW218948   4.806   1.659   5.180
 6017SOL     OW18949   6.858   3.462   5.090
 6017SOL    HW118950   6.783   3.429   5.033
 6017SOL    HW218951   6.838   3.554   5.123
 6018SOL     OW18952   3.378   1.291   4.748
 6018SOL    HW118953   3.386   1.258   4.654
 6018SOL    HW218954   3.442   1.366   4.763
 6019SOL     OW18955   0.846   3.823   5.813
 6019SOL    HW118956   0.805   3.871   5.890
 6019SOL    HW218957   0.816   3.727   5.813
 6020SOL     OW18958   1.244   5.071   0.372
 6020SOL    HW118959   1.334   5.062   0.414
 6020SOL    HW218960   1.204   5.159   0.398
 6021SOL     OW18961   4.031   0.203   2.488
 6021SOL    HW118962   4.109   0.224   2.429
 6021SOL    HW218963   4.030   0.264   2.566
 6022SOL     OW18964   6.493   1.220   2.653
 6022SOL    HW118965   6.429   1.144   2.663
 6022SOL    HW218966   6.489   1.278   2.734
 6023SOL     OW18967   4.999   0.456   1.338
 6023SOL    HW118968   4.903   0.471   1.314
 6023SOL    HW218969   5.024   0.516   1.415
 6024SOL     OW18970   0.209   4.632   1.249
 6024SOL    HW118971   0.158   4.716   1.230
 6024SOL    HW218972   0.286   4.652   1.310
 6025SOL     OW18973   3.041   1.666   3.981
 6025SOL    HW118974   3.079   1.756   4.006
 6025SOL    HW218975   2.965   1.679   3.918
 6026SOL     OW18976   6.647   4.298   4.103
 6026SOL    HW118977   6.629   4.390   4.138
 6026SOL    HW218978   6.562   4.257   4.070
 6027SOL     OW18979   5.805   3.706   6.311
 6027SOL    HW118980   5.865   3.786   6.317
 6027SOL    HW218981   5.846   3.630   6.362
 6028SOL     OW18982   5.294   4.688   0.710
 6028SOL    HW118983   5.245   4.757   0.763
 6028SOL    HW218984   5.320   4.726   0.621
 6029SOL     OW18985   2.534   0.174   3.557
 6029SOL    HW118986   2.605   0.134   3.498
 6029SOL    HW218987   2.528   0.122   3.642
 6030SOL     OW18988   4.938   3.804   4.882
 6030SOL    HW118989   4.948   3.765   4.790
 6030SOL    HW218990   4.902   3.735   4.944
 6031SOL     OW18991   1.093   5.878   4.082
 6031SOL    HW118992   1.055   5.956   4.131
 6031SOL    HW218993   1.039   5.796   4.102
 6032SOL     OW18994   3.421   6.187   4.230
 6032SOL    HW118995   3.443   6.160   4.136
 6032SOL    HW218996   3.466   6.273   4.252
 6033SOL     OW18997   2.224   2.343   2.812
 6033SOL    HW118998   2.170   2.385   2.885
 6033SOL    HW218999   2.221   2.401   2.731
 6034SOL     OW19000   1.421   6.983   6.344
 6034SOL    HW119001   1.494   6.923   6.311
 6034SOL    HW219002   1.352   6.929   6.392
 6035SOL     OW19003   0.598   0.743   2.755
 6035SOL    HW119004   0.578   0.796   2.673
 6035SOL    HW219005   0.573   0.647   2.740
 6036SOL     OW19006   6.205   4.938   1.196
 6036SOL    HW119007   6.290   4.975   1.158
 6036SOL    HW219008   6.163   4.876   1.131
 6037SOL     OW19009   3.945   1.167   0.911
 6037SOL    HW119010   3.937   1.256   0.956
 6037SOL    HW219011   4.036   1.159   0.870
 6038SOL     OW19012   0.754   2.381   6.450
 6038SOL    HW119013   0.828   2.442   6.421
 6038SOL    HW219014   0.757   2.370   6.550
 6039SOL     OW19015   4.141   3.654   3.862
 6039SOL    HW119016   4.135   3.567   3.910
 6039SOL    HW219017   4.236   3.675   3.841
 6040SOL     OW19018   1.538   1.668   0.073
 6040SOL    HW119019   1.559   1.633   7.005
 6040SOL    HW219020   1.612   1.644   0.136
 6041SOL     OW19021   3.015   2.665   5.605
 6041SOL    HW119022   3.040   2.582   5.656
 6041SOL    HW219023   2.989   2.640   5.512
 6042SOL     OW19024   3.915   6.405   3.619
 6042SOL    HW119025   3.841   6.338   3.620
 6042SOL    HW219026   3.907   6.464   3.539
 6043SOL     OW19027   1.944   0.751   3.537
 6043SOL    HW119028   2.003   0.831   3.544
 6043SOL    HW219029   1.943   0.702   3.624
 6044SOL     OW19030   1.778   1.660   1.942
 6044SOL    HW119031   1.716   1.615   2.006
 6044SOL    HW219032   1.825   1.735   1.987
 6045SOL     OW19033   5.385   3.238   3.684
 6045SOL    HW119034   5.301   3.286   3.711
 6045SOL    HW219035   5.451   3.241   3.759
 6046SOL     OW19036   3.571   2.562   1.705
 6046SOL    HW119037   3.646   2.584   1.643
 6046SOL    HW219038   3.604   2.500   1.777
 6047SOL     OW19039   5.472   2.197   0.935
 6047SOL    HW119040   5.376   2.191   0.961
 6047SOL    HW219041   5.529   2.172   1.013
 6048SOL     OW19042   5.611   5.172   4.702
 6048SOL    HW119043   5.537   5.216   4.651
 6048SOL    HW219044   5.585   5.078   4.722
 6049SOL     OW19045   5.289   4.614   6.101
 6049SOL    HW119046   5.291   4.514   6.110
 6049SOL    HW219047   5.217   4.640   6.036
 6050SOL     OW19048   3.048   5.743   0.756
 6050SOL    HW119049   3.076   5.725   0.662
 6050SOL    HW219050   3.119   5.711   0.819
 6051SOL     OW19051   0.557   1.442   2.442
 6051SOL    HW119052   0.617   1.511   2.482
 6051SOL    HW219053   0.609   1.358   2.427
 6052SOL     OW19054   5.588   0.488   1.266
 6052SOL    HW119055   5.573   0.585   1.282
 6052SOL    HW219056   5.509   0.436   1.298
 6053SOL     OW19057   4.671   1.297   6.035
 6053SOL    HW119058   4.755   1.287   5.981
 6053SOL    HW219059   4.601   1.235   5.999
 6054SOL     OW19060   3.824   5.281   0.278
 6054SOL    HW119061   3.768   5.342   0.335
 6054SOL    HW219062   3.916   5.319   0.270
 6055SOL     OW19063   3.284   5.249   6.412
 6055SOL    HW119064   3.190   5.273   6.437
 6055SOL    HW219065   3.287   5.153   6.382
 6056SOL     OW19066   5.996   2.951   5.046
 6056SOL    HW119067   6.039   3.039   5.065
 6056SOL    HW219068   5.899   2.956   5.069
 6057SOL     OW19069   4.896   0.605   2.508
 6057SOL    HW119070   4.897   0.508   2.488
 6057SOL    HW219071   4.811   0.628   2.556
 6058SOL     OW19072   5.851   3.808   0.659
 6058SOL    HW119073   5.796   3.878   0.703
 6058SOL    HW219074   5.948   3.834   0.663
 6059SOL     OW19075   5.321   4.242   5.542
 6059SOL    HW119076   5.267   4.289   5.472
 6059SOL    HW219077   5.260   4.205   5.611
 6060SOL     OW19078   3.176   3.167   0.476
 6060SOL    HW119079   3.146   3.072   0.477
 6060SOL    HW219080   3.262   3.174   0.425
 6061SOL     OW19081   3.877   4.739   0.449
 6061SOL    HW119082   3.950   4.682   0.486
 6061SOL    HW219083   3.822   4.685   0.385
 6062SOL     OW19084   2.629   1.977   6.980
 6062SOL    HW119085   2.542   1.950   7.021
 6062SOL    HW219086   2.703   1.962   0.021
 6063SOL     OW19087   4.017   4.300   5.473
 6063SOL    HW119088   3.937   4.357   5.456
 6063SOL    HW219089   3.990   4.219   5.525
 6064SOL     OW19090   0.033   0.338   0.257
 6064SOL    HW119091   0.034   0.255   0.312
 6064SOL    HW219092   0.127   0.372   0.246
 6065SOL     OW19093   1.394   5.438   2.180
 6065SOL    HW119094   1.431   5.376   2.110
 6065SOL    HW219095   1.469   5.480   2.230
 6066SOL     OW19096   5.132   0.829   3.600
 6066SOL    HW119097   5.042   0.871   3.591
 6066SOL    HW219098   5.179   0.830   3.512
 6067SOL     OW19099   5.991   0.179   5.384
 6067SOL    HW119100   6.012   0.215   5.475
 6067SOL    HW219101   6.011   0.249   5.316
 6068SOL     OW19102   5.249   1.606   4.877
 6068SOL    HW119103   5.218   1.649   4.962
 6068SOL    HW219104   5.203   1.518   4.866
 6069SOL     OW19105   0.146   2.822   5.768
 6069SOL    HW119106   0.097   2.879   5.834
 6069SOL    HW219107   0.245   2.835   5.780
 6070SOL     OW19108   3.602   2.179   1.671
 6070SOL    HW119109   3.608   2.257   1.733
 6070SOL    HW219110   3.668   2.109   1.697
 6071SOL     OW19111   6.909   6.227   4.359
 6071SOL    HW119112   6.846   6.255   4.432
 6071SOL    HW219113   6.973   6.158   4.395
 6072SOL     OW19114   0.205   2.031   0.522
 6072SOL    HW119115   0.127   2.016   0.584
 6072SOL    HW219116   0.173   2.031   0.428
 6073SOL     OW19117   4.853   3.324   0.993
 6073SOL    HW119118   4.833   3.256   0.922
 6073SOL    HW219119   4.774   3.332   1.054
 6074SOL     OW19120   1.197   6.454   2.488
 6074SOL    HW119121   1.138   6.526   2.523
 6074SOL    HW219122   1.207   6.465   2.389
 6075SOL     OW19123   4.841   6.889   6.213
 6075SOL    HW119124   4.842   6.867   6.115
 6075SOL    HW219125   4.839   6.988   6.224
 6076SOL     OW19126   2.476   4.986   4.077
 6076SOL    HW119127   2.509   4.927   4.151
 6076SOL    HW219128   2.414   5.054   4.115
 6077SOL     OW19129   5.210   6.493   1.067
 6077SOL    HW119130   5.300   6.449   1.075
 6077SOL    HW219131   5.155   6.444   1.000
 6078SOL     OW19132   4.141   4.126   0.635
 6078SOL    HW119133   4.196   4.147   0.716
 6078SOL    HW219134   4.186   4.166   0.554
 6079SOL     OW19135   4.598   4.368   6.315
 6079SOL    HW119136   4.608   4.346   6.217
 6079SOL    HW219137   4.546   4.453   6.325
 6080SOL     OW19138   1.069   4.932   1.576
 6080SOL    HW119139   1.081   4.993   1.654
 6080SOL    HW219140   1.158   4.900   1.544
 6081SOL     OW19141   0.989   3.694   5.479
 6081SOL    HW119142   0.943   3.783   5.477
 6081SOL    HW219143   0.922   3.622   5.458
 6082SOL     OW19144   3.927   0.344   1.839
 6082SOL    HW119145   3.972   0.256   1.855
 6082SOL    HW219146   3.829   0.334   1.849
 6083SOL     OW19147   5.541   0.178   0.381
 6083SOL    HW119148   5.478   0.247   0.344
 6083SOL    HW219149   5.603   0.221   0.446
 6084SOL     OW19150   0.908   6.242   1.824
 6084SOL    HW119151   0.825   6.193   1.797
 6084SOL    HW219152   0.986   6.180   1.821
 6085SOL     OW19153   6.302   5.921   6.331
 6085SOL    HW119154   6.317   6.017   6.355
 6085SOL    HW219155   6.368   5.864   6.379
 6086SOL     OW19156   3.860   2.783   6.545
 6086SOL    HW119157   3.823   2.874   6.527
 6086SOL    HW219158   3.818   2.746   6.628
 6087SOL     OW19159   5.052   6.496   0.312
 6087SOL    HW119160   4.989   6.462   0.242
 6087SOL    HW219161   5.145   6.466   0.291
 6088SOL     OW19162   5.204   6.490   5.311
 6088SOL    HW119163   5.270   6.416   5.324
 6088SOL    HW219164   5.243   6.559   5.251
 6089SOL     OW19165   6.923   1.983   2.258
 6089SOL    HW119166   6.879   1.895   2.277
 6089SOL    HW219167   6.854   2.054   2.249
 6090SOL     OW19168   3.112   5.262   4.380
 6090SOL    HW119169   3.088   5.283   4.474
 6090SOL    HW219170   3.153   5.171   4.376
 6091SOL     OW19171   2.615   0.957   1.357
 6091SOL    HW119172   2.538   1.011   1.390
 6091SOL    HW219173   2.682   1.017   1.313
 6092SOL     OW19174   4.172   0.235   2.049
 6092SOL    HW119175   4.085   0.199   2.017
 6092SOL    HW219176   4.246   0.177   2.014
 6093SOL     OW19177   2.145   1.582   2.068
 6093SOL    HW119178   2.225   1.558   2.012
 6093SOL    HW219179   2.173   1.588   2.164
 6094SOL     OW19180   0.715   6.753   4.368
 6094SOL    HW119181   0.730   6.796   4.457
 6094SOL    HW219182   0.751   6.659   4.369
 6095SOL     OW19183   4.676   5.422   6.898
 6095SOL    HW119184   4.685   5.521   6.900
 6095SOL    HW219185   4.764   5.381   6.872
 6096SOL     OW19186   5.759   6.558   2.524
 6096SOL    HW119187   5.823   6.531   2.452
 6096SOL    HW219188   5.810   6.574   2.609
 6097SOL     OW19189   1.452   5.639   1.820
 6097SOL    HW119190   1.545   5.670   1.800
 6097SOL    HW219191   1.447   5.539   1.812
 6098SOL     OW19192   6.671   0.810   5.475
 6098SOL    HW119193   6.637   0.880   5.412
 6098SOL    HW219194   6.599   0.784   5.539
 6099SOL     OW19195   5.196   6.133   6.091
 6099SOL    HW119196   5.180   6.184   6.007
 6099SOL    HW219197   5.188   6.193   6.170
 6100SOL     OW19198   0.351   5.599   2.377
 6100SOL    HW119199   0.292   5.574   2.453
 6100SOL    HW219200   0.306   5.574   2.291
 6101SOL     OW19201   6.667   2.434   1.872
 6101SOL    HW119202   6.631   2.379   1.947
 6101SOL    HW219203   6.699   2.522   1.907
 6102SOL     OW19204   4.436   6.072   2.494
 6102SOL    HW119205   4.531   6.087   2.520
 6102SOL    HW219206   4.375   6.103   2.567
 6103SOL     OW19207   6.993   1.528   1.158
 6103SOL    HW119208   6.954   1.474   1.232
 6103SOL    HW219209   6.984   1.479   1.072
 6104SOL     OW19210   6.174   1.412   5.280
 6104SOL    HW119211   6.263   1.406   5.234
 6104SOL    HW219212   6.182   1.377   5.373
 6105SOL     OW19213   2.674   5.438   5.778
 6105SOL    HW119214   2.669   5.481   5.868
 6105SOL    HW219215   2.700   5.342   5.789
 6106SOL     OW19216   0.796   3.868   0.481
 6106SOL    HW119217   0.758   3.849   0.391
 6106SOL    HW219218   0.723   3.868   0.550
 6107SOL     OW19219   5.025   5.303   4.348
 6107SOL    HW119220   5.107   5.283   4.402
 6107SOL    HW219221   5.042   5.383   4.290
 6108SOL     OW19222   1.247   1.659   2.092
 6108SOL    HW119223   1.247   1.569   2.134
 6108SOL    HW219224   1.299   1.723   2.149
 6109SOL     OW19225   5.546   0.676   3.740
 6109SOL    HW119226   5.591   0.727   3.814
 6109SOL    HW219227   5.463   0.724   3.712
 6110SOL     OW19228   0.865   2.667   6.169
 6110SOL    HW119229   0.858   2.726   6.089
 6110SOL    HW219230   0.880   2.573   6.140
 6111SOL     OW19231   1.260   3.522   2.192
 6111SOL    HW119232   1.200   3.588   2.238
 6111SOL    HW219233   1.335   3.571   2.147
 6112SOL     OW19234   3.556   0.825   2.188
 6112SOL    HW119235   3.551   0.749   2.124
 6112SOL    HW219236   3.615   0.801   2.265
 6113SOL     OW19237   2.540   3.812   6.657
 6113SOL    HW119238   2.573   3.803   6.751
 6113SOL    HW219239   2.618   3.815   6.595
 6114SOL     OW19240   4.755   2.199   2.311
 6114SOL    HW119241   4.738   2.297   2.299
 6114SOL    HW219242   4.668   2.150   2.312
 6115SOL     OW19243   0.507   1.564   5.305
 6115SOL    HW119244   0.439   1.509   5.257
 6115SOL    HW219245   0.576   1.595   5.239
 6116SOL     OW19246   3.995   2.207   5.199
 6116SOL    HW119247   3.967   2.111   5.201
 6116SOL    HW219248   3.974   2.250   5.286
 6117SOL     OW19249   1.363   1.282   2.974
 6117SOL    HW119250   1.405   1.373   2.978
 6117SOL    HW219251   1.274   1.285   3.020
 6118SOL     OW19252   6.063   1.472   1.327
 6118SOL    HW119253   6.130   1.546   1.330
 6118SOL    HW219254   5.989   1.491   1.391
 6119SOL     OW19255   0.163   2.912   0.086
 6119SOL    HW119256   0.194   2.881   7.019
 6119SOL    HW219257   0.131   2.834   0.139
 6120SOL     OW19258   1.957   0.094   5.517
 6120SOL    HW119259   1.998   0.029   5.580
 6120SOL    HW219260   1.860   0.105   5.539
 6121SOL     OW19261   0.571   4.147   5.650
 6121SOL    HW119262   0.546   4.051   5.635
 6121SOL    HW219263   0.494   4.206   5.627
 6122SOL     OW19264   5.383   6.022   6.245
 6122SOL    HW119265   5.451   6.095   6.256
 6122SOL    HW219266   5.322   6.044   6.169
 6123SOL     OW19267   5.199   1.059   5.634
 6123SOL    HW119268   5.245   1.085   5.549
 6123SOL    HW219269   5.216   0.963   5.653
 6124SOL     OW19270   1.943   6.917   5.299
 6124SOL    HW119271   1.967   6.984   5.369
 6124SOL    HW219272   1.855   6.874   5.321
 6125SOL     OW19273   2.858   3.922   0.482
 6125SOL    HW119274   2.929   3.967   0.429
 6125SOL    HW219275   2.783   3.894   0.421
 6126SOL     OW19276   0.650   2.230   4.888
 6126SOL    HW119277   0.708   2.165   4.838
 6126SOL    HW219278   0.691   2.322   4.882
 6127SOL     OW19279   4.078   1.075   1.701
 6127SOL    HW119280   4.036   0.999   1.752
 6127SOL    HW219281   4.060   1.160   1.750
 6128SOL     OW19282   5.333   5.543   1.029
 6128SOL    HW119283   5.308   5.549   1.126
 6128SOL    HW219284   5.347   5.634   0.992
 6129SOL     OW19285   1.911   4.510   3.406
 6129SOL    HW119286   1.949   4.450   3.476
 6129SOL    HW219287   1.947   4.485   3.317
 6130SOL     OW19288   5.937   2.579   2.680
 6130SOL    HW119289   5.872   2.529   2.623
 6130SOL    HW219290   6.005   2.515   2.717
 6131SOL     OW19291   0.573   1.877   2.180
 6131SOL    HW119292   0.549   1.833   2.094
 6131SOL    HW219293   0.566   1.976   2.170
 6132SOL     OW19294   3.452   1.914   6.573
 6132SOL    HW119295   3.391   1.881   6.646
 6132SOL    HW219296   3.426   1.870   6.487
 6133SOL     OW19297   0.950   2.468   3.447
 6133SOL    HW119298   0.877   2.462   3.515
 6133SOL    HW219299   1.031   2.418   3.480
 6134SOL     OW19300   5.192   6.574   6.901
 6134SOL    HW119301   5.276   6.559   6.848
 6134SOL    HW219302   5.126   6.623   6.845
 6135SOL     OW19303   6.310   6.942   0.104
 6135SOL    HW119304   6.258   6.939   0.018
 6135SOL    HW219305   6.406   6.960   0.084
 6136SOL     OW19306   1.437   2.662   1.279
 6136SOL    HW119307   1.492   2.631   1.356
 6136SOL    HW219308   1.359   2.715   1.313
 6137SOL     OW19309   0.662   4.421   2.893
 6137SOL    HW119310   0.567   4.408   2.865
 6137SOL    HW219311   0.674   4.391   2.988
 6138SOL     OW19312   3.706   0.600   2.069
 6138SOL    HW119313   3.780   0.623   2.005
 6138SOL    HW219314   3.733   0.520   2.123
 6139SOL     OW19315   0.621   6.738   5.726
 6139SOL    HW119316   0.579   6.648   5.713
 6139SOL    HW219317   0.712   6.738   5.685
 6140SOL     OW19318   1.061   0.509   2.889
 6140SOL    HW119319   1.011   0.580   2.839
 6140SOL    HW219320   1.014   0.489   2.975
 6141SOL     OW19321   0.652   0.336   6.530
 6141SOL    HW119322   0.600   0.289   6.459
 6141SOL    HW219323   0.717   0.399   6.488
 6142SOL     OW19324   0.917   0.795   6.803
 6142SOL    HW119325   0.847   0.738   6.759
 6142SOL    HW219326   0.992   0.736   6.835
 6143SOL     OW19327   0.309   3.962   0.832
 6143SOL    HW119328   0.306   3.864   0.814
 6143SOL    HW219329   0.347   3.979   0.923
 6144SOL     OW19330   4.601   4.684   3.531
 6144SOL    HW119331   4.606   4.784   3.531
 6144SOL    HW219332   4.505   4.656   3.528
 6145SOL     OW19333   5.744   4.243   3.969
 6145SOL    HW119334   5.827   4.239   3.915
 6145SOL    HW219335   5.722   4.151   4.003
 6146SOL     OW19336   3.907   0.230   3.953
 6146SOL    HW119337   3.968   0.244   4.031
 6146SOL    HW219338   3.835   0.301   3.954
 6147SOL     OW19339   1.879   2.909   4.623
 6147SOL    HW119340   1.899   2.990   4.568
 6147SOL    HW219341   1.784   2.882   4.610
 6148SOL     OW19342   4.343   5.284   6.781
 6148SOL    HW119343   4.427   5.315   6.738
 6148SOL    HW219344   4.271   5.276   6.712
 6149SOL     OW19345   2.117   0.099   2.327
 6149SOL    HW119346   2.190   0.033   2.348
 6149SOL    HW219347   2.095   0.151   2.409
 6150SOL     OW19348   6.296   3.959   6.800
 6150SOL    HW119349   6.370   3.938   6.863
 6150SOL    HW219350   6.223   3.891   6.810
 6151SOL     OW19351   5.520   5.496   4.424
 6151SOL    HW119352   5.447   5.555   4.457
 6151SOL    HW219353   5.503   5.471   4.329
 6152SOL     OW19354   1.207   5.311   4.552
 6152SOL    HW119355   1.255   5.318   4.465
 6152SOL    HW219356   1.133   5.379   4.554
 6153SOL     OW19357   4.530   5.376   1.057
 6153SOL    HW119358   4.626   5.361   1.035
 6153SOL    HW219359   4.489   5.291   1.089
 6154SOL     OW19360   5.142   3.449   3.192
 6154SOL    HW119361   5.158   3.529   3.250
 6154SOL    HW219362   5.146   3.477   3.096
 6155SOL     OW19363   2.915   0.716   3.093
 6155SOL    HW119364   2.849   0.759   3.032
 6155SOL    HW219365   2.954   0.786   3.154
 6156SOL     OW19366   5.257   3.824   1.710
 6156SOL    HW119367   5.183   3.866   1.763
 6156SOL    HW219368   5.240   3.838   1.613
 6157SOL     OW19369   0.555   2.660   3.468
 6157SOL    HW119370   0.623   2.654   3.541
 6157SOL    HW219371   0.598   2.637   3.380
 6158SOL     OW19372   3.305   2.204   6.553
 6158SOL    HW119373   3.364   2.143   6.606
 6158SOL    HW219374   3.210   2.175   6.562
 6159SOL     OW19375   5.361   3.399   0.387
 6159SOL    HW119376   5.452   3.362   0.406
 6159SOL    HW219377   5.299   3.324   0.364
 6160SOL     OW19378   6.580   0.125   6.264
 6160SOL    HW119379   6.640   0.070   6.206
 6160SOL    HW219380   6.492   0.078   6.275
 6161SOL     OW19381   5.388   2.332   6.496
 6161SOL    HW119382   5.387   2.286   6.408
 6161SOL    HW219383   5.372   2.430   6.483
 6162SOL     OW19384   5.827   6.828   3.239
 6162SOL    HW119385   5.787   6.846   3.329
 6162SOL    HW219386   5.920   6.864   3.235
 6163SOL     OW19387   5.568   5.843   2.289
 6163SOL    HW119388   5.510   5.888   2.221
 6163SOL    HW219389   5.611   5.762   2.248
 6164SOL     OW19390   3.941   3.793   3.999
 6164SOL    HW119391   3.995   3.752   3.926
 6164SOL    HW219392   3.991   3.784   4.086
 6165SOL     OW19393   4.046   2.403   6.480
 6165SOL    HW119394   4.052   2.326   6.416
 6165SOL    HW219395   4.134   2.414   6.527
 6166SOL     OW19396   6.823   2.024   6.774
 6166SOL    HW119397   6.793   2.110   6.815
 6166SOL    HW219398   6.855   2.041   6.680
 6167SOL     OW19399   1.580   4.547   3.048
 6167SOL    HW119400   1.643   4.620   3.022
 6167SOL    HW219401   1.499   4.549   2.989
 6168SOL     OW19402   6.764   2.374   3.496
 6168SOL    HW119403   6.669   2.395   3.518
 6168SOL    HW219404   6.788   2.284   3.534
 6169SOL     OW19405   0.862   0.878   5.946
 6169SOL    HW119406   0.939   0.813   5.945
 6169SOL    HW219407   0.824   0.885   5.854
 6170SOL     OW19408   3.612   4.373   6.352
 6170SOL    HW119409   3.709   4.366   6.375
 6170SOL    HW219410   3.572   4.282   6.350
 6171SOL     OW19411   1.417   3.307   2.269
 6171SOL    HW119412   1.367   3.273   2.348
 6171SOL    HW219413   1.373   3.389   2.233
 6172SOL     OW19414   0.418   0.582   2.081
 6172SOL    HW119415   0.327   0.577   2.123
 6172SOL    HW219416   0.442   0.492   2.044
 6173SOL     OW19417   0.606   5.249   2.745
 6173SOL    HW119418   0.632   5.170   2.690
 6173SOL    HW219419   0.674   5.262   2.818
 6174SOL     OW19420   5.920   4.612   2.647
 6174SOL    HW119421   5.860   4.543   2.689
 6174SOL    HW219422   5.917   4.695   2.702
 6175SOL     OW19423   5.566   6.737   2.421
 6175SOL    HW119424   5.606   6.659   2.469
 6175SOL    HW219425   5.550   6.811   2.486
 6176SOL     OW19426   6.306   3.798   0.165
 6176SOL    HW119427   6.396   3.832   0.137
 6176SOL    HW219428   6.283   3.716   0.112
 6177SOL     OW19429   5.222   1.412   1.109
 6177SOL    HW119430   5.259   1.505   1.109
 6177SOL    HW219431   5.129   1.413   1.072
 6178SOL     OW19432   4.784   5.381   1.894
 6178SOL    HW119433   4.713   5.310   1.904
 6178SOL    HW219434   4.805   5.419   1.984
 6179SOL     OW19435   0.095   3.402   5.181
 6179SOL    HW119436   0.150   3.463   5.123
 6179SOL    HW219437   0.004   3.390   5.141
 6180SOL     OW19438   3.463   6.535   0.004
 6180SOL    HW119439   3.466   6.441   0.038
 6180SOL    HW219440   3.452   6.598   0.080
 6181SOL     OW19441   4.665   6.204   0.511
 6181SOL    HW119442   4.584   6.223   0.455
 6181SOL    HW219443   4.654   6.114   0.553
 6182SOL     OW19444   5.054   5.733   5.703
 6182SOL    HW119445   5.115   5.688   5.638
 6182SOL    HW219446   5.104   5.756   5.786
 6183SOL     OW19447   2.342   0.327   3.201
 6183SOL    HW119448   2.360   0.386   3.122
 6183SOL    HW219449   2.266   0.266   3.180
 6184SOL     OW19450   1.571   6.817   6.152
 6184SOL    HW119451   1.638   6.880   6.192
 6184SOL    HW219452   1.589   6.724   6.185
 6185SOL     OW19453   1.046   3.736   0.190
 6185SOL    HW119454   1.054   3.747   0.290
 6185SOL    HW219455   1.121   3.678   0.157
 6186SOL     OW19456   5.673   6.893   3.958
 6186SOL    HW119457   5.744   6.949   3.915
 6186SOL    HW219458   5.716   6.820   4.010
 6187SOL     OW19459   4.869   4.466   3.954
 6187SOL    HW119460   4.795   4.419   3.907
 6187SOL    HW219461   4.904   4.540   3.895
 6188SOL     OW19462   2.334   5.859   1.329
 6188SOL    HW119463   2.396   5.788   1.360
 6188SOL    HW219464   2.385   5.944   1.316
 6189SOL     OW19465   4.873   4.741   3.604
 6189SOL    HW119466   4.782   4.782   3.616
 6189SOL    HW219467   4.864   4.642   3.595
 6190SOL     OW19468   5.721   3.788   6.049
 6190SOL    HW119469   5.789   3.764   5.979
 6190SOL    HW219470   5.760   3.774   6.140
 6191SOL     OW19471   5.532   2.600   1.105
 6191SOL    HW119472   5.560   2.567   1.015
 6191SOL    HW219473   5.438   2.572   1.123
 6192SOL     OW19474   3.281   3.814   0.733
 6192SOL    HW119475   3.327   3.737   0.778
 6192SOL    HW219476   3.291   3.806   0.634
 6193SOL     OW19477   3.853   0.403   2.241
 6193SOL    HW119478   3.934   0.451   2.209
 6193SOL    HW219479   3.834   0.429   2.336
 6194SOL     OW19480   1.933   7.009   0.296
 6194SOL    HW119481   1.871   0.047   0.248
 6194SOL    HW219482   2.027   0.020   0.287
 6195SOL     OW19483   4.063   5.624   5.603
 6195SOL    HW119484   4.038   5.535   5.565
 6195SOL    HW219485   4.055   5.621   5.702
 6196SOL     OW19486   0.052   2.448   6.743
 6196SOL    HW119487   0.089   2.538   6.721
 6196SOL    HW219488   0.115   2.377   6.712
 6197SOL     OW19489   4.234   3.753   0.691
 6197SOL    HW119490   4.203   3.838   0.733
 6197SOL    HW219491   4.333   3.758   0.675
 6198SOL     OW19492   3.576   5.680   3.200
 6198SOL    HW119493   3.576   5.600   3.139
 6198SOL    HW219494   3.485   5.692   3.239
 6199SOL     OW19495   0.381   0.085   0.962
 6199SOL    HW119496   0.281   0.089   0.960
 6199SOL    HW219497   0.415   0.073   0.869
 6200SOL     OW19498   2.700   1.633   6.599
 6200SOL    HW119499   2.791   1.593   6.613
 6200SOL    HW219500   2.637   1.597   6.667
 6201SOL     OW19501   2.256   5.362   5.699
 6201SOL    HW119502   2.319   5.375   5.622
 6201SOL    HW219503   2.255   5.265   5.725
 6202SOL     OW19504   3.830   1.769   1.323
 6202SOL    HW119505   3.814   1.772   1.421
 6202SOL    HW219506   3.848   1.674   1.295
 6203SOL     OW19507   5.487   0.180   3.374
 6203SOL    HW119508   5.513   0.140   3.287
 6203SOL    HW219509   5.514   0.276   3.376
 6204SOL     OW19510   0.547   4.977   5.188
 6204SOL    HW119511   0.496   4.993   5.272
 6204SOL    HW219512   0.579   4.883   5.185
 6205SOL     OW19513   5.721   5.973   6.951
 6205SOL    HW119514   5.673   5.959   6.865
 6205SOL    HW219515   5.672   6.042   7.005
 6206SOL     OW19516   6.580   0.471   2.293
 6206SOL    HW119517   6.492   0.489   2.337
 6206SOL    HW219518   6.594   0.373   2.285
 6207SOL     OW19519   1.414   3.524   4.762
 6207SOL    HW119520   1.514   3.517   4.757
 6207SOL    HW219521   1.388   3.569   4.848
 6208SOL     OW19522   6.012   0.144   5.682
 6208SOL    HW119523   6.064   0.118   5.763
 6208SOL    HW219524   5.944   0.074   5.662
 6209SOL     OW19525   3.988   6.122   6.924
 6209SOL    HW119526   4.064   6.116   6.989
 6209SOL    HW219527   3.953   6.031   6.904
 6210SOL     OW19528   5.297   4.489   3.264
 6210SOL    HW119529   5.303   4.513   3.361
 6210SOL    HW219530   5.364   4.542   3.212
 6211SOL     OW19531   2.816   0.217   6.112
 6211SOL    HW119532   2.884   0.288   6.089
 6211SOL    HW219533   2.854   0.156   6.182
 6212SOL     OW19534   0.152   5.333   2.792
 6212SOL    HW119535   0.227   5.363   2.734
 6212SOL    HW219536   0.182   5.256   2.848
 6213SOL     OW19537   5.620   6.769   6.663
 6213SOL    HW119538   5.635   6.833   6.739
 6213SOL    HW219539   5.703   6.766   6.606
 6214SOL     OW19540   6.205   5.320   3.136
 6214SOL    HW119541   6.166   5.406   3.103
 6214SOL    HW219542   6.281   5.339   3.199
 6215SOL     OW19543   3.428   1.517   0.147
 6215SOL    HW119544   3.340   1.472   0.127
 6215SOL    HW219545   3.413   1.590   0.213
 6216SOL     OW19546   6.475   1.988   1.765
 6216SOL    HW119547   6.457   1.940   1.679
 6216SOL    HW219548   6.522   2.074   1.747
 6217SOL     OW19549   5.260   2.556   1.909
 6217SOL    HW119550   5.277   2.654   1.922
 6217SOL    HW219551   5.162   2.538   1.920
 6218SOL     OW19552   3.567   5.006   3.766
 6218SOL    HW119553   3.618   5.090   3.782
 6218SOL    HW219554   3.603   4.934   3.826
 6219SOL     OW19555   0.819   1.545   4.766
 6219SOL    HW119556   0.742   1.610   4.763
 6219SOL    HW219557   0.807   1.482   4.842
 6220SOL     OW19558   2.006   4.492   5.804
 6220SOL    HW119559   2.086   4.538   5.765
 6220SOL    HW219560   1.963   4.435   5.733
 6221SOL     OW19561   5.066   5.165   5.538
 6221SOL    HW119562   4.978   5.118   5.547
 6221SOL    HW219563   5.139   5.102   5.564
 6222SOL     OW19564   0.784   6.499   1.384
 6222SOL    HW119565   0.859   6.458   1.332
 6222SOL    HW219566   0.804   6.493   1.481
 6223SOL     OW19567   6.428   3.169   4.664
 6223SOL    HW119568   6.458   3.246   4.608
 6223SOL    HW219569   6.491   3.159   4.741
 6224SOL     OW19570   2.085   1.713   6.012
 6224SOL    HW119571   2.125   1.798   5.979
 6224SOL    HW219572   2.111   1.638   5.951
 6225SOL     OW19573   2.869   3.478   1.642
 6225SOL    HW119574   2.918   3.559   1.609
 6225SOL    HW219575   2.933   3.401   1.649
 6226SOL     OW19576   6.004   1.915   3.930
 6226SOL    HW119577   6.087   1.870   3.895
 6226SOL    HW219578   6.014   1.929   4.028
 6227SOL     OW19579   3.227   4.982   6.357
 6227SOL    HW119580   3.164   4.914   6.395
 6227SOL    HW219581   3.319   4.944   6.351
 6228SOL     OW19582   0.267   2.022   2.661
 6228SOL    HW119583   0.356   1.995   2.623
 6228SOL    HW219584   0.251   2.119   2.641
 6229SOL     OW19585   1.547   1.802   2.917
 6229SOL    HW119586   1.641   1.822   2.890
 6229SOL    HW219587   1.489   1.881   2.896
 6230SOL     OW19588   1.119   1.385   4.555
 6230SOL    HW119589   1.124   1.484   4.568
 6230SOL    HW219590   1.024   1.358   4.540
 6231SOL     OW19591   6.985   5.219   1.583
 6231SOL    HW119592   6.951   5.225   1.676
 6231SOL    HW219593   6.923   5.267   1.521
 6232SOL     OW19594   6.694   1.702   0.095
 6232SOL    HW119595   6.769   1.636   0.090
 6232SOL    HW219596   6.658   1.704   0.189
 6233SOL     OW19597   5.633   1.439   6.945
 6233SOL    HW119598   5.615   1.343   6.965
 6233SOL    HW219599   5.548   1.484   6.917
 6234SOL     OW19600   0.663   1.420   5.487
 6234SOL    HW119601   0.591   1.439   5.421
 6234SOL    HW219602   0.623   1.415   5.579
 6235SOL     OW19603   1.476   0.338   3.002
 6235SOL    HW119604   1.531   0.264   3.038
 6235SOL    HW219605   1.399   0.300   2.950
 6236SOL     OW19606   0.935   5.022   0.564
 6236SOL    HW119607   0.982   5.104   0.532
 6236SOL    HW219608   1.001   4.948   0.577
 6237SOL     OW19609   4.397   6.167   0.412
 6237SOL    HW119610   4.311   6.201   0.373
 6237SOL    HW219611   4.395   6.067   0.414
 6238SOL     OW19612   4.491   5.304   2.981
 6238SOL    HW119613   4.516   5.322   3.076
 6238SOL    HW219614   4.439   5.382   2.945
 6239SOL     OW19615   2.525   6.424   1.885
 6239SOL    HW119616   2.520   6.404   1.983
 6239SOL    HW219617   2.534   6.338   1.834
 6240SOL     OW19618   2.661   2.130   0.761
 6240SOL    HW119619   2.737   2.194   0.753
 6240SOL    HW219620   2.629   2.127   0.855
 6241SOL     OW19621   2.459   1.338   2.578
 6241SOL    HW119622   2.524   1.266   2.555
 6241SOL    HW219623   2.478   1.372   2.670
 6242SOL     OW19624   5.698   1.435   3.472
 6242SOL    HW119625   5.679   1.507   3.539
 6242SOL    HW219626   5.763   1.370   3.511
 6243SOL     OW19627   6.061   7.018   2.959
 6243SOL    HW119628   6.069   6.931   2.909
 6243SOL    HW219629   5.969   0.032   2.947
 6244SOL     OW19630   1.487   2.286   1.718
 6244SOL    HW119631   1.470   2.307   1.621
 6244SOL    HW219632   1.513   2.189   1.727
 6245SOL     OW19633   2.955   4.351   1.657
 6245SOL    HW119634   2.895   4.272   1.668
 6245SOL    HW219635   2.915   4.430   1.705
 6246SOL     OW19636   3.140   2.777   6.549
 6246SOL    HW119637   3.055   2.752   6.501
 6246SOL    HW219638   3.152   2.718   6.628
 6247SOL     OW19639   0.290   6.381   3.508
 6247SOL    HW119640   0.294   6.287   3.475
 6247SOL    HW219641   0.365   6.433   3.467
 6248SOL     OW19642   1.494   3.957   1.762
 6248SOL    HW119643   1.447   4.043   1.782
 6248SOL    HW219644   1.593   3.974   1.760
 6249SOL     OW19645   0.612   4.552   0.592
 6249SOL    HW119646   0.514   4.542   0.573
 6249SOL    HW219647   0.625   4.583   0.686
 6250SOL     OW19648   6.475   5.839   0.467
 6250SOL    HW119649   6.388   5.818   0.422
 6250SOL    HW219650   6.549   5.795   0.417
 6251SOL     OW19651   3.904   6.826   0.815
 6251SOL    HW119652   3.905   6.902   0.750
 6251SOL    HW219653   3.899   6.739   0.766
 6252SOL     OW19654   1.897   6.326   4.790
 6252SOL    HW119655   1.884   6.256   4.720
 6252SOL    HW219656   1.904   6.282   4.880
 6253SOL     OW19657   2.387   4.445   2.922
 6253SOL    HW119658   2.413   4.532   2.880
 6253SOL    HW219659   2.402   4.450   3.021
 6254SOL     OW19660   5.099   1.336   6.543
 6254SOL    HW119661   5.190   1.369   6.566
 6254SOL    HW219662   5.044   1.328   6.626
 6255SOL     OW19663   1.660   0.981   1.323
 6255SOL    HW119664   1.589   0.968   1.393
 6255SOL    HW219665   1.631   0.936   1.238
 6256SOL     OW19666   4.421   4.903   2.755
 6256SOL    HW119667   4.369   4.988   2.752
 6256SOL    HW219668   4.362   4.829   2.786
 6257SOL     OW19669   5.740   2.323   1.004
 6257SOL    HW119670   5.686   2.267   1.067
 6257SOL    HW219671   5.681   2.387   0.956
 6258SOL     OW19672   4.636   0.699   3.293
 6258SOL    HW119673   4.685   0.745   3.219
 6258SOL    HW219674   4.602   0.768   3.358
 6259SOL     OW19675   2.865   1.349   1.000
 6259SOL    HW119676   2.954   1.308   0.977
 6259SOL    HW219677   2.855   1.435   0.950
 6260SOL     OW19678   3.331   4.174   0.269
 6260SOL    HW119679   3.316   4.151   0.365
 6260SOL    HW219680   3.290   4.263   0.249
 6261SOL     OW19681   3.186   6.653   6.601
 6261SOL    HW119682   3.253   6.662   6.528
 6261SOL    HW219683   3.213   6.578   6.661
 6262SOL     OW19684   2.088   4.043   0.451
 6262SOL    HW119685   2.113   4.062   0.545
 6262SOL    HW219686   2.154   4.085   0.389
 6263SOL     OW19687   0.545   6.746   6.212
 6263SOL    HW119688   0.461   6.774   6.166
 6263SOL    HW219689   0.575   6.658   6.175
 6264SOL     OW19690   1.576   6.657   0.922
 6264SOL    HW119691   1.576   6.737   0.981
 6264SOL    HW219692   1.671   6.631   0.901
 6265SOL     OW19693   3.236   4.134   1.315
 6265SOL    HW119694   3.242   4.118   1.217
 6265SOL    HW219695   3.299   4.208   1.341
 6266SOL     OW19696   4.270   0.766   4.381
 6266SOL    HW119697   4.326   0.849   4.387
 6266SOL    HW219698   4.240   0.739   4.472
 6267SOL     OW19699   3.196   0.011   0.269
 6267SOL    HW119700   3.152   0.088   0.314
 6267SOL    HW219701   3.291   0.004   0.300
 6268SOL     OW19702   2.648   6.015   2.972
 6268SOL    HW119703   2.736   5.973   2.949
 6268SOL    HW219704   2.654   6.114   2.963
 6269SOL     OW19705   6.930   6.013   2.293
 6269SOL    HW119706   0.006   6.014   2.281
 6269SOL    HW219707   6.905   6.066   2.374
 6270SOL     OW19708   2.033   0.168   5.837
 6270SOL    HW119709   2.098   0.209   5.902
 6270SOL    HW219710   2.079   0.150   5.750
 6271SOL     OW19711   6.555   3.012   6.250
 6271SOL    HW119712   6.583   3.020   6.346
 6271SOL    HW219713   6.621   2.955   6.201
 6272SOL     OW19714   0.717   3.133   4.928
 6272SOL    HW119715   0.621   3.145   4.955
 6272SOL    HW219716   0.755   3.222   4.901
 6273SOL     OW19717   1.352   0.887   1.951
 6273SOL    HW119718   1.394   0.977   1.956
 6273SOL    HW219719   1.270   0.891   1.894
 6274SOL     OW19720   2.252   5.628   6.010
 6274SOL    HW119721   2.305   5.620   6.094
 6274SOL    HW219722   2.260   5.721   5.975
 6275SOL     OW19723   2.861   6.386   5.644
 6275SOL    HW119724   2.929   6.392   5.571
 6275SOL    HW219725   2.772   6.363   5.605
 6276SOL     OW19726   1.520   4.792   3.421
 6276SOL    HW119727   1.547   4.750   3.508
 6276SOL    HW219728   1.596   4.785   3.356
 6277SOL     OW19729   4.866   2.482   2.884
 6277SOL    HW119730   4.795   2.550   2.901
 6277SOL    HW219731   4.842   2.429   2.802
 6278SOL     OW19732   4.846   0.452   4.999
 6278SOL    HW119733   4.942   0.428   4.984
 6278SOL    HW219734   4.820   0.431   5.093
 6279SOL     OW19735   3.839   1.303   6.843
 6279SOL    HW119736   3.819   1.206   6.829
 6279SOL    HW219737   3.812   1.330   6.935
 6280SOL     OW19738   0.593   2.866   5.522
 6280SOL    HW119739   0.665   2.798   5.539
 6280SOL    HW219740   0.513   2.821   5.484
 6281SOL     OW19741   2.600   6.422   5.523
 6281SOL    HW119742   2.571   6.478   5.601
 6281SOL    HW219743   2.523   6.413   5.459
 6282SOL     OW19744   1.626   0.300   4.577
 6282SOL    HW119745   1.578   0.388   4.588
 6282SOL    HW219746   1.559   0.229   4.555
 6283SOL     OW19747   6.718   2.584   4.970
 6283SOL    HW119748   6.638   2.538   5.009
 6283SOL    HW219749   6.799   2.565   5.025
 6284SOL     OW19750   2.255   5.375   5.167
 6284SOL    HW119751   2.314   5.430   5.225
 6284SOL    HW219752   2.184   5.332   5.223
 6285SOL     OW19753   1.317   2.872   3.708
 6285SOL    HW119754   1.346   2.890   3.802
 6285SOL    HW219755   1.308   2.958   3.659
 6286SOL     OW19756   6.547   1.699   3.962
 6286SOL    HW119757   6.626   1.736   4.010
 6286SOL    HW219758   6.576   1.664   3.872
 6287SOL     OW19759   4.543   4.555   2.371
 6287SOL    HW119760   4.511   4.634   2.422
 6287SOL    HW219761   4.497   4.551   2.282
 6288SOL     OW19762   5.838   3.888   1.935
 6288SOL    HW119763   5.747   3.914   1.901
 6288SOL    HW219764   5.905   3.897   1.861
 6289SOL     OW19765   1.466   2.618   2.671
 6289SOL    HW119766   1.410   2.578   2.744
 6289SOL    HW219767   1.420   2.607   2.584
 6290SOL     OW19768   5.905   3.861   4.343
 6290SOL    HW119769   5.956   3.776   4.334
 6290SOL    HW219770   5.897   3.885   4.439
 6291SOL     OW19771   3.766   2.891   4.084
 6291SOL    HW119772   3.679   2.862   4.047
 6291SOL    HW219773   3.758   2.903   4.183
 6292SOL     OW19774   0.409   3.219   3.280
 6292SOL    HW119775   0.354   3.279   3.337
 6292SOL    HW219776   0.359   3.134   3.262
 6293SOL     OW19777   4.410   6.895   0.271
 6293SOL    HW119778   4.496   6.874   0.224
 6293SOL    HW219779   4.334   6.852   0.222
 6294SOL     OW19780   3.666   4.869   3.323
 6294SOL    HW119781   3.707   4.777   3.331
 6294SOL    HW219782   3.739   4.937   3.316
 6295SOL     OW19783   5.052   5.456   5.454
 6295SOL    HW119784   5.026   5.363   5.476
 6295SOL    HW219785   5.145   5.474   5.487
 6296SOL     OW19786   6.604   7.009   4.276
 6296SOL    HW119787   6.583   0.058   4.341
 6296SOL    HW219788   6.577   6.920   4.314
 6297SOL     OW19789   4.802   0.032   5.196
 6297SOL    HW119790   4.805   0.054   5.098
 6297SOL    HW219791   4.748   0.100   5.244
 6298SOL     OW19792   1.726   3.723   6.055
 6298SOL    HW119793   1.647   3.744   5.997
 6298SOL    HW219794   1.717   3.772   6.141
 6299SOL     OW19795   6.039   2.079   6.852
 6299SOL    HW119796   6.109   2.140   6.889
 6299SOL    HW219797   6.006   2.115   6.765
 6300SOL     OW19798   5.446   0.683   4.862
 6300SOL    HW119799   5.442   0.628   4.779
 6300SOL    HW219800   5.463   0.624   4.941
 6301SOL     OW19801   2.608   0.420   0.987
 6301SOL    HW119802   2.514   0.455   0.993
 6301SOL    HW219803   2.654   0.462   0.909
 6302SOL     OW19804   1.317   1.826   4.069
 6302SOL    HW119805   1.359   1.880   4.142
 6302SOL    HW219806   1.281   1.888   3.999
 6303SOL     OW19807   2.564   0.649   4.817
 6303SOL    HW119808   2.500   0.697   4.876
 6303SOL    HW219809   2.652   0.639   4.864
 6304SOL     OW19810   2.363   1.065   1.409
 6304SOL    HW119811   2.310   1.065   1.493
 6304SOL    HW219812   2.333   0.990   1.351
 6305SOL     OW19813   6.078   6.574   0.913
 6305SOL    HW119814   6.078   6.671   0.933
 6305SOL    HW219815   6.036   6.524   0.989
 6306SOL     OW19816   0.092   3.779   4.255
 6306SOL    HW119817   0.098   3.843   4.178
 6306SOL    HW219818   0.175   3.785   4.310
 6307SOL     OW19819   3.776   4.537   6.112
 6307SOL    HW119820   3.697   4.579   6.067
 6307SOL    HW219821   3.852   4.603   6.115
 6308SOL     OW19822   1.428   1.908   5.192
 6308SOL    HW119823   1.526   1.909   5.173
 6308SOL    HW219824   1.401   1.820   5.230
 6309SOL     OW19825   4.812   4.050   4.469
 6309SOL    HW119826   4.785   4.019   4.560
 6309SOL    HW219827   4.773   4.141   4.452
 6310SOL     OW19828   2.059   4.887   4.187
 6310SOL    HW119829   2.018   4.882   4.278
 6310SOL    HW219830   2.118   4.807   4.173
 6311SOL     OW19831   6.329   0.891   5.421
 6311SOL    HW119832   6.331   0.984   5.458
 6311SOL    HW219833   6.378   0.889   5.334
 6312SOL     OW19834   4.824   5.274   5.766
 6312SOL    HW119835   4.805   5.190   5.715
 6312SOL    HW219836   4.784   5.352   5.719
 6313SOL     OW19837   1.744   5.771   3.344
 6313SOL    HW119838   1.656   5.815   3.363
 6313SOL    HW219839   1.804   5.781   3.424
 6314SOL     OW19840   3.581   6.937   1.875
 6314SOL    HW119841   3.525   6.858   1.898
 6314SOL    HW219842   3.540   6.985   1.797
 6315SOL     OW19843   3.845   2.408   6.664
 6315SOL    HW119844   3.885   2.408   6.572
 6315SOL    HW219845   3.747   2.427   6.657
 6316SOL     OW19846   4.537   2.559   6.242
 6316SOL    HW119847   4.472   2.634   6.245
 6316SOL    HW219848   4.488   2.472   6.245
 6317SOL     OW19849   5.431   6.571   3.295
 6317SOL    HW119850   5.368   6.533   3.227
 6317SOL    HW219851   5.387   6.649   3.341
 6318SOL     OW19852   2.787   2.211   5.313
 6318SOL    HW119853   2.799   2.211   5.213
 6318SOL    HW219854   2.876   2.223   5.356
 6319SOL     OW19855   0.166   2.946   3.729
 6319SOL    HW119856   0.141   2.870   3.789
 6319SOL    HW219857   0.204   2.910   3.644
 6320SOL     OW19858   5.578   4.385   3.795
 6320SOL    HW119859   5.481   4.394   3.817
 6320SOL    HW219860   5.625   4.338   3.870
 6321SOL     OW19861   3.280   5.351   1.382
 6321SOL    HW119862   3.217   5.274   1.378
 6321SOL    HW219863   3.230   5.435   1.397
 6322SOL     OW19864   1.878   2.007   6.320
 6322SOL    HW119865   1.975   2.027   6.304
 6322SOL    HW219866   1.827   2.025   6.236
 6323SOL     OW19867   3.170   2.413   1.377
 6323SOL    HW119868   3.199   2.395   1.283
 6323SOL    HW219869   3.153   2.326   1.424
 6324SOL     OW19870   4.782   0.898   6.127
 6324SOL    HW119871   4.876   0.931   6.115
 6324SOL    HW219872   4.721   0.948   6.067
 6325SOL     OW19873   1.186   2.087   1.420
 6325SOL    HW119874   1.237   2.127   1.345
 6325SOL    HW219875   1.107   2.037   1.385
 6326SOL     OW19876   5.346   6.041   1.236
 6326SOL    HW119877   5.375   6.133   1.211
 6326SOL    HW219878   5.369   6.024   1.332
 6327SOL     OW19879   0.022   0.344   5.148
 6327SOL    HW119880   6.985   0.269   5.122
 6327SOL    HW219881   7.005   0.396   5.223
 6328SOL     OW19882   2.214   3.599   0.032
 6328SOL    HW119883   2.308   3.576   0.056
 6328SOL    HW219884   2.153   3.527   0.065
 6329SOL     OW19885   1.147   2.506   3.666
 6329SOL    HW119886   1.154   2.486   3.764
 6329SOL    HW219887   1.225   2.466   3.618
 6330SOL     OW19888   5.067   1.074   1.056
 6330SOL    HW119889   5.005   1.105   1.128
 6330SOL    HW219890   5.153   1.123   1.062
 6331SOL     OW19891   6.433   2.881   0.899
 6331SOL    HW119892   6.485   2.816   0.955
 6331SOL    HW219893   6.481   2.969   0.896
 6332SOL     OW19894   6.257   4.837   2.137
 6332SOL    HW119895   6.294   4.894   2.063
 6332SOL    HW219896   6.184   4.886   2.183
 6333SOL     OW19897   3.941   4.969   3.727
 6333SOL    HW119898   4.031   5.004   3.754
 6333SOL    HW219899   3.898   4.926   3.807
 6334SOL     OW19900   1.835   6.887   2.767
 6334SOL    HW119901   1.783   6.969   2.791
 6334SOL    HW219902   1.848   6.884   2.667
 6335SOL     OW19903   5.683   1.715   0.379
 6335SOL    HW119904   5.693   1.637   0.317
 6335SOL    HW219905   5.705   1.799   0.331
 6336SOL     OW19906   0.185   2.088   5.221
 6336SOL    HW119907   0.095   2.099   5.179
 6336SOL    HW219908   0.174   2.070   5.319
 6337SOL     OW19909   4.733   3.699   6.125
 6337SOL    HW119910   4.734   3.799   6.125
 6337SOL    HW219911   4.641   3.667   6.147
 6338SOL     OW19912   2.661   2.310   2.426
 6338SOL    HW119913   2.760   2.304   2.412
 6338SOL    HW219914   2.621   2.368   2.355
 6339SOL     OW19915   0.326   2.551   3.794
 6339SOL    HW119916   0.341   2.601   3.709
 6339SOL    HW219917   0.413   2.513   3.826
 6340SOL     OW19918   2.828   5.831   3.174
 6340SOL    HW119919   2.736   5.870   3.178
 6340SOL    HW219920   2.825   5.735   3.199
 6341SOL     OW19921   6.676   4.733   3.795
 6341SOL    HW119922   6.675   4.822   3.840
 6341SOL    HW219923   6.623   4.667   3.849
 6342SOL     OW19924   2.471   1.833   1.824
 6342SOL    HW119925   2.493   1.861   1.731
 6342SOL    HW219926   2.427   1.910   1.872
 6343SOL     OW19927   4.872   2.674   6.714
 6343SOL    HW119928   4.860   2.664   6.812
 6343SOL    HW219929   4.828   2.598   6.666
 6344SOL     OW19930   6.516   3.505   5.894
 6344SOL    HW119931   6.492   3.598   5.869
 6344SOL    HW219932   6.434   3.455   5.922
 6345SOL     OW19933   4.495   1.094   1.948
 6345SOL    HW119934   4.498   1.109   1.849
 6345SOL    HW219935   4.455   1.004   1.967
 6346SOL     OW19936   6.695   3.567   3.606
 6346SOL    HW119937   6.621   3.623   3.570
 6346SOL    HW219938   6.767   3.625   3.643
 6347SOL     OW19939   3.232   0.982   2.006
 6347SOL    HW119940   3.274   0.933   2.082
 6347SOL    HW219941   3.133   0.981   2.016
 6348SOL     OW19942   0.868   3.935   5.471
 6348SOL    HW119943   0.871   3.951   5.372
 6348SOL    HW219944   0.871   4.022   5.519
 6349SOL     OW19945   2.512   0.834   1.688
 6349SOL    HW119946   2.524   0.757   1.626
 6349SOL    HW219947   2.567   0.912   1.656
 6350SOL     OW19948   2.154   5.033   3.529
 6350SOL    HW119949   2.070   4.986   3.557
 6350SOL    HW219950   2.210   4.970   3.474
 6351SOL     OW19951   6.619   2.685   2.008
 6351SOL    HW119952   6.526   2.695   2.044
 6351SOL    HW219953   6.653   2.775   1.981
 6352SOL     OW19954   1.707   5.567   4.199
 6352SOL    HW119955   1.708   5.496   4.130
 6352SOL    HW219956   1.789   5.561   4.255
 6353SOL     OW19957   6.630   0.481   6.504
 6353SOL    HW119958   6.641   0.424   6.422
 6353SOL    HW219959   6.641   0.424   6.586
 6354SOL     OW19960   1.271   7.015   2.364
 6354SOL    HW119961   1.194   0.027   2.419
 6354SOL    HW219962   1.295   6.923   2.395
 6355SOL     OW19963   0.747   4.396   5.309
 6355SOL    HW119964   0.720   4.446   5.391
 6355SOL    HW219965   0.683   4.415   5.235
 6356SOL     OW19966   5.194   4.836   2.086
 6356SOL    HW119967   5.139   4.918   2.103
 6356SOL    HW219968   5.254   4.820   2.165
 6357SOL     OW19969   4.962   2.666   1.283
 6357SOL    HW119970   4.931   2.758   1.260
 6357SOL    HW219971   4.998   2.665   1.377
 6358SOL     OW19972   0.422   2.078   4.799
 6358SOL    HW119973   0.393   2.051   4.890
 6358SOL    HW219974   0.520   2.098   4.799
 6359SOL     OW19975   6.400   0.483   5.551
 6359SOL    HW119976   6.483   0.462   5.499
 6359SOL    HW219977   6.407   0.575   5.590
 6360SOL     OW19978   2.272   4.531   4.133
 6360SOL    HW119979   2.277   4.583   4.219
 6360SOL    HW219980   2.288   4.434   4.151
 6361SOL     OW19981   5.704   7.014   6.807
 6361SOL    HW119982   5.743   0.052   6.739
 6361SOL    HW219983   5.610   0.019   6.827
 6362SOL     OW19984   5.785   4.917   6.954
 6362SOL    HW119985   5.763   4.928   0.028
 6362SOL    HW219986   5.867   4.861   6.944
 6363SOL     OW19987   2.337   5.418   3.638
 6363SOL    HW119988   2.250   5.368   3.639
 6363SOL    HW219989   2.395   5.386   3.712
 6364SOL     OW19990   2.904   1.361   5.919
 6364SOL    HW119991   2.899   1.365   5.820
 6364SOL    HW219992   2.865   1.445   5.958
 6365SOL     OW19993   4.557   0.088   4.271
 6365SOL    HW119994   4.647   0.093   4.227
 6365SOL    HW219995   4.568   0.060   4.366
 6366SOL     OW19996   0.322   6.394   5.546
 6366SOL    HW119997   0.308   6.473   5.486
 6366SOL    HW219998   0.330   6.311   5.491
 6367SOL     OW19999   4.643   0.593   4.017
 6367SOL    HW120000   4.635   0.507   3.966
 6367SOL    HW220001   4.580   0.591   4.095
 6368SOL     OW20002   2.882   0.343   4.048
 6368SOL    HW120003   2.915   0.423   4.098
 6368SOL    HW220004   2.942   0.265   4.066
 6369SOL     OW20005   3.476   4.952   4.355
 6369SOL    HW120006   3.383   4.965   4.390
 6369SOL    HW220007   3.485   4.998   4.267
 6370SOL     OW20008   1.334   2.358   2.718
 6370SOL    HW120009   1.289   2.277   2.680
 6370SOL    HW220010   1.433   2.350   2.706
 6371SOL     OW20011   4.984   3.312   3.924
 6371SOL    HW120012   5.023   3.351   4.007
 6371SOL    HW220013   4.928   3.233   3.947
 6372SOL     OW20014   2.724   6.810   1.759
 6372SOL    HW120015   2.819   6.841   1.748
 6372SOL    HW220016   2.662   6.883   1.732
 6373SOL     OW20017   5.815   4.668   4.113
 6373SOL    HW120018   5.783   4.573   4.112
 6373SOL    HW220019   5.830   4.699   4.020
 6374SOL     OW20020   3.042   3.790   3.899
 6374SOL    HW120021   3.106   3.812   3.972
 6374SOL    HW220022   3.090   3.744   3.824
 6375SOL     OW20023   0.870   1.310   3.246
 6375SOL    HW120024   0.845   1.233   3.306
 6375SOL    HW220025   0.966   1.335   3.261
 6376SOL     OW20026   6.482   1.970   5.164
 6376SOL    HW120027   6.418   2.047   5.172
 6376SOL    HW220028   6.445   1.891   5.214
 6377SOL     OW20029   6.716   1.219   6.306
 6377SOL    HW120030   6.668   1.137   6.277
 6377SOL    HW220031   6.650   1.293   6.321
 6378SOL     OW20032   5.370   4.794   2.937
 6378SOL    HW120033   5.278   4.778   2.902
 6378SOL    HW220034   5.365   4.848   3.021
 6379SOL     OW20035   2.406   4.967   4.695
 6379SOL    HW120036   2.318   4.926   4.718
 6379SOL    HW220037   2.409   5.061   4.729
 6380SOL     OW20038   1.055   1.588   5.368
 6380SOL    HW120039   1.013   1.499   5.384
 6380SOL    HW220040   1.148   1.575   5.332
 6381SOL     OW20041   3.407   3.013   2.658
 6381SOL    HW120042   3.459   3.097   2.640
 6381SOL    HW220043   3.469   2.941   2.687
 6382SOL     OW20044   1.383   2.439   0.211
 6382SOL    HW120045   1.454   2.434   0.142
 6382SOL    HW220046   1.314   2.368   0.194
 6383SOL     OW20047   1.976   2.313   3.432
 6383SOL    HW120048   2.019   2.348   3.349
 6383SOL    HW220049   2.047   2.276   3.493
 6384SOL     OW20050   5.823   4.708   1.953
 6384SOL    HW120051   5.771   4.647   2.013
 6384SOL    HW220052   5.921   4.688   1.962
 6385SOL     OW20053   5.870   5.026   4.421
 6385SOL    HW120054   5.788   5.070   4.383
 6385SOL    HW220055   5.948   5.042   4.361
 6386SOL     OW20056   2.570   4.156   0.246
 6386SOL    HW120057   2.575   4.103   0.331
 6386SOL    HW220058   2.610   4.246   0.261
 6387SOL     OW20059   0.977   2.122   6.111
 6387SOL    HW120060   0.989   2.207   6.060
 6387SOL    HW220061   0.896   2.074   6.076
 6388SOL     OW20062   4.422   4.601   1.429
 6388SOL    HW120063   4.330   4.628   1.456
 6388SOL    HW220064   4.458   4.535   1.496
 6389SOL     OW20065   0.918   5.868   2.026
 6389SOL    HW120066   0.919   5.903   2.119
 6389SOL    HW220067   0.996   5.904   1.975
 6390SOL     OW20068   0.537   2.992   3.522
 6390SOL    HW120069   0.586   3.077   3.502
 6390SOL    HW220070   0.566   2.957   3.611
 6391SOL     OW20071   2.828   0.865   6.632
 6391SOL    HW120072   2.815   0.963   6.642
 6391SOL    HW220073   2.925   0.844   6.627
 6392SOL     OW20074   2.331   6.667   3.640
 6392SOL    HW120075   2.423   6.700   3.660
 6392SOL    HW220076   2.264   6.723   3.688
 6393SOL     OW20077   5.810   6.411   1.967
 6393SOL    HW120078   5.877   6.470   1.922
 6393SOL    HW220079   5.858   6.341   2.021
 6394SOL     OW20080   2.610   4.879   1.090
 6394SOL    HW120081   2.537   4.915   1.033
 6394SOL    HW220082   2.687   4.943   1.090
 6395SOL     OW20083   5.822   1.972   1.741
 6395SOL    HW120084   5.762   2.039   1.697
 6395SOL    HW220085   5.875   1.924   1.671
 6396SOL     OW20086   5.739   2.850   6.226
 6396SOL    HW120087   5.760   2.937   6.271
 6396SOL    HW220088   5.778   2.775   6.279
 6397SOL     OW20089   6.455   2.089   6.976
 6397SOL    HW120090   6.401   2.028   0.011
 6397SOL    HW220091   6.486   2.040   6.895
 6398SOL     OW20092   3.460   0.853   0.785
 6398SOL    HW120093   3.493   0.904   0.706
 6398SOL    HW220094   3.489   0.758   0.779
 6399SOL     OW20095   1.682   5.230   6.147
 6399SOL    HW120096   1.754   5.161   6.152
 6399SOL    HW220097   1.708   5.308   6.204
 6400SOL     OW20098   2.260   5.549   3.169
 6400SOL    HW120099   2.273   5.580   3.075
 6400SOL    HW220100   2.272   5.450   3.174
 6401SOL     OW20101   6.952   4.525   3.193
 6401SOL    HW120102   6.940   4.619   3.161
 6401SOL    HW220103   7.003   4.526   3.279
 6402SOL     OW20104   2.709   0.597   3.229
 6402SOL    HW120105   2.630   0.658   3.226
 6402SOL    HW220106   2.790   0.646   3.197
 6403SOL     OW20107   0.866   5.563   6.239
 6403SOL    HW120108   0.823   5.474   6.253
 6403SOL    HW220109   0.918   5.587   6.321
 6404SOL     OW20110   4.277   1.404   3.313
 6404SOL    HW120111   4.361   1.360   3.346
 6404SOL    HW220112   4.217   1.335   3.273
 6405SOL     OW20113   1.904   1.346   2.725
 6405SOL    HW120114   1.829   1.311   2.669
 6405SOL    HW220115   1.991   1.309   2.692
 6406SOL     OW20116   1.576   2.497   3.597
 6406SOL    HW120117   1.519   2.528   3.674
 6406SOL    HW220118   1.672   2.516   3.618
 6407SOL     OW20119   2.915   6.560   3.800
 6407SOL    HW120120   2.854   6.493   3.759
 6407SOL    HW220121   3.002   6.516   3.822
 6408SOL     OW20122   6.202   2.697   0.316
 6408SOL    HW120123   6.279   2.636   0.300
 6408SOL    HW220124   6.123   2.666   0.263
 6409SOL     OW20125   6.280   4.247   3.535
 6409SOL    HW120126   6.308   4.190   3.458
 6409SOL    HW220127   6.348   4.319   3.549
 6410SOL     OW20128   1.649   1.875   0.557
 6410SOL    HW120129   1.565   1.850   0.604
 6410SOL    HW220130   1.727   1.850   0.615
 6411SOL     OW20131   0.293   2.457   3.270
 6411SOL    HW120132   0.296   2.546   3.223
 6411SOL    HW220133   0.386   2.423   3.284
 6412SOL     OW20134   0.434   3.659   5.256
 6412SOL    HW120135   0.422   3.701   5.166
 6412SOL    HW220136   0.465   3.565   5.245
 6413SOL     OW20137   5.879   4.357   1.920
 6413SOL    HW120138   5.915   4.435   1.869
 6413SOL    HW220139   5.782   4.373   1.941
 6414SOL     OW20140   5.792   0.699   1.756
 6414SOL    HW120141   5.822   0.791   1.783
 6414SOL    HW220142   5.794   0.639   1.836
 6415SOL     OW20143   3.337   1.934   2.805
 6415SOL    HW120144   3.401   1.917   2.880
 6415SOL    HW220145   3.361   1.877   2.727
 6416SOL     OW20146   1.055   0.648   6.118
 6416SOL    HW120147   1.099   0.656   6.208
 6416SOL    HW220148   1.101   0.709   6.053
 6417SOL     OW20149   0.982   5.244   3.285
 6417SOL    HW120150   1.055   5.189   3.244
 6417SOL    HW220151   0.931   5.188   3.351
 6418SOL     OW20152   6.523   5.037   2.373
 6418SOL    HW120153   6.575   4.973   2.317
 6418SOL    HW220154   6.583   5.110   2.406
 6419SOL     OW20155   3.270   5.290   2.074
 6419SOL    HW120156   3.250   5.275   1.977
 6419SOL    HW220157   3.349   5.234   2.100
 6420SOL     OW20158   3.362   3.697   6.562
 6420SOL    HW120159   3.317   3.635   6.627
 6420SOL    HW220160   3.302   3.774   6.542
 6421SOL     OW20161   6.271   1.667   1.344
 6421SOL    HW120162   6.358   1.651   1.297
 6421SOL    HW220163   6.254   1.766   1.349
 6422SOL     OW20164   6.815   7.008   3.875
 6422SOL    HW120165   6.756   0.034   3.811
 6422SOL    HW220166   6.911   0.002   3.853
 6423SOL     OW20167   4.774   4.384   1.881
 6423SOL    HW120168   4.683   4.402   1.918
 6423SOL    HW220169   4.834   4.350   1.954
 6424SOL     OW20170   6.525   4.758   5.935
 6424SOL    HW120171   6.469   4.836   5.962
 6424SOL    HW220172   6.620   4.788   5.922
 6425SOL     OW20173   6.754   5.054   4.166
 6425SOL    HW120174   6.833   5.009   4.209
 6425SOL    HW220175   6.679   4.988   4.158
 6426SOL     OW20176   0.411   3.562   3.689
 6426SOL    HW120177   0.375   3.646   3.730
 6426SOL    HW220178   0.456   3.507   3.759
 6427SOL     OW20179   1.753   3.367   6.625
 6427SOL    HW120180   1.827   3.418   6.582
 6427SOL    HW220181   1.776   3.347   6.720
 6428SOL     OW20182   6.716   3.609   0.907
 6428SOL    HW120183   6.738   3.665   0.826
 6428SOL    HW220184   6.690   3.517   0.878
 6429SOL     OW20185   0.751   0.917   4.880
 6429SOL    HW120186   0.761   0.970   4.795
 6429SOL    HW220187   0.842   0.892   4.914
 6430SOL     OW20188   4.639   0.912   1.605
 6430SOL    HW120189   4.583   0.988   1.637
 6430SOL    HW220190   4.594   0.826   1.626
 6431SOL     OW20191   5.841   0.131   3.456
 6431SOL    HW120192   5.939   0.116   3.443
 6431SOL    HW220193   5.795   0.043   3.471
 6432SOL     OW20194   4.539   4.329   0.262
 6432SOL    HW120195   4.473   4.365   0.328
 6432SOL    HW220196   4.584   4.405   0.216
 6433SOL     OW20197   2.919   4.689   1.185
 6433SOL    HW120198   2.906   4.619   1.256
 6433SOL    HW220199   2.884   4.655   1.098
 6434SOL     OW20200   1.410   3.868   1.472
 6434SOL    HW120201   1.404   3.768   1.470
 6434SOL    HW220202   1.365   3.902   1.555
 6435SOL     OW20203   3.790   5.079   6.805
 6435SOL    HW120204   3.737   4.998   6.832
 6435SOL    HW220205   3.886   5.066   6.831
 6436SOL     OW20206   2.191   3.214   3.992
 6436SOL    HW120207   2.173   3.298   4.043
 6436SOL    HW220208   2.103   3.172   3.967
 6437SOL     OW20209   1.719   1.446   0.494
 6437SOL    HW120210   1.689   1.454   0.589
 6437SOL    HW220211   1.675   1.367   0.451
 6438SOL     OW20212   0.137   4.479   5.379
 6438SOL    HW120213   0.181   4.568   5.387
 6438SOL    HW220214   0.204   4.410   5.352
 6439SOL     OW20215   0.735   6.547   0.713
 6439SOL    HW120216   0.810   6.495   0.672
 6439SOL    HW220217   0.668   6.570   0.642
 6440SOL     OW20218   2.354   1.546   1.895
 6440SOL    HW120219   2.354   1.604   1.814
 6440SOL    HW220220   2.367   1.451   1.868
 6441SOL     OW20221   1.061   0.094   2.511
 6441SOL    HW120222   1.017   0.182   2.494
 6441SOL    HW220223   0.991   0.024   2.527
 6442SOL     OW20224   1.732   1.367   3.513
 6442SOL    HW120225   1.657   1.379   3.447
 6442SOL    HW220226   1.731   1.443   3.578
 6443SOL     OW20227   3.112   2.915   0.796
 6443SOL    HW120228   3.130   2.922   0.894
 6443SOL    HW220229   3.029   2.861   0.781
 6444SOL     OW20230   0.258   2.646   3.533
 6444SOL    HW120231   0.355   2.638   3.511
 6444SOL    HW220232   0.204   2.593   3.468
 6445SOL     OW20233   4.634   2.602   5.409
 6445SOL    HW120234   4.563   2.613   5.339
 6445SOL    HW220235   4.606   2.650   5.492
 6446SOL     OW20236   0.117   1.662   6.074
 6446SOL    HW120237   0.097   1.649   5.977
 6446SOL    HW220238   0.043   1.623   6.128
 6447SOL     OW20239   0.403   6.131   2.572
 6447SOL    HW120240   0.434   6.203   2.634
 6447SOL    HW220241   0.479   6.104   2.513
 6448SOL     OW20242   6.330   4.075   2.629
 6448SOL    HW120243   6.360   4.150   2.570
 6448SOL    HW220244   6.231   4.061   2.617
 6449SOL     OW20245   4.084   4.214   1.546
 6449SOL    HW120246   4.122   4.306   1.546
 6449SOL    HW220247   4.128   4.160   1.618
 6450SOL     OW20248   6.971   3.264   1.575
 6450SOL    HW120249   6.993   3.328   1.501
 6450SOL    HW220250   6.949   3.315   1.657
 6451SOL     OW20251   3.083   6.538   5.819
 6451SOL    HW120252   2.989   6.549   5.852
 6451SOL    HW220253   3.111   6.621   5.770
 6452SOL     OW20254   3.846   6.584   4.860
 6452SOL    HW120255   3.815   6.567   4.954
 6452SOL    HW220256   3.803   6.517   4.799
 6453SOL     OW20257   2.055   6.726   6.590
 6453SOL    HW120258   2.029   6.630   6.575
 6453SOL    HW220259   1.977   6.785   6.569
 6454SOL     OW20260   3.250   1.431   3.812
 6454SOL    HW120261   3.154   1.453   3.828
 6454SOL    HW220262   3.262   1.332   3.813
 6455SOL     OW20263   0.911   2.629   4.278
 6455SOL    HW120264   0.858   2.562   4.329
 6455SOL    HW220265   0.890   2.721   4.311
 6456SOL     OW20266   1.472   0.549   3.749
 6456SOL    HW120267   1.552   0.497   3.719
 6456SOL    HW220268   1.394   0.525   3.691
 6457SOL     OW20269   5.606   1.516   0.937
 6457SOL    HW120270   5.587   1.505   0.840
 6457SOL    HW220271   5.678   1.584   0.949
 6458SOL     OW20272   0.952   6.160   2.655
 6458SOL    HW120273   0.969   6.091   2.726
 6458SOL    HW220274   0.997   6.245   2.680
 6459SOL     OW20275   5.438   5.833   0.620
 6459SOL    HW120276   5.530   5.801   0.595
 6459SOL    HW220277   5.426   5.827   0.719
 6460SOL     OW20278   4.236   5.227   6.039
 6460SOL    HW120279   4.236   5.272   5.949
 6460SOL    HW220280   4.256   5.295   6.110
 6461SOL     OW20281   3.133   5.640   4.922
 6461SOL    HW120282   3.070   5.635   4.999
 6461SOL    HW220283   3.133   5.552   4.874
 6462SOL     OW20284   2.124   2.958   5.098
 6462SOL    HW120285   2.220   2.962   5.070
 6462SOL    HW220286   2.117   2.982   5.195
 6463SOL     OW20287   2.059   4.292   6.373
 6463SOL    HW120288   2.101   4.371   6.418
 6463SOL    HW220289   2.112   4.209   6.394
 6464SOL     OW20290   1.137   4.471   4.363
 6464SOL    HW120291   1.111   4.427   4.449
 6464SOL    HW220292   1.181   4.559   4.382
 6465SOL     OW20293   5.787   2.650   3.991
 6465SOL    HW120294   5.744   2.585   3.928
 6465SOL    HW220295   5.727   2.728   4.006
 6466SOL     OW20296   0.140   2.354   5.326
 6466SOL    HW120297   0.105   2.423   5.262
 6466SOL    HW220298   0.140   2.265   5.282
 6467SOL     OW20299   2.339   1.217   6.924
 6467SOL    HW120300   2.388   1.278   6.985
 6467SOL    HW220301   2.242   1.217   6.947
 6468SOL     OW20302   4.109   5.820   1.384
 6468SOL    HW120303   4.026   5.768   1.399
 6468SOL    HW220304   4.176   5.798   1.455
 6469SOL     OW20305   5.252   0.778   5.636
 6469SOL    HW120306   5.172   0.721   5.657
 6469SOL    HW220307   5.333   0.721   5.630
 6470SOL     OW20308   6.498   5.293   6.296
 6470SOL    HW120309   6.432   5.218   6.296
 6470SOL    HW220310   6.512   5.325   6.203
 6471SOL     OW20311   6.261   5.508   5.708
 6471SOL    HW120312   6.247   5.588   5.650
 6471SOL    HW220313   6.173   5.468   5.731
 6472SOL     OW20314   0.517   5.428   1.000
 6472SOL    HW120315   0.601   5.448   1.051
 6472SOL    HW220316   0.474   5.346   1.038
 6473SOL     OW20317   2.154   1.688   5.654
 6473SOL    HW120318   2.184   1.759   5.718
 6473SOL    HW220319   2.157   1.599   5.698
 6474SOL     OW20320   1.694   4.101   5.786
 6474SOL    HW120321   1.619   4.165   5.803
 6474SOL    HW220322   1.747   4.133   5.708
 6475SOL     OW20323   6.087   5.880   4.255
 6475SOL    HW120324   6.160   5.813   4.268
 6475SOL    HW220325   6.120   5.970   4.286
 6476SOL     OW20326   5.185   3.739   2.158
 6476SOL    HW120327   5.183   3.663   2.223
 6476SOL    HW220328   5.092   3.776   2.147
 6477SOL     OW20329   0.156   4.901   1.229
 6477SOL    HW120330   0.151   4.977   1.164
 6477SOL    HW220331   0.098   4.921   1.308
 6478SOL     OW20332   2.992   5.943   2.543
 6478SOL    HW120333   2.966   5.921   2.449
 6478SOL    HW220334   2.954   5.874   2.605
 6479SOL     OW20335   4.379   5.258   2.434
 6479SOL    HW120336   4.457   5.318   2.417
 6479SOL    HW220337   4.383   5.224   2.528
 6480SOL     OW20338   4.129   3.024   5.646
 6480SOL    HW120339   4.044   2.981   5.678
 6480SOL    HW220340   4.107   3.097   5.581
 6481SOL     OW20341   3.418   1.955   1.757
 6481SOL    HW120342   3.461   2.042   1.735
 6481SOL    HW220343   3.329   1.950   1.712
 6482SOL     OW20344   6.853   0.781   6.441
 6482SOL    HW120345   6.783   0.710   6.445
 6482SOL    HW220346   6.938   0.746   6.481
 6483SOL     OW20347   2.419   6.126   1.980
 6483SOL    HW120348   2.362   6.091   1.905
 6483SOL    HW220349   2.365   6.190   2.035
 6484SOL     OW20350   3.549   0.105   2.502
 6484SOL    HW120351   3.481   0.178   2.499
 6484SOL    HW220352   3.545   0.053   2.416
 6485SOL     OW20353   1.361   3.289   3.403
 6485SOL    HW120354   1.406   3.301   3.491
 6485SOL    HW220355   1.266   3.319   3.410
 6486SOL     OW20356   1.251   4.795   3.726
 6486SOL    HW120357   1.236   4.831   3.634
 6486SOL    HW220358   1.225   4.698   3.728
 6487SOL     OW20359   6.169   5.783   5.012
 6487SOL    HW120360   6.186   5.877   4.984
 6487SOL    HW220361   6.103   5.741   4.951
 6488SOL     OW20362   3.113   6.141   5.382
 6488SOL    HW120363   3.067   6.066   5.334
 6488SOL    HW220364   3.045   6.206   5.417
 6489SOL     OW20365   2.120   3.196   6.560
 6489SOL    HW120366   2.105   3.274   6.621
 6489SOL    HW220367   2.178   3.129   6.605
 6490SOL     OW20368   3.941   2.399   0.100
 6490SOL    HW120369   3.912   2.495   0.105
 6490SOL    HW220370   4.024   2.386   0.154
 6491SOL     OW20371   4.075   0.991   6.675
 6491SOL    HW120372   3.978   0.980   6.692
 6491SOL    HW220373   4.095   1.088   6.658
 6492SOL     OW20374   6.015   6.281   6.714
 6492SOL    HW120375   5.967   6.254   6.798
 6492SOL    HW220376   6.113   6.287   6.733
 6493SOL     OW20377   1.203   6.327   5.029
 6493SOL    HW120378   1.268   6.340   5.104
 6493SOL    HW220379   1.156   6.414   5.011
 6494SOL     OW20380   0.669   0.521   2.896
 6494SOL    HW120381   0.747   0.577   2.871
 6494SOL    HW220382   0.623   0.559   2.976
 6495SOL     OW20383   5.176   6.104   3.967
 6495SOL    HW120384   5.216   6.019   3.933
 6495SOL    HW220385   5.246   6.159   4.012
 6496SOL     OW20386   6.874   6.160   2.082
 6496SOL    HW120387   6.897   6.100   2.158
 6496SOL    HW220388   6.917   6.125   1.998
 6497SOL     OW20389   2.477   2.888   0.459
 6497SOL    HW120390   2.491   2.984   0.433
 6497SOL    HW220391   2.518   2.829   0.390
 6498SOL     OW20392   2.418   4.842   3.841
 6498SOL    HW120393   2.357   4.907   3.798
 6498SOL    HW220394   2.480   4.891   3.903
 6499SOL     OW20395   5.228   1.028   5.083
 6499SOL    HW120396   5.282   1.001   5.163
 6499SOL    HW220397   5.277   1.004   5.000
 6500SOL     OW20398   6.504   4.416   3.516
 6500SOL    HW120399   6.519   4.509   3.483
 6500SOL    HW220400   6.583   4.388   3.571
 6501SOL     OW20401   6.630   3.090   0.933
 6501SOL    HW120402   6.633   3.054   0.840
 6501SOL    HW220403   6.683   3.175   0.938
 6502SOL     OW20404   0.122   4.256   3.372
 6502SOL    HW120405   0.140   4.354   3.375
 6502SOL    HW220406   0.208   4.206   3.384
 6503SOL     OW20407   6.004   6.758   3.633
 6503SOL    HW120408   6.083   6.814   3.658
 6503SOL    HW220409   5.935   6.764   3.705
 6504SOL     OW20410   4.179   6.867   6.655
 6504SOL    HW120411   4.245   6.801   6.619
 6504SOL    HW220412   4.203   6.959   6.622
 6505SOL     OW20413   6.402   4.570   1.064
 6505SOL    HW120414   6.462   4.521   1.001
 6505SOL    HW220415   6.457   4.612   1.137
 6506SOL     OW20416   0.684   2.963   0.868
 6506SOL    HW120417   0.625   2.898   0.819
 6506SOL    HW220418   0.730   3.023   0.802
 6507SOL     OW20419   1.532   5.961   6.906
 6507SOL    HW120420   1.610   5.898   6.901
 6507SOL    HW220421   1.447   5.910   6.905
 6508SOL     OW20422   2.124   1.692   3.470
 6508SOL    HW120423   2.100   1.668   3.564
 6508SOL    HW220424   2.044   1.681   3.411
 6509SOL     OW20425   1.853   2.541   4.606
 6509SOL    HW120426   1.806   2.576   4.687
 6509SOL    HW220427   1.939   2.498   4.634
 6510SOL     OW20428   0.614   5.243   6.665
 6510SOL    HW120429   0.626   5.144   6.660
 6510SOL    HW220430   0.519   5.264   6.691
 6511SOL     OW20431   6.054   0.208   4.338
 6511SOL    HW120432   6.011   0.157   4.264
 6511SOL    HW220433   6.077   0.300   4.307
 6512SOL     OW20434   4.466   0.362   2.960
 6512SOL    HW120435   4.550   0.394   2.916
 6512SOL    HW220436   4.423   0.438   3.008
 6513SOL     OW20437   3.415   6.587   4.138
 6513SOL    HW120438   3.355   6.637   4.076
 6513SOL    HW220439   3.463   6.515   4.087
 6514SOL     OW20440   5.580   0.017   3.590
 6514SOL    HW120441   5.553   0.057   3.503
 6514SOL    HW220442   5.501   0.013   3.652
 6515SOL     OW20443   0.306   4.846   4.304
 6515SOL    HW120444   0.301   4.828   4.206
 6515SOL    HW220445   0.402   4.849   4.332
 6516SOL     OW20446   0.327   1.957   6.681
 6516SOL    HW120447   0.379   1.917   6.757
 6516SOL    HW220448   0.276   1.885   6.634
 6517SOL     OW20449   6.705   1.788   0.795
 6517SOL    HW120450   6.722   1.691   0.779
 6517SOL    HW220451   6.722   1.839   0.710
 6518SOL     OW20452   0.763   6.396   0.320
 6518SOL    HW120453   0.822   6.357   0.250
 6518SOL    HW220454   0.813   6.467   0.370
 6519SOL     OW20455   2.358   1.872   3.678
 6519SOL    HW120456   2.427   1.903   3.613
 6519SOL    HW220457   2.270   1.912   3.655
 6520SOL     OW20458   6.109   5.565   3.308
 6520SOL    HW120459   6.184   5.551   3.373
 6520SOL    HW220460   6.135   5.636   3.242
 6521SOL     OW20461   0.794   1.138   4.655
 6521SOL    HW120462   0.809   1.226   4.610
 6521SOL    HW220463   0.879   1.085   4.653
 6522SOL     OW20464   3.129   5.438   6.729
 6522SOL    HW120465   3.211   5.486   6.700
 6522SOL    HW220466   3.098   5.376   6.657
 6523SOL     OW20467   3.021   1.842   6.637
 6523SOL    HW120468   3.100   1.848   6.699
 6523SOL    HW220469   3.032   1.764   6.576
 6524SOL     OW20470   3.451   2.889   3.708
 6524SOL    HW120471   3.379   2.900   3.776
 6524SOL    HW220472   3.532   2.849   3.751
 6525SOL     OW20473   1.882   2.689   2.864
 6525SOL    HW120474   1.839   2.753   2.927
 6525SOL    HW220475   1.823   2.674   2.785
 6526SOL     OW20476   0.595   6.614   4.953
 6526SOL    HW120477   0.600   6.595   5.051
 6526SOL    HW220478   0.631   6.705   4.935
 6527SOL     OW20479   0.742   1.433   5.014
 6527SOL    HW120480   0.670   1.369   4.988
 6527SOL    HW220481   0.817   1.383   5.058
 6528SOL     OW20482   0.118   0.776   3.928
 6528SOL    HW120483   0.125   0.752   3.831
 6528SOL    HW220484   0.210   0.778   3.969
 6529SOL     OW20485   6.053   1.914   3.453
 6529SOL    HW120486   6.013   1.845   3.392
 6529SOL    HW220487   6.118   1.970   3.401
 6530SOL     OW20488   6.693   3.337   0.527
 6530SOL    HW120489   6.788   3.313   0.549
 6530SOL    HW220490   6.644   3.256   0.495
 6531SOL     OW20491   5.419   3.042   4.160
 6531SOL    HW120492   5.402   2.998   4.072
 6531SOL    HW220493   5.416   2.973   4.233
 6532SOL     OW20494   5.839   1.632   0.575
 6532SOL    HW120495   5.779   1.659   0.500
 6532SOL    HW220496   5.887   1.712   0.611
 6533SOL     OW20497   5.776   6.307   1.366
 6533SOL    HW120498   5.752   6.260   1.451
 6533SOL    HW220499   5.787   6.405   1.384
 6534SOL     OW20500   2.428   3.699   1.192
 6534SOL    HW120501   2.487   3.618   1.190
 6534SOL    HW220502   2.468   3.768   1.252
 6535SOL     OW20503   0.350   2.841   4.805
 6535SOL    HW120504   0.428   2.873   4.750
 6535SOL    HW220505   0.379   2.832   4.901
 6536SOL     OW20506   6.725   3.045   6.451
 6536SOL    HW120507   6.771   2.959   6.425
 6536SOL    HW220508   6.790   3.121   6.443
 6537SOL     OW20509   6.693   6.180   6.967
 6537SOL    HW120510   6.712   6.264   6.917
 6537SOL    HW220511   6.607   6.189   7.017
 6538SOL     OW20512   4.056   4.385   0.412
 6538SOL    HW120513   3.973   4.392   0.358
 6538SOL    HW220514   4.097   4.295   0.400
 6539SOL     OW20515   2.387   2.242   6.292
 6539SOL    HW120516   2.302   2.211   6.249
 6539SOL    HW220517   2.420   2.171   6.354
 6540SOL     OW20518   3.774   1.823   4.535
 6540SOL    HW120519   3.779   1.862   4.444
 6540SOL    HW220520   3.774   1.896   4.603
 6541SOL     OW20521   3.098   2.152   4.789
 6541SOL    HW120522   2.998   2.157   4.789
 6541SOL    HW220523   3.133   2.182   4.877
 6542SOL     OW20524   6.298   4.567   2.843
 6542SOL    HW120525   6.341   4.654   2.867
 6542SOL    HW220526   6.367   4.505   2.805
 6543SOL     OW20527   6.440   5.360   0.065
 6543SOL    HW120528   6.460   5.424   0.139
 6543SOL    HW220529   6.452   5.266   0.098
 6544SOL     OW20530   0.333   6.014   3.917
 6544SOL    HW120531   0.298   6.077   3.848
 6544SOL    HW220532   0.430   5.997   3.899
 6545SOL     OW20533   4.903   1.830   5.841
 6545SOL    HW120534   4.823   1.800   5.892
 6545SOL    HW220535   4.981   1.772   5.866
 6546SOL     OW20536   4.751   4.179   6.412
 6546SOL    HW120537   4.684   4.245   6.378
 6546SOL    HW220538   4.818   4.159   6.340
 6547SOL     OW20539   4.254   1.674   5.645
 6547SOL    HW120540   4.172   1.667   5.589
 6547SOL    HW220541   4.260   1.594   5.705
 6548SOL     OW20542   0.899   4.491   6.608
 6548SOL    HW120543   0.950   4.572   6.581
 6548SOL    HW220544   0.804   4.498   6.576
 6549SOL     OW20545   3.536   1.203   0.937
 6549SOL    HW120546   3.572   1.133   0.875
 6549SOL    HW220547   3.438   1.186   0.952
 6550SOL     OW20548   0.384   6.156   3.348
 6550SOL    HW120549   0.475   6.172   3.309
 6550SOL    HW220550   0.317   6.149   3.274
 6551SOL     OW20551   1.729   4.165   2.188
 6551SOL    HW120552   1.733   4.258   2.225
 6551SOL    HW220553   1.741   4.099   2.263
 6552SOL     OW20554   2.410   5.713   4.922
 6552SOL    HW120555   2.382   5.618   4.911
 6552SOL    HW220556   2.488   5.718   4.984
 6553SOL     OW20557   0.185   2.862   1.320
 6553SOL    HW120558   0.122   2.925   1.366
 6553SOL    HW220559   0.183   2.774   1.366
 6554SOL     OW20560   5.806   1.606   5.750
 6554SOL    HW120561   5.882   1.665   5.779
 6554SOL    HW220562   5.734   1.608   5.819
 6555SOL     OW20563   2.077   0.884   2.175
 6555SOL    HW120564   2.145   0.872   2.248
 6555SOL    HW220565   2.076   0.802   2.117
 6556SOL     OW20566   4.693   4.525   4.878
 6556SOL    HW120567   4.774   4.493   4.829
 6556SOL    HW220568   4.699   4.624   4.892
 6557SOL     OW20569   5.461   5.825   0.937
 6557SOL    HW120570   5.560   5.821   0.935
 6557SOL    HW220571   5.431   5.920   0.923
 6558SOL     OW20572   6.493   5.399   0.926
 6558SOL    HW120573   6.544   5.457   0.990
 6558SOL    HW220574   6.511   5.430   0.832
 6559SOL     OW20575   5.921   3.824   1.121
 6559SOL    HW120576   5.930   3.730   1.090
 6559SOL    HW220577   5.997   3.847   1.182
 6560SOL     OW20578   3.991   2.772   1.691
 6560SOL    HW120579   4.012   2.674   1.693
 6560SOL    HW220580   4.038   2.815   1.615
 6561SOL     OW20581   3.871   3.795   2.807
 6561SOL    HW120582   3.944   3.816   2.873
 6561SOL    HW220583   3.893   3.710   2.760
 6562SOL     OW20584   6.082   4.607   6.466
 6562SOL    HW120585   6.082   4.598   6.366
 6562SOL    HW220586   6.156   4.551   6.505
 6563SOL     OW20587   0.852   5.843   6.981
 6563SOL    HW120588   0.932   5.783   6.973
 6563SOL    HW220589   0.772   5.796   6.944
 6564SOL     OW20590   1.334   3.095   2.081
 6564SOL    HW120591   1.350   3.149   2.164
 6564SOL    HW220592   1.422   3.072   2.039
 6565SOL     OW20593   6.331   2.185   4.975
 6565SOL    HW120594   6.404   2.233   4.925
 6565SOL    HW220595   6.339   2.205   5.073
 6566SOL     OW20596   3.415   0.250   1.625
 6566SOL    HW120597   3.392   0.170   1.569
 6566SOL    HW220598   3.332   0.299   1.651
 6567SOL     OW20599   4.515   2.624   1.317
 6567SOL    HW120600   4.451   2.581   1.253
 6567SOL    HW220601   4.599   2.570   1.321
 6568SOL     OW20602   4.793   4.939   2.263
 6568SOL    HW120603   4.874   4.973   2.215
 6568SOL    HW220604   4.717   4.930   2.198
 6569SOL     OW20605   2.690   4.773   0.840
 6569SOL    HW120606   2.666   4.676   0.830
 6569SOL    HW220607   2.658   4.806   0.929
 6570SOL     OW20608   4.695   6.889   1.519
 6570SOL    HW120609   4.742   6.973   1.492
 6570SOL    HW220610   4.761   6.822   1.553
 6571SOL     OW20611   1.959   6.105   3.190
 6571SOL    HW120612   2.057   6.125   3.177
 6571SOL    HW220613   1.945   6.062   3.279
 6572SOL     OW20614   6.456   4.489   5.003
 6572SOL    HW120615   6.521   4.455   5.071
 6572SOL    HW220616   6.477   4.585   4.982
 6573SOL     OW20617   3.287   0.845   2.984
 6573SOL    HW120618   3.226   0.782   2.936
 6573SOL    HW220619   3.368   0.795   3.015
 6574SOL     OW20620   2.214   6.296   2.161
 6574SOL    HW120621   2.184   6.336   2.248
 6574SOL    HW220622   2.133   6.272   2.107
 6575SOL     OW20623   0.855   1.567   1.785
 6575SOL    HW120624   0.911   1.615   1.719
 6575SOL    HW220625   0.913   1.517   1.849
 6576SOL     OW20626   1.154   5.967   6.151
 6576SOL    HW120627   1.251   5.950   6.165
 6576SOL    HW220628   1.117   6.019   6.227
 6577SOL     OW20629   0.330   1.736   3.693
 6577SOL    HW120630   0.236   1.709   3.712
 6577SOL    HW220631   0.380   1.660   3.651
 6578SOL     OW20632   6.638   5.431   3.414
 6578SOL    HW120633   6.729   5.391   3.425
 6578SOL    HW220634   6.603   5.457   3.504
 6579SOL     OW20635   0.021   4.053   4.408
 6579SOL    HW120636   0.007   4.100   4.495
 6579SOL    HW220637   0.118   4.037   4.394
 6580SOL     OW20638   6.371   1.095   0.880
 6580SOL    HW120639   6.337   1.068   0.790
 6580SOL    HW220640   6.368   1.195   0.888
 6581SOL     OW20641   3.724   1.233   5.419
 6581SOL    HW120642   3.784   1.282   5.356
 6581SOL    HW220643   3.772   1.153   5.455
 6582SOL     OW20644   1.381   6.812   2.084
 6582SOL    HW120645   1.417   6.742   2.022
 6582SOL    HW220646   1.350   6.769   2.169
 6583SOL     OW20647   4.731   1.568   5.663
 6583SOL    HW120648   4.827   1.589   5.679
 6583SOL    HW220649   4.675   1.620   5.728
 6584SOL     OW20650   5.531   2.044   6.427
 6584SOL    HW120651   5.602   2.115   6.422
 6584SOL    HW220652   5.575   1.955   6.444
 6585SOL     OW20653   0.088   1.384   0.205
 6585SOL    HW120654   0.052   1.291   0.202
 6585SOL    HW220655   0.068   1.424   0.295
 6586SOL     OW20656   6.557   2.264   6.105
 6586SOL    HW120657   6.462   2.268   6.075
 6586SOL    HW220658   6.616   2.240   6.027
 6587SOL     OW20659   3.064   5.774   4.429
 6587SOL    HW120660   3.053   5.739   4.336
 6587SOL    HW220661   3.076   5.874   4.426
 6588SOL     OW20662   1.831   4.122   1.407
 6588SOL    HW120663   1.905   4.054   1.408
 6588SOL    HW220664   1.782   4.118   1.494
 6589SOL     OW20665   5.006   0.638   6.964
 6589SOL    HW120666   5.065   0.672   0.014
 6589SOL    HW220667   4.913   0.669   6.979
 6590SOL     OW20668   0.375   1.990   5.070
 6590SOL    HW120669   0.309   2.046   5.122
 6590SOL    HW220670   0.403   1.912   5.126
 6591SOL     OW20671   5.949   6.704   2.726
 6591SOL    HW120672   6.031   6.699   2.783
 6591SOL    HW220673   5.879   6.644   2.763
 6592SOL     OW20674   4.485   6.890   4.127
 6592SOL    HW120675   4.514   6.970   4.180
 6592SOL    HW220676   4.521   6.807   4.169
 6593SOL     OW20677   2.224   2.297   3.536
 6593SOL    HW120678   2.274   2.247   3.465
 6593SOL    HW220679   2.271   2.287   3.623
 6594SOL     OW20680   4.502   1.034   0.318
 6594SOL    HW120681   4.482   0.971   0.393
 6594SOL    HW220682   4.417   1.068   0.280
 6595SOL     OW20683   0.773   4.108   1.616
 6595SOL    HW120684   0.795   4.018   1.578
 6595SOL    HW220685   0.673   4.118   1.619
 6596SOL     OW20686   3.781   0.462   5.797
 6596SOL    HW120687   3.871   0.460   5.842
 6596SOL    HW220688   3.721   0.396   5.843
 6597SOL     OW20689   0.716   6.608   3.854
 6597SOL    HW120690   0.707   6.598   3.954
 6597SOL    HW220691   0.626   6.597   3.811
 6598SOL     OW20692   1.666   5.774   5.203
 6598SOL    HW120693   1.666   5.692   5.145
 6598SOL    HW220694   1.707   5.850   5.153
 6599SOL     OW20695   3.962   5.409   5.424
 6599SOL    HW120696   3.874   5.455   5.416
 6599SOL    HW220697   3.964   5.331   5.361
 6600SOL     OW20698   5.211   4.965   4.979
 6600SOL    HW120699   5.282   4.897   4.960
 6600SOL    HW220700   5.217   5.039   4.912
 6601SOL     OW20701   0.597   0.366   0.386
 6601SOL    HW120702   0.688   0.324   0.388
 6601SOL    HW220703   0.574   0.393   0.293
 6602SOL     OW20704   7.009   2.403   1.075
 6602SOL    HW120705   0.070   2.447   1.106
 6602SOL    HW220706   0.008   2.313   1.036
 6603SOL     OW20707   1.327   3.205   4.466
 6603SOL    HW120708   1.354   3.120   4.420
 6603SOL    HW220709   1.385   3.280   4.435
 6604SOL     OW20710   2.718   6.103   1.655
 6604SOL    HW120711   2.649   6.173   1.639
 6604SOL    HW220712   2.760   6.076   1.568
 6605SOL     OW20713   4.461   4.732   0.741
 6605SOL    HW120714   4.525   4.701   0.811
 6605SOL    HW220715   4.376   4.761   0.784
 6606SOL     OW20716   4.433   0.063   2.692
 6606SOL    HW120717   4.523   0.098   2.669
 6606SOL    HW220718   4.413   7.005   2.637
 6607SOL     OW20719   1.874   1.172   1.737
 6607SOL    HW120720   1.919   1.117   1.667
 6607SOL    HW220721   1.905   1.267   1.730
 6608SOL     OW20722   5.335   3.668   2.477
 6608SOL    HW120723   5.384   3.642   2.395
 6608SOL    HW220724   5.378   3.749   2.518
 6609SOL     OW20725   5.179   0.902   6.591
 6609SOL    HW120726   5.101   0.884   6.531
 6609SOL    HW220727   5.151   0.962   6.665
 6610SOL     OW20728   2.176   0.372   0.214
 6610SOL    HW120729   2.150   0.367   0.118
 6610SOL    HW220730   2.094   0.371   0.271
 6611SOL     OW20731   6.790   2.243   3.027
 6611SOL    HW120732   6.743   2.317   3.075
 6611SOL    HW220733   6.875   2.279   2.986
 6612SOL     OW20734   1.495   4.062   6.809
 6612SOL    HW120735   1.400   4.094   6.817
 6612SOL    HW220736   1.522   4.015   6.893
 6613SOL     OW20737   5.691   6.143   3.498
 6613SOL    HW120738   5.599   6.160   3.460
 6613SOL    HW220739   5.717   6.048   3.479
 6614SOL     OW20740   5.072   6.532   6.596
 6614SOL    HW120741   5.043   6.585   6.517
 6614SOL    HW220742   5.051   6.583   6.680
 6615SOL     OW20743   0.654   4.090   4.583
 6615SOL    HW120744   0.597   4.009   4.579
 6615SOL    HW220745   0.741   4.069   4.627
 6616SOL     OW20746   3.866   1.553   5.980
 6616SOL    HW120747   3.960   1.585   5.986
 6616SOL    HW220748   3.857   1.490   5.903
 6617SOL     OW20749   3.790   6.967   3.408
 6617SOL    HW120750   3.849   6.901   3.455
 6617SOL    HW220751   3.769   6.934   3.316
 6618SOL     OW20752   1.262   2.694   2.185
 6618SOL    HW120753   1.310   2.663   2.103
 6618SOL    HW220754   1.166   2.712   2.163
 6619SOL     OW20755   4.990   6.831   4.225
 6619SOL    HW120756   4.952   6.812   4.316
 6619SOL    HW220757   5.076   6.782   4.214
 6620SOL     OW20758   1.747   3.046   5.764
 6620SOL    HW120759   1.728   3.083   5.855
 6620SOL    HW220760   1.677   2.978   5.742
 6621SOL     OW20761   3.093   3.968   0.877
 6621SOL    HW120762   3.145   3.919   0.808
 6621SOL    HW220763   3.013   4.012   0.834
 6622SOL     OW20764   5.986   5.748   1.146
 6622SOL    HW120765   6.000   5.731   1.244
 6622SOL    HW220766   5.928   5.675   1.108
 6623SOL     OW20767   3.569   3.135   2.088
 6623SOL    HW120768   3.541   3.045   2.055
 6623SOL    HW220769   3.562   3.138   2.187
 6624SOL     OW20770   2.719   6.217   4.578
 6624SOL    HW120771   2.796   6.199   4.639
 6624SOL    HW220772   2.633   6.211   4.630
 6625SOL     OW20773   6.025   1.661   6.359
 6625SOL    HW120774   6.081   1.744   6.357
 6625SOL    HW220775   6.063   1.595   6.294
 6626SOL     OW20776   3.308   4.855   3.080
 6626SOL    HW120777   3.299   4.823   3.175
 6626SOL    HW220778   3.240   4.810   3.023
 6627SOL     OW20779   2.479   0.859   5.797
 6627SOL    HW120780   2.522   0.930   5.741
 6627SOL    HW220781   2.384   0.847   5.769
 6628SOL     OW20782   4.974   5.280   2.545
 6628SOL    HW120783   5.049   5.231   2.501
 6628SOL    HW220784   4.890   5.226   2.537
 6629SOL     OW20785   3.548   6.242   1.098
 6629SOL    HW120786   3.545   6.186   1.015
 6629SOL    HW220787   3.547   6.184   1.179
 6630SOL     OW20788   3.588   1.755   0.562
 6630SOL    HW120789   3.634   1.713   0.641
 6630SOL    HW220790   3.604   1.853   0.563
 6631SOL     OW20791   4.406   6.839   2.542
 6631SOL    HW120792   4.451   6.750   2.536
 6631SOL    HW220793   4.352   6.855   2.460
 6632SOL     OW20794   0.112   1.342   1.454
 6632SOL    HW120795   0.020   1.332   1.415
 6632SOL    HW220796   0.169   1.264   1.427
 6633SOL     OW20797   1.421   5.664   6.063
 6633SOL    HW120798   1.364   5.588   6.093
 6633SOL    HW220799   1.475   5.637   5.984
 6634SOL     OW20800   6.367   3.484   6.181
 6634SOL    HW120801   6.347   3.416   6.252
 6634SOL    HW220802   6.346   3.447   6.091
 6635SOL     OW20803   4.324   5.176   3.456
 6635SOL    HW120804   4.301   5.198   3.361
 6635SOL    HW220805   4.374   5.089   3.458
 6636SOL     OW20806   1.666   3.308   5.204
 6636SOL    HW120807   1.690   3.212   5.194
 6636SOL    HW220808   1.701   3.343   5.290
 6637SOL     OW20809   0.953   0.070   6.988
 6637SOL    HW120810   0.906   0.072   6.900
 6637SOL    HW220811   1.028   0.004   6.985
 6638SOL     OW20812   3.605   4.952   4.778
 6638SOL    HW120813   3.572   4.947   4.872
 6638SOL    HW220814   3.704   4.968   4.778
 6639SOL     OW20815   5.866   5.788   6.044
 6639SOL    HW120816   5.883   5.735   5.960
 6639SOL    HW220817   5.789   5.850   6.029
 6640SOL     OW20818   0.292   1.789   4.703
 6640SOL    HW120819   0.277   1.822   4.797
 6640SOL    HW220820   0.313   1.867   4.644
 6641SOL     OW20821   3.183   3.593   6.781
 6641SOL    HW120822   3.223   3.645   6.857
 6641SOL    HW220823   3.086   3.616   6.773
 6642SOL     OW20824   2.717   5.503   6.964
 6642SOL    HW120825   2.649   5.516   6.892
 6642SOL    HW220826   2.737   5.590   7.007
 6643SOL     OW20827   6.318   4.559   7.004
 6643SOL    HW120828   6.274   4.530   0.066
 6643SOL    HW220829   6.366   4.481   6.964
 6644SOL     OW20830   3.065   4.698   1.740
 6644SOL    HW120831   3.012   4.673   1.821
 6644SOL    HW220832   3.066   4.622   1.675
 6645SOL     OW20833   6.859   5.072   0.684
 6645SOL    HW120834   6.898   4.988   0.721
 6645SOL    HW220835   6.934   5.131   0.652
 6646SOL     OW20836   4.829   5.554   4.663
 6646SOL    HW120837   4.802   5.642   4.701
 6646SOL    HW220838   4.919   5.562   4.621
 6647SOL     OW20839   3.070   1.381   2.782
 6647SOL    HW120840   3.057   1.467   2.733
 6647SOL    HW220841   3.068   1.399   2.881
 6648SOL     OW20842   3.521   5.602   2.887
 6648SOL    HW120843   3.606   5.616   2.836
 6648SOL    HW220844   3.475   5.520   2.854
 6649SOL     OW20845   5.733   2.216   6.364
 6649SOL    HW120846   5.796   2.151   6.320
 6649SOL    HW220847   5.684   2.268   6.295
 6650SOL     OW20848   4.120   1.215   3.197
 6650SOL    HW120849   4.028   1.207   3.158
 6650SOL    HW220850   4.176   1.138   3.167
 6651SOL     OW20851   1.533   2.176   0.635
 6651SOL    HW120852   1.574   2.091   0.604
 6651SOL    HW220853   1.543   2.246   0.564
 6652SOL     OW20854   6.498   4.229   0.235
 6652SOL    HW120855   6.536   4.175   0.310
 6652SOL    HW220856   6.553   4.312   0.221
 6653SOL     OW20857   3.951   3.693   3.345
 6653SOL    HW120858   3.877   3.635   3.309
 6653SOL    HW220859   3.913   3.779   3.379
 6654SOL     OW20860   2.203   3.032   1.130
 6654SOL    HW120861   2.225   2.988   1.217
 6654SOL    HW220862   2.138   2.975   1.079
 6655SOL     OW20863   2.541   0.058   1.699
 6655SOL    HW120864   2.477   7.005   1.704
 6655SOL    HW220865   2.523   0.121   1.775
 6656SOL     OW20866   6.906   1.192   2.514
 6656SOL    HW120867   6.871   1.285   2.514
 6656SOL    HW220868   6.847   1.134   2.457
 6657SOL     OW20869   4.346   6.662   6.566
 6657SOL    HW120870   4.392   6.653   6.477
 6657SOL    HW220871   4.365   6.581   6.622
 6658SOL     OW20872   6.245   0.985   5.743
 6658SOL    HW120873   6.339   1.015   5.759
 6658SOL    HW220874   6.237   0.888   5.763
 6659SOL     OW20875   2.387   2.168   6.907
 6659SOL    HW120876   2.483   2.193   6.900
 6659SOL    HW220877   2.369   2.128   6.997
 6660SOL     OW20878   6.910   6.011   1.390
 6660SOL    HW120879   6.993   6.016   1.446
 6660SOL    HW220880   6.850   6.088   1.414
 6661SOL     OW20881   6.774   4.992   3.900
 6661SOL    HW120882   6.871   4.972   3.914
 6661SOL    HW220883   6.742   5.055   3.972
 6662SOL     OW20884   1.027   1.118   0.135
 6662SOL    HW120885   0.983   1.037   0.096
 6662SOL    HW220886   1.126   1.104   0.136
 6663SOL     OW20887   6.829   5.688   3.601
 6663SOL    HW120888   6.780   5.702   3.687
 6663SOL    HW220889   6.838   5.590   3.583
 6664SOL     OW20890   1.310   0.005   1.482
 6664SOL    HW120891   1.400   6.985   1.477
 6664SOL    HW220892   1.277   0.026   1.389
 6665SOL     OW20893   1.305   6.786   3.627
 6665SOL    HW120894   1.329   6.791   3.724
 6665SOL    HW220895   1.236   6.856   3.606
 6666SOL     OW20896   6.115   1.860   5.178
 6666SOL    HW120897   6.093   1.765   5.200
 6666SOL    HW220898   6.048   1.895   5.112
 6667SOL     OW20899   6.455   4.719   4.847
 6667SOL    HW120900   6.515   4.673   4.782
 6667SOL    HW220901   6.397   4.785   4.800
 6668SOL     OW20902   0.178   5.967   2.271
 6668SOL    HW120903   0.177   5.891   2.336
 6668SOL    HW220904   0.168   5.932   2.178
 6669SOL     OW20905   2.156   3.877   3.578
 6669SOL    HW120906   2.212   3.796   3.598
 6669SOL    HW220907   2.175   3.948   3.646
 6670SOL     OW20908   3.607   4.479   6.618
 6670SOL    HW120909   3.593   4.454   6.522
 6670SOL    HW220910   3.646   4.400   6.667
 6671SOL     OW20911   5.775   4.839   0.392
 6671SOL    HW120912   5.774   4.876   0.485
 6671SOL    HW220913   5.709   4.889   0.336
 6672SOL     OW20914   0.841   0.822   5.197
 6672SOL    HW120915   0.844   0.731   5.155
 6672SOL    HW220916   0.856   0.814   5.295
 6673SOL     OW20917   5.119   5.793   2.540
 6673SOL    HW120918   5.104   5.702   2.580
 6673SOL    HW220919   5.122   5.861   2.613
 6674SOL     OW20920   0.683   5.520   5.853
 6674SOL    HW120921   0.704   5.572   5.936
 6674SOL    HW220922   0.768   5.495   5.807
 6675SOL     OW20923   5.699   3.997   0.770
 6675SOL    HW120924   5.721   4.066   0.839
 6675SOL    HW220925   5.633   4.034   0.705
 6676SOL     OW20926   0.550   3.590   5.746
 6676SOL    HW120927   0.584   3.514   5.691
 6676SOL    HW220928   0.590   3.586   5.837
 6677SOL     OW20929   0.102   3.170   0.039
 6677SOL    HW120930   0.099   3.071   0.050
 6677SOL    HW220931   0.194   3.199   0.013
 6678SOL     OW20932   1.206   2.480   6.711
 6678SOL    HW120933   1.116   2.468   6.753
 6678SOL    HW220934   1.263   2.400   6.729
 6679SOL     OW20935   1.603   1.648   4.934
 6679SOL    HW120936   1.639   1.667   4.843
 6679SOL    HW220937   1.503   1.645   4.930
 6680SOL     OW20938   4.077   5.892   5.964
 6680SOL    HW120939   4.050   5.959   6.033
 6680SOL    HW220940   4.151   5.928   5.909
 6681SOL     OW20941   5.435   6.269   6.976
 6681SOL    HW120942   5.510   6.331   6.998
 6681SOL    HW220943   5.449   6.182   0.000
 6682SOL     OW20944   0.415   4.626   2.690
 6682SOL    HW120945   0.421   4.528   2.713
 6682SOL    HW220946   0.477   4.646   2.614
 6683SOL     OW20947   5.191   2.041   5.434
 6683SOL    HW120948   5.132   2.008   5.361
 6683SOL    HW220949   5.195   1.972   5.507
 6684SOL     OW20950   2.044   6.714   1.632
 6684SOL    HW120951   2.044   6.704   1.731
 6684SOL    HW220952   1.960   6.762   1.603
 6685SOL     OW20953   5.183   1.812   5.979
 6685SOL    HW120954   5.273   1.830   5.940
 6685SOL    HW220955   5.134   1.899   5.990
 6686SOL     OW20956   6.041   4.036   4.544
 6686SOL    HW120957   6.083   4.125   4.561
 6686SOL    HW220958   6.077   3.997   4.460
 6687SOL     OW20959   1.052   1.777   0.779
 6687SOL    HW120960   1.084   1.802   0.688
 6687SOL    HW220961   0.958   1.808   0.791
 6688SOL     OW20962   0.250   4.803   2.457
 6688SOL    HW120963   0.285   4.888   2.419
 6688SOL    HW220964   0.327   4.749   2.492
 6689SOL     OW20965   4.293   2.849   0.895
 6689SOL    HW120966   4.211   2.821   0.945
 6689SOL    HW220967   4.362   2.883   0.959
 6690SOL     OW20968   2.448   1.285   1.816
 6690SOL    HW120969   2.547   1.275   1.799
 6690SOL    HW220970   2.411   1.199   1.849
 6691SOL     OW20971   2.823   5.754   0.905
 6691SOL    HW120972   2.903   5.749   0.846
 6691SOL    HW220973   2.850   5.733   0.999
 6692SOL     OW20974   2.795   4.516   5.392
 6692SOL    HW120975   2.792   4.417   5.410
 6692SOL    HW220976   2.848   4.534   5.309
 6693SOL     OW20977   4.316   3.661   5.959
 6693SOL    HW120978   4.403   3.688   5.917
 6693SOL    HW220979   4.275   3.587   5.907
 6694SOL     OW20980   4.320   5.580   0.264
 6694SOL    HW120981   4.414   5.607   0.245
 6694SOL    HW220982   4.311   5.551   0.359
 6695SOL     OW20983   0.545   2.276   6.317
 6695SOL    HW120984   0.526   2.188   6.361
 6695SOL    HW220985   0.611   2.327   6.371
 6696SOL     OW20986   1.884   2.764   1.297
 6696SOL    HW120987   1.886   2.855   1.338
 6696SOL    HW220988   1.813   2.762   1.226
 6697SOL     OW20989   4.608   2.197   2.723
 6697SOL    HW120990   4.522   2.243   2.744
 6697SOL    HW220991   4.629   2.131   2.796
 6698SOL     OW20992   3.545   2.493   0.880
 6698SOL    HW120993   3.457   2.462   0.844
 6698SOL    HW220994   3.598   2.534   0.806
 6699SOL     OW20995   3.994   4.283   6.685
 6699SOL    HW120996   4.030   4.260   6.595
 6699SOL    HW220997   4.039   4.227   6.755
 6700SOL     OW20998   0.373   5.476   0.391
 6700SOL    HW120999   0.341   5.496   0.298
 6700SOL    HW221000   0.340   5.547   0.453
 6701SOL     OW21001   5.981   2.745   1.220
 6701SOL    HW121002   5.885   2.745   1.193
 6701SOL    HW221003   6.032   2.806   1.159
 6702SOL     OW21004   2.852   1.961   0.150
 6702SOL    HW121005   2.911   2.041   0.163
 6702SOL    HW221006   2.787   1.955   0.225
 6703SOL     OW21007   6.208   2.239   6.962
 6703SOL    HW121008   6.305   2.249   6.939
 6703SOL    HW221009   6.170   2.329   6.983
 6704SOL     OW21010   4.416   2.437   2.506
 6704SOL    HW121011   4.372   2.509   2.451
 6704SOL    HW221012   4.493   2.399   2.454
 6705SOL     OW21013   0.259   2.401   2.120
 6705SOL    HW121014   0.174   2.415   2.069
 6705SOL    HW221015   0.333   2.452   2.075
 6706SOL     OW21016   0.853   3.554   0.374
 6706SOL    HW121017   0.860   3.582   0.279
 6706SOL    HW221018   0.874   3.632   0.434
 6707SOL     OW21019   6.119   6.200   4.889
 6707SOL    HW121020   6.092   6.126   4.827
 6707SOL    HW221021   6.039   6.233   4.938
 6708SOL     OW21022   1.459   5.587   2.613
 6708SOL    HW121023   1.468   5.687   2.622
 6708SOL    HW221024   1.546   5.544   2.638
 6709SOL     OW21025   3.949   6.486   1.467
 6709SOL    HW121026   3.868   6.477   1.525
 6709SOL    HW221027   3.998   6.399   1.465
 6710SOL     OW21028   2.019   2.368   5.727
 6710SOL    HW121029   2.040   2.462   5.702
 6710SOL    HW221030   1.939   2.337   5.674
 6711SOL     OW21031   5.333   3.826   6.580
 6711SOL    HW121032   5.362   3.913   6.620
 6711SOL    HW221033   5.413   3.768   6.565
 6712SOL     OW21034   4.038   5.438   0.249
 6712SOL    HW121035   3.978   5.517   0.263
 6712SOL    HW221036   4.108   5.461   0.182
 6713SOL     OW21037   2.587   1.912   1.566
 6713SOL    HW121038   2.535   1.997   1.580
 6713SOL    HW221039   2.682   1.926   1.594
 6714SOL     OW21040   5.034   6.929   5.289
 6714SOL    HW121041   5.118   6.982   5.279
 6714SOL    HW221042   4.955   6.986   5.267
 6715SOL     OW21043   0.440   1.097   0.230
 6715SOL    HW121044   0.417   1.097   0.327
 6715SOL    HW221045   0.409   1.183   0.189
 6716SOL     OW21046   1.500   6.161   0.633
 6716SOL    HW121047   1.595   6.134   0.652
 6716SOL    HW221048   1.492   6.186   0.536
 6717SOL     OW21049   3.912   3.105   0.488
 6717SOL    HW121050   3.941   3.181   0.430
 6717SOL    HW221051   3.921   3.131   0.585
 6718SOL     OW21052   3.969   5.703   6.332
 6718SOL    HW121053   3.964   5.720   6.233
 6718SOL    HW221054   3.953   5.788   6.381
 6719SOL     OW21055   0.267   7.005   6.024
 6719SOL    HW121056   0.315   0.066   6.047
 6719SOL    HW221057   0.307   6.965   5.941
 6720SOL     OW21058   2.295   5.944   1.791
 6720SOL    HW121059   2.203   5.978   1.770
 6720SOL    HW221060   2.290   5.845   1.806
 6721SOL     OW21061   5.205   6.630   4.724
 6721SOL    HW121062   5.281   6.694   4.720
 6721SOL    HW221063   5.135   6.665   4.787
 6722SOL     OW21064   4.928   3.507   0.807
 6722SOL    HW121065   5.020   3.471   0.818
 6722SOL    HW221066   4.869   3.472   0.880
 6723SOL     OW21067   1.907   6.408   3.296
 6723SOL    HW121068   1.865   6.345   3.361
 6723SOL    HW221069   1.892   6.502   3.326
 6724SOL     OW21070   2.280   4.331   6.158
 6724SOL    HW121071   2.249   4.312   6.065
 6724SOL    HW221072   2.200   4.345   6.217
 6725SOL     OW21073   1.351   4.423   2.875
 6725SOL    HW121074   1.387   4.344   2.925
 6725SOL    HW221075   1.258   4.402   2.843
 6726SOL     OW21076   1.624   2.788   4.515
 6726SOL    HW121077   1.534   2.831   4.524
 6726SOL    HW221078   1.622   2.720   4.442
 6727SOL     OW21079   5.517   3.560   6.304
 6727SOL    HW121080   5.525   3.617   6.386
 6727SOL    HW221081   5.466   3.610   6.234
 6728SOL     OW21082   3.776   2.087   4.617
 6728SOL    HW121083   3.741   2.112   4.707
 6728SOL    HW221084   3.876   2.095   4.617
 6729SOL     OW21085   6.684   0.796   2.232
 6729SOL    HW121086   6.783   0.813   2.239
 6729SOL    HW221087   6.660   0.718   2.288
 6730SOL     OW21088   2.813   6.904   0.070
 6730SOL    HW121089   2.850   6.909   0.162
 6730SOL    HW221090   2.715   6.886   0.074
 6731SOL     OW21091   2.927   4.507   1.382
 6731SOL    HW121092   2.945   4.420   1.336
 6731SOL    HW221093   2.857   4.495   1.452
 6732SOL     OW21094   2.395   6.179   0.323
 6732SOL    HW121095   2.350   6.226   0.399
 6732SOL    HW221096   2.367   6.083   0.322
 6733SOL     OW21097   4.410   5.684   5.795
 6733SOL    HW121098   4.466   5.697   5.877
 6733SOL    HW221099   4.431   5.756   5.729
 6734SOL     OW21100   0.958   3.261   5.315
 6734SOL    HW121101   1.004   3.346   5.339
 6734SOL    HW221102   1.009   3.214   5.243
 6735SOL     OW21103   0.238   5.417   5.125
 6735SOL    HW121104   0.305   5.489   5.146
 6735SOL    HW221105   0.146   5.453   5.135
 6736SOL     OW21106   2.566   3.458   1.221
 6736SOL    HW121107   2.518   3.371   1.206
 6736SOL    HW221108   2.555   3.485   1.317
 6737SOL     OW21109   2.303   1.143   2.188
 6737SOL    HW121110   2.246   1.081   2.240
 6737SOL    HW221111   2.303   1.116   2.092
 6738SOL     OW21112   2.537   1.710   2.716
 6738SOL    HW121113   2.489   1.622   2.714
 6738SOL    HW221114   2.631   1.698   2.683
 6739SOL     OW21115   3.558   5.690   5.184
 6739SOL    HW121116   3.651   5.711   5.212
 6739SOL    HW221117   3.520   5.767   5.133
 6740SOL     OW21118   1.777   0.978   4.318
 6740SOL    HW121119   1.846   1.043   4.347
 6740SOL    HW221120   1.781   0.897   4.376
 6741SOL     OW21121   5.537   1.185   5.725
 6741SOL    HW121122   5.538   1.249   5.648
 6741SOL    HW221123   5.477   1.219   5.797
 6742SOL     OW21124   0.306   5.220   4.937
 6742SOL    HW121125   0.270   5.136   4.980
 6742SOL    HW221126   0.271   5.300   4.987
 6743SOL     OW21127   4.125   2.807   0.539
 6743SOL    HW121128   4.160   2.901   0.540
 6743SOL    HW221129   4.042   2.803   0.484
 6744SOL     OW21130   4.145   4.505   5.557
 6744SOL    HW121131   4.179   4.501   5.651
 6744SOL    HW221132   4.107   4.416   5.531
 6745SOL     OW21133   1.294   4.712   3.314
 6745SOL    HW121134   1.386   4.737   3.343
 6745SOL    HW221135   1.228   4.744   3.381
 6746SOL     OW21136   0.593   1.176   1.372
 6746SOL    HW121137   0.558   1.267   1.393
 6746SOL    HW221138   0.681   1.183   1.326
 6747SOL     OW21139   5.644   0.031   4.291
 6747SOL    HW121140   5.641   0.131   4.297
 6747SOL    HW221141   5.563   7.022   4.241
 6748SOL     OW21142   0.858   0.373   1.878
 6748SOL    HW121143   0.872   0.438   1.953
 6748SOL    HW221144   0.869   0.279   1.912
 6749SOL     OW21145   3.588   0.743   6.848
 6749SOL    HW121146   3.604   0.721   6.751
 6749SOL    HW221147   3.624   0.669   6.905
 6750SOL     OW21148   2.620   2.159   4.329
 6750SOL    HW121149   2.600   2.248   4.369
 6750SOL    HW221150   2.680   2.108   4.391
 6751SOL     OW21151   2.566   2.519   4.196
 6751SOL    HW121152   2.633   2.450   4.167
 6751SOL    HW221153   2.577   2.537   4.294
 6752SOL     OW21154   6.009   3.233   0.992
 6752SOL    HW121155   6.028   3.174   1.070
 6752SOL    HW221156   6.044   3.191   0.909
 6753SOL     OW21157   3.992   1.919   6.023
 6753SOL    HW121158   4.001   1.930   6.122
 6753SOL    HW221159   3.968   2.006   5.981
 6754SOL     OW21160   6.197   1.662   5.940
 6754SOL    HW121161   6.191   1.573   5.984
 6754SOL    HW221162   6.220   1.731   6.009
 6755SOL     OW21163   5.707   2.123   3.504
 6755SOL    HW121164   5.665   2.202   3.549
 6755SOL    HW221165   5.672   2.116   3.410
 6756SOL     OW21166   4.546   4.890   4.343
 6756SOL    HW121167   4.493   4.810   4.374
 6756SOL    HW221168   4.487   4.949   4.289
 6757SOL     OW21169   4.753   6.260   1.054
 6757SOL    HW121170   4.764   6.359   1.053
 6757SOL    HW221171   4.659   6.238   1.080
 6758SOL     OW21172   5.222   3.341   2.021
 6758SOL    HW121173   5.318   3.366   2.026
 6758SOL    HW221174   5.209   3.249   2.057
 6759SOL     OW21175   1.225   4.732   2.913
 6759SOL    HW121176   1.218   4.742   2.814
 6759SOL    HW221177   1.233   4.636   2.937
 6760SOL     OW21178   0.174   4.607   4.321
 6760SOL    HW121179   0.202   4.538   4.253
 6760SOL    HW221180   0.236   4.685   4.315
 6761SOL     OW21181   5.127   2.789   5.384
 6761SOL    HW121182   5.118   2.690   5.393
 6761SOL    HW221183   5.191   2.823   5.453
 6762SOL     OW21184   6.177   5.360   3.807
 6762SOL    HW121185   6.236   5.434   3.837
 6762SOL    HW221186   6.166   5.364   3.707
 6763SOL     OW21187   6.052   6.926   5.402
 6763SOL    HW121188   6.039   0.001   5.418
 6763SOL    HW221189   5.980   6.892   5.342
 6764SOL     OW21190   2.943   3.756   6.494
 6764SOL    HW121191   2.913   3.738   6.588
 6764SOL    HW221192   3.019   3.821   6.495
 6765SOL     OW21193   6.679   4.558   3.302
 6765SOL    HW121194   6.767   4.518   3.279
 6765SOL    HW221195   6.693   4.644   3.352
 6766SOL     OW21196   1.522   1.181   5.411
 6766SOL    HW121197   1.552   1.211   5.501
 6766SOL    HW221198   1.590   1.117   5.374
 6767SOL     OW21199   0.509   2.571   6.477
 6767SOL    HW121200   0.594   2.623   6.467
 6767SOL    HW221201   0.528   2.486   6.526
 6768SOL     OW21202   0.807   0.292   4.244
 6768SOL    HW121203   0.735   0.235   4.204
 6768SOL    HW221204   0.798   0.385   4.209
 6769SOL     OW21205   2.435   2.692   5.798
 6769SOL    HW121206   2.503   2.739   5.740
 6769SOL    HW221207   2.394   2.759   5.860
 6770SOL     OW21208   0.079   1.839   3.199
 6770SOL    HW121209   0.152   1.905   3.179
 6770SOL    HW221210   7.015   1.888   3.211
 6771SOL     OW21211   3.498   2.068   3.760
 6771SOL    HW121212   3.560   2.016   3.819
 6771SOL    HW221213   3.545   2.093   3.675
 6772SOL     OW21214   6.244   1.568   2.614
 6772SOL    HW121215   6.271   1.572   2.711
 6772SOL    HW221216   6.308   1.509   2.565
 6773SOL     OW21217   0.042   6.095   1.814
 6773SOL    HW121218   7.004   6.033   1.766
 6773SOL    HW221219   0.040   6.185   1.770
 6774SOL     OW21220   2.241   2.258   5.623
 6774SOL    HW121221   2.181   2.299   5.692
 6774SOL    HW221222   2.199   2.266   5.533
 6775SOL     OW21223   0.618   1.727   4.703
 6775SOL    HW121224   0.643   1.804   4.762
 6775SOL    HW221225   0.606   1.759   4.610
 6776SOL     OW21226   3.616   4.189   1.746
 6776SOL    HW121227   3.602   4.288   1.743
 6776SOL    HW221228   3.684   4.163   1.678
 6777SOL     OW21229   5.198   5.567   1.273
 6777SOL    HW121230   5.106   5.539   1.299
 6777SOL    HW221231   5.265   5.508   1.317
 6778SOL     OW21232   6.886   4.056   2.354
 6778SOL    HW121233   6.838   3.978   2.313
 6778SOL    HW221234   6.983   4.034   2.364
 6779SOL     OW21235   5.749   4.504   5.813
 6779SOL    HW121236   5.683   4.471   5.745
 6779SOL    HW221237   5.821   4.436   5.825
 6780SOL     OW21238   2.946   2.189   2.708
 6780SOL    HW121239   2.961   2.226   2.616
 6780SOL    HW221240   2.910   2.096   2.699
 6781SOL     OW21241   6.886   1.124   3.972
 6781SOL    HW121242   6.920   1.037   4.007
 6781SOL    HW221243   6.961   1.190   3.966
 6782SOL     OW21244   6.791   1.678   3.350
 6782SOL    HW121245   6.700   1.690   3.310
 6782SOL    HW221246   6.831   1.592   3.318
 6783SOL     OW21247   1.412   4.929   5.191
 6783SOL    HW121248   1.322   4.887   5.176
 6783SOL    HW221249   1.402   5.014   5.243
 6784SOL     OW21250   1.583   3.399   1.704
 6784SOL    HW121251   1.636   3.366   1.783
 6784SOL    HW221252   1.584   3.499   1.704
 6785SOL     OW21253   5.341   5.161   4.539
 6785SOL    HW121254   5.350   5.239   4.602
 6785SOL    HW221255   5.359   5.076   4.588
 6786SOL     OW21256   6.904   2.322   6.934
 6786SOL    HW121257   6.962   2.374   6.871
 6786SOL    HW221258   6.817   2.299   6.889
 6787SOL     OW21259   3.953   2.033   6.687
 6787SOL    HW121260   3.915   2.105   6.745
 6787SOL    HW221261   3.879   1.976   6.652
 6788SOL     OW21262   0.388   4.158   3.382
 6788SOL    HW121263   0.449   4.189   3.308
 6788SOL    HW221264   0.428   4.077   3.424
 6789SOL     OW21265   6.531   3.967   4.173
 6789SOL    HW121266   6.610   3.969   4.112
 6789SOL    HW221267   6.543   3.894   4.240
 6790SOL     OW21268   0.649   4.932   5.627
 6790SOL    HW121269   0.699   4.893   5.550
 6790SOL    HW221270   0.655   5.032   5.624
 6791SOL     OW21271   3.805   0.707   3.796
 6791SOL    HW121272   3.849   0.636   3.741
 6791SOL    HW221273   3.802   0.793   3.745
 6792SOL     OW21274   4.174   0.248   5.893
 6792SOL    HW121275   4.116   0.179   5.850
 6792SOL    HW221276   4.257   0.260   5.839
 6793SOL     OW21277   2.333   3.304   0.851
 6793SOL    HW121278   2.354   3.362   0.772
 6793SOL    HW221279   2.324   3.209   0.822
 6794SOL     OW21280   5.112   1.595   5.581
 6794SOL    HW121281   5.048   1.554   5.646
 6794SOL    HW221282   5.094   1.559   5.490
 6795SOL     OW21283   0.814   1.192   1.247
 6795SOL    HW121284   0.907   1.162   1.265
 6795SOL    HW221285   0.813   1.251   1.166
 6796SOL     OW21286   6.678   0.888   2.521
 6796SOL    HW121287   6.586   0.927   2.517
 6796SOL    HW221288   6.676   0.801   2.572
 6797SOL     OW21289   0.244   2.410   1.172
 6797SOL    HW121290   0.298   2.468   1.111
 6797SOL    HW221291   0.302   2.337   1.207
 6798SOL     OW21292   5.236   0.483   1.877
 6798SOL    HW121293   5.184   0.530   1.805
 6798SOL    HW221294   5.297   0.548   1.922
 6799SOL     OW21295   5.806   0.951   3.475
 6799SOL    HW121296   5.718   0.931   3.431
 6799SOL    HW221297   5.789   0.984   3.568
 6800SOL     OW21298   6.975   1.978   1.011
 6800SOL    HW121299   6.998   1.934   1.097
 6800SOL    HW221300   0.009   2.059   0.998
 6801SOL     OW21301   0.574   5.705   5.642
 6801SOL    HW121302   0.483   5.741   5.661
 6801SOL    HW221303   0.598   5.637   5.712
 6802SOL     OW21304   2.945   5.151   1.565
 6802SOL    HW121305   2.952   5.086   1.640
 6802SOL    HW221306   2.932   5.244   1.602
 6803SOL     OW21307   5.034   4.913   5.764
 6803SOL    HW121308   5.099   4.864   5.706
 6803SOL    HW221309   5.002   4.995   5.715
 6804SOL     OW21310   2.966   4.868   2.957
 6804SOL    HW121311   2.993   4.875   3.053
 6804SOL    HW221312   2.889   4.805   2.949
 6805SOL     OW21313   0.206   4.189   5.374
 6805SOL    HW121314   0.164   4.164   5.461
 6805SOL    HW221315   0.242   4.108   5.329
 6806SOL     OW21316   0.094   1.325   2.319
 6806SOL    HW121317   0.193   1.312   2.321
 6806SOL    HW221318   0.065   1.369   2.403
 6807SOL     OW21319   3.463   3.492   1.459
 6807SOL    HW121320   3.387   3.499   1.523
 6807SOL    HW221321   3.456   3.565   1.390
 6808SOL     OW21322   3.730   0.934   4.290
 6808SOL    HW121323   3.695   0.993   4.364
 6808SOL    HW221324   3.693   0.966   4.203
 6809SOL     OW21325   5.464   3.477   1.884
 6809SOL    HW121326   5.467   3.576   1.868
 6809SOL    HW221327   5.405   3.434   1.817
 6810SOL     OW21328   2.719   0.679   4.026
 6810SOL    HW121329   2.670   0.668   4.112
 6810SOL    HW221330   2.723   0.591   3.978
 6811SOL     OW21331   6.564   1.262   1.234
 6811SOL    HW121332   6.515   1.177   1.251
 6811SOL    HW221333   6.659   1.242   1.211
 6812SOL     OW21334   3.206   4.222   5.229
 6812SOL    HW121335   3.257   4.192   5.149
 6812SOL    HW221336   3.265   4.218   5.310
 6813SOL     OW21337   6.314   3.747   1.870
 6813SOL    HW121338   6.284   3.795   1.952
 6813SOL    HW221339   6.383   3.801   1.822
 6814SOL     OW21340   5.007   1.135   6.329
 6814SOL    HW121341   5.060   1.190   6.393
 6814SOL    HW221342   4.916   1.175   6.316
 6815SOL     OW21343   2.172   4.902   6.274
 6815SOL    HW121344   2.131   4.812   6.263
 6815SOL    HW221345   2.261   4.893   6.318
 6816SOL     OW21346   0.767   1.356   3.016
 6816SOL    HW121347   0.815   1.332   3.101
 6816SOL    HW221348   0.689   1.415   3.037
 6817SOL     OW21349   3.736   2.061   2.200
 6817SOL    HW121350   3.741   2.101   2.291
 6817SOL    HW221351   3.703   2.130   2.135
 6818SOL     OW21352   1.808   6.723   5.655
 6818SOL    HW121353   1.868   6.799   5.680
 6818SOL    HW221354   1.713   6.754   5.656
 6819SOL     OW21355   4.382   4.549   2.125
 6819SOL    HW121356   4.357   4.598   2.042
 6819SOL    HW221357   4.404   4.454   2.103
 6820SOL     OW21358   2.946   5.865   1.288
 6820SOL    HW121359   2.902   5.931   1.350
 6820SOL    HW221360   2.954   5.905   1.197
 6821SOL     OW21361   4.039   2.700   5.335
 6821SOL    HW121362   4.079   2.623   5.286
 6821SOL    HW221363   3.990   2.666   5.416
 6822SOL     OW21364   6.794   2.782   6.739
 6822SOL    HW121365   6.796   2.873   6.780
 6822SOL    HW221366   6.810   2.789   6.641
 6823SOL     OW21367   5.967   3.511   6.862
 6823SOL    HW121368   6.030   3.435   6.852
 6823SOL    HW221369   5.875   3.476   6.880
 6824SOL     OW21370   0.276   1.942   5.766
 6824SOL    HW121371   0.245   1.995   5.845
 6824SOL    HW221372   0.321   2.002   5.700
 6825SOL     OW21373   6.057   5.344   1.370
 6825SOL    HW121374   6.042   5.247   1.351
 6825SOL    HW221375   6.137   5.354   1.430
 6826SOL     OW21376   0.275   3.918   2.988
 6826SOL    HW121377   0.192   3.866   3.009
 6826SOL    HW221378   0.300   3.902   2.892
 6827SOL     OW21379   4.681   5.980   4.974
 6827SOL    HW121380   4.595   5.932   4.988
 6827SOL    HW221381   4.758   5.921   5.001
 6828SOL     OW21382   3.313   1.788   2.474
 6828SOL    HW121383   3.222   1.810   2.440
 6828SOL    HW221384   3.369   1.753   2.399
 6829SOL     OW21385   4.549   6.692   4.657
 6829SOL    HW121386   4.588   6.681   4.565
 6829SOL    HW221387   4.461   6.646   4.662
 6830SOL     OW21388   5.087   0.063   3.188
 6830SOL    HW121389   5.083   0.141   3.251
 6830SOL    HW221390   4.998   0.051   3.144
 6831SOL     OW21391   1.433   1.505   6.312
 6831SOL    HW121392   1.386   1.562   6.245
 6831SOL    HW221393   1.532   1.509   6.295
 6832SOL     OW21394   2.893   2.610   0.209
 6832SOL    HW121395   2.951   2.680   0.165
 6832SOL    HW221396   2.918   2.520   0.174
 6833SOL     OW21397   2.798   5.120   6.060
 6833SOL    HW121398   2.760   5.027   6.067
 6833SOL    HW221399   2.728   5.187   6.084
 6834SOL     OW21400   5.421   0.505   0.853
 6834SOL    HW121401   5.457   0.590   0.891
 6834SOL    HW221402   5.451   0.495   0.758
 6835SOL     OW21403   2.329   1.902   4.522
 6835SOL    HW121404   2.335   1.950   4.609
 6835SOL    HW221405   2.394   1.826   4.522
 6836SOL     OW21406   1.952   4.649   6.262
 6836SOL    HW121407   1.929   4.642   6.359
 6836SOL    HW221408   1.915   4.569   6.214
 6837SOL     OW21409   0.564   0.232   1.592
 6837SOL    HW121410   0.579   0.322   1.634
 6837SOL    HW221411   0.549   0.243   1.494
 6838SOL     OW21412   3.087   4.428   5.330
 6838SOL    HW121413   3.135   4.355   5.281
 6838SOL    HW221414   3.025   4.476   5.268
 6839SOL     OW21415   5.675   2.437   3.857
 6839SOL    HW121416   5.666   2.418   3.759
 6839SOL    HW221417   5.641   2.359   3.909
 6840SOL     OW21418   2.756   6.676   5.418
 6840SOL    HW121419   2.723   6.617   5.491
 6840SOL    HW221420   2.811   6.622   5.354
 6841SOL     OW21421   4.124   5.495   1.525
 6841SOL    HW121422   4.080   5.541   1.448
 6841SOL    HW221423   4.134   5.397   1.504
 6842SOL     OW21424   6.943   4.129   6.377
 6842SOL    HW121425   6.891   4.048   6.405
 6842SOL    HW221426   0.009   4.129   6.423
 6843SOL     OW21427   3.480   1.762   2.204
 6843SOL    HW121428   3.444   1.823   2.134
 6843SOL    HW221429   3.577   1.745   2.188
 6844SOL     OW21430   5.051   5.091   4.096
 6844SOL    HW121431   5.054   5.191   4.089
 6844SOL    HW221432   4.955   5.062   4.102
 6845SOL     OW21433   5.062   4.606   1.987
 6845SOL    HW121434   5.123   4.680   2.013
 6845SOL    HW221435   4.970   4.642   1.970
 6846SOL     OW21436   3.735   2.915   2.265
 6846SOL    HW121437   3.791   2.979   2.212
 6846SOL    HW221438   3.701   2.843   2.204
 6847SOL     OW21439   5.906   2.919   1.799
 6847SOL    HW121440   5.993   2.897   1.754
 6847SOL    HW221441   5.892   3.018   1.798
 6848SOL     OW21442   1.237   6.354   3.561
 6848SOL    HW121443   1.279   6.427   3.506
 6848SOL    HW221444   1.185   6.294   3.501
 6849SOL     OW21445   3.968   6.042   4.136
 6849SOL    HW121446   3.905   6.120   4.136
 6849SOL    HW221447   4.051   6.066   4.085
 6850SOL     OW21448   5.135   3.085   2.864
 6850SOL    HW121449   5.230   3.086   2.897
 6850SOL    HW221450   5.120   3.002   2.810
 6851SOL     OW21451   1.734   5.163   5.758
 6851SOL    HW121452   1.684   5.124   5.835
 6851SOL    HW221453   1.820   5.113   5.746
 6852SOL     OW21454   1.405   4.455   1.724
 6852SOL    HW121455   1.392   4.550   1.697
 6852SOL    HW221456   1.415   4.398   1.642
 6853SOL     OW21457   0.575   4.529   5.525
 6853SOL    HW121458   0.531   4.613   5.493
 6853SOL    HW221459   0.505   4.460   5.544
 6854SOL     OW21460   0.047   3.131   6.688
 6854SOL    HW121461   6.983   3.088   6.714
 6854SOL    HW221462   0.073   3.199   6.758
 6855SOL     OW21463   2.944   6.560   2.505
 6855SOL    HW121464   3.026   6.581   2.452
 6855SOL    HW221465   2.904   6.474   2.474
 6856SOL     OW21466   5.924   3.796   5.067
 6856SOL    HW121467   5.954   3.824   5.158
 6856SOL    HW221468   5.921   3.696   5.062
 6857SOL     OW21469   2.995   2.263   6.246
 6857SOL    HW121470   2.895   2.266   6.239
 6857SOL    HW221471   3.025   2.318   6.323
 6858SOL     OW21472   3.930   3.044   5.004
 6858SOL    HW121473   3.965   3.037   5.097
 6858SOL    HW221474   3.989   2.992   4.942
 6859SOL     OW21475   3.176   0.029   0.650
 6859SOL    HW121476   3.271   0.049   0.676
 6859SOL    HW221477   3.149   0.088   0.574
 6860SOL     OW21478   5.734   4.180   0.542
 6860SOL    HW121479   5.686   4.266   0.556
 6860SOL    HW221480   5.741   4.161   0.444
 6861SOL     OW21481   5.770   5.336   0.355
 6861SOL    HW121482   5.777   5.433   0.331
 6861SOL    HW221483   5.833   5.283   0.298
 6862SOL     OW21484   3.452   5.545   4.637
 6862SOL    HW121485   3.509   5.534   4.719
 6862SOL    HW221486   3.394   5.625   4.648
 6863SOL     OW21487   5.964   1.759   4.308
 6863SOL    HW121488   6.020   1.802   4.237
 6863SOL    HW221489   5.918   1.680   4.270
 6864SOL     OW21490   3.092   6.479   4.121
 6864SOL    HW121491   3.148   6.535   4.061
 6864SOL    HW221492   3.135   6.474   4.211
 6865SOL     OW21493   6.941   4.247   4.219
 6865SOL    HW121494   6.957   4.172   4.284
 6865SOL    HW221495   6.848   4.240   4.183
 6866SOL     OW21496   6.677   3.555   1.645
 6866SOL    HW121497   6.702   3.582   1.738
 6866SOL    HW221498   6.582   3.583   1.627
 6867SOL     OW21499   2.045   4.212   1.911
 6867SOL    HW121500   2.128   4.261   1.884
 6867SOL    HW221501   2.033   4.131   1.854
 6868SOL     OW21502   2.123   6.099   4.678
 6868SOL    HW121503   2.038   6.108   4.626
 6868SOL    HW221504   2.125   6.011   4.725
 6869SOL     OW21505   5.483   2.264   5.534
 6869SOL    HW121506   5.404   2.296   5.587
 6869SOL    HW221507   5.454   2.193   5.470
 6870SOL     OW21508   5.942   3.731   3.298
 6870SOL    HW121509   5.974   3.643   3.264
 6870SOL    HW221510   5.897   3.718   3.386
 6871SOL     OW21511   5.448   5.496   1.410
 6871SOL    HW121512   5.397   5.419   1.448
 6871SOL    HW221513   5.529   5.512   1.466
 6872SOL     OW21514   2.195   2.971   0.501
 6872SOL    HW121515   2.279   2.970   0.555
 6872SOL    HW221516   2.125   3.024   0.549
 6873SOL     OW21517   6.105   3.372   6.512
 6873SOL    HW121518   6.109   3.331   6.603
 6873SOL    HW221519   6.012   3.367   6.477
 6874SOL     OW21520   0.089   2.666   4.271
 6874SOL    HW121521   0.037   2.615   4.203
 6874SOL    HW221522   0.099   2.610   4.354
 6875SOL     OW21523   2.008   1.258   2.407
 6875SOL    HW121524   2.009   1.346   2.360
 6875SOL    HW221525   1.975   1.187   2.345
 6876SOL     OW21526   3.654   5.823   0.259
 6876SOL    HW121527   3.593   5.752   0.224
 6876SOL    HW221528   3.618   5.857   0.346
 6877SOL     OW21529   2.247   3.852   0.162
 6877SOL    HW121530   2.278   3.781   0.099
 6877SOL    HW221531   2.149   3.843   0.177
 6878SOL     OW21532   2.105   1.535   5.127
 6878SOL    HW121533   2.008   1.512   5.133
 6878SOL    HW221534   2.142   1.553   5.218
 6879SOL     OW21535   0.936   2.260   6.853
 6879SOL    HW121536   0.951   2.180   6.796
 6879SOL    HW221537   0.982   2.247   6.941
 6880SOL     OW21538   2.224   4.105   4.737
 6880SOL    HW121539   2.283   4.107   4.817
 6880SOL    HW221540   2.226   4.013   4.698
 6881SOL     OW21541   0.642   4.340   1.463
 6881SOL    HW121542   0.574   4.333   1.536
 6881SOL    HW221543   0.604   4.300   1.379
 6882SOL     OW21544   1.937   0.841   5.276
 6882SOL    HW121545   2.034   0.857   5.292
 6882SOL    HW221546   1.912   0.750   5.307
 6883SOL     OW21547   4.222   0.649   1.710
 6883SOL    HW121548   4.248   0.590   1.787
 6883SOL    HW221549   4.163   0.723   1.743
 6884SOL     OW21550   2.279   4.553   4.509
 6884SOL    HW121551   2.229   4.581   4.591
 6884SOL    HW221552   2.267   4.455   4.495
 6885SOL     OW21553   2.983   6.135   4.436
 6885SOL    HW121554   2.901   6.137   4.495
 6885SOL    HW221555   2.957   6.108   4.344
 6886SOL     OW21556   5.392   1.127   2.612
 6886SOL    HW121557   5.381   1.222   2.583
 6886SOL    HW221558   5.485   1.097   2.591
 6887SOL     OW21559   5.961   0.846   4.763
 6887SOL    HW121560   5.946   0.867   4.860
 6887SOL    HW221561   6.046   0.888   4.733
 6888SOL     OW21562   6.255   0.360   5.007
 6888SOL    HW121563   6.329   0.393   5.066
 6888SOL    HW221564   6.202   0.437   4.973
 6889SOL     OW21565   1.319   4.280   5.946
 6889SOL    HW121566   1.388   4.245   6.010
 6889SOL    HW221567   1.279   4.364   5.982
 6890SOL     OW21568   2.047   6.313   1.229
 6890SOL    HW121569   1.962   6.261   1.229
 6890SOL    HW221570   2.073   6.334   1.134
 6891SOL     OW21571   2.094   3.525   3.681
 6891SOL    HW121572   2.037   3.550   3.603
 6891SOL    HW221573   2.123   3.429   3.672
 6892SOL     OW21574   3.243   0.415   4.305
 6892SOL    HW121575   3.183   0.337   4.323
 6892SOL    HW221576   3.193   0.485   4.254
 6893SOL     OW21577   4.878   5.827   2.735
 6893SOL    HW121578   4.869   5.834   2.635
 6893SOL    HW221579   4.838   5.740   2.765
 6894SOL     OW21580   5.528   5.254   0.275
 6894SOL    HW121581   5.486   5.322   0.215
 6894SOL    HW221582   5.604   5.296   0.325
 6895SOL     OW21583   2.589   4.114   6.991
 6895SOL    HW121584   2.689   4.111   6.990
 6895SOL    HW221585   2.557   4.111   0.062
 6896SOL     OW21586   3.686   0.511   3.237
 6896SOL    HW121587   3.728   0.425   3.209
 6896SOL    HW221588   3.673   0.569   3.156
 6897SOL     OW21589   3.463   3.848   0.512
 6897SOL    HW121590   3.497   3.853   0.419
 6897SOL    HW221591   3.476   3.937   0.557
 6898SOL     OW21592   4.095   1.589   1.716
 6898SOL    HW121593   4.064   1.536   1.637
 6898SOL    HW221594   4.178   1.639   1.692
 6899SOL     OW21595   4.621   6.836   6.408
 6899SOL    HW121596   4.695   6.805   6.348
 6899SOL    HW221597   4.533   6.814   6.366
 6900SOL     OW21598   5.829   0.335   6.315
 6900SOL    HW121599   5.861   0.411   6.372
 6900SOL    HW221600   5.745   0.297   6.352
 6901SOL     OW21601   1.717   0.257   6.322
 6901SOL    HW121602   1.785   0.219   6.384
 6901SOL    HW221603   1.672   0.335   6.366
 6902SOL     OW21604   0.859   6.232   6.866
 6902SOL    HW121605   0.761   6.239   6.847
 6902SOL    HW221606   0.875   6.245   6.964
 6903SOL     OW21607   3.984   4.542   0.646
 6903SOL    HW121608   4.009   4.466   0.587
 6903SOL    HW221609   4.066   4.578   0.691
 6904SOL     OW21610   6.385   1.265   3.731
 6904SOL    HW121611   6.384   1.173   3.771
 6904SOL    HW221612   6.331   1.266   3.647
 6905SOL     OW21613   5.801   6.427   0.648
 6905SOL    HW121614   5.761   6.451   0.736
 6905SOL    HW221615   5.890   6.473   0.639
 6906SOL     OW21616   3.711   0.920   3.048
 6906SOL    HW121617   3.707   0.992   3.118
 6906SOL    HW221618   3.637   0.933   2.982
 6907SOL     OW21619   3.671   1.079   1.505
 6907SOL    HW121620   3.596   1.013   1.501
 6907SOL    HW221621   3.685   1.107   1.600
 6908SOL     OW21622   1.116   6.827   5.485
 6908SOL    HW121623   1.109   6.860   5.391
 6908SOL    HW221624   1.030   6.784   5.512
 6909SOL     OW21625   4.892   4.476   0.636
 6909SOL    HW121626   4.868   4.382   0.663
 6909SOL    HW221627   4.989   4.481   0.615
 6910SOL     OW21628   6.246   1.849   1.768
 6910SOL    HW121629   6.314   1.918   1.795
 6910SOL    HW221630   6.190   1.884   1.693
 6911SOL     OW21631   4.097   0.574   4.430
 6911SOL    HW121632   4.023   0.614   4.375
 6911SOL    HW221633   4.185   0.605   4.394
 6912SOL     OW21634   4.962   4.760   0.834
 6912SOL    HW121635   4.991   4.737   0.741
 6912SOL    HW221636   4.911   4.846   0.832
 6913SOL     OW21637   5.202   5.152   4.792
 6913SOL    HW121638   5.113   5.135   4.749
 6913SOL    HW221639   5.217   5.250   4.801
 6914SOL     OW21640   6.042   5.504   0.474
 6914SOL    HW121641   5.974   5.540   0.410
 6914SOL    HW221642   5.996   5.474   0.557
 6915SOL     OW21643   0.650   4.678   3.157
 6915SOL    HW121644   0.709   4.711   3.231
 6915SOL    HW221645   0.570   4.633   3.196
 6916SOL     OW21646   6.257   3.530   0.039
 6916SOL    HW121647   6.162   3.551   0.063
 6916SOL    HW221648   6.275   3.433   0.058
 6917SOL     OW21649   5.005   6.692   6.351
 6917SOL    HW121650   4.927   6.751   6.327
 6917SOL    HW221651   5.031   6.637   6.272
 6918SOL     OW21652   0.073   3.951   4.046
 6918SOL    HW121653   7.022   4.003   4.004
 6918SOL    HW221654   0.159   4.002   4.037
 6919SOL     OW21655   1.938   6.454   2.708
 6919SOL    HW121656   2.033   6.475   2.688
 6919SOL    HW221657   1.929   6.357   2.733
 6920SOL     OW21658   5.392   5.655   4.800
 6920SOL    HW121659   5.338   5.711   4.863
 6920SOL    HW221660   5.480   5.700   4.783
 6921SOL     OW21661   6.758   0.183   3.350
 6921SOL    HW121662   6.787   0.102   3.401
 6921SOL    HW221663   6.820   0.197   3.272
 6922SOL     OW21664   2.605   5.889   0.827
 6922SOL    HW121665   2.615   5.987   0.808
 6922SOL    HW221666   2.696   5.846   0.825
 6923SOL     OW21667   4.825   0.037   4.216
 6923SOL    HW121668   4.864   6.969   4.201
 6923SOL    HW221669   4.877   0.104   4.164
 6924SOL     OW21670   0.322   5.087   1.401
 6924SOL    HW121671   0.265   5.074   1.482
 6924SOL    HW221672   0.347   4.997   1.364
 6925SOL     OW21673   4.500   6.456   3.271
 6925SOL    HW121674   4.447   6.535   3.242
 6925SOL    HW221675   4.442   6.374   3.268
 6926SOL     OW21676   3.325   4.147   4.033
 6926SOL    HW121677   3.333   4.150   4.133
 6926SOL    HW221678   3.266   4.221   4.002
 6927SOL     OW21679   5.199   3.814   6.351
 6927SOL    HW121680   5.112   3.768   6.365
 6927SOL    HW221681   5.242   3.831   6.440
 6928SOL     OW21682   4.928   0.638   6.704
 6928SOL    HW121683   4.933   0.737   6.704
 6928SOL    HW221684   4.949   0.603   6.796
 6929SOL     OW21685   4.153   6.122   0.231
 6929SOL    HW121686   4.075   6.059   0.232
 6929SOL    HW221687   4.132   6.199   0.172
 6930SOL     OW21688   0.564   6.748   1.897
 6930SOL    HW121689   0.570   6.735   1.798
 6930SOL    HW221690   0.469   6.734   1.926
 6931SOL     OW21691   1.468   0.299   1.499
 6931SOL    HW121692   1.564   0.313   1.524
 6931SOL    HW221693   1.456   0.206   1.463
 6932SOL     OW21694   2.709   1.403   6.867
 6932SOL    HW121695   2.689   1.431   6.961
 6932SOL    HW221696   2.808   1.401   6.853
 6933SOL     OW21697   4.141   5.658   5.869
 6933SOL    HW121698   4.119   5.743   5.918
 6933SOL    HW221699   4.237   5.661   5.840
 6934SOL     OW21700   4.904   2.989   0.303
 6934SOL    HW121701   4.921   2.902   0.350
 6934SOL    HW221702   4.932   3.064   0.362
 6935SOL     OW21703   4.193   6.605   3.539
 6935SOL    HW121704   4.256   6.589   3.615
 6935SOL    HW221705   4.197   6.527   3.476
 6936SOL     OW21706   0.609   2.767   1.170
 6936SOL    HW121707   0.519   2.804   1.195
 6936SOL    HW221708   0.602   2.722   1.081
 6937SOL     OW21709   4.444   6.428   6.219
 6937SOL    HW121710   4.381   6.367   6.267
 6937SOL    HW221711   4.397   6.472   6.142
 6938SOL     OW21712   4.902   3.209   5.108
 6938SOL    HW121713   4.899   3.294   5.160
 6938SOL    HW221714   4.977   3.152   5.143
 6939SOL     OW21715   0.107   4.242   2.014
 6939SOL    HW121716   0.080   4.324   1.963
 6939SOL    HW221717   0.058   4.239   2.101
 6940SOL     OW21718   4.922   0.516   6.009
 6940SOL    HW121719   4.963   0.478   6.092
 6940SOL    HW221720   4.984   0.583   5.969
 6941SOL     OW21721   3.645   2.901   3.504
 6941SOL    HW121722   3.617   2.837   3.432
 6941SOL    HW221723   3.573   2.906   3.574
 6942SOL     OW21724   6.937   3.213   0.619
 6942SOL    HW121725   0.005   3.205   0.578
 6942SOL    HW221726   6.917   3.131   0.672
 6943SOL     OW21727   5.499   6.597   5.894
 6943SOL    HW121728   5.581   6.573   5.842
 6943SOL    HW221729   5.499   6.550   5.982
 6944SOL     OW21730   1.154   5.229   6.308
 6944SOL    HW121731   1.108   5.254   6.393
 6944SOL    HW221732   1.245   5.193   6.328
 6945SOL     OW21733   6.035   2.905   6.346
 6945SOL    HW121734   6.056   2.873   6.438
 6945SOL    HW221735   6.088   2.987   6.326
 6946SOL     OW21736   5.773   4.465   2.813
 6946SOL    HW121737   5.714   4.544   2.829
 6946SOL    HW221738   5.732   4.383   2.853
 6947SOL     OW21739   3.627   6.722   2.802
 6947SOL    HW121740   3.541   6.736   2.851
 6947SOL    HW221741   3.608   6.696   2.708
 6948SOL     OW21742   4.771   0.990   6.938
 6948SOL    HW121743   4.740   1.043   7.017
 6948SOL    HW221744   4.693   0.945   6.895
 6949SOL     OW21745   5.063   6.768   3.214
 6949SOL    HW121746   5.047   6.713   3.132
 6949SOL    HW221747   5.128   6.841   3.192
 6950SOL     OW21748   2.093   0.842   2.658
 6950SOL    HW121749   2.129   0.838   2.752
 6950SOL    HW221750   2.120   0.759   2.609
 6951SOL     OW21751   6.270   6.168   5.451
 6951SOL    HW121752   6.285   6.081   5.405
 6951SOL    HW221753   6.290   6.158   5.549
 6952SOL     OW21754   0.439   5.250   4.280
 6952SOL    HW121755   0.511   5.180   4.278
 6952SOL    HW221756   0.350   5.206   4.289
 6953SOL     OW21757   4.872   1.252   5.867
 6953SOL    HW121758   4.963   1.238   5.907
 6953SOL    HW221759   4.870   1.213   5.775
 6954SOL     OW21760   6.646   3.268   4.288
 6954SOL    HW121761   6.715   3.202   4.318
 6954SOL    HW221762   6.690   3.339   4.232
 6955SOL     OW21763   0.102   6.084   1.521
 6955SOL    HW121764   0.177   6.076   1.456
 6955SOL    HW221765   0.132   6.134   1.602
 6956SOL     OW21766   4.578   5.163   1.883
 6956SOL    HW121767   4.545   5.248   1.844
 6956SOL    HW221768   4.503   5.116   1.930
 6957SOL     OW21769   0.064   4.705   1.910
 6957SOL    HW121770   0.102   4.689   2.001
 6957SOL    HW221771   0.003   4.784   1.912
 6958SOL     OW21772   2.500   3.014   6.242
 6958SOL    HW121773   2.406   3.025   6.210
 6958SOL    HW221774   2.553   2.966   6.173
 6959SOL     OW21775   3.460   1.677   4.867
 6959SOL    HW121776   3.498   1.735   4.939
 6959SOL    HW221777   3.533   1.648   4.805
 6960SOL     OW21778   6.979   5.061   0.287
 6960SOL    HW121779   6.983   4.975   0.238
 6960SOL    HW221780   7.010   5.135   0.228
 6961SOL     OW21781   1.080   2.103   3.428
 6961SOL    HW121782   1.164   2.117   3.377
 6961SOL    HW221783   1.047   2.190   3.464
 6962SOL     OW21784   5.047   5.047   2.179
 6962SOL    HW121785   5.054   5.078   2.274
 6962SOL    HW221786   5.052   5.126   2.118
 6963SOL     OW21787   0.879   5.209   1.781
 6963SOL    HW121788   0.862   5.122   1.828
 6963SOL    HW221789   0.795   5.241   1.738
 6964SOL     OW21790   4.602   5.554   5.274
 6964SOL    HW121791   4.603   5.471   5.331
 6964SOL    HW221792   4.525   5.550   5.211
 6965SOL     OW21793   6.377   3.707   6.347
 6965SOL    HW121794   6.475   3.726   6.342
 6965SOL    HW221795   6.358   3.618   6.305
 6966SOL     OW21796   5.130   2.579   2.817
 6966SOL    HW121797   5.150   2.512   2.746
 6966SOL    HW221798   5.046   2.552   2.866
 6967SOL     OW21799   1.318   2.152   5.963
 6967SOL    HW121800   1.286   2.144   5.869
 6967SOL    HW221801   1.305   2.246   5.995
 6968SOL     OW21802   4.317   5.698   1.589
 6968SOL    HW121803   4.412   5.667   1.584
 6968SOL    HW221804   4.257   5.618   1.588
 6969SOL     OW21805   3.670   1.516   1.209
 6969SOL    HW121806   3.730   1.509   1.129
 6969SOL    HW221807   3.694   1.444   1.275
 6970SOL     OW21808   3.713   4.602   0.743
 6970SOL    HW121809   3.792   4.575   0.689
 6970SOL    HW221810   3.630   4.561   0.704
 6971SOL     OW21811   6.299   2.650   1.554
 6971SOL    HW121812   6.396   2.636   1.573
 6971SOL    HW221813   6.245   2.587   1.610
 6972SOL     OW21814   5.403   4.347   4.102
 6972SOL    HW121815   5.359   4.366   4.014
 6972SOL    HW221816   5.401   4.248   4.119
 6973SOL     OW21817   2.124   5.227   4.607
 6973SOL    HW121818   2.085   5.241   4.516
 6973SOL    HW221819   2.080   5.290   4.672
 6974SOL     OW21820   3.311   4.087   3.620
 6974SOL    HW121821   3.381   4.063   3.688
 6974SOL    HW221822   3.226   4.111   3.667
 6975SOL     OW21823   3.779   0.548   6.101
 6975SOL    HW121824   3.766   0.632   6.154
 6975SOL    HW221825   3.860   0.500   6.133
 6976SOL     OW21826   2.574   5.071   6.708
 6976SOL    HW121827   2.625   5.145   6.751
 6976SOL    HW221828   2.615   4.983   6.733
 6977SOL     OW21829   3.788   1.496   2.491
 6977SOL    HW121830   3.838   1.544   2.420
 6977SOL    HW221831   3.692   1.522   2.488
 6978SOL     OW21832   0.142   0.480   1.802
 6978SOL    HW121833   0.216   0.530   1.757
 6978SOL    HW221834   0.175   0.390   1.830
 6979SOL     OW21835   0.726   4.790   2.647
 6979SOL    HW121836   0.723   4.876   2.698
 6979SOL    HW221837   0.789   4.727   2.693
 6980SOL     OW21838   2.158   1.149   3.282
 6980SOL    HW121839   2.121   1.241   3.263
 6980SOL    HW221840   2.102   1.081   3.236
 6981SOL     OW21841   2.284   4.098   0.253
 6981SOL    HW121842   2.271   4.017   0.195
 6981SOL    HW221843   2.377   4.133   0.241
 6982SOL     OW21844   1.134   0.575   4.118
 6982SOL    HW121845   1.228   0.599   4.144
 6982SOL    HW221846   1.072   0.649   4.145
 6983SOL     OW21847   6.855   0.367   4.656
 6983SOL    HW121848   6.908   0.287   4.684
 6983SOL    HW221849   6.810   0.407   4.736
 6984SOL     OW21850   1.894   1.973   5.668
 6984SOL    HW121851   1.985   1.954   5.704
 6984SOL    HW221852   1.860   2.058   5.706
 6985SOL     OW21853   3.838   5.671   2.162
 6985SOL    HW121854   3.907   5.718   2.217
 6985SOL    HW221855   3.785   5.610   2.221
 6986SOL     OW21856   1.764   6.272   5.344
 6986SOL    HW121857   1.781   6.252   5.440
 6986SOL    HW221858   1.769   6.371   5.328
 6987SOL     OW21859   6.870   2.790   6.481
 6987SOL    HW121860   6.870   2.695   6.512
 6987SOL    HW221861   6.911   2.795   6.390
 6988SOL     OW21862   5.307   1.117   3.936
 6988SOL    HW121863   5.385   1.101   3.997
 6988SOL    HW221864   5.242   1.178   3.981
 6989SOL     OW21865   1.219   1.147   3.315
 6989SOL    HW121866   1.304   1.137   3.264
 6989SOL    HW221867   1.141   1.133   3.254
 6990SOL     OW21868   4.620   2.983   6.775
 6990SOL    HW121869   4.596   2.887   6.789
 6990SOL    HW221870   4.555   3.025   6.711
 6991SOL     OW21871   2.554   4.608   5.634
 6991SOL    HW121872   2.653   4.611   5.618
 6991SOL    HW221873   2.508   4.583   5.549
 6992SOL     OW21874   6.185   6.381   4.409
 6992SOL    HW121875   6.188   6.290   4.367
 6992SOL    HW221876   6.278   6.413   4.425
 6993SOL     OW21877   6.933   0.282   3.173
 6993SOL    HW121878   7.014   0.224   3.170
 6993SOL    HW221879   6.910   0.312   3.080
 6994SOL     OW21880   1.785   3.578   5.749
 6994SOL    HW121881   1.836   3.662   5.734
 6994SOL    HW221882   1.740   3.581   5.838
 6995SOL     OW21883   5.947   5.702   4.792
 6995SOL    HW121884   5.902   5.631   4.847
 6995SOL    HW221885   5.935   5.681   4.695
 6996SOL     OW21886   2.687   0.785   5.264
 6996SOL    HW121887   2.685   0.739   5.175
 6996SOL    HW221888   2.665   0.719   5.336
 6997SOL     OW21889   4.983   6.237   4.803
 6997SOL    HW121890   5.029   6.261   4.718
 6997SOL    HW221891   5.045   6.184   4.861
 6998SOL     OW21892   1.910   2.636   1.527
 6998SOL    HW121893   1.972   2.685   1.588
 6998SOL    HW221894   1.896   2.689   1.443
 6999SOL     OW21895   2.144   2.013   6.073
 6999SOL    HW121896   2.147   2.109   6.046
 6999SOL    HW221897   2.148   2.005   6.173
 7000SOL     OW21898   0.456   6.232   2.828
 7000SOL    HW121899   0.435   6.161   2.896
 7000SOL    HW221900   0.396   6.310   2.842
 7001SOL     OW21901   2.304   2.780   6.020
 7001SOL    HW121902   2.257   2.696   6.046
 7001SOL    HW221903   2.256   2.859   6.060
 7002SOL     OW21904   1.988   5.244   4.376
 7002SOL    HW121905   1.895   5.223   4.406
 7002SOL    HW221906   1.989   5.333   4.329
 7003SOL     OW21907   3.103   6.797   0.616
 7003SOL    HW121908   3.185   6.755   0.578
 7003SOL    HW221909   3.116   6.896   0.622
 7004SOL     OW21910   2.018   4.311   1.534
 7004SOL    HW121911   1.965   4.234   1.497
 7004SOL    HW221912   1.964   4.358   1.604
 7005SOL     OW21913   5.908   6.180   6.395
 7005SOL    HW121914   5.957   6.116   6.453
 7005SOL    HW221915   5.819   6.201   6.435
 7006SOL     OW21916   4.807   4.042   4.767
 7006SOL    HW121917   4.873   4.116   4.771
 7006SOL    HW221918   4.847   3.959   4.804
 7007SOL     OW21919   5.010   6.607   2.982
 7007SOL    HW121920   4.913   6.621   2.966
 7007SOL    HW221921   5.063   6.676   2.932
 7008SOL     OW21922   2.312   5.433   4.905
 7008SOL    HW121923   2.409   5.410   4.906
 7008SOL    HW221924   2.271   5.406   4.992
 7009SOL     OW21925   6.031   5.790   2.360
 7009SOL    HW121926   5.973   5.816   2.282
 7009SOL    HW221927   6.121   5.762   2.327
 7010SOL     OW21928   3.314   4.536   5.975
 7010SOL    HW121929   3.367   4.578   5.901
 7010SOL    HW221930   3.263   4.606   6.025
 7011SOL     OW21931   2.338   6.816   5.589
 7011SOL    HW121932   2.359   6.875   5.511
 7011SOL    HW221933   2.405   6.743   5.596
 7012SOL     OW21934   1.192   6.907   1.825
 7012SOL    HW121935   1.159   6.903   1.920
 7012SOL    HW221936   1.291   6.896   1.823
 7013SOL     OW21937   1.174   0.031   1.259
 7013SOL    HW121938   1.078   0.002   1.264
 7013SOL    HW221939   1.198   0.051   1.164
 7014SOL     OW21940   3.380   4.679   1.117
 7014SOL    HW121941   3.362   4.692   1.020
 7014SOL    HW221942   3.325   4.743   1.171
 7015SOL     OW21943   5.297   2.937   2.580
 7015SOL    HW121944   5.225   2.937   2.650
 7015SOL    HW221945   5.387   2.939   2.624
 7016SOL     OW21946   4.627   4.927   2.025
 7016SOL    HW121947   4.613   5.016   1.983
 7016SOL    HW221948   4.563   4.861   1.986
 7017SOL     OW21949   3.142   1.725   3.452
 7017SOL    HW121950   3.151   1.791   3.377
 7017SOL    HW221951   3.120   1.635   3.414
 7018SOL     OW21952   0.120   4.073   4.826
 7018SOL    HW121953   0.074   4.085   4.914
 7018SOL    HW221954   0.076   4.131   4.757
 7019SOL     OW21955   2.337   4.795   6.694
 7019SOL    HW121956   2.277   4.757   6.624
 7019SOL    HW221957   2.338   4.895   6.687
 7020SOL     OW21958   6.055   0.253   0.015
 7020SOL    HW121959   6.009   0.327   0.064
 7020SOL    HW221960   6.151   0.277   0.001
 7021SOL     OW21961   2.503   1.149   4.872
 7021SOL    HW121962   2.458   1.101   4.948
 7021SOL    HW221963   2.525   1.242   4.900
 7022SOL     OW21964   5.303   3.393   0.762
 7022SOL    HW121965   5.351   3.342   0.691
 7022SOL    HW221966   5.313   3.491   0.745
 7023SOL     OW21967   6.213   2.400   2.451
 7023SOL    HW121968   6.166   2.471   2.399
 7023SOL    HW221969   6.182   2.403   2.546
 7024SOL     OW21970   1.904   6.053   6.409
 7024SOL    HW121971   1.824   6.047   6.469
 7024SOL    HW221972   1.905   5.974   6.348
 7025SOL     OW21973   3.015   2.105   6.582
 7025SOL    HW121974   2.991   2.122   6.678
 7025SOL    HW221975   3.021   2.007   6.566
 7026SOL     OW21976   3.086   1.681   2.151
 7026SOL    HW121977   3.094   1.743   2.229
 7026SOL    HW221978   3.168   1.687   2.095
 7027SOL     OW21979   3.979   5.613   3.840
 7027SOL    HW121980   3.885   5.643   3.822
 7027SOL    HW221981   3.986   5.578   3.933
 7028SOL     OW21982   4.955   0.119   3.513
 7028SOL    HW121983   4.932   0.026   3.483
 7028SOL    HW221984   4.888   0.151   3.579
 7029SOL     OW21985   3.702   6.280   0.261
 7029SOL    HW121986   3.624   6.263   0.200
 7029SOL    HW221987   3.726   6.377   0.257
 7030SOL     OW21988   0.304   3.753   5.499
 7030SOL    HW121989   0.378   3.744   5.567
 7030SOL    HW221990   0.326   3.697   5.419
 7031SOL     OW21991   2.333   5.828   4.237
 7031SOL    HW121992   2.260   5.771   4.199
 7031SOL    HW221993   2.419   5.776   4.237
 7032SOL     OW21994   4.374   6.658   3.121
 7032SOL    HW121995   4.303   6.721   3.092
 7032SOL    HW221996   4.445   6.708   3.171
 7033SOL     OW21997   0.163   1.070   3.705
 7033SOL    HW121998   0.073   1.027   3.707
 7033SOL    HW221999   0.211   1.044   3.622
 7034SOL     OW22000   4.816   0.051   3.059
 7034SOL    HW122001   4.782   7.008   2.992
 7034SOL    HW222002   4.741   0.078   3.120
 7035SOL     OW22003   0.706   6.305   2.751
 7035SOL    HW122004   0.761   6.224   2.770
 7035SOL    HW222005   0.611   6.288   2.778
 7036SOL     OW22006   6.878   5.811   1.944
 7036SOL    HW122007   6.942   5.737   1.965
 7036SOL    HW222008   6.911   5.862   1.865
 7037SOL     OW22009   0.392   6.199   5.283
 7037SOL    HW122010   0.482   6.212   5.242
 7037SOL    HW222011   0.395   6.123   5.348
 7038SOL     OW22012   0.908   4.074   3.411
 7038SOL    HW122013   0.853   3.991   3.417
 7038SOL    HW222014   1.002   4.050   3.389
 7039SOL     OW22015   3.821   7.019   6.557
 7039SOL    HW122016   3.729   0.018   6.591
 7039SOL    HW222017   3.833   6.919   6.559
 7040SOL     OW22018   4.486   2.885   6.075
 7040SOL    HW122019   4.582   2.893   6.100
 7040SOL    HW222020   4.450   2.975   6.050
 7041SOL     OW22021   1.145   1.102   3.041
 7041SOL    HW122022   1.066   1.148   3.002
 7041SOL    HW222023   1.196   1.055   2.969
 7042SOL     OW22024   4.568   5.675   6.042
 7042SOL    HW122025   4.634   5.618   5.993
 7042SOL    HW222026   4.616   5.727   6.112
 7043SOL     OW22027   1.342   2.569   3.292
 7043SOL    HW122028   1.337   2.537   3.198
 7043SOL    HW222029   1.434   2.604   3.311
 7044SOL     OW22030   4.626   4.765   2.637
 7044SOL    HW122031   4.664   4.846   2.591
 7044SOL    HW222032   4.537   4.788   2.677
 7045SOL     OW22033   4.825   6.517   1.083
 7045SOL    HW122034   4.865   6.555   0.999
 7045SOL    HW222035   4.871   6.556   1.163
 7046SOL     OW22036   3.926   0.753   5.025
 7046SOL    HW122037   3.894   0.821   5.091
 7046SOL    HW222038   4.022   0.731   5.044
 7047SOL     OW22039   0.595   1.808   3.506
 7047SOL    HW122040   0.528   1.861   3.454
 7047SOL    HW222041   0.661   1.870   3.549
 7048SOL     OW22042   0.436   5.851   1.247
 7048SOL    HW122043   0.430   5.848   1.148
 7048SOL    HW222044   0.523   5.811   1.276
 7049SOL     OW22045   1.546   1.065   0.676
 7049SOL    HW122046   1.495   1.148   0.652
 7049SOL    HW222047   1.500   1.019   0.752
 7050SOL     OW22048   3.623   4.186   4.443
 7050SOL    HW122049   3.644   4.089   4.435
 7050SOL    HW222050   3.703   4.240   4.419
 7051SOL     OW22051   6.872   0.648   1.092
 7051SOL    HW122052   6.860   0.651   0.993
 7051SOL    HW222053   6.795   0.694   1.137
 7052SOL     OW22054   0.178   2.074   4.566
 7052SOL    HW122055   0.121   1.999   4.600
 7052SOL    HW222056   0.271   2.041   4.552
 7053SOL     OW22057   0.473   4.024   6.335
 7053SOL    HW122058   0.421   4.070   6.264
 7053SOL    HW222059   0.564   4.065   6.341
 7054SOL     OW22060   6.411   6.620   1.309
 7054SOL    HW122061   6.478   6.680   1.267
 7054SOL    HW222062   6.319   6.656   1.294
 7055SOL     OW22063   4.591   0.403   5.920
 7055SOL    HW122064   4.663   0.470   5.897
 7055SOL    HW222065   4.537   0.438   5.996
 7056SOL     OW22066   5.615   4.649   2.935
 7056SOL    HW122067   5.655   4.704   3.007
 7056SOL    HW222068   5.517   4.669   2.928
 7057SOL     OW22069   0.191   4.317   4.212
 7057SOL    HW122070   0.119   4.250   4.194
 7057SOL    HW222071   0.250   4.283   4.285
 7058SOL     OW22072   0.263   5.579   4.812
 7058SOL    HW122073   0.190   5.600   4.877
 7058SOL    HW222074   0.351   5.610   4.848
 7059SOL     OW22075   0.409   0.054   1.774
 7059SOL    HW122076   0.373   7.004   1.715
 7059SOL    HW222077   0.496   0.086   1.737
 7060SOL     OW22078   3.021   0.051   1.437
 7060SOL    HW122079   2.959   0.130   1.443
 7060SOL    HW222080   3.024   0.019   1.342
 7061SOL     OW22081   0.229   1.596   3.139
 7061SOL    HW122082   0.183   1.543   3.210
 7061SOL    HW222083   0.190   1.688   3.135
 7062SOL     OW22084   6.011   1.997   5.391
 7062SOL    HW122085   5.923   1.951   5.382
 7062SOL    HW222086   6.077   1.956   5.328
 7063SOL     OW22087   1.588   6.179   1.161
 7063SOL    HW122088   1.548   6.189   1.070
 7063SOL    HW222089   1.515   6.179   1.230
 7064SOL     OW22090   4.298   2.532   1.470
 7064SOL    HW122091   4.319   2.435   1.461
 7064SOL    HW222092   4.370   2.586   1.427
 7065SOL     OW22093   4.592   4.085   1.323
 7065SOL    HW122094   4.525   4.153   1.353
 7065SOL    HW222095   4.635   4.043   1.402
 7066SOL     OW22096   3.843   1.011   0.392
 7066SOL    HW122097   3.836   0.949   0.313
 7066SOL    HW222098   3.841   1.106   0.360
 7067SOL     OW22099   1.169   4.018   5.609
 7067SOL    HW122100   1.183   4.042   5.705
 7067SOL    HW222101   1.107   3.940   5.603
 7068SOL     OW22102   0.873   2.675   3.269
 7068SOL    HW122103   0.833   2.628   3.190
 7068SOL    HW222104   0.917   2.607   3.328
 7069SOL     OW22105   6.428   3.560   5.443
 7069SOL    HW122106   6.394   3.534   5.353
 7069SOL    HW222107   6.414   3.485   5.507
 7070SOL     OW22108   6.469   4.778   5.203
 7070SOL    HW122109   6.385   4.761   5.151
 7070SOL    HW222110   6.475   4.875   5.225
 7071SOL     OW22111   1.039   6.097   4.968
 7071SOL    HW122112   1.109   6.167   4.979
 7071SOL    HW222113   0.988   6.087   5.053
 7072SOL     OW22114   6.713   6.284   5.907
 7072SOL    HW122115   6.802   6.327   5.889
 7072SOL    HW222116   6.660   6.281   5.823
 7073SOL     OW22117   0.029   0.801   5.557
 7073SOL    HW122118   6.956   0.797   5.584
 7073SOL    HW222119   0.048   0.887   5.511
 7074SOL     OW22120   3.200   2.883   1.851
 7074SOL    HW122121   3.293   2.848   1.839
 7074SOL    HW222122   3.134   2.818   1.812
 7075SOL     OW22123   1.831   5.850   4.481
 7075SOL    HW122124   1.738   5.843   4.518
 7075SOL    HW222125   1.889   5.780   4.523
 7076SOL     OW22126   3.346   2.117   6.854
 7076SOL    HW122127   3.318   2.021   6.848
 7076SOL    HW222128   3.443   2.122   6.877
 7077SOL     OW22129   2.001   5.499   5.358
 7077SOL    HW122130   2.040   5.435   5.424
 7077SOL    HW222131   2.015   5.593   5.390
 7078SOL     OW22132   6.151   6.766   2.921
 7078SOL    HW122133   6.155   6.717   3.008
 7078SOL    HW222134   6.231   6.826   2.912
 7079SOL     OW22135   6.796   6.109   5.444
 7079SOL    HW122136   6.842   6.039   5.500
 7079SOL    HW222137   6.729   6.065   5.385
 7080SOL     OW22138   4.386   2.324   3.537
 7080SOL    HW122139   4.462   2.285   3.590
 7080SOL    HW222140   4.418   2.347   3.445
 7081SOL     OW22141   3.247   1.129   4.930
 7081SOL    HW122142   3.308   1.189   4.879
 7081SOL    HW222143   3.175   1.183   4.975
 7082SOL     OW22144   5.272   1.023   6.966
 7082SOL    HW122145   5.294   1.066   6.879
 7082SOL    HW222146   5.327   0.941   6.978
 7083SOL     OW22147   2.952   1.483   6.485
 7083SOL    HW122148   2.968   1.561   6.425
 7083SOL    HW222149   2.925   1.404   6.431
 7084SOL     OW22150   6.886   6.800   5.456
 7084SOL    HW122151   6.842   6.887   5.433
 7084SOL    HW222152   6.871   6.780   5.553
 7085SOL     OW22153   2.390   2.332   3.117
 7085SOL    HW122154   2.407   2.307   3.022
 7085SOL    HW222155   2.441   2.416   3.139
 7086SOL     OW22156   5.506   0.731   6.341
 7086SOL    HW122157   5.547   0.758   6.429
 7086SOL    HW222158   5.523   0.634   6.325
 7087SOL     OW22159   0.988   3.163   4.650
 7087SOL    HW122160   0.966   3.139   4.556
 7087SOL    HW222161   1.079   3.204   4.654
 7088SOL     OW22162   4.869   2.925   4.269
 7088SOL    HW122163   4.836   3.005   4.320
 7088SOL    HW222164   4.951   2.950   4.218
 7089SOL     OW22165   3.513   2.723   5.916
 7089SOL    HW122166   3.589   2.724   5.980
 7089SOL    HW222167   3.431   2.758   5.962
 7090SOL     OW22168   1.925   1.355   5.477
 7090SOL    HW122169   1.842   1.323   5.523
 7090SOL    HW222170   1.951   1.290   5.406
 7091SOL     OW22171   0.107   1.060   0.080
 7091SOL    HW122172   0.156   0.992   0.136
 7091SOL    HW222173   0.009   1.045   0.088
 7092SOL     OW22174   4.096   4.007   0.088
 7092SOL    HW122175   4.036   3.937   0.125
 7092SOL    HW222176   4.189   3.971   0.080
 7093SOL     OW22177   3.659   4.103   4.127
 7093SOL    HW122178   3.703   4.099   4.038
 7093SOL    HW222179   3.561   4.088   4.116
 7094SOL     OW22180   0.374   6.887   5.808
 7094SOL    HW122181   0.294   6.847   5.764
 7094SOL    HW222182   0.457   6.844   5.772
 7095SOL     OW22183   1.890   3.060   6.753
 7095SOL    HW122184   1.957   3.002   6.799
 7095SOL    HW222185   1.937   3.120   6.688
 7096SOL     OW22186   5.218   2.051   3.881
 7096SOL    HW122187   5.119   2.038   3.873
 7096SOL    HW222188   5.265   1.967   3.854
 7097SOL     OW22189   6.758   0.264   1.763
 7097SOL    HW122190   6.834   0.217   1.718
 7097SOL    HW222191   6.793   0.338   1.821
 7098SOL     OW22192   1.429   6.064   5.062
 7098SOL    HW122193   1.410   6.147   5.010
 7098SOL    HW222194   1.479   6.088   5.146
 7099SOL     OW22195   1.224   1.571   5.139
 7099SOL    HW122196   1.233   1.473   5.124
 7099SOL    HW222197   1.143   1.605   5.092
 7100SOL     OW22198   5.003   4.055   0.952
 7100SOL    HW122199   4.941   4.072   1.029
 7100SOL    HW222200   4.987   3.963   0.916
 7101SOL     OW22201   2.868   0.280   4.726
 7101SOL    HW122202   2.828   0.221   4.656
 7101SOL    HW222203   2.902   0.225   4.801
 7102SOL     OW22204   4.241   1.169   0.915
 7102SOL    HW122205   4.235   1.078   0.875
 7102SOL    HW222206   4.258   1.161   1.014
 7103SOL     OW22207   3.644   5.861   6.626
 7103SOL    HW122208   3.703   5.800   6.679
 7103SOL    HW222209   3.578   5.906   6.687
 7104SOL     OW22210   1.470   3.291   3.640
 7104SOL    HW122211   1.540   3.361   3.654
 7104SOL    HW222212   1.504   3.203   3.675
 7105SOL     OW22213   3.278   3.408   4.997
 7105SOL    HW122214   3.373   3.438   4.985
 7105SOL    HW222215   3.276   3.308   5.006
 7106SOL     OW22216   3.789   2.914   4.343
 7106SOL    HW122217   3.835   3.002   4.359
 7106SOL    HW222218   3.754   2.878   4.429
 7107SOL     OW22219   2.782   1.473   0.109
 7107SOL    HW122220   2.763   1.419   0.191
 7107SOL    HW222221   2.879   1.496   0.106
 7108SOL     OW22222   4.163   6.607   1.554
 7108SOL    HW122223   4.072   6.577   1.524
 7108SOL    HW222224   4.184   6.695   1.511
 7109SOL     OW22225   3.447   0.053   6.181
 7109SOL    HW122226   3.539   0.025   6.153
 7109SOL    HW222227   3.397   6.996   6.214
 7110SOL     OW22228   5.343   5.364   4.198
 7110SOL    HW122229   5.360   5.276   4.242
 7110SOL    HW222230   5.392   5.367   4.110
 7111SOL     OW22231   1.479   3.418   4.325
 7111SOL    HW122232   1.429   3.476   4.389
 7111SOL    HW222233   1.450   3.438   4.232
 7112SOL     OW22234   1.686   5.968   4.297
 7112SOL    HW122235   1.627   5.911   4.241
 7112SOL    HW222236   1.743   5.910   4.355
 7113SOL     OW22237   3.948   3.712   4.675
 7113SOL    HW122238   3.923   3.677   4.766
 7113SOL    HW222239   3.925   3.644   4.606
 7114SOL     OW22240   4.248   0.299   1.649
 7114SOL    HW122241   4.163   0.308   1.596
 7114SOL    HW222242   4.326   0.321   1.591
 7115SOL     OW22243   5.273   2.030   1.237
 7115SOL    HW122244   5.347   2.070   1.292
 7115SOL    HW222245   5.185   2.051   1.279
 7116SOL     OW22246   5.951   4.216   3.769
 7116SOL    HW122247   5.901   4.170   3.696
 7116SOL    HW222248   6.006   4.289   3.730
 7117SOL     OW22249   0.044   6.228   3.568
 7117SOL    HW122250   6.989   6.291   3.572
 7117SOL    HW222251   0.031   6.164   3.493
 7118SOL     OW22252   5.168   4.094   1.370
 7118SOL    HW122253   5.260   4.101   1.409
 7118SOL    HW222254   5.173   4.101   1.271
 7119SOL     OW22255   5.357   1.068   3.229
 7119SOL    HW122256   5.417   1.134   3.183
 7119SOL    HW222257   5.318   1.110   3.310
 7120SOL     OW22258   4.545   1.422   2.852
 7120SOL    HW122259   4.644   1.432   2.846
 7120SOL    HW222260   4.519   1.330   2.822
 7121SOL     OW22261   2.170   7.014   3.615
 7121SOL    HW122262   2.123   6.926   3.615
 7121SOL    HW222263   2.249   7.010   3.554
 7122SOL     OW22264   6.875   1.020   0.150
 7122SOL    HW122265   6.817   0.983   0.222
 7122SOL    HW222266   6.820   1.079   0.091
 7123SOL     OW22267   2.659   5.549   1.637
 7123SOL    HW122268   2.646   5.464   1.689
 7123SOL    HW222269   2.725   5.607   1.684
 7124SOL     OW22270   0.865   4.935   0.936
 7124SOL    HW122271   0.918   4.876   0.875
 7124SOL    HW222272   0.818   4.878   1.004
 7125SOL     OW22273   6.446   6.391   1.495
 7125SOL    HW122274   6.440   6.467   1.431
 7125SOL    HW222275   6.374   6.324   1.476
 7126SOL     OW22276   2.450   3.720   0.565
 7126SOL    HW122277   2.398   3.660   0.504
 7126SOL    HW222278   2.426   3.701   0.660
 7127SOL     OW22279   3.257   5.232   4.159
 7127SOL    HW122280   3.204   5.234   4.244
 7127SOL    HW222281   3.233   5.311   4.103
 7128SOL     OW22282   3.286   4.881   0.595
 7128SOL    HW122283   3.348   4.831   0.534
 7128SOL    HW222284   3.192   4.862   0.569
 7129SOL     OW22285   3.156   0.735   1.360
 7129SOL    HW122286   3.190   0.741   1.267
 7129SOL    HW222287   3.074   0.678   1.362
 7130SOL     OW22288   3.386   5.025   4.080
 7130SOL    HW122289   3.340   5.112   4.095
 7130SOL    HW222290   3.318   4.954   4.060
 7131SOL     OW22291   2.561   1.831   1.175
 7131SOL    HW122292   2.548   1.808   1.271
 7131SOL    HW222293   2.656   1.857   1.158
 7132SOL     OW22294   4.115   3.660   2.911
 7132SOL    HW122295   4.106   3.720   2.990
 7132SOL    HW222296   4.092   3.566   2.937
 7133SOL     OW22297   5.100   5.021   3.046
 7133SOL    HW122298   5.128   5.102   2.994
 7133SOL    HW222299   5.010   4.991   3.015
 7134SOL     OW22300   6.308   6.041   3.980
 7134SOL    HW122301   6.265   6.020   3.892
 7134SOL    HW222302   6.276   6.129   4.013
 7135SOL     OW22303   1.261   0.872   4.324
 7135SOL    HW122304   1.208   0.863   4.239
 7135SOL    HW222305   1.359   0.880   4.301
 7136SOL     OW22306   1.594   1.504   0.742
 7136SOL    HW122307   1.529   1.428   0.745
 7136SOL    HW222308   1.548   1.584   0.703
 7137SOL     OW22309   4.033   0.993   4.849
 7137SOL    HW122310   3.978   0.910   4.852
 7137SOL    HW222311   4.018   1.041   4.762
 7138SOL     OW22312   3.255   2.765   1.495
 7138SOL    HW122313   3.340   2.792   1.541
 7138SOL    HW222314   3.271   2.756   1.397
 7139SOL     OW22315   4.892   3.168   2.194
 7139SOL    HW122316   4.858   3.106   2.123
 7139SOL    HW222317   4.828   3.244   2.205
 7140SOL     OW22318   6.079   3.183   5.366
 7140SOL    HW122319   6.125   3.207   5.281
 7140SOL    HW222320   6.026   3.099   5.354
 7141SOL     OW22321   3.204   0.360   1.122
 7141SOL    HW122322   3.181   0.423   1.047
 7141SOL    HW222323   3.124   0.306   1.146
 7142SOL     OW22324   4.462   0.144   3.661
 7142SOL    HW122325   4.437   0.100   3.575
 7142SOL    HW222326   4.381   0.155   3.718
 7143SOL     OW22327   1.799   3.457   6.042
 7143SOL    HW122328   1.764   3.551   6.042
 7143SOL    HW222329   1.797   3.421   6.135
 7144SOL     OW22330   0.987   1.048   2.634
 7144SOL    HW122331   0.957   1.115   2.701
 7144SOL    HW222332   0.920   1.044   2.559
 7145SOL     OW22333   4.331   6.688   6.278
 7145SOL    HW122334   4.286   6.778   6.273
 7145SOL    HW222335   4.408   6.686   6.214
 7146SOL     OW22336   2.410   6.794   0.773
 7146SOL    HW122337   2.499   6.828   0.744
 7146SOL    HW222338   2.362   6.754   0.694
 7147SOL     OW22339   6.716   6.549   3.869
 7147SOL    HW122340   6.760   6.524   3.783
 7147SOL    HW222341   6.773   6.615   3.918
 7148SOL     OW22342   0.898   6.120   1.512
 7148SOL    HW122343   0.975   6.083   1.460
 7148SOL    HW222344   0.840   6.175   1.452
 7149SOL     OW22345   6.769   0.443   3.420
 7149SOL    HW122346   6.773   0.350   3.383
 7149SOL    HW222347   6.673   0.470   3.431
 7150SOL     OW22348   4.678   3.152   1.339
 7150SOL    HW122349   4.641   3.212   1.268
 7150SOL    HW222350   4.688   3.203   1.424
 7151SOL     OW22351   1.225   5.746   0.703
 7151SOL    HW122352   1.313   5.711   0.735
 7151SOL    HW222353   1.238   5.796   0.618
 7152SOL     OW22354   0.626   3.350   5.659
 7152SOL    HW122355   0.561   3.276   5.671
 7152SOL    HW222356   0.718   3.317   5.681
 7153SOL     OW22357   4.074   6.813   5.519
 7153SOL    HW122358   4.001   6.845   5.458
 7153SOL    HW222359   4.035   6.754   5.589
 7154SOL     OW22360   4.049   5.609   4.717
 7154SOL    HW122361   4.075   5.617   4.620
 7154SOL    HW222362   3.952   5.585   4.724
 7155SOL     OW22363   1.368   6.053   2.241
 7155SOL    HW122364   1.420   6.093   2.316
 7155SOL    HW222365   1.328   5.966   2.271
 7156SOL     OW22366   0.011   5.048   4.892
 7156SOL    HW122367   7.014   4.988   4.970
 7156SOL    HW222368   6.975   5.128   4.896
 7157SOL     OW22369   6.243   5.338   0.354
 7157SOL    HW122370   6.207   5.426   0.386
 7157SOL    HW222371   6.339   5.331   0.379
 7158SOL     OW22372   6.933   6.803   3.264
 7158SOL    HW122373   7.017   6.759   3.233
 7158SOL    HW222374   6.954   6.874   3.331
 7159SOL     OW22375   0.312   4.606   1.512
 7159SOL    HW122376   0.411   4.598   1.522
 7159SOL    HW222377   0.281   4.689   1.559
 7160SOL     OW22378   6.487   0.241   1.722
 7160SOL    HW122379   6.583   0.263   1.739
 7160SOL    HW222380   6.434   0.255   1.806
 7161SOL     OW22381   3.398   3.715   3.999
 7161SOL    HW122382   3.360   3.757   4.080
 7161SOL    HW222383   3.491   3.750   3.983
 7162SOL     OW22384   3.408   5.225   5.050
 7162SOL    HW122385   3.431   5.279   5.131
 7162SOL    HW222386   3.308   5.215   5.044
 7163SOL     OW22387   3.509   0.765   3.477
 7163SOL    HW122388   3.520   0.809   3.388
 7163SOL    HW222389   3.595   0.720   3.503
 7164SOL     OW22390   2.215   1.229   2.718
 7164SOL    HW122391   2.149   1.166   2.678
 7164SOL    HW222392   2.287   1.249   2.651
 7165SOL     OW22393   5.882   0.989   0.330
 7165SOL    HW122394   5.932   0.975   0.415
 7165SOL    HW222395   5.937   0.955   0.253
 7166SOL     OW22396   4.958   4.426   1.683
 7166SOL    HW122397   5.008   4.513   1.681
 7166SOL    HW222398   4.897   4.424   1.763
 7167SOL     OW22399   5.157   3.894   5.045
 7167SOL    HW122400   5.233   3.900   4.981
 7167SOL    HW222401   5.071   3.905   4.995
 7168SOL     OW22402   1.631   1.625   4.070
 7168SOL    HW122403   1.717   1.676   4.065
 7168SOL    HW222404   1.563   1.668   4.011
 7169SOL     OW22405   1.843   3.335   5.651
 7169SOL    HW122406   1.828   3.429   5.680
 7169SOL    HW222407   1.785   3.274   5.705
 7170SOL     OW22408   4.631   5.250   2.574
 7170SOL    HW122409   4.607   5.336   2.529
 7170SOL    HW222410   4.641   5.264   2.672
 7171SOL     OW22411   4.730   3.251   5.733
 7171SOL    HW122412   4.682   3.163   5.725
 7171SOL    HW222413   4.725   3.283   5.828
 7172SOL     OW22414   1.397   6.839   6.824
 7172SOL    HW122415   1.474   6.882   6.777
 7172SOL    HW222416   1.422   6.819   6.919
 7173SOL     OW22417   6.170   5.105   4.363
 7173SOL    HW122418   6.260   5.078   4.397
 7173SOL    HW222419   6.177   5.192   4.314
 7174SOL     OW22420   1.662   5.087   6.683
 7174SOL    HW122421   1.714   5.056   6.603
 7174SOL    HW222422   1.722   5.087   6.763
 7175SOL     OW22423   5.250   3.647   1.209
 7175SOL    HW122424   5.264   3.562   1.157
 7175SOL    HW222425   5.152   3.664   1.219
 7176SOL     OW22426   6.851   4.913   2.637
 7176SOL    HW122427   6.945   4.894   2.663
 7176SOL    HW222428   6.839   4.897   2.539
 7177SOL     OW22429   1.889   6.055   4.096
 7177SOL    HW122430   1.849   6.043   4.187
 7177SOL    HW222431   1.947   6.137   4.096
 7178SOL     OW22432   1.987   2.748   5.786
 7178SOL    HW122433   1.926   2.721   5.861
 7178SOL    HW222434   2.076   2.704   5.798
 7179SOL     OW22435   2.367   3.313   5.755
 7179SOL    HW122436   2.440   3.358   5.705
 7179SOL    HW222437   2.282   3.364   5.743
 7180SOL     OW22438   0.939   5.070   6.446
 7180SOL    HW122439   0.884   4.994   6.480
 7180SOL    HW222440   1.015   5.087   6.509
 7181SOL     OW22441   3.602   0.829   0.372
 7181SOL    HW122442   3.634   0.787   0.288
 7181SOL    HW222443   3.503   0.835   0.371
 7182SOL     OW22444   2.013   4.010   5.549
 7182SOL    HW122445   2.098   4.017   5.601
 7182SOL    HW222446   2.030   3.963   5.463
 7183SOL     OW22447   1.895   5.169   2.687
 7183SOL    HW122448   1.819   5.111   2.657
 7183SOL    HW222449   1.955   5.117   2.747
 7184SOL     OW22450   0.976   6.984   3.877
 7184SOL    HW122451   0.978   0.014   3.961
 7184SOL    HW222452   1.065   6.940   3.863
 7185SOL     OW22453   5.158   2.770   6.747
 7185SOL    HW122454   5.084   2.739   6.686
 7185SOL    HW222455   5.227   2.698   6.755
 7186SOL     OW22456   6.803   0.126   5.273
 7186SOL    HW122457   6.796   0.165   5.365
 7186SOL    HW222458   6.888   0.075   5.264
 7187SOL     OW22459   1.875   4.440   1.750
 7187SOL    HW122460   1.951   4.483   1.798
 7187SOL    HW222461   1.798   4.430   1.814
 7188SOL     OW22462   5.530   6.986   1.493
 7188SOL    HW122463   5.492   0.051   1.521
 7188SOL    HW222464   5.495   6.914   1.554
 7189SOL     OW22465   6.405   1.666   6.416
 7189SOL    HW122466   6.391   1.630   6.508
 7189SOL    HW222467   6.334   1.733   6.395
 7190SOL     OW22468   5.444   4.035   3.522
 7190SOL    HW122469   5.541   4.028   3.541
 7190SOL    HW222470   5.412   4.126   3.546
 7191SOL     OW22471   1.162   3.731   2.557
 7191SOL    HW122472   1.151   3.714   2.459
 7191SOL    HW222473   1.072   3.746   2.598
 7192SOL     OW22474   2.170   6.002   5.736
 7192SOL    HW122475   2.096   6.015   5.802
 7192SOL    HW222476   2.181   6.086   5.682
 7193SOL     OW22477   2.867   2.189   4.426
 7193SOL    HW122478   2.952   2.232   4.456
 7193SOL    HW222479   2.847   2.215   4.332
 7194SOL     OW22480   2.159   1.661   1.193
 7194SOL    HW122481   2.240   1.610   1.164
 7194SOL    HW222482   2.096   1.599   1.239
 7195SOL     OW22483   0.420   5.028   0.655
 7195SOL    HW122484   0.411   5.050   0.558
 7195SOL    HW222485   0.509   4.985   0.671
 7196SOL     OW22486   3.040   3.192   3.309
 7196SOL    HW122487   2.976   3.252   3.261
 7196SOL    HW222488   3.070   3.119   3.248
 7197SOL     OW22489   6.760   1.880   5.227
 7197SOL    HW122490   6.677   1.900   5.174
 7197SOL    HW222491   6.784   1.784   5.214
 7198SOL     OW22492   1.546   6.824   5.639
 7198SOL    HW122493   1.463   6.780   5.606
 7198SOL    HW222494   1.539   6.839   5.738
 7199SOL     OW22495   0.728   0.564   2.495
 7199SOL    HW122496   0.687   0.473   2.501
 7199SOL    HW222497   0.688   0.614   2.418
 7200SOL     OW22498   2.127   1.105   0.492
 7200SOL    HW122499   2.118   1.157   0.407
 7200SOL    HW222500   2.055   1.035   0.495
 7201SOL     OW22501   1.710   4.938   2.968
 7201SOL    HW122502   1.776   5.010   2.945
 7201SOL    HW222503   1.631   4.979   3.014
 7202SOL     OW22504   4.039   0.116   6.423
 7202SOL    HW122505   4.017   0.094   6.328
 7202SOL    HW222506   3.967   0.079   6.482
 7203SOL     OW22507   6.558   0.217   0.817
 7203SOL    HW122508   6.572   0.159   0.737
 7203SOL    HW222509   6.630   0.287   0.820
 7204SOL     OW22510   6.587   0.106   3.725
 7204SOL    HW122511   6.496   0.065   3.722
 7204SOL    HW222512   6.580   0.200   3.760
 7205SOL     OW22513   1.624   5.497   3.301
 7205SOL    HW122514   1.679   5.576   3.329
 7205SOL    HW222515   1.665   5.455   3.220
 7206SOL     OW22516   0.384   1.317   1.131
 7206SOL    HW122517   0.465   1.329   1.188
 7206SOL    HW222518   0.343   1.228   1.148
 7207SOL     OW22519   3.665   0.256   1.127
 7207SOL    HW122520   3.737   0.325   1.136
 7207SOL    HW222521   3.584   0.285   1.178
 7208SOL     OW22522   3.855   6.864   4.573
 7208SOL    HW122523   3.857   6.929   4.497
 7208SOL    HW222524   3.760   6.842   4.596
 7209SOL     OW22525   3.021   3.086   4.095
 7209SOL    HW122526   3.010   3.139   4.012
 7209SOL    HW222527   2.955   3.116   4.164
 7210SOL     OW22528   4.692   1.090   3.534
 7210SOL    HW122529   4.646   1.155   3.595
 7210SOL    HW222530   4.626   1.021   3.504
 7211SOL     OW22531   0.596   6.018   3.879
 7211SOL    HW122532   0.640   6.029   3.790
 7211SOL    HW222533   0.661   5.977   3.943
 7212SOL     OW22534   0.438   6.039   4.353
 7212SOL    HW122535   0.411   6.089   4.435
 7212SOL    HW222536   0.369   6.051   4.282
 7213SOL     OW22537   5.586   6.990   5.267
 7213SOL    HW122538   5.609   0.057   5.304
 7213SOL    HW222539   5.627   6.919   5.323
 7214SOL     OW22540   2.377   5.319   4.633
 7214SOL    HW122541   2.284   5.289   4.653
 7214SOL    HW222542   2.435   5.303   4.714
 7215SOL     OW22543   1.399   2.990   4.300
 7215SOL    HW122544   1.320   2.975   4.240
 7215SOL    HW222545   1.483   2.970   4.250
 7216SOL     OW22546   2.922   5.762   6.724
 7216SOL    HW122547   2.875   5.673   6.724
 7216SOL    HW222548   3.013   5.751   6.764
 7217SOL     OW22549   1.827   4.639   2.468
 7217SOL    HW122550   1.892   4.714   2.463
 7217SOL    HW222551   1.738   4.669   2.434
 7218SOL     OW22552   4.860   2.170   5.450
 7218SOL    HW122553   4.848   2.096   5.515
 7218SOL    HW222554   4.779   2.229   5.450
 7219SOL     OW22555   4.490   6.702   3.772
 7219SOL    HW122556   4.576   6.735   3.734
 7219SOL    HW222557   4.444   6.777   3.820
 7220SOL     OW22558   6.767   0.867   3.503
 7220SOL    HW122559   6.692   0.803   3.519
 7220SOL    HW222560   6.842   0.821   3.456
 7221SOL     OW22561   5.793   4.719   5.617
 7221SOL    HW122562   5.798   4.750   5.712
 7221SOL    HW222563   5.699   4.725   5.584
 7222SOL     OW22564   6.434   6.440   1.048
 7222SOL    HW122565   6.448   6.388   0.963
 7222SOL    HW222566   6.519   6.485   1.074
 7223SOL     OW22567   3.059   1.799   0.753
 7223SOL    HW122568   3.154   1.814   0.729
 7223SOL    HW222569   3.012   1.887   0.763
 7224SOL     OW22570   6.097   1.258   4.548
 7224SOL    HW122571   6.042   1.309   4.613
 7224SOL    HW222572   6.039   1.225   4.473
 7225SOL     OW22573   1.688   5.844   0.446
 7225SOL    HW122574   1.753   5.845   0.370
 7225SOL    HW222575   1.705   5.764   0.503
 7226SOL     OW22576   0.104   6.717   0.472
 7226SOL    HW122577   0.027   6.747   0.415
 7226SOL    HW222578   0.069   6.678   0.557
 7227SOL     OW22579   0.413   1.889   6.942
 7227SOL    HW122580   0.513   1.878   6.942
 7227SOL    HW222581   0.390   1.984   6.962
 7228SOL     OW22582   6.981   6.509   1.988
 7228SOL    HW122583   6.915   6.452   2.037
 7228SOL    HW222584   0.043   6.513   2.040
 7229SOL     OW22585   1.002   0.753   4.457
 7229SOL    HW122586   1.006   0.657   4.430
 7229SOL    HW222587   0.982   0.809   4.376
 7230SOL     OW22588   4.330   5.541   4.325
 7230SOL    HW122589   4.352   5.475   4.253
 7230SOL    HW222590   4.278   5.617   4.286
 7231SOL     OW22591   5.755   1.848   6.058
 7231SOL    HW122592   5.661   1.860   6.091
 7231SOL    HW222593   5.766   1.755   6.022
 7232SOL     OW22594   4.167   4.767   2.859
 7232SOL    HW122595   4.104   4.785   2.935
 7232SOL    HW222596   4.126   4.800   2.773
 7233SOL     OW22597   0.628   2.946   5.225
 7233SOL    HW122598   0.692   2.876   5.192
 7233SOL    HW222599   0.649   2.967   5.321
 7234SOL     OW22600   5.918   2.528   2.078
 7234SOL    HW122601   6.009   2.523   2.036
 7234SOL    HW222602   5.919   2.599   2.149
 7235SOL     OW22603   5.570   4.205   4.777
 7235SOL    HW122604   5.608   4.297   4.790
 7235SOL    HW222605   5.634   4.138   4.814
 7236SOL     OW22606   3.678   1.795   2.855
 7236SOL    HW122607   3.667   1.799   2.756
 7236SOL    HW222608   3.643   1.708   2.890
 7237SOL     OW22609   6.618   6.202   5.214
 7237SOL    HW122610   6.594   6.110   5.247
 7237SOL    HW222611   6.571   6.271   5.269
 7238SOL     OW22612   2.654   1.592   2.439
 7238SOL    HW122613   2.576   1.655   2.430
 7238SOL    HW222614   2.633   1.506   2.393
 7239SOL     OW22615   1.915   1.623   2.780
 7239SOL    HW122616   1.893   1.660   2.690
 7239SOL    HW222617   1.920   1.523   2.775
 7240SOL     OW22618   3.032   3.754   1.124
 7240SOL    HW122619   2.969   3.677   1.120
 7240SOL    HW222620   3.020   3.811   1.042
 7241SOL     OW22621   3.622   0.706   5.907
 7241SOL    HW122622   3.696   0.639   5.916
 7241SOL    HW222623   3.617   0.760   5.991
 7242SOL     OW22624   5.674   4.102   6.730
 7242SOL    HW122625   5.749   4.158   6.766
 7242SOL    HW222626   5.668   4.017   6.783
 7243SOL     OW22627   1.341   4.683   6.483
 7243SOL    HW122628   1.300   4.745   6.549
 7243SOL    HW222629   1.291   4.597   6.483
 7244SOL     OW22630   5.396   1.625   1.083
 7244SOL    HW122631   5.403   1.717   1.045
 7244SOL    HW222632   5.459   1.564   1.036
 7245SOL     OW22633   0.104   2.327   4.654
 7245SOL    HW122634   0.132   2.239   4.616
 7245SOL    HW222635   0.134   2.335   4.749
 7246SOL     OW22636   6.257   6.988   4.692
 7246SOL    HW122637   6.290   6.911   4.747
 7246SOL    HW222638   6.193   6.954   4.623
 7247SOL     OW22639   2.713   6.099   1.910
 7247SOL    HW122640   2.616   6.090   1.933
 7247SOL    HW222641   2.722   6.118   1.812
 7248SOL     OW22642   3.969   1.028   4.062
 7248SOL    HW122643   3.869   1.034   4.059
 7248SOL    HW222644   4.003   1.077   4.143
 7249SOL     OW22645   5.477   4.166   1.027
 7249SOL    HW122646   5.382   4.137   1.040
 7249SOL    HW222647   5.538   4.094   1.061
 7250SOL     OW22648   1.853   4.529   6.520
 7250SOL    HW122649   1.859   4.561   6.615
 7250SOL    HW222650   1.768   4.561   6.479
 7251SOL     OW22651   6.877   6.597   4.737
 7251SOL    HW122652   6.854   6.595   4.834
 7251SOL    HW222653   6.974   6.579   4.724
 7252SOL     OW22654   2.960   3.346   4.930
 7252SOL    HW122655   3.002   3.305   4.849
 7252SOL    HW222656   2.937   3.274   4.995
 7253SOL     OW22657   2.933   6.260   1.348
 7253SOL    HW122658   2.955   6.307   1.433
 7253SOL    HW222659   2.892   6.324   1.283
 7254SOL     OW22660   3.609   5.425   3.834
 7254SOL    HW122661   3.688   5.463   3.882
 7254SOL    HW222662   3.639   5.351   3.774
 7255SOL     OW22663   2.963   3.597   2.410
 7255SOL    HW122664   2.934   3.650   2.330
 7255SOL    HW222665   2.944   3.500   2.394
 7256SOL     OW22666   4.316   5.033   4.248
 7256SOL    HW122667   4.334   5.131   4.237
 7256SOL    HW222668   4.252   5.003   4.178
 7257SOL     OW22669   5.360   2.577   3.004
 7257SOL    HW122670   5.394   2.484   2.993
 7257SOL    HW222671   5.293   2.597   2.932
 7258SOL     OW22672   3.929   0.293   4.731
 7258SOL    HW122673   3.864   0.254   4.666
 7258SOL    HW222674   3.936   0.392   4.716
 7259SOL     OW22675   2.285   3.676   6.728
 7259SOL    HW122676   2.245   3.692   6.818
 7259SOL    HW222677   2.367   3.731   6.717
 7260SOL     OW22678   3.556   2.086   2.688
 7260SOL    HW122679   3.484   2.018   2.701
 7260SOL    HW222680   3.602   2.102   2.775
 7261SOL     OW22681   2.155   3.212   1.854
 7261SOL    HW122682   2.232   3.220   1.790
 7261SOL    HW222683   2.170   3.273   1.932
 7262SOL     OW22684   5.415   2.028   4.640
 7262SOL    HW122685   5.515   2.022   4.641
 7262SOL    HW222686   5.388   2.112   4.591
 7263SOL     OW22687   1.143   5.704   1.267
 7263SOL    HW122688   1.170   5.638   1.336
 7263SOL    HW222689   1.160   5.667   1.176
 7264SOL     OW22690   6.562   1.316   6.818
 7264SOL    HW122691   6.539   1.235   6.764
 7264SOL    HW222692   6.652   1.351   6.791
 7265SOL     OW22693   5.293   5.045   5.639
 7265SOL    HW122694   5.291   4.948   5.614
 7265SOL    HW222695   5.301   5.054   5.738
 7266SOL     OW22696   4.952   0.436   1.727
 7266SOL    HW122697   4.884   0.365   1.708
 7266SOL    HW222698   4.958   0.452   1.825
 7267SOL     OW22699   0.206   3.593   4.705
 7267SOL    HW122700   0.285   3.579   4.765
 7267SOL    HW222701   0.129   3.538   4.739
 7268SOL     OW22702   4.097   6.275   1.495
 7268SOL    HW122703   4.036   6.228   1.559
 7268SOL    HW222704   4.191   6.271   1.529
 7269SOL     OW22705   0.767   5.534   1.827
 7269SOL    HW122706   0.738   5.601   1.895
 7269SOL    HW222707   0.860   5.504   1.846
 7270SOL     OW22708   2.509   1.968   2.650
 7270SOL    HW122709   2.567   1.981   2.570
 7270SOL    HW222710   2.491   1.870   2.663
 7271SOL     OW22711   6.986   3.817   3.255
 7271SOL    HW122712   7.010   3.910   3.228
 7271SOL    HW222713   6.888   3.811   3.272
 7272SOL     OW22714   5.043   2.842   3.089
 7272SOL    HW122715   4.972   2.845   3.019
 7272SOL    HW222716   5.023   2.911   3.159
 7273SOL     OW22717   5.852   4.589   1.713
 7273SOL    HW122718   5.754   4.599   1.731
 7273SOL    HW222719   5.899   4.675   1.732
 7274SOL     OW22720   6.822   5.082   5.774
 7274SOL    HW122721   6.849   5.049   5.683
 7274SOL    HW222722   6.876   5.162   5.797
 7275SOL     OW22723   7.009   0.154   6.875
 7275SOL    HW122724   7.002   0.250   6.904
 7275SOL    HW222725   0.076   0.139   6.834
 7276SOL     OW22726   2.093   2.017   3.582
 7276SOL    HW122727   2.105   2.042   3.678
 7276SOL    HW222728   2.017   1.953   3.574
 7277SOL     OW22729   4.723   1.583   4.822
 7277SOL    HW122730   4.754   1.524   4.747
 7277SOL    HW222731   4.798   1.644   4.849
 7278SOL     OW22732   3.444   1.462   3.571
 7278SOL    HW122733   3.524   1.511   3.605
 7278SOL    HW222734   3.363   1.489   3.624
 7279SOL     OW22735   4.680   4.512   0.104
 7279SOL    HW122736   4.632   4.597   0.124
 7279SOL    HW222737   4.716   4.515   0.011
 7280SOL     OW22738   5.465   2.023   5.397
 7280SOL    HW122739   5.370   2.000   5.418
 7280SOL    HW222740   5.475   2.038   5.299
 7281SOL     OW22741   3.429   6.704   1.992
 7281SOL    HW122742   3.332   6.714   2.013
 7281SOL    HW222743   3.442   6.631   1.925
 7282SOL     OW22744   6.628   5.552   2.201
 7282SOL    HW122745   6.697   5.610   2.244
 7282SOL    HW222746   6.608   5.586   2.109
 7283SOL     OW22747   3.809   5.175   2.757
 7283SOL    HW122748   3.788   5.233   2.679
 7283SOL    HW222749   3.782   5.081   2.737
 7284SOL     OW22750   6.620   1.676   3.679
 7284SOL    HW122751   6.675   1.750   3.640
 7284SOL    HW222752   6.664   1.588   3.659
 7285SOL     OW22753   4.721   2.746   1.951
 7285SOL    HW122754   4.673   2.749   1.863
 7285SOL    HW222755   4.732   2.839   1.985
 7286SOL     OW22756   0.516   0.719   0.457
 7286SOL    HW122757   0.465   0.696   0.374
 7286SOL    HW222758   0.489   0.656   0.530
 7287SOL     OW22759   1.407   2.587   3.766
 7287SOL    HW122760   1.325   2.533   3.785
 7287SOL    HW222761   1.380   2.676   3.728
 7288SOL     OW22762   3.082   2.168   3.151
 7288SOL    HW122763   2.992   2.211   3.151
 7288SOL    HW222764   3.119   2.166   3.058
 7289SOL     OW22765   6.132   2.544   1.327
 7289SOL    HW122766   6.204   2.586   1.382
 7289SOL    HW222767   6.073   2.615   1.290
 7290SOL     OW22768   3.625   1.435   4.776
 7290SOL    HW122769   3.615   1.504   4.704
 7290SOL    HW222770   3.693   1.467   4.843
 7291SOL     OW22771   3.940   0.928   6.954
 7291SOL    HW122772   3.877   0.913   6.878
 7291SOL    HW222773   4.033   0.939   6.920
 7292SOL     OW22774   1.990   7.017   3.007
 7292SOL    HW122775   1.999   6.958   2.927
 7292SOL    HW222776   1.920   6.981   3.068
 7293SOL     OW22777   1.262   1.132   4.835
 7293SOL    HW122778   1.277   1.070   4.758
 7293SOL    HW222779   1.351   1.167   4.868
 7294SOL     OW22780   2.759   5.172   1.363
 7294SOL    HW122781   2.820   5.140   1.436
 7294SOL    HW222782   2.796   5.145   1.275
 7295SOL     OW22783   6.380   5.528   2.324
 7295SOL    HW122784   6.472   5.558   2.299
 7295SOL    HW222785   6.316   5.555   2.252
 7296SOL     OW22786   4.069   4.909   2.381
 7296SOL    HW122787   4.100   4.838   2.316
 7296SOL    HW222788   4.106   4.997   2.353
 7297SOL     OW22789   3.709   6.123   1.332
 7297SOL    HW122790   3.693   6.218   1.359
 7297SOL    HW222791   3.765   6.121   1.250
 7298SOL     OW22792   5.072   5.793   6.465
 7298SOL    HW122793   5.009   5.773   6.390
 7298SOL    HW222794   5.093   5.890   6.466
 7299SOL     OW22795   1.407   2.872   0.186
 7299SOL    HW122796   1.322   2.892   0.236
 7299SOL    HW222797   1.465   2.813   0.241
 7300SOL     OW22798   1.055   4.825   1.896
 7300SOL    HW122799   1.101   4.848   1.982
 7300SOL    HW222800   0.976   4.767   1.915
 7301SOL     OW22801   5.560   6.511   5.568
 7301SOL    HW122802   5.606   6.507   5.657
 7301SOL    HW222803   5.579   6.428   5.516
 7302SOL     OW22804   4.965   2.795   5.639
 7302SOL    HW122805   5.025   2.873   5.659
 7302SOL    HW222806   5.009   2.735   5.573
 7303SOL     OW22807   2.496   1.036   0.955
 7303SOL    HW122808   2.568   1.086   1.003
 7303SOL    HW222809   2.421   1.100   0.933
 7304SOL     OW22810   2.547   5.537   1.968
 7304SOL    HW122811   2.637   5.528   2.012
 7304SOL    HW222812   2.545   5.621   1.915
 7305SOL     OW22813   5.665   2.404   0.642
 7305SOL    HW122814   5.618   2.458   0.572
 7305SOL    HW222815   5.631   2.310   0.640
 7306SOL     OW22816   2.084   1.404   1.373
 7306SOL    HW122817   2.136   1.441   1.450
 7306SOL    HW222818   2.000   1.362   1.406
 7307SOL     OW22819   1.775   6.627   1.135
 7307SOL    HW122820   1.717   6.594   1.208
 7307SOL    HW222821   1.846   6.687   1.173
 7308SOL     OW22822   4.565   0.873   2.230
 7308SOL    HW122823   4.638   0.869   2.161
 7308SOL    HW222824   4.478   0.891   2.185
 7309SOL     OW22825   2.262   5.044   3.238
 7309SOL    HW122826   2.317   5.086   3.166
 7309SOL    HW222827   2.188   5.106   3.264
 7310SOL     OW22828   1.853   2.823   0.152
 7310SOL    HW122829   1.819   2.735   0.184
 7310SOL    HW222830   1.911   2.864   0.222
 7311SOL     OW22831   0.127   6.694   6.410
 7311SOL    HW122832   0.171   6.623   6.466
 7311SOL    HW222833   0.118   6.777   6.464
 7312SOL     OW22834   0.284   2.419   5.548
 7312SOL    HW122835   0.231   2.471   5.614
 7312SOL    HW222836   0.233   2.412   5.462
 7313SOL     OW22837   2.633   0.619   2.109
 7313SOL    HW122838   2.541   0.579   2.116
 7313SOL    HW222839   2.693   0.557   2.058
 7314SOL     OW22840   0.212   4.548   6.963
 7314SOL    HW122841   0.218   4.477   0.010
 7314SOL    HW222842   0.187   4.506   6.875
 7315SOL     OW22843   1.007   4.801   2.569
 7315SOL    HW122844   1.104   4.820   2.583
 7315SOL    HW222845   0.996   4.714   2.520
 7316SOL     OW22846   3.329   1.938   0.086
 7316SOL    HW122847   3.347   2.026   0.129
 7316SOL    HW222848   3.415   1.900   0.051
 7317SOL     OW22849   3.504   1.378   1.857
 7317SOL    HW122850   3.428   1.316   1.838
 7317SOL    HW222851   3.558   1.390   1.773
 7318SOL     OW22852   3.744   0.184   1.524
 7318SOL    HW122853   3.711   0.217   1.436
 7318SOL    HW222854   3.766   0.087   1.517
 7319SOL     OW22855   6.393   4.921   0.536
 7319SOL    HW122856   6.487   4.887   0.532
 7319SOL    HW222857   6.390   5.004   0.591
 7320SOL     OW22858   0.076   3.165   1.028
 7320SOL    HW122859   0.014   3.128   1.097
 7320SOL    HW222860   0.170   3.160   1.060
 7321SOL     OW22861   1.999   6.169   6.716
 7321SOL    HW122862   2.064   6.116   6.661
 7321SOL    HW222863   2.018   6.266   6.705
 7322SOL     OW22864   0.564   2.394   2.269
 7322SOL    HW122865   0.511   2.377   2.353
 7322SOL    HW222866   0.502   2.428   2.198
 7323SOL     OW22867   1.107   1.456   1.153
 7323SOL    HW122868   1.019   1.489   1.118
 7323SOL    HW222869   1.101   1.446   1.252
 7324SOL     OW22870   5.733   4.837   3.092
 7324SOL    HW122871   5.754   4.932   3.071
 7324SOL    HW222872   5.818   4.789   3.115
 7325SOL     OW22873   4.060   1.368   6.154
 7325SOL    HW122874   4.055   1.364   6.054
 7325SOL    HW222875   4.026   1.283   6.193
 7326SOL     OW22876   2.520   0.688   0.295
 7326SOL    HW122877   2.475   0.765   0.251
 7326SOL    HW222878   2.569   0.634   0.226
 7327SOL     OW22879   6.321   3.883   3.202
 7327SOL    HW122880   6.329   3.828   3.285
 7327SOL    HW222881   6.396   3.949   3.198
 7328SOL     OW22882   4.107   4.812   5.163
 7328SOL    HW122883   4.139   4.730   5.211
 7328SOL    HW222884   4.127   4.803   5.066
 7329SOL     OW22885   2.631   3.310   0.700
 7329SOL    HW122886   2.702   3.262   0.751
 7329SOL    HW222887   2.672   3.383   0.645
 7330SOL     OW22888   3.536   2.746   1.340
 7330SOL    HW122889   3.585   2.694   1.411
 7330SOL    HW222890   3.539   2.695   1.254
 7331SOL     OW22891   4.549   0.448   1.917
 7331SOL    HW122892   4.450   0.437   1.902
 7331SOL    HW222893   4.595   0.455   1.828
 7332SOL     OW22894   3.026   4.040   6.731
 7332SOL    HW122895   3.124   4.022   6.726
 7332SOL    HW222896   2.988   3.999   6.814
 7333SOL     OW22897   6.626   2.220   1.693
 7333SOL    HW122898   6.619   2.300   1.753
 7333SOL    HW222899   6.722   2.203   1.671
 7334SOL     OW22900   3.094   6.792   5.721
 7334SOL    HW122901   3.193   6.798   5.727
 7334SOL    HW222902   3.064   6.824   5.631
 7335SOL     OW22903   6.794   2.858   2.696
 7335SOL    HW122904   6.852   2.863   2.615
 7335SOL    HW222905   6.731   2.781   2.688
 7336SOL     OW22906   1.364   6.063   1.292
 7336SOL    HW122907   1.301   6.020   1.356
 7336SOL    HW222908   1.407   5.993   1.235
 7337SOL     OW22909   2.254   2.086   2.691
 7337SOL    HW122910   2.353   2.074   2.681
 7337SOL    HW222911   2.235   2.174   2.734
 7338SOL     OW22912   5.387   2.990   1.707
 7338SOL    HW122913   5.403   3.004   1.610
 7338SOL    HW222914   5.458   2.930   1.744
 7339SOL     OW22915   6.484   5.597   4.860
 7339SOL    HW122916   6.418   5.669   4.837
 7339SOL    HW222917   6.434   5.512   4.880
 7340SOL     OW22918   2.792   7.009   0.573
 7340SOL    HW122919   2.776   0.047   0.496
 7340SOL    HW222920   2.813   6.917   0.540
 7341SOL     OW22921   6.429   5.104   3.920
 7341SOL    HW122922   6.363   5.049   3.970
 7341SOL    HW222923   6.464   5.051   3.843
 7342SOL     OW22924   6.907   0.158   0.921
 7342SOL    HW122925   6.854   0.197   0.996
 7342SOL    HW222926   6.879   0.200   0.834
 7343SOL     OW22927   6.037   3.843   2.868
 7343SOL    HW122928   6.122   3.812   2.911
 7343SOL    HW222929   5.960   3.796   2.910
 7344SOL     OW22930   2.201   6.637   0.036
 7344SOL    HW122931   2.127   6.619   6.994
 7344SOL    HW222932   2.222   6.734   0.036
 7345SOL     OW22933   4.465   5.303   5.581
 7345SOL    HW122934   4.436   5.342   5.493
 7345SOL    HW222935   4.478   5.205   5.571
 7346SOL     OW22936   3.678   4.540   1.506
 7346SOL    HW122937   3.604   4.517   1.569
 7346SOL    HW222938   3.640   4.565   1.417
 7347SOL     OW22939   5.847   1.633   1.927
 7347SOL    HW122940   5.758   1.665   1.958
 7347SOL    HW222941   5.919   1.694   1.961
 7348SOL     OW22942   1.615   2.079   4.029
 7348SOL    HW122943   1.519   2.089   4.056
 7348SOL    HW222944   1.623   2.007   3.960
 7349SOL     OW22945   3.713   1.725   0.815
 7349SOL    HW122946   3.674   1.737   0.906
 7349SOL    HW222947   3.806   1.687   0.824
 7350SOL     OW22948   0.969   2.101   3.147
 7350SOL    HW122949   1.056   2.084   3.194
 7350SOL    HW222950   0.936   2.015   3.108
 7351SOL     OW22951   4.527   5.159   6.565
 7351SOL    HW122952   4.587   5.111   6.629
 7351SOL    HW222953   4.436   5.117   6.567
 7352SOL     OW22954   1.083   1.930   2.362
 7352SOL    HW122955   1.041   2.015   2.331
 7352SOL    HW222956   1.033   1.852   2.325
 7353SOL     OW22957   5.911   1.624   4.804
 7353SOL    HW122958   5.852   1.641   4.884
 7353SOL    HW222959   5.955   1.710   4.777
 7354SOL     OW22960   6.474   6.342   5.377
 7354SOL    HW122961   6.392   6.285   5.377
 7354SOL    HW222962   6.449   6.436   5.357
 7355SOL     OW22963   1.025   5.449   1.844
 7355SOL    HW122964   0.990   5.361   1.811
 7355SOL    HW222965   1.061   5.501   1.767
 7356SOL     OW22966   6.283   1.982   6.654
 7356SOL    HW122967   6.239   1.914   6.713
 7356SOL    HW222968   6.382   1.968   6.655
 7357SOL     OW22969   5.392   2.355   6.963
 7357SOL    HW122970   5.431   2.314   6.881
 7357SOL    HW222971   5.465   2.372   0.007
 7358SOL     OW22972   3.246   1.613   4.200
 7358SOL    HW122973   3.176   1.547   4.227
 7358SOL    HW222974   3.202   1.689   4.151
 7359SOL     OW22975   3.951   3.247   2.739
 7359SOL    HW122976   4.015   3.231   2.664
 7359SOL    HW222977   3.987   3.320   2.798
 7360SOL     OW22978   1.136   2.284   5.139
 7360SOL    HW122979   1.228   2.297   5.177
 7360SOL    HW222980   1.071   2.342   5.187
 7361SOL     OW22981   5.109   6.168   1.470
 7361SOL    HW122982   5.088   6.242   1.406
 7361SOL    HW222983   5.193   6.122   1.441
 7362SOL     OW22984   2.055   6.334   5.145
 7362SOL    HW122985   1.985   6.263   5.138
 7362SOL    HW222986   2.076   6.350   5.242
 7363SOL     OW22987   4.990   2.852   6.989
 7363SOL    HW122988   4.943   2.939   6.970
 7363SOL    HW222989   5.068   2.842   6.928
 7364SOL     OW22990   4.301   6.685   0.747
 7364SOL    HW122991   4.367   6.726   0.684
 7364SOL    HW222992   4.344   6.608   0.794
 7365SOL     OW22993   2.791   0.075   2.393
 7365SOL    HW122994   2.737   0.145   2.440
 7365SOL    HW222995   2.763   7.007   2.423
 7366SOL     OW22996   6.959   5.165   6.971
 7366SOL    HW122997   6.907   5.216   0.017
 7366SOL    HW222998   6.902   5.093   6.933
 7367SOL     OW22999   4.846   3.742   1.862
 7367SOL    HW123000   4.878   3.693   1.944
 7367SOL    HW223001   4.820   3.835   1.887
 7368SOL     OW23002   2.932   3.676   4.762
 7368SOL    HW123003   2.976   3.762   4.736
 7368SOL    HW223004   2.888   3.636   4.681
 7369SOL     OW23005   5.145   4.103   0.551
 7369SOL    HW123006   5.125   4.156   0.468
 7369SOL    HW223007   5.243   4.088   0.558
 7370SOL     OW23008   2.203   0.059   0.701
 7370SOL    HW123009   2.234   7.007   0.758
 7370SOL    HW223010   2.279   0.093   0.645
 7371SOL     OW23011   3.147   4.865   4.063
 7371SOL    HW123012   3.118   4.943   4.008
 7371SOL    HW223013   3.070   4.803   4.077
 7372SOL     OW23014   3.838   0.197   6.029
 7372SOL    HW123015   3.757   0.254   6.018
 7372SOL    HW223016   3.891   0.198   5.944
 7373SOL     OW23017   3.482   0.633   3.006
 7373SOL    HW123018   3.443   0.557   3.057
 7373SOL    HW223019   3.477   0.614   2.908
 7374SOL     OW23020   1.763   3.121   6.043
 7374SOL    HW123021   1.680   3.096   6.092
 7374SOL    HW223022   1.840   3.124   6.106
 7375SOL     OW23023   1.322   0.935   4.651
 7375SOL    HW123024   1.317   0.999   4.574
 7375SOL    HW223025   1.294   0.844   4.620
 7376SOL     OW23026   2.843   2.752   6.918
 7376SOL    HW123027   2.791   2.783   6.839
 7376SOL    HW223028   2.869   2.830   6.975
 7377SOL     OW23029   4.813   4.731   1.916
 7377SOL    HW123030   4.759   4.710   1.835
 7377SOL    HW223031   4.779   4.816   1.957
 7378SOL     OW23032   0.470   1.514   4.754
 7378SOL    HW123033   0.516   1.598   4.723
 7378SOL    HW223034   0.382   1.506   4.707
 7379SOL     OW23035   3.861   1.383   2.155
 7379SOL    HW123036   3.765   1.379   2.127
 7379SOL    HW223037   3.883   1.475   2.187
 7380SOL     OW23038   0.023   3.193   5.771
 7380SOL    HW123039   0.004   3.285   5.804
 7380SOL    HW223040   0.110   3.192   5.722
 7381SOL     OW23041   4.580   2.424   2.282
 7381SOL    HW123042   4.641   2.502   2.265
 7381SOL    HW223043   4.518   2.413   2.205
 7382SOL     OW23044   0.488   4.609   4.501
 7382SOL    HW123045   0.459   4.519   4.533
 7382SOL    HW223046   0.580   4.604   4.463
 7383SOL     OW23047   0.383   6.605   2.623
 7383SOL    HW123048   0.318   6.626   2.550
 7383SOL    HW223049   0.452   6.541   2.590
 7384SOL     OW23050   4.934   6.607   2.087
 7384SOL    HW123051   5.024   6.602   2.130
 7384SOL    HW223052   4.931   6.686   2.026
 7385SOL     OW23053   4.887   6.060   1.963
 7385SOL    HW123054   4.882   5.962   1.982
 7385SOL    HW223055   4.957   6.077   1.895
 7386SOL     OW23056   1.242   2.394   5.493
 7386SOL    HW123057   1.283   2.419   5.581
 7386SOL    HW223058   1.155   2.347   5.508
 7387SOL     OW23059   4.479   5.272   4.214
 7387SOL    HW123060   4.561   5.237   4.260
 7387SOL    HW223061   4.489   5.260   4.115
 7388SOL     OW23062   6.430   4.863   4.389
 7388SOL    HW123063   6.479   4.818   4.314
 7388SOL    HW223064   6.495   4.897   4.456
 7389SOL     OW23065   1.626   3.470   0.010
 7389SOL    HW123066   1.560   3.396   7.017
 7389SOL    HW223067   1.613   3.508   0.101
 7390SOL     OW23068   0.361   1.470   6.002
 7390SOL    HW123069   0.310   1.392   5.968
 7390SOL    HW223070   0.300   1.549   6.013
 7391SOL     OW23071   5.940   3.683   5.912
 7391SOL    HW123072   5.898   3.616   5.850
 7391SOL    HW223073   5.971   3.636   5.994
 7392SOL     OW23074   1.542   4.710   5.047
 7392SOL    HW123075   1.638   4.716   5.073
 7392SOL    HW223076   1.488   4.769   5.106
 7393SOL     OW23077   6.329   5.575   2.597
 7393SOL    HW123078   6.285   5.651   2.644
 7393SOL    HW223079   6.347   5.601   2.502
 7394SOL     OW23080   3.940   3.685   6.667
 7394SOL    HW123081   3.996   3.604   6.685
 7394SOL    HW223082   3.882   3.669   6.587
 7395SOL     OW23083   0.847   7.002   6.756
 7395SOL    HW123084   0.820   0.075   6.755
 7395SOL    HW223085   0.767   6.945   6.737
 7396SOL     OW23086   1.180   0.827   5.964
 7396SOL    HW123087   1.170   0.925   5.976
 7396SOL    HW223088   1.189   0.806   5.866
 7397SOL     OW23089   6.717   4.201   4.645
 7397SOL    HW123090   6.646   4.268   4.667
 7397SOL    HW223091   6.691   4.151   4.563
 7398SOL     OW23092   4.739   5.009   4.193
 7398SOL    HW123093   4.788   5.083   4.239
 7398SOL    HW223094   4.683   4.960   4.259
 7399SOL     OW23095   6.037   3.919   5.773
 7399SOL    HW123096   6.004   3.984   5.705
 7399SOL    HW223097   5.968   3.848   5.788
 7400SOL     OW23098   2.929   4.489   0.313
 7400SOL    HW123099   2.864   4.448   0.250
 7400SOL    HW223100   2.882   4.553   0.373
 7401SOL     OW23101   0.155   1.459   3.992
 7401SOL    HW123102   0.253   1.464   3.974
 7401SOL    HW223103   0.117   1.377   3.947
 7402SOL     OW23104   1.940   0.155   3.910
 7402SOL    HW123105   1.975   0.160   4.004
 7402SOL    HW223106   1.840   0.155   3.911
 7403SOL     OW23107   1.893   3.222   3.520
 7403SOL    HW123108   1.943   3.256   3.599
 7403SOL    HW223109   1.804   3.267   3.514
 7404SOL     OW23110   1.066   0.454   1.079
 7404SOL    HW123111   0.971   0.450   1.110
 7404SOL    HW223112   1.092   0.550   1.064
 7405SOL     OW23113   2.842   5.400   5.224
 7405SOL    HW123114   2.788   5.366   5.301
 7405SOL    HW223115   2.848   5.330   5.154
 7406SOL     OW23116   1.710   3.779   2.300
 7406SOL    HW123117   1.625   3.770   2.353
 7406SOL    HW223118   1.761   3.857   2.334
 7407SOL     OW23119   0.917   6.385   5.133
 7407SOL    HW123120   0.987   6.448   5.099
 7407SOL    HW223121   0.882   6.330   5.056
 7408SOL     OW23122   1.817   4.418   5.607
 7408SOL    HW123123   1.878   4.455   5.537
 7408SOL    HW223124   1.779   4.331   5.575
 7409SOL     OW23125   1.013   0.775   4.920
 7409SOL    HW123126   1.071   0.832   4.978
 7409SOL    HW223127   1.065   0.742   4.842
 7410SOL     OW23128   0.432   4.862   1.134
 7410SOL    HW123129   0.398   4.904   1.049
 7410SOL    HW223130   0.355   4.824   1.185
 7411SOL     OW23131   2.787   6.439   4.956
 7411SOL    HW123132   2.815   6.495   4.878
 7411SOL    HW223133   2.799   6.342   4.933
 7412SOL     OW23134   1.848   0.913   0.884
 7412SOL    HW123135   1.934   0.862   0.882
 7412SOL    HW223136   1.865   1.008   0.858
 7413SOL     OW23137   6.405   3.324   4.379
 7413SOL    HW123138   6.340   3.256   4.346
 7413SOL    HW223139   6.497   3.298   4.351
 7414SOL     OW23140   6.639   6.616   2.104
 7414SOL    HW123141   6.565   6.558   2.138
 7414SOL    HW223142   6.671   6.582   2.016
 7415SOL     OW23143   2.107   3.389   3.008
 7415SOL    HW123144   2.059   3.373   2.922
 7415SOL    HW223145   2.168   3.313   3.027
 7416SOL     OW23146   3.712   1.138   4.065
 7416SOL    HW123147   3.708   1.125   3.966
 7416SOL    HW223148   3.624   1.173   4.097
 7417SOL     OW23149   1.509   6.851   5.894
 7417SOL    HW123150   1.410   6.868   5.897
 7417SOL    HW223151   1.539   6.817   5.983
 7418SOL     OW23152   2.435   4.114   1.166
 7418SOL    HW123153   2.394   4.034   1.121
 7418SOL    HW223154   2.470   4.086   1.255
 7419SOL     OW23155   5.725   1.316   5.004
 7419SOL    HW123156   5.702   1.249   4.933
 7419SOL    HW223157   5.823   1.310   5.025
 7420SOL     OW23158   6.615   6.221   1.656
 7420SOL    HW123159   6.645   6.241   1.750
 7420SOL    HW223160   6.557   6.295   1.623
 7421SOL     OW23161   3.815   4.149   1.546
 7421SOL    HW123162   3.768   4.180   1.463
 7421SOL    HW223163   3.912   4.173   1.541
 7422SOL     OW23164   0.490   3.721   1.024
 7422SOL    HW123165   0.401   3.714   0.979
 7422SOL    HW223166   0.492   3.659   1.103
 7423SOL     OW23167   2.377   4.627   5.987
 7423SOL    HW123168   2.434   4.592   6.062
 7423SOL    HW223169   2.281   4.630   6.017
 7424SOL     OW23170   5.609   1.362   4.666
 7424SOL    HW123171   5.593   1.440   4.604
 7424SOL    HW223172   5.576   1.385   4.757
 7425SOL     OW23173   3.457   4.564   6.229
 7425SOL    HW123174   3.394   4.524   6.162
 7425SOL    HW223175   3.522   4.494   6.259
 7426SOL     OW23176   0.302   1.752   6.264
 7426SOL    HW123177   0.395   1.717   6.247
 7426SOL    HW223178   0.237   1.704   6.206
 7427SOL     OW23179   3.179   6.305   4.984
 7427SOL    HW123180   3.254   6.263   4.933
 7427SOL    HW223181   3.213   6.339   5.071
 7428SOL     OW23182   3.578   2.430   5.929
 7428SOL    HW123183   3.540   2.338   5.932
 7428SOL    HW223184   3.506   2.495   5.905
 7429SOL     OW23185   0.065   6.973   2.419
 7429SOL    HW123186   0.024   0.004   2.346
 7429SOL    HW223187   0.001   6.901   2.447
 7430SOL     OW23188   6.940   3.557   5.349
 7430SOL    HW123189   6.959   3.484   5.284
 7430SOL    HW223190   6.906   3.638   5.300
 7431SOL     OW23191   0.620   3.081   1.926
 7431SOL    HW123192   0.707   3.128   1.942
 7431SOL    HW223193   0.562   3.136   1.866
 7432SOL     OW23194   0.746   6.900   3.789
 7432SOL    HW123195   0.741   6.803   3.814
 7432SOL    HW223196   0.836   6.936   3.814
 7433SOL     OW23197   5.950   5.638   0.841
 7433SOL    HW123198   5.904   5.568   0.788
 7433SOL    HW223199   5.941   5.618   0.939
 7434SOL     OW23200   2.826   2.035   6.793
 7434SOL    HW123201   2.753   2.007   6.855
 7434SOL    HW223202   2.844   1.961   6.727
 7435SOL     OW23203   3.466   6.206   6.509
 7435SOL    HW123204   3.367   6.207   6.494
 7435SOL    HW223205   3.510   6.158   6.434
 7436SOL     OW23206   5.293   3.173   6.867
 7436SOL    HW123207   5.329   3.109   6.934
 7436SOL    HW223208   5.252   3.123   6.791
 7437SOL     OW23209   0.165   4.880   6.456
 7437SOL    HW123210   0.180   4.816   6.381
 7437SOL    HW223211   0.199   4.970   6.431
 7438SOL     OW23212   0.526   4.602   2.135
 7438SOL    HW123213   0.496   4.506   2.135
 7438SOL    HW223214   0.619   4.607   2.099
 7439SOL     OW23215   2.089   0.053   4.126
 7439SOL    HW123216   2.173   0.061   4.072
 7439SOL    HW223217   2.034   7.000   4.091
 7440SOL     OW23218   1.157   2.675   4.553
 7440SOL    HW123219   1.205   2.588   4.550
 7440SOL    HW223220   1.075   2.666   4.608
 7441SOL     OW23221   5.533   0.939   4.161
 7441SOL    HW123222   5.595   0.895   4.226
 7441SOL    HW223223   5.560   1.035   4.150
 7442SOL     OW23224   1.002   1.723   6.373
 7442SOL    HW123225   0.924   1.769   6.330
 7442SOL    HW223226   1.015   1.633   6.332
 7443SOL     OW23227   0.589   1.748   6.448
 7443SOL    HW123228   0.573   1.719   6.354
 7443SOL    HW223229   0.567   1.674   6.511
 7444SOL     OW23230   6.906   3.508   6.281
 7444SOL    HW123231   6.941   3.433   6.225
 7444SOL    HW223232   6.930   3.596   6.239
 7445SOL     OW23233   5.224   1.502   1.672
 7445SOL    HW123234   5.178   1.529   1.588
 7445SOL    HW223235   5.303   1.562   1.687
 7446SOL     OW23236   6.551   4.105   0.465
 7446SOL    HW123237   6.587   4.164   0.538
 7446SOL    HW223238   6.575   4.010   0.484
 7447SOL     OW23239   1.925   4.408   0.594
 7447SOL    HW123240   1.864   4.441   0.522
 7447SOL    HW223241   2.020   4.433   0.571
 7448SOL     OW23242   5.497   0.125   5.652
 7448SOL    HW123243   5.532   0.031   5.653
 7448SOL    HW223244   5.416   0.131   5.710
 7449SOL     OW23245   5.003   2.273   1.897
 7449SOL    HW123246   4.954   2.223   1.826
 7449SOL    HW223247   5.000   2.221   1.983
 7450SOL     OW23248   4.492   2.422   2.976
 7450SOL    HW123249   4.432   2.402   2.899
 7450SOL    HW223250   4.534   2.337   3.008
 7451SOL     OW23251   1.480   1.287   4.902
 7451SOL    HW123252   1.506   1.353   4.831
 7451SOL    HW223253   1.552   1.218   4.911
 7452SOL     OW23254   1.901   0.128   5.089
 7452SOL    HW123255   1.817   0.076   5.108
 7452SOL    HW223256   1.959   0.077   5.026
 7453SOL     OW23257   5.975   6.877   4.883
 7453SOL    HW123258   6.025   6.806   4.933
 7453SOL    HW223259   5.899   6.909   4.939
 7454SOL     OW23260   0.912   3.531   1.877
 7454SOL    HW123261   0.816   3.556   1.862
 7454SOL    HW223262   0.970   3.581   1.812
 7455SOL     OW23263   5.238   2.164   0.434
 7455SOL    HW123264   5.202   2.077   0.401
 7455SOL    HW223265   5.172   2.237   0.413
 7456SOL     OW23266   1.226   3.342   4.733
 7456SOL    HW123267   1.290   3.419   4.741
 7456SOL    HW223268   1.241   3.296   4.646
 7457SOL     OW23269   5.404   0.998   5.281
 7457SOL    HW123270   5.469   1.016   5.208
 7457SOL    HW223271   5.451   0.997   5.369
 7458SOL     OW23272   2.966   6.887   0.277
 7458SOL    HW123273   3.051   6.939   0.285
 7458SOL    HW223274   2.982   6.791   0.299
 7459SOL     OW23275   4.862   6.956   5.715
 7459SOL    HW123276   4.795   7.020   5.677
 7459SOL    HW223277   4.954   6.989   5.694
 7460SOL     OW23278   1.780   4.513   0.809
 7460SOL    HW123279   1.781   4.605   0.769
 7460SOL    HW223280   1.824   4.448   0.747
 7461SOL     OW23281   5.808   1.049   5.694
 7461SOL    HW123282   5.781   0.953   5.688
 7461SOL    HW223283   5.726   1.106   5.699
 7462SOL     OW23284   2.116   1.791   1.851
 7462SOL    HW123285   2.207   1.831   1.859
 7462SOL    HW223286   2.105   1.719   1.920
 7463SOL     OW23287   3.633   3.283   1.641
 7463SOL    HW123288   3.541   3.313   1.616
 7463SOL    HW223289   3.651   3.306   1.736
 7464SOL     OW23290   4.180   6.021   0.599
 7464SOL    HW123291   4.118   6.092   0.565
 7464SOL    HW223292   4.171   5.939   0.543
 7465SOL     OW23293   1.906   6.851   1.321
 7465SOL    HW123294   1.890   6.949   1.308
 7465SOL    HW223295   1.857   6.820   1.403
 7466SOL     OW23296   0.247   0.217   6.240
 7466SOL    HW123297   0.342   0.248   6.252
 7466SOL    HW223298   0.216   0.239   6.148
 7467SOL     OW23299   6.804   2.329   1.252
 7467SOL    HW123300   6.716   2.358   1.215
 7467SOL    HW223301   6.874   2.337   1.181
 7468SOL     OW23302   5.310   1.818   2.447
 7468SOL    HW123303   5.280   1.897   2.393
 7468SOL    HW223304   5.363   1.850   2.525
 7469SOL     OW23305   1.248   6.823   6.484
 7469SOL    HW123306   1.158   6.863   6.467
 7469SOL    HW223307   1.264   6.819   6.583
 7470SOL     OW23308   0.298   1.726   2.250
 7470SOL    HW123309   0.338   1.734   2.159
 7470SOL    HW223310   0.265   1.815   2.280
 7471SOL     OW23311   6.512   6.997   4.936
 7471SOL    HW123312   6.445   6.990   5.010
 7471SOL    HW223313   6.533   6.905   4.902
 7472SOL     OW23314   3.669   0.218   4.606
 7472SOL    HW123315   3.587   0.181   4.651
 7472SOL    HW223316   3.707   0.149   4.545
 7473SOL     OW23317   6.890   3.458   4.443
 7473SOL    HW123318   6.968   3.471   4.382
 7473SOL    HW223319   6.822   3.528   4.426
 7474SOL     OW23320   3.275   0.815   4.147
 7474SOL    HW123321   3.305   0.812   4.052
 7474SOL    HW223322   3.350   0.789   4.207
 7475SOL     OW23323   4.347   0.057   1.886
 7475SOL    HW123324   4.317   6.996   1.932
 7475SOL    HW223325   4.413   0.105   1.944
 7476SOL     OW23326   4.777   5.856   4.587
 7476SOL    HW123327   4.779   5.919   4.665
 7476SOL    HW223328   4.685   5.853   4.549
 7477SOL     OW23329   4.207   1.338   4.271
 7477SOL    HW123330   4.210   1.318   4.173
 7477SOL    HW223331   4.287   1.392   4.297
 7478SOL     OW23332   2.895   3.597   6.289
 7478SOL    HW123333   2.909   3.503   6.321
 7478SOL    HW223334   2.895   3.659   6.367
 7479SOL     OW23335   4.402   1.434   0.318
 7479SOL    HW123336   4.498   1.419   0.341
 7479SOL    HW223337   4.396   1.508   0.251
 7480SOL     OW23338   5.815   5.951   1.595
 7480SOL    HW123339   5.853   6.012   1.664
 7480SOL    HW223340   5.823   5.993   1.505
 7481SOL     OW23341   5.277   4.932   0.954
 7481SOL    HW123342   5.260   5.011   0.895
 7481SOL    HW223343   5.368   4.940   0.996
 7482SOL     OW23344   4.260   0.937   2.457
 7482SOL    HW123345   4.222   0.913   2.367
 7482SOL    HW223346   4.226   1.027   2.484
 7483SOL     OW23347   3.219   2.159   4.240
 7483SOL    HW123348   3.182   2.188   4.328
 7483SOL    HW223349   3.285   2.086   4.254
 7484SOL     OW23350   1.701   6.519   1.388
 7484SOL    HW123351   1.660   6.485   1.472
 7484SOL    HW223352   1.801   6.520   1.398
 7485SOL     OW23353   3.162   5.968   5.942
 7485SOL    HW123354   3.209   5.937   5.859
 7485SOL    HW223355   3.230   5.990   6.012
 7486SOL     OW23356   3.235   6.603   5.456
 7486SOL    HW123357   3.220   6.691   5.411
 7486SOL    HW223358   3.332   6.591   5.476
 7487SOL     OW23359   2.893   6.620   3.352
 7487SOL    HW123360   2.843   6.691   3.303
 7487SOL    HW223361   2.966   6.583   3.293
 7488SOL     OW23362   3.359   6.859   5.756
 7488SOL    HW123363   3.411   6.825   5.834
 7488SOL    HW223364   3.349   6.959   5.764
 7489SOL     OW23365   4.524   1.926   4.427
 7489SOL    HW123366   4.494   1.976   4.508
 7489SOL    HW223367   4.475   1.840   4.421
 7490SOL     OW23368   0.218   0.592   0.698
 7490SOL    HW123369   0.255   0.522   0.637
 7490SOL    HW223370   0.212   0.555   0.791
 7491SOL     OW23371   0.149   5.529   6.362
 7491SOL    HW123372   0.169   5.445   6.412
 7491SOL    HW223373   0.054   5.526   6.330
 7492SOL     OW23374   1.585   2.467   5.299
 7492SOL    HW123375   1.554   2.560   5.321
 7492SOL    HW223376   1.639   2.470   5.214
 7493SOL     OW23377   6.060   4.332   5.775
 7493SOL    HW123378   5.999   4.288   5.840
 7493SOL    HW223379   6.099   4.264   5.714
 7494SOL     OW23380   5.699   0.759   2.377
 7494SOL    HW123381   5.706   0.719   2.468
 7494SOL    HW223382   5.612   0.731   2.335
 7495SOL     OW23383   2.178   1.963   0.824
 7495SOL    HW123384   2.142   1.905   0.751
 7495SOL    HW223385   2.139   1.935   0.912
 7496SOL     OW23386   1.090   4.953   6.249
 7496SOL    HW123387   1.106   5.028   6.185
 7496SOL    HW223388   1.046   4.988   6.332
 7497SOL     OW23389   2.747   5.131   2.071
 7497SOL    HW123390   2.842   5.163   2.076
 7497SOL    HW223391   2.740   5.059   2.002
 7498SOL     OW23392   2.749   1.100   4.618
 7498SOL    HW123393   2.685   1.023   4.631
 7498SOL    HW223394   2.760   1.118   4.520
 7499SOL     OW23395   5.532   6.496   4.405
 7499SOL    HW123396   5.540   6.420   4.339
 7499SOL    HW223397   5.443   6.491   4.450
 7500SOL     OW23398   4.144   5.939   2.794
 7500SOL    HW123399   4.233   5.905   2.824
 7500SOL    HW223400   4.156   6.028   2.750
 7501SOL     OW23401   1.152   2.998   4.096
 7501SOL    HW123402   1.140   2.949   4.182
 7501SOL    HW223403   1.071   2.985   4.038
 7502SOL     OW23404   1.744   0.853   5.075
 7502SOL    HW123405   1.784   0.813   4.993
 7502SOL    HW223406   1.817   0.888   5.134
 7503SOL     OW23407   2.607   0.901   6.446
 7503SOL    HW123408   2.634   0.995   6.428
 7503SOL    HW223409   2.667   0.862   6.516
 7504SOL     OW23410   3.981   6.792   3.537
 7504SOL    HW123411   3.922   6.782   3.617
 7504SOL    HW223412   4.049   6.719   3.536
 7505SOL     OW23413   2.241   0.898   5.289
 7505SOL    HW123414   2.225   0.919   5.385
 7505SOL    HW223415   2.267   0.802   5.280
 7506SOL     OW23416   3.334   0.947   2.685
 7506SOL    HW123417   3.256   1.003   2.659
 7506SOL    HW223418   3.399   0.943   2.609
 7507SOL     OW23419   0.575   5.987   6.373
 7507SOL    HW123420   0.546   5.961   6.281
 7507SOL    HW223421   0.675   5.989   6.377
 7508SOL     OW23422   5.668   6.597   3.128
 7508SOL    HW123423   5.591   6.581   3.189
 7508SOL    HW223424   5.703   6.690   3.142
 7509SOL     OW23425   5.262   4.113   6.965
 7509SOL    HW123426   5.267   4.208   6.934
 7509SOL    HW223427   5.343   4.091   7.018
 7510SOL     OW23428   3.204   4.089   4.621
 7510SOL    HW123429   3.186   4.050   4.711
 7510SOL    HW223430   3.199   4.189   4.626
 7511SOL     OW23431   1.797   0.224   2.592
 7511SOL    HW123432   1.892   0.194   2.579
 7511SOL    HW223433   1.744   0.203   2.510
 7512SOL     OW23434   2.541   3.515   1.457
 7512SOL    HW123435   2.522   3.479   1.548
 7512SOL    HW223436   2.632   3.555   1.455
 7513SOL     OW23437   1.144   2.625   5.906
 7513SOL    HW123438   1.154   2.657   6.000
 7513SOL    HW223439   1.088   2.689   5.854
 7514SOL     OW23440   3.011   6.045   1.580
 7514SOL    HW123441   3.082   6.103   1.619
 7514SOL    HW223442   2.938   6.033   1.647
 7515SOL     OW23443   0.356   0.035   2.576
 7515SOL    HW123444   0.360   0.027   2.476
 7515SOL    HW223445   0.287   0.103   2.601
 7516SOL     OW23446   6.974   6.860   4.212
 7516SOL    HW123447   6.965   6.787   4.280
 7516SOL    HW223448   6.925   6.835   4.129
 7517SOL     OW23449   0.241   3.534   1.170
 7517SOL    HW123450   0.215   3.484   1.087
 7517SOL    HW223451   0.217   3.631   1.160
 7518SOL     OW23452   4.170   5.731   3.605
 7518SOL    HW123453   4.100   5.726   3.676
 7518SOL    HW223454   4.247   5.786   3.638
 7519SOL     OW23455   1.352   6.793   4.838
 7519SOL    HW123456   1.278   6.860   4.851
 7519SOL    HW223457   1.347   6.755   4.746
 7520SOL     OW23458   1.560   6.700   3.020
 7520SOL    HW123459   1.642   6.679   2.966
 7520SOL    HW223460   1.535   6.796   3.005
 7521SOL     OW23461   4.518   4.255   5.214
 7521SOL    HW123462   4.555   4.288   5.301
 7521SOL    HW223463   4.429   4.212   5.230
 7522SOL     OW23464   2.081   1.187   7.001
 7522SOL    HW123465   2.086   1.090   6.975
 7522SOL    HW223466   1.992   1.206   0.018
 7523SOL     OW23467   6.004   6.756   5.614
 7523SOL    HW123468   6.036   6.818   5.542
 7523SOL    HW223469   6.027   6.662   5.589
 7524SOL     OW23470   6.979   1.800   5.669
 7524SOL    HW123471   0.038   1.858   5.671
 7524SOL    HW223472   6.936   1.799   5.759
 7525SOL     OW23473   1.947   0.343   0.366
 7525SOL    HW123474   1.901   0.368   0.451
 7525SOL    HW223475   1.884   0.291   0.308
 7526SOL     OW23476   3.386   3.227   4.618
 7526SOL    HW123477   3.358   3.136   4.647
 7526SOL    HW223478   3.457   3.262   4.680
 7527SOL     OW23479   5.062   4.065   2.789
 7527SOL    HW123480   5.033   4.130   2.719
 7527SOL    HW223481   5.159   4.078   2.809
 7528SOL     OW23482   4.440   2.648   0.764
 7528SOL    HW123483   4.531   2.676   0.733
 7528SOL    HW223484   4.391   2.728   0.801
 7529SOL     OW23485   4.525   1.157   4.166
 7529SOL    HW123486   4.456   1.111   4.221
 7529SOL    HW223487   4.564   1.092   4.101
 7530SOL     OW23488   0.241   3.374   2.473
 7530SOL    HW123489   0.311   3.351   2.540
 7530SOL    HW223490   0.284   3.405   2.389
 7531SOL     OW23491   4.106   1.705   3.657
 7531SOL    HW123492   4.142   1.796   3.680
 7531SOL    HW223493   4.047   1.673   3.732
 7532SOL     OW23494   5.374   6.227   2.188
 7532SOL    HW123495   5.278   6.207   2.170
 7532SOL    HW223496   5.381   6.291   2.264
 7533SOL     OW23497   2.641   1.339   3.949
 7533SOL    HW123498   2.695   1.268   3.995
 7533SOL    HW223499   2.697   1.386   3.881
 7534SOL     OW23500   4.009   6.396   5.373
 7534SOL    HW123501   4.088   6.393   5.434
 7534SOL    HW223502   3.930   6.356   5.420
 7535SOL     OW23503   3.080   1.857   5.361
 7535SOL    HW123504   3.145   1.906   5.418
 7535SOL    HW223505   3.039   1.919   5.294
 7536SOL     OW23506   4.608   5.330   5.010
 7536SOL    HW123507   4.646   5.239   5.027
 7536SOL    HW223508   4.605   5.347   4.911
 7537SOL     OW23509   2.204   4.263   4.523
 7537SOL    HW123510   2.239   4.222   4.607
 7537SOL    HW223511   2.130   4.207   4.486
 7538SOL     OW23512   3.400   3.142   3.123
 7538SOL    HW123513   3.450   3.190   3.052
 7538SOL    HW223514   3.309   3.116   3.089
 7539SOL     OW23515   1.686   3.028   5.206
 7539SOL    HW123516   1.631   2.944   5.210
 7539SOL    HW223517   1.741   3.035   5.289
 7540SOL     OW23518   2.575   0.773   0.036
 7540SOL    HW123519   2.504   0.793   6.991
 7540SOL    HW223520   2.664   0.771   7.014
 7541SOL     OW23521   6.412   2.760   5.766
 7541SOL    HW123522   6.361   2.839   5.799
 7541SOL    HW223523   6.471   2.725   5.840
 7542SOL     OW23524   1.174   0.236   5.670
 7542SOL    HW123525   1.179   0.320   5.724
 7542SOL    HW223526   1.217   0.162   5.721
 7543SOL     OW23527   4.131   2.537   0.439
 7543SOL    HW123528   4.158   2.616   0.495
 7543SOL    HW223529   4.184   2.536   0.355
 7544SOL     OW23530   0.652   2.109   2.672
 7544SOL    HW123531   0.679   2.024   2.717
 7544SOL    HW223532   0.733   2.154   2.635
 7545SOL     OW23533   4.724   6.925   2.704
 7545SOL    HW123534   4.681   6.904   2.792
 7545SOL    HW223535   4.756   6.840   2.662
 7546SOL     OW23536   4.969   1.086   0.189
 7546SOL    HW123537   4.968   1.069   0.287
 7546SOL    HW223538   5.024   1.168   0.170
 7547SOL     OW23539   3.779   0.798   0.146
 7547SOL    HW123540   3.840   0.819   0.069
 7547SOL    HW223541   3.731   0.712   0.128
 7548SOL     OW23542   2.316   1.960   1.102
 7548SOL    HW123543   2.244   1.969   1.171
 7548SOL    HW223544   2.382   1.891   1.132
 7549SOL     OW23545   5.655   1.726   2.617
 7549SOL    HW123546   5.712   1.790   2.565
 7549SOL    HW223547   5.704   1.639   2.626
 7550SOL     OW23548   1.648   5.528   2.336
 7550SOL    HW123549   1.637   5.610   2.391
 7550SOL    HW223550   1.637   5.446   2.393
 7551SOL     OW23551   4.224   3.255   6.945
 7551SOL    HW123552   4.258   3.192   7.015
 7551SOL    HW223553   4.300   3.310   6.910
 7552SOL     OW23554   2.397   5.615   4.598
 7552SOL    HW123555   2.494   5.634   4.607
 7552SOL    HW223556   2.380   5.517   4.613
 7553SOL     OW23557   4.087   4.580   5.983
 7553SOL    HW123558   4.043   4.632   6.056
 7553SOL    HW223559   4.044   4.490   5.976
 7554SOL     OW23560   4.948   2.076   0.704
 7554SOL    HW123561   4.863   2.043   0.747
 7554SOL    HW223562   4.931   2.164   0.661
 7555SOL     OW23563   0.720   5.513   5.405
 7555SOL    HW123564   0.785   5.449   5.445
 7555SOL    HW223565   0.695   5.583   5.473
 7556SOL     OW23566   0.722   3.207   5.413
 7556SOL    HW123567   0.742   3.203   5.511
 7556SOL    HW223568   0.807   3.205   5.361
 7557SOL     OW23569   5.136   4.255   6.370
 7557SOL    HW123570   5.162   4.266   6.466
 7557SOL    HW223571   5.059   4.316   6.350
 7558SOL     OW23572   2.099   2.132   3.827
 7558SOL    HW123573   2.143   2.151   3.914
 7558SOL    HW223574   2.033   2.204   3.806
 7559SOL     OW23575   6.153   5.233   0.925
 7559SOL    HW123576   6.233   5.229   0.986
 7559SOL    HW223577   6.154   5.319   0.874
 7560SOL     OW23578   4.968   0.125   0.548
 7560SOL    HW123579   4.987   0.141   0.451
 7560SOL    HW223580   4.916   0.202   0.585
 7561SOL     OW23581   0.991   3.301   0.752
 7561SOL    HW123582   1.069   3.325   0.811
 7561SOL    HW223583   0.914   3.360   0.775
 7562SOL     OW23584   5.690   6.670   4.892
 7562SOL    HW123585   5.696   6.761   4.933
 7562SOL    HW223586   5.780   6.644   4.856
 7563SOL     OW23587   2.935   0.466   1.745
 7563SOL    HW123588   2.889   0.447   1.832
 7563SOL    HW223589   2.869   0.456   1.671
 7564SOL     OW23590   5.576   6.973   2.872
 7564SOL    HW123591   5.506   0.011   2.837
 7564SOL    HW223592   5.562   6.881   2.834
 7565SOL     OW23593   5.133   5.247   6.520
 7565SOL    HW123594   5.203   5.299   6.471
 7565SOL    HW223595   5.116   5.161   6.472
 7566SOL     OW23596   0.015   4.897   4.005
 7566SOL    HW123597   0.109   4.865   4.004
 7566SOL    HW223598   7.002   4.893   4.098
 7567SOL     OW23599   2.693   4.081   6.047
 7567SOL    HW123600   2.690   4.180   6.053
 7567SOL    HW223601   2.720   4.043   6.135
 7568SOL     OW23602   5.662   5.584   3.837
 7568SOL    HW123603   5.668   5.530   3.752
 7568SOL    HW223604   5.754   5.597   3.875
 7569SOL     OW23605   4.234   6.109   6.701
 7569SOL    HW123606   4.286   6.132   6.619
 7569SOL    HW223607   4.183   6.024   6.686
 7570SOL     OW23608   5.643   4.452   4.853
 7570SOL    HW123609   5.651   4.476   4.950
 7570SOL    HW223610   5.687   4.522   4.798
 7571SOL     OW23611   5.386   3.746   1.940
 7571SOL    HW123612   5.351   3.779   1.853
 7571SOL    HW223613   5.310   3.735   2.005
 7572SOL     OW23614   5.190   0.196   3.718
 7572SOL    HW123615   5.106   0.157   3.680
 7572SOL    HW223616   5.169   0.244   3.804
 7573SOL     OW23617   7.003   5.887   4.160
 7573SOL    HW123618   6.935   5.820   4.192
 7573SOL    HW223619   0.007   5.865   4.067
 7574SOL     OW23620   6.298   1.271   3.434
 7574SOL    HW123621   6.265   1.253   3.341
 7574SOL    HW223622   6.362   1.199   3.461
 7575SOL     OW23623   4.531   1.121   5.867
 7575SOL    HW123624   4.558   1.025   5.878
 7575SOL    HW223625   4.431   1.128   5.869
 7576SOL     OW23626   5.561   4.959   0.274
 7576SOL    HW123627   5.538   4.936   0.179
 7576SOL    HW223628   5.483   5.003   0.317
 7577SOL     OW23629   6.564   0.245   4.415
 7577SOL    HW123630   6.660   0.271   4.410
 7577SOL    HW223631   6.527   0.270   4.504
 7578SOL     OW23632   2.183   6.539   4.384
 7578SOL    HW123633   2.110   6.480   4.419
 7578SOL    HW223634   2.266   6.484   4.372
 7579SOL     OW23635   4.186   2.293   2.426
 7579SOL    HW123636   4.113   2.304   2.493
 7579SOL    HW223637   4.269   2.337   2.459
 7580SOL     OW23638   1.283   3.487   2.646
 7580SOL    HW123639   1.239   3.572   2.616
 7580SOL    HW223640   1.323   3.500   2.736
 7581SOL     OW23641   5.287   1.922   0.723
 7581SOL    HW123642   5.360   1.900   0.658
 7581SOL    HW223643   5.204   1.873   0.698
 7582SOL     OW23644   3.828   1.646   0.419
 7582SOL    HW123645   3.831   1.563   0.475
 7582SOL    HW223646   3.735   1.660   0.385
 7583SOL     OW23647   6.051   4.203   2.072
 7583SOL    HW123648   5.978   4.259   2.032
 7583SOL    HW223649   6.012   4.143   2.142
 7584SOL     OW23650   2.686   6.693   1.197
 7584SOL    HW123651   2.704   6.775   1.250
 7584SOL    HW223652   2.645   6.718   1.109
 7585SOL     OW23653   1.175   3.873   6.364
 7585SOL    HW123654   1.151   3.947   6.427
 7585SOL    HW223655   1.247   3.817   6.405
 7586SOL     OW23656   3.061   0.084   2.332
 7586SOL    HW123657   3.107   0.166   2.368
 7586SOL    HW223658   2.964   0.087   2.356
 7587SOL     OW23659   2.015   1.701   6.873
 7587SOL    HW123660   1.990   1.691   6.970
 7587SOL    HW223661   2.022   1.610   6.831
 7588SOL     OW23662   0.683   5.158   2.258
 7588SOL    HW123663   0.630   5.240   2.281
 7588SOL    HW223664   0.777   5.169   2.290
 7589SOL     OW23665   5.810   6.046   0.237
 7589SOL    HW123666   5.876   6.032   0.311
 7589SOL    HW223667   5.793   6.144   0.224
 7590SOL     OW23668   2.800   1.665   5.603
 7590SOL    HW123669   2.780   1.758   5.634
 7590SOL    HW223670   2.900   1.654   5.595
 7591SOL     OW23671   0.077   5.005   0.534
 7591SOL    HW123672   0.039   5.015   0.442
 7591SOL    HW223673   0.078   5.094   0.579
 7592SOL     OW23674   6.574   4.861   0.097
 7592SOL    HW123675   6.524   4.934   0.143
 7592SOL    HW223676   6.593   4.787   0.162
 7593SOL     OW23677   5.652   2.805   0.355
 7593SOL    HW123678   5.574   2.864   0.376
 7593SOL    HW223679   5.712   2.852   0.291
 7594SOL     OW23680   0.723   4.964   3.316
 7594SOL    HW123681   0.712   5.026   3.394
 7594SOL    HW223682   0.774   4.883   3.345
 7595SOL     OW23683   0.424   3.464   6.433
 7595SOL    HW123684   0.435   3.365   6.434
 7595SOL    HW223685   0.387   3.494   6.521
 7596SOL     OW23686   4.925   4.917   2.660
 7596SOL    HW123687   4.917   4.970   2.745
 7596SOL    HW223688   4.838   4.918   2.611
 7597SOL     OW23689   3.211   5.577   2.048
 7597SOL    HW123690   3.130   5.585   1.990
 7597SOL    HW223691   3.223   5.482   2.076
 7598SOL     OW23692   6.943   0.423   2.657
 7598SOL    HW123693   6.989   0.500   2.612
 7598SOL    HW223694   7.000   0.341   2.651
 7599SOL     OW23695   5.934   1.519   3.300
 7599SOL    HW123696   5.858   1.504   3.363
 7599SOL    HW223697   5.938   1.616   3.275
 7600SOL     OW23698   1.790   0.229   2.095
 7600SOL    HW123699   1.828   0.256   2.183
 7600SOL    HW223700   1.731   0.301   2.060
 7601SOL     OW23701   2.002   5.736   3.530
 7601SOL    HW123702   2.097   5.712   3.508
 7601SOL    HW223703   1.975   5.688   3.614
 7602SOL     OW23704   2.432   4.487   4.825
 7602SOL    HW123705   2.372   4.511   4.749
 7602SOL    HW223706   2.524   4.521   4.806
 7603SOL     OW23707   1.065   6.136   6.334
 7603SOL    HW123708   0.972   6.133   6.370
 7603SOL    HW223709   1.129   6.155   6.408
 7604SOL     OW23710   3.667   5.890   3.972
 7604SOL    HW123711   3.700   5.818   3.911
 7604SOL    HW223712   3.643   5.849   4.061
 7605SOL     OW23713   1.809   5.521   0.048
 7605SOL    HW123714   1.891   5.532   0.103
 7605SOL    HW223715   1.829   5.546   6.976
 7606SOL     OW23716   0.340   2.878   2.159
 7606SOL    HW123717   0.307   2.887   2.065
 7606SOL    HW223718   0.438   2.856   2.158
 7607SOL     OW23719   4.720   6.803   0.355
 7607SOL    HW123720   4.740   6.897   0.326
 7607SOL    HW223721   4.726   6.742   0.276
 7608SOL     OW23722   3.239   4.026   3.379
 7608SOL    HW123723   3.261   4.042   3.476
 7608SOL    HW223724   3.158   3.969   3.372
 7609SOL     OW23725   6.866   3.735   3.751
 7609SOL    HW123726   6.835   3.763   3.842
 7609SOL    HW223727   6.959   3.699   3.757
 7610SOL     OW23728   6.106   0.632   1.199
 7610SOL    HW123729   6.155   0.611   1.114
 7610SOL    HW223730   6.034   0.564   1.213
 7611SOL     OW23731   1.384   1.864   6.970
 7611SOL    HW123732   1.373   1.836   6.874
 7611SOL    HW223733   1.450   1.804   7.015
 7612SOL     OW23734   3.985   1.206   4.341
 7612SOL    HW123735   4.080   1.239   4.343
 7612SOL    HW223736   3.948   1.216   4.249
 7613SOL     OW23737   4.874   1.602   1.357
 7613SOL    HW123738   4.839   1.561   1.441
 7613SOL    HW223739   4.806   1.591   1.284
 7614SOL     OW23740   3.904   2.360   1.687
 7614SOL    HW123741   3.992   2.403   1.703
 7614SOL    HW223742   3.832   2.411   1.734
 7615SOL     OW23743   4.786   4.900   6.575
 7615SOL    HW123744   4.776   4.946   6.663
 7615SOL    HW223745   4.843   4.955   6.514
 7616SOL     OW23746   0.843   4.252   4.427
 7616SOL    HW123747   0.769   4.211   4.479
 7616SOL    HW223748   0.859   4.199   4.344
 7617SOL     OW23749   3.072   5.785   3.960
 7617SOL    HW123750   3.055   5.757   3.865
 7617SOL    HW223751   3.150   5.733   3.996
 7618SOL     OW23752   1.151   2.040   6.298
 7618SOL    HW123753   1.083   2.079   6.236
 7618SOL    HW223754   1.226   2.000   6.244
 7619SOL     OW23755   5.857   3.497   5.711
 7619SOL    HW123756   5.861   3.438   5.631
 7619SOL    HW223757   5.763   3.499   5.746
 7620SOL     OW23758   3.799   0.496   1.167
 7620SOL    HW123759   3.864   0.535   1.232
 7620SOL    HW223760   3.773   0.565   1.100
 7621SOL     OW23761   0.873   0.561   0.058
 7621SOL    HW123762   0.825   0.499   0.120
 7621SOL    HW223763   0.880   0.519   6.990
 7622SOL     OW23764   4.966   2.775   1.610
 7622SOL    HW123765   4.939   2.871   1.616
 7622SOL    HW223766   5.065   2.767   1.620
 7623SOL     OW23767   4.567   5.840   6.305
 7623SOL    HW123768   4.597   5.767   6.366
 7623SOL    HW223769   4.642   5.904   6.290
 7624SOL     OW23770   0.163   2.188   3.542
 7624SOL    HW123771   0.099   2.172   3.467
 7624SOL    HW223772   0.256   2.172   3.511
 7625SOL     OW23773   5.467   1.297   0.228
 7625SOL    HW123774   5.529   1.346   0.167
 7625SOL    HW223775   5.459   1.346   0.314
 7626SOL     OW23776   0.126   6.863   5.032
 7626SOL    HW123777   0.109   6.831   4.939
 7626SOL    HW223778   0.225   6.870   5.047
 7627SOL     OW23779   6.162   3.688   0.735
 7627SOL    HW123780   6.134   3.783   0.745
 7627SOL    HW223781   6.259   3.679   0.758
 7628SOL     OW23782   2.529   0.675   1.439
 7628SOL    HW123783   2.589   0.752   1.421
 7628SOL    HW223784   2.489   0.642   1.354
 7629SOL     OW23785   6.549   6.142   2.551
 7629SOL    HW123786   6.582   6.089   2.629
 7629SOL    HW223787   6.548   6.083   2.470
 7630SOL     OW23788   6.249   6.770   2.138
 7630SOL    HW123789   6.272   6.679   2.105
 7630SOL    HW223790   6.321   6.804   2.198
 7631SOL     OW23791   1.162   2.016   5.171
 7631SOL    HW123792   1.146   2.114   5.158
 7631SOL    HW223793   1.259   1.996   5.161
 7632SOL     OW23794   4.131   2.107   1.192
 7632SOL    HW123795   4.051   2.082   1.246
 7632SOL    HW223796   4.107   2.181   1.130
 7633SOL     OW23797   5.526   3.159   0.238
 7633SOL    HW123798   5.497   3.127   0.329
 7633SOL    HW223799   5.624   3.142   0.226
 7634SOL     OW23800   1.851   0.985   2.334
 7634SOL    HW123801   1.793   0.904   2.327
 7634SOL    HW223802   1.937   0.969   2.286
 7635SOL     OW23803   2.506   5.403   5.572
 7635SOL    HW123804   2.579   5.347   5.533
 7635SOL    HW223805   2.534   5.434   5.663
 7636SOL     OW23806   1.276   1.143   3.840
 7636SOL    HW123807   1.258   1.091   3.757
 7636SOL    HW223808   1.340   1.092   3.898
 7637SOL     OW23809   1.555   6.784   3.814
 7637SOL    HW123810   1.479   6.747   3.867
 7637SOL    HW223811   1.637   6.729   3.830
 7638SOL     OW23812   5.541   5.837   1.605
 7638SOL    HW123813   5.562   5.740   1.599
 7638SOL    HW223814   5.625   5.891   1.600
 7639SOL     OW23815   1.430   1.983   6.503
 7639SOL    HW123816   1.341   1.941   6.518
 7639SOL    HW223817   1.457   1.973   6.408
 7640SOL     OW23818   2.177   2.228   0.792
 7640SOL    HW123819   2.218   2.274   0.871
 7640SOL    HW223820   2.182   2.129   0.806
 7641SOL     OW23821   0.813   4.551   2.057
 7641SOL    HW123822   0.882   4.487   2.090
 7641SOL    HW223823   0.830   4.573   1.961
 7642SOL     OW23824   2.830   1.541   2.877
 7642SOL    HW123825   2.890   1.481   2.930
 7642SOL    HW223826   2.794   1.613   2.938
 7643SOL     OW23827   4.960   2.577   3.602
 7643SOL    HW123828   4.978   2.512   3.676
 7643SOL    HW223829   5.027   2.651   3.606
 7644SOL     OW23830   6.233   2.123   2.364
 7644SOL    HW123831   6.235   2.223   2.362
 7644SOL    HW223832   6.144   2.093   2.399
 7645SOL     OW23833   4.821   5.505   6.352
 7645SOL    HW123834   4.886   5.494   6.427
 7645SOL    HW223835   4.760   5.426   6.349
 7646SOL     OW23836   1.657   1.946   2.174
 7646SOL    HW123837   1.594   1.870   2.158
 7646SOL    HW223838   1.751   1.914   2.162
 7647SOL     OW23839   0.851   3.231   1.968
 7647SOL    HW123840   0.945   3.226   2.004
 7647SOL    HW223841   0.832   3.325   1.940
 7648SOL     OW23842   4.563   2.104   3.429
 7648SOL    HW123843   4.556   2.142   3.522
 7648SOL    HW223844   4.472   2.077   3.398
 7649SOL     OW23845   0.509   0.331   2.010
 7649SOL    HW123846   0.590   0.273   2.021
 7649SOL    HW223847   0.437   0.278   1.965
 7650SOL     OW23848   6.300   3.106   2.076
 7650SOL    HW123849   6.293   3.033   2.009
 7650SOL    HW223850   6.396   3.119   2.101
 7651SOL     OW23851   2.284   6.908   0.047
 7651SOL    HW123852   2.245   6.941   0.132
 7651SOL    HW223853   2.236   6.949   6.993
 7652SOL     OW23854   6.193   3.955   4.318
 7652SOL    HW123855   6.150   3.989   4.234
 7652SOL    HW223856   6.281   4.001   4.331
 7653SOL     OW23857   2.073   1.211   0.744
 7653SOL    HW123858   1.982   1.169   0.748
 7653SOL    HW223859   2.114   1.193   0.655
 7654SOL     OW23860   4.792   2.406   3.229
 7654SOL    HW123861   4.757   2.444   3.314
 7654SOL    HW223862   4.722   2.410   3.159
 7655SOL     OW23863   4.091   0.375   3.780
 7655SOL    HW123864   4.018   0.318   3.817
 7655SOL    HW223865   4.169   0.318   3.755
 7656SOL     OW23866   0.411   5.686   6.019
 7656SOL    HW123867   0.509   5.665   6.021
 7656SOL    HW223868   0.359   5.604   5.995
 7657SOL     OW23869   3.123   2.093   2.895
 7657SOL    HW123870   3.073   2.119   2.812
 7657SOL    HW223871   3.190   2.023   2.873
 7658SOL     OW23872   4.651   0.369   6.473
 7658SOL    HW123873   4.648   0.448   6.535
 7658SOL    HW223874   4.566   0.365   6.420
 7659SOL     OW23875   5.732   7.004   0.546
 7659SOL    HW123876   5.785   7.010   0.461
 7659SOL    HW223877   5.708   6.908   0.563
 7660SOL     OW23878   5.642   5.887   3.841
 7660SOL    HW123879   5.642   5.807   3.782
 7660SOL    HW223880   5.730   5.892   3.890
 7661SOL     OW23881   6.090   2.003   4.649
 7661SOL    HW123882   5.994   2.026   4.665
 7661SOL    HW223883   6.130   1.964   4.732
 7662SOL     OW23884   1.676   2.408   1.866
 7662SOL    HW123885   1.739   2.340   1.904
 7662SOL    HW223886   1.600   2.362   1.819
 7663SOL     OW23887   6.891   5.547   6.583
 7663SOL    HW123888   6.959   5.565   6.654
 7663SOL    HW223889   6.885   5.449   6.567
 7664SOL     OW23890   2.748   6.525   2.702
 7664SOL    HW123891   2.819   6.514   2.632
 7664SOL    HW223892   2.790   6.518   2.792
 7665SOL     OW23893   3.376   0.029   3.764
 7665SOL    HW123894   3.349   0.099   3.697
 7665SOL    HW223895   3.336   6.964   3.739
 7666SOL     OW23896   0.299   6.907   1.578
 7666SOL    HW123897   0.306   6.809   1.597
 7666SOL    HW223898   0.354   6.929   1.497
 7667SOL     OW23899   4.913   5.965   0.113
 7667SOL    HW123900   5.011   5.957   0.098
 7667SOL    HW223901   4.895   5.998   0.205
 7668SOL     OW23902   3.486   4.012   1.487
 7668SOL    HW123903   3.502   3.918   1.457
 7668SOL    HW223904   3.413   4.052   1.432
 7669SOL     OW23905   5.510   1.105   4.687
 7669SOL    HW123906   5.443   1.170   4.724
 7669SOL    HW223907   5.568   1.152   4.620
 7670SOL     OW23908   1.558   5.924   6.540
 7670SOL    HW123909   1.614   5.994   6.585
 7670SOL    HW223910   1.613   5.841   6.528
 7671SOL     OW23911   4.865   1.264   4.370
 7671SOL    HW123912   4.916   1.181   4.349
 7671SOL    HW223913   4.929   1.336   4.399
 7672SOL     OW23914   6.129   7.004   3.840
 7672SOL    HW123915   6.160   0.073   3.818
 7672SOL    HW223916   6.205   6.950   3.875
 7673SOL     OW23917   1.941   5.150   0.867
 7673SOL    HW123918   1.952   5.249   0.870
 7673SOL    HW223919   1.948   5.118   0.772
 7674SOL     OW23920   6.628   1.779   4.511
 7674SOL    HW123921   6.552   1.797   4.449
 7674SOL    HW223922   6.714   1.787   4.460
 7675SOL     OW23923   5.096   0.857   2.176
 7675SOL    HW123924   5.191   0.870   2.203
 7675SOL    HW223925   5.037   0.910   2.237
 7676SOL     OW23926   0.631   2.096   6.707
 7676SOL    HW123927   0.562   2.090   6.635
 7676SOL    HW223928   0.670   2.188   6.709
 7677SOL     OW23929   1.725   2.655   1.758
 7677SOL    HW123930   1.720   2.564   1.799
 7677SOL    HW223931   1.784   2.652   1.678
 7678SOL     OW23932   1.646   0.873   6.263
 7678SOL    HW123933   1.631   0.886   6.165
 7678SOL    HW223934   1.669   0.778   6.282
 7679SOL     OW23935   1.259   5.872   5.224
 7679SOL    HW123936   1.316   5.905   5.149
 7679SOL    HW223937   1.233   5.777   5.207
 7680SOL     OW23938   2.315   2.941   6.937
 7680SOL    HW123939   2.393   2.879   6.935
 7680SOL    HW223940   2.322   3.000   7.017
 7681SOL     OW23941   3.087   0.193   0.427
 7681SOL    HW123942   3.123   0.278   0.388
 7681SOL    HW223943   2.995   0.210   0.463
 7682SOL     OW23944   2.390   6.605   1.768
 7682SOL    HW123945   2.373   6.675   1.837
 7682SOL    HW223946   2.453   6.537   1.804
 7683SOL     OW23947   6.704   2.659   3.144
 7683SOL    HW123948   6.670   2.753   3.154
 7683SOL    HW223949   6.804   2.659   3.150
 7684SOL     OW23950   5.845   2.406   6.754
 7684SOL    HW123951   5.773   2.431   6.689
 7684SOL    HW223952   5.830   2.312   6.786
 7685SOL     OW23953   3.571   2.487   0.329
 7685SOL    HW123954   3.616   2.411   0.283
 7685SOL    HW223955   3.628   2.520   0.404
 7686SOL     OW23956   4.022   0.168   2.905
 7686SOL    HW123957   4.037   0.248   2.847
 7686SOL    HW223958   3.995   0.090   2.849
 7687SOL     OW23959   5.353   5.898   5.814
 7687SOL    HW123960   5.364   5.955   5.732
 7687SOL    HW223961   5.298   5.947   5.881
 7688SOL     OW23962   6.870   6.859   6.040
 7688SOL    HW123963   6.803   6.811   5.982
 7688SOL    HW223964   6.894   6.801   6.117
 7689SOL     OW23965   5.084   5.931   4.229
 7689SOL    HW123966   5.157   5.868   4.204
 7689SOL    HW223967   5.074   6.001   4.158
 7690SOL     OW23968   5.763   5.706   2.759
 7690SOL    HW123969   5.726   5.740   2.673
 7690SOL    HW223970   5.863   5.714   2.758
 7691SOL     OW23971   4.909   3.066   3.960
 7691SOL    HW123972   4.881   2.979   3.921
 7691SOL    HW223973   4.977   3.050   4.032
 7692SOL     OW23974   1.019   6.790   0.929
 7692SOL    HW123975   1.003   6.807   1.026
 7692SOL    HW223976   0.982   6.865   0.875
 7693SOL     OW23977   4.330   0.838   6.712
 7693SOL    HW123978   4.300   0.752   6.754
 7693SOL    HW223979   4.254   0.880   6.663
 7694SOL     OW23980   0.630   4.764   3.888
 7694SOL    HW123981   0.722   4.743   3.922
 7694SOL    HW223982   0.564   4.752   3.963
 7695SOL     OW23983   3.973   0.586   0.760
 7695SOL    HW123984   3.995   0.609   0.854
 7695SOL    HW223985   3.949   0.668   0.709
 7696SOL     OW23986   6.995   2.055   4.284
 7696SOL    HW123987   0.036   2.038   4.359
 7696SOL    HW223988   0.024   2.085   4.203
 7697SOL     OW23989   2.338   1.008   2.861
 7697SOL    HW123990   2.311   1.073   2.790
 7697SOL    HW223991   2.408   1.050   2.919
 7698SOL     OW23992   0.054   3.229   4.665
 7698SOL    HW123993   0.012   3.140   4.684
 7698SOL    HW223994   0.049   3.247   4.566
 7699SOL     OW23995   2.401   5.945   6.519
 7699SOL    HW123996   2.421   6.031   6.471
 7699SOL    HW223997   2.302   5.929   6.519
 7700SOL     OW23998   4.252   7.018   5.333
 7700SOL    HW123999   4.157   6.995   5.354
 7700SOL    HW224000   4.306   7.012   5.417
 7701SOL     OW24001   6.522   1.442   6.325
 7701SOL    HW124002   6.442   1.400   6.281
 7701SOL    HW224003   6.497   1.534   6.358
 7702SOL     OW24004   3.572   6.527   6.033
 7702SOL    HW124005   3.599   6.472   5.954
 7702SOL    HW224006   3.552   6.620   6.003
 7703SOL     OW24007   6.681   1.385   5.298
 7703SOL    HW124008   6.599   1.332   5.276
 7703SOL    HW224009   6.654   1.475   5.332
 7704SOL     OW24010   4.061   4.993   6.138
 7704SOL    HW124011   4.128   5.066   6.129
 7704SOL    HW224012   4.051   4.968   6.235
 7705SOL     OW24013   3.621   4.901   5.225
 7705SOL    HW124014   3.550   4.909   5.155
 7705SOL    HW224015   3.710   4.894   5.181
 7706SOL     OW24016   5.953   0.807   5.825
 7706SOL    HW124017   6.048   0.782   5.841
 7706SOL    HW224018   5.947   0.905   5.805
 7707SOL     OW24019   0.173   5.311   6.578
 7707SOL    HW124020   0.241   5.245   6.548
 7707SOL    HW224021   0.157   5.301   6.676
 7708SOL     OW24022   5.152   6.169   5.012
 7708SOL    HW124023   5.096   6.227   5.071
 7708SOL    HW224024   5.161   6.078   5.054
 7709SOL     OW24025   4.882   2.767   2.591
 7709SOL    HW124026   4.873   2.819   2.506
 7709SOL    HW224027   4.846   2.675   2.578
 7710SOL     OW24028   2.083   0.284   0.765
 7710SOL    HW124029   2.123   0.300   0.856
 7710SOL    HW224030   2.127   0.205   0.723
 7711SOL     OW24031   6.370   6.603   5.354
 7711SOL    HW124032   6.382   6.694   5.393
 7711SOL    HW224033   6.282   6.598   5.307
 7712SOL     OW24034   6.781   5.342   1.406
 7712SOL    HW124035   6.814   5.374   1.317
 7712SOL    HW224036   6.795   5.413   1.474
 7713SOL     OW24037   2.113   4.072   0.718
 7713SOL    HW124038   2.020   4.074   0.681
 7713SOL    HW224039   2.141   4.164   0.744
 7714SOL     OW24040   6.288   4.512   4.153
 7714SOL    HW124041   6.244   4.473   4.072
 7714SOL    HW224042   6.230   4.585   4.190
 7715SOL     OW24043   4.931   0.817   1.023
 7715SOL    HW124044   4.977   0.756   1.087
 7715SOL    HW224045   4.980   0.904   1.018
 7716SOL     OW24046   4.849   2.855   2.904
 7716SOL    HW124047   4.891   2.858   2.814
 7716SOL    HW224048   4.779   2.783   2.906
 7717SOL     OW24049   2.806   1.289   4.822
 7717SOL    HW124050   2.786   1.223   4.749
 7717SOL    HW224051   2.733   1.285   4.890
 7718SOL     OW24052   1.992   1.555   3.028
 7718SOL    HW124053   1.976   1.619   3.103
 7718SOL    HW224054   1.973   1.599   2.941
 7719SOL     OW24055   0.066   3.193   3.886
 7719SOL    HW124056   7.011   3.141   3.851
 7719SOL    HW224057   0.143   3.184   3.822
 7720SOL     OW24058   6.486   6.108   0.998
 7720SOL    HW124059   6.475   6.021   1.047
 7720SOL    HW224060   6.396   6.148   0.982
 7721SOL     OW24061   2.030   4.550   3.071
 7721SOL    HW124062   1.943   4.599   3.063
 7721SOL    HW224063   2.046   4.497   2.988
 7722SOL     OW24064   6.946   5.226   2.670
 7722SOL    HW124065   7.003   5.290   2.720
 7722SOL    HW224066   6.854   5.224   2.711
 7723SOL     OW24067   6.945   3.565   0.500
 7723SOL    HW124068   6.928   3.653   0.456
 7723SOL    HW224069   6.983   3.501   0.433
 7724SOL     OW24070   2.040   4.347   2.195
 7724SOL    HW124071   2.120   4.405   2.212
 7724SOL    HW224072   2.049   4.302   2.106
 7725SOL     OW24073   5.091   2.261   3.115
 7725SOL    HW124074   5.065   2.205   3.036
 7725SOL    HW224075   5.053   2.353   3.104
 7726SOL     OW24076   6.959   4.548   3.659
 7726SOL    HW124077   6.875   4.495   3.669
 7726SOL    HW224078   6.998   4.566   3.750
 7727SOL     OW24079   6.127   1.976   4.159
 7727SOL    HW124080   6.160   2.063   4.195
 7727SOL    HW224081   6.202   1.928   4.113
 7728SOL     OW24082   1.362   3.122   2.775
 7728SOL    HW124083   1.379   3.202   2.832
 7728SOL    HW224084   1.438   3.058   2.784
 7729SOL     OW24085   5.739   2.769   1.134
 7729SOL    HW124086   5.665   2.701   1.134
 7729SOL    HW224087   5.757   2.798   1.041
 7730SOL     OW24088   5.681   6.126   2.690
 7730SOL    HW124089   5.661   6.043   2.639
 7730SOL    HW224090   5.605   6.147   2.751
 7731SOL     OW24091   6.275   1.071   0.637
 7731SOL    HW124092   6.223   0.998   0.593
 7731SOL    HW224093   6.276   1.152   0.578
 7732SOL     OW24094   4.840   5.814   0.549
 7732SOL    HW124095   4.782   5.890   0.577
 7732SOL    HW224096   4.914   5.803   0.615
 7733SOL     OW24097   4.023   0.135   1.304
 7733SOL    HW124098   3.998   0.070   1.231
 7733SOL    HW224099   4.047   0.084   1.387
 7734SOL     OW24100   1.471   3.174   3.185
 7734SOL    HW124101   1.569   3.195   3.178
 7734SOL    HW224102   1.434   3.212   3.270
 7735SOL     OW24103   4.639   4.544   6.574
 7735SOL    HW124104   4.664   4.502   6.486
 7735SOL    HW224105   4.599   4.634   6.558
 7736SOL     OW24106   5.159   4.468   0.642
 7736SOL    HW124107   5.176   4.399   0.713
 7736SOL    HW224108   5.222   4.545   0.655
 7737SOL     OW24109   4.642   2.236   1.147
 7737SOL    HW124110   4.569   2.246   1.214
 7737SOL    HW224111   4.661   2.325   1.105
 7738SOL     OW24112   2.549   5.614   0.987
 7738SOL    HW124113   2.580   5.666   0.908
 7738SOL    HW224114   2.589   5.652   1.070
 7739SOL     OW24115   0.686   2.422   0.780
 7739SOL    HW124116   0.778   2.397   0.748
 7739SOL    HW224117   0.625   2.432   0.702
 7740SOL     OW24118   6.956   6.745   2.509
 7740SOL    HW124119   6.906   6.791   2.582
 7740SOL    HW224120   6.895   6.679   2.463
 7741SOL     OW24121   1.636   5.561   4.649
 7741SOL    HW124122   1.603   5.562   4.554
 7741SOL    HW224123   1.563   5.588   4.710
 7742SOL     OW24124   6.154   2.233   3.029
 7742SOL    HW124125   6.251   2.254   3.037
 7742SOL    HW224126   6.104   2.275   3.105
 7743SOL     OW24127   4.338   3.189   5.719
 7743SOL    HW124128   4.389   3.180   5.634
 7743SOL    HW224129   4.256   3.132   5.716
 7744SOL     OW24130   6.825   6.421   4.137
 7744SOL    HW124131   6.818   6.330   4.098
 7744SOL    HW224132   6.914   6.460   4.116
 7745SOL     OW24133   3.967   2.339   6.123
 7745SOL    HW124134   3.908   2.418   6.145
 7745SOL    HW224135   4.031   2.365   6.051
 7746SOL     OW24136   1.529   0.081   0.303
 7746SOL    HW124137   1.559   0.007   0.364
 7746SOL    HW224138   1.442   0.057   0.260
 7747SOL     OW24139   4.880   6.583   0.821
 7747SOL    HW124140   4.957   6.620   0.767
 7747SOL    HW224141   4.835   6.511   0.768
 7748SOL     OW24142   3.150   3.799   5.878
 7748SOL    HW124143   3.060   3.805   5.833
 7748SOL    HW224144   3.140   3.749   5.964
 7749SOL     OW24145   4.986   3.221   5.671
 7749SOL    HW124146   4.972   3.226   5.572
 7749SOL    HW224147   4.897   3.218   5.717
 7750SOL     OW24148   0.843   6.523   1.651
 7750SOL    HW124149   0.886   6.438   1.682
 7750SOL    HW224150   0.871   6.599   1.710
 7751SOL     OW24151   0.889   1.428   2.404
 7751SOL    HW124152   0.940   1.422   2.318
 7751SOL    HW224153   0.858   1.522   2.418
 7752SOL     OW24154   4.893   0.643   4.582
 7752SOL    HW124155   4.822   0.713   4.583
 7752SOL    HW224156   4.861   0.564   4.635
 7753SOL     OW24157   1.883   1.257   4.192
 7753SOL    HW124158   1.807   1.300   4.241
 7753SOL    HW224159   1.969   1.298   4.222
 7754SOL     OW24160   3.427   5.970   1.904
 7754SOL    HW124161   3.472   5.880   1.899
 7754SOL    HW224162   3.477   6.028   1.968
 7755SOL     OW24163   1.788   3.847   6.666
 7755SOL    HW124164   1.748   3.938   6.669
 7755SOL    HW224165   1.866   3.843   6.729
 7756SOL     OW24166   2.175   5.702   1.516
 7756SOL    HW124167   2.236   5.757   1.459
 7756SOL    HW224168   2.225   5.671   1.597
 7757SOL     OW24169   0.237   4.609   2.111
 7757SOL    HW124170   0.265   4.583   2.019
 7757SOL    HW224171   0.316   4.607   2.172
 7758SOL     OW24172   1.548   0.928   5.627
 7758SOL    HW124173   1.456   0.897   5.602
 7758SOL    HW224174   1.541   1.006   5.689
 7759SOL     OW24175   2.549   2.580   6.285
 7759SOL    HW124176   2.540   2.608   6.189
 7759SOL    HW224177   2.620   2.510   6.293
 7760SOL     OW24178   4.234   1.993   1.894
 7760SOL    HW124179   4.184   1.951   1.819
 7760SOL    HW224180   4.180   2.068   1.932
 7761SOL     OW24181   5.103   5.509   4.570
 7761SOL    HW124182   5.190   5.544   4.536
 7761SOL    HW224183   5.121   5.441   4.642
 7762SOL     OW24184   0.073   0.373   3.791
 7762SOL    HW124185   0.070   0.291   3.848
 7762SOL    HW224186   7.003   0.398   3.764
 7763SOL     OW24187   2.650   0.385   5.073
 7763SOL    HW124188   2.723   0.439   5.030
 7763SOL    HW224189   2.598   0.337   5.003
 7764SOL     OW24190   3.151   3.820   5.499
 7764SOL    HW124191   3.210   3.819   5.580
 7764SOL    HW224192   3.163   3.735   5.447
 7765SOL     OW24193   6.954   3.238   4.130
 7765SOL    HW124194   6.899   3.319   4.109
 7765SOL    HW224195   6.996   3.204   4.046
 7766SOL     OW24196   0.554   4.873   0.262
 7766SOL    HW124197   0.613   4.832   0.332
 7766SOL    HW224198   0.462   4.887   0.300
 7767SOL     OW24199   3.444   0.235   2.858
 7767SOL    HW124200   3.460   0.290   2.940
 7767SOL    HW224201   3.475   0.285   2.777
 7768SOL     OW24202   4.281   4.697   3.258
 7768SOL    HW124203   4.194   4.699   3.210
 7768SOL    HW224204   4.338   4.624   3.221
 7769SOL     OW24205   3.538   2.367   5.390
 7769SOL    HW124206   3.511   2.461   5.368
 7769SOL    HW224207   3.473   2.303   5.349
 7770SOL     OW24208   1.078   3.501   4.903
 7770SOL    HW124209   1.131   3.579   4.936
 7770SOL    HW224210   1.129   3.454   4.830
 7771SOL     OW24211   2.869   2.652   5.983
 7771SOL    HW124212   2.833   2.565   5.952
 7771SOL    HW224213   2.964   2.640   6.013
 7772SOL     OW24214   4.885   0.804   1.334
 7772SOL    HW124215   4.814   0.872   1.355
 7772SOL    HW224216   4.973   0.850   1.327
 7773SOL     OW24217   2.881   5.639   0.301
 7773SOL    HW124218   2.892   5.707   0.373
 7773SOL    HW224219   2.964   5.584   0.293
 7774SOL     OW24220   5.073   1.312   2.668
 7774SOL    HW124221   5.069   1.216   2.640
 7774SOL    HW224222   5.040   1.321   2.762
 7775SOL     OW24223   3.291   0.755   7.012
 7775SOL    HW124224   3.227   0.824   0.021
 7775SOL    HW224225   3.377   0.798   6.985
 7776SOL     OW24226   0.804   6.813   5.142
 7776SOL    HW124227   0.898   6.847   5.150
 7776SOL    HW224228   0.798   6.722   5.183
 7777SOL     OW24229   5.304   5.152   3.883
 7777SOL    HW124230   5.238   5.154   3.808
 7777SOL    HW224231   5.330   5.057   3.903
 7778SOL     OW24232   6.056   4.182   3.069
 7778SOL    HW124233   6.026   4.119   3.141
 7778SOL    HW224234   6.124   4.137   3.012
 7779SOL     OW24235   3.205   6.185   1.736
 7779SOL    HW124236   3.132   6.250   1.759
 7779SOL    HW224237   3.279   6.194   1.803
 7780SOL     OW24238   6.606   5.957   5.303
 7780SOL    HW124239   6.638   5.904   5.224
 7780SOL    HW224240   6.559   5.897   5.366
 7781SOL     OW24241   1.755   3.059   0.808
 7781SOL    HW124242   1.799   3.095   0.726
 7781SOL    HW224243   1.713   3.134   0.859
 7782SOL     OW24244   6.118   5.267   3.482
 7782SOL    HW124245   6.144   5.349   3.432
 7782SOL    HW224246   6.200   5.219   3.512
 7783SOL     OW24247   1.009   0.171   5.120
 7783SOL    HW124248   1.093   0.224   5.127
 7783SOL    HW224249   0.941   0.208   5.183
 7784SOL     OW24250   2.621   2.423   2.184
 7784SOL    HW124251   2.681   2.356   2.140
 7784SOL    HW224252   2.582   2.483   2.114
 7785SOL     OW24253   1.145   6.071   2.478
 7785SOL    HW124254   1.069   6.093   2.539
 7785SOL    HW224255   1.225   6.125   2.503
 7786SOL     OW24256   4.427   0.513   6.627
 7786SOL    HW124257   4.505   0.576   6.633
 7786SOL    HW224258   4.438   0.440   6.694
 7787SOL     OW24259   2.746   3.217   1.540
 7787SOL    HW124260   2.767   3.310   1.570
 7787SOL    HW224261   2.799   3.195   1.458
 7788SOL     OW24262   1.253   4.623   1.326
 7788SOL    HW124263   1.214   4.712   1.300
 7788SOL    HW224264   1.221   4.598   1.417
 7789SOL     OW24265   3.234   1.047   6.664
 7789SOL    HW124266   3.322   1.062   6.709
 7789SOL    HW224267   3.204   0.953   6.679
 7790SOL     OW24268   5.433   5.031   2.028
 7790SOL    HW124269   5.419   5.003   2.123
 7790SOL    HW224270   5.530   5.023   2.004
 7791SOL     OW24271   2.312   5.424   1.894
 7791SOL    HW124272   2.341   5.328   1.889
 7791SOL    HW224273   2.392   5.483   1.903
 7792SOL     OW24274   0.865   1.674   2.743
 7792SOL    HW124275   0.880   1.757   2.690
 7792SOL    HW224276   0.926   1.602   2.710
 7793SOL     OW24277   4.430   1.787   0.169
 7793SOL    HW124278   4.366   1.863   0.163
 7793SOL    HW224279   4.461   1.761   0.078
 7794SOL     OW24280   0.830   5.523   3.301
 7794SOL    HW124281   0.857   5.612   3.263
 7794SOL    HW224282   0.899   5.455   3.277
 7795SOL     OW24283   2.711   5.570   6.014
 7795SOL    HW124284   2.734   5.543   6.107
 7795SOL    HW224285   2.770   5.645   5.986
 7796SOL     OW24286   3.671   3.405   6.602
 7796SOL    HW124287   3.627   3.412   6.692
 7796SOL    HW224288   3.656   3.313   6.566
 7797SOL     OW24289   0.563   5.692   3.611
 7797SOL    HW124290   0.598   5.689   3.704
 7797SOL    HW224291   0.537   5.785   3.588
 7798SOL     OW24292   0.436   2.203   1.199
 7798SOL    HW124293   0.478   2.214   1.109
 7798SOL    HW224294   0.372   2.126   1.197
 7799SOL     OW24295   2.734   6.496   3.570
 7799SOL    HW124296   2.760   6.555   3.493
 7799SOL    HW224297   2.665   6.430   3.539
 7800SOL     OW24298   0.311   6.063   1.370
 7800SOL    HW124299   0.371   6.140   1.349
 7800SOL    HW224300   0.351   5.979   1.337
 7801SOL     OW24301   1.531   2.325   2.394
 7801SOL    HW124302   1.551   2.277   2.479
 7801SOL    HW224303   1.503   2.418   2.414
 7802SOL     OW24304   6.820   3.999   5.743
 7802SOL    HW124305   6.763   3.972   5.665
 7802SOL    HW224306   6.911   3.960   5.732
 7803SOL     OW24307   5.023   2.335   5.312
 7803SOL    HW124308   4.961   2.289   5.376
 7803SOL    HW224309   5.117   2.325   5.344
 7804SOL     OW24310   2.570   2.338   4.758
 7804SOL    HW124311   2.580   2.402   4.834
 7804SOL    HW224312   2.474   2.312   4.749
 7805SOL     OW24313   5.233   2.857   1.297
 7805SOL    HW124314   5.203   2.937   1.349
 7805SOL    HW224315   5.299   2.806   1.351
 7806SOL     OW24316   6.436   2.283   5.705
 7806SOL    HW124317   6.531   2.286   5.675
 7806SOL    HW224318   6.376   2.315   5.630
 7807SOL     OW24319   2.639   4.891   6.061
 7807SOL    HW124320   2.582   4.868   6.141
 7807SOL    HW224321   2.611   4.836   5.983
 7808SOL     OW24322   5.335   4.108   2.792
 7808SOL    HW124323   5.362   4.118   2.888
 7808SOL    HW224324   5.346   4.195   2.745
 7809SOL     OW24325   4.971   5.026   3.513
 7809SOL    HW124326   4.947   4.933   3.540
 7809SOL    HW224327   4.896   5.088   3.537
 7810SOL     OW24328   4.055   6.291   5.127
 7810SOL    HW124329   4.103   6.204   5.137
 7810SOL    HW224330   4.031   6.326   5.217
 7811SOL     OW24331   1.133   5.518   2.111
 7811SOL    HW124332   1.220   5.470   2.121
 7811SOL    HW224333   1.095   5.499   2.020
 7812SOL     OW24334   2.277   3.099   5.527
 7812SOL    HW124335   2.181   3.072   5.531
 7812SOL    HW224336   2.296   3.166   5.599
 7813SOL     OW24337   5.668   1.821   1.211
 7813SOL    HW124338   5.600   1.763   1.256
 7813SOL    HW224339   5.695   1.781   1.124
 7814SOL     OW24340   6.700   3.153   2.011
 7814SOL    HW124341   6.715   3.130   2.107
 7814SOL    HW224342   6.692   3.070   1.957
 7815SOL     OW24343   6.308   2.555   5.549
 7815SOL    HW124344   6.256   2.618   5.491
 7815SOL    HW224345   6.324   2.598   5.638
 7816SOL     OW24346   0.650   1.862   4.942
 7816SOL    HW124347   0.601   1.944   4.974
 7816SOL    HW224348   0.637   1.788   5.008
 7817SOL     OW24349   3.146   3.062   6.535
 7817SOL    HW124350   3.122   2.967   6.552
 7817SOL    HW224351   3.088   3.099   6.462
 7818SOL     OW24352   5.571   1.394   2.118
 7818SOL    HW124353   5.593   1.487   2.090
 7818SOL    HW224354   5.514   1.395   2.200
 7819SOL     OW24355   1.368   3.474   4.080
 7819SOL    HW124356   1.389   3.464   3.983
 7819SOL    HW224357   1.312   3.396   4.110
 7820SOL     OW24358   1.322   0.838   5.484
 7820SOL    HW124359   1.321   0.787   5.397
 7820SOL    HW224360   1.243   0.898   5.488
 7821SOL     OW24361   6.286   5.584   6.897
 7821SOL    HW124362   6.247   5.501   6.937
 7821SOL    HW224363   6.382   5.568   6.872
 7822SOL     OW24364   1.282   1.176   4.498
 7822SOL    HW124365   1.211   1.239   4.530
 7822SOL    HW224366   1.298   1.191   4.401
 7823SOL     OW24367   1.644   3.630   0.268
 7823SOL    HW124368   1.615   3.726   0.269
 7823SOL    HW224369   1.742   3.625   0.288
 7824SOL     OW24370   5.209   2.439   2.561
 7824SOL    HW124371   5.142   2.401   2.497
 7824SOL    HW224372   5.260   2.513   2.517
 7825SOL     OW24373   3.056   3.232   1.619
 7825SOL    HW124374   2.997   3.157   1.645
 7825SOL    HW224375   3.127   3.245   1.688
 7826SOL     OW24376   6.530   1.049   0.515
 7826SOL    HW124377   6.432   1.037   0.529
 7826SOL    HW224378   6.550   1.146   0.498
 7827SOL     OW24379   5.066   5.253   1.573
 7827SOL    HW124380   5.019   5.185   1.630
 7827SOL    HW224381   5.075   5.218   1.480
 7828SOL     OW24382   0.551   6.339   0.742
 7828SOL    HW124383   0.630   6.400   0.752
 7828SOL    HW224384   0.481   6.367   0.808
 7829SOL     OW24385   3.291   3.130   1.737
 7829SOL    HW124386   3.283   3.036   1.770
 7829SOL    HW224387   3.324   3.189   1.810
 7830SOL     OW24388   6.246   3.259   0.056
 7830SOL    HW124389   6.154   3.263   0.095
 7830SOL    HW224390   6.257   3.175   0.004
 7831SOL     OW24391   1.543   3.496   0.831
 7831SOL    HW124392   1.496   3.425   0.778
 7831SOL    HW224393   1.639   3.499   0.804
 7832SOL     OW24394   2.615   2.103   5.478
 7832SOL    HW124395   2.682   2.133   5.410
 7832SOL    HW224396   2.531   2.075   5.430
 7833SOL     OW24397   0.581   6.658   0.500
 7833SOL    HW124398   0.596   6.590   0.429
 7833SOL    HW224399   0.494   6.704   0.484
 7834SOL     OW24400   0.983   0.592   1.481
 7834SOL    HW124401   0.928   0.526   1.430
 7834SOL    HW224402   1.025   0.547   1.560
 7835SOL     OW24403   2.161   3.057   4.799
 7835SOL    HW124404   2.116   2.968   4.806
 7835SOL    HW224405   2.256   3.050   4.829
 7836SOL     OW24406   3.237   6.533   6.852
 7836SOL    HW124407   3.182   6.465   6.900
 7836SOL    HW224408   3.310   6.565   6.912
 7837SOL     OW24409   6.134   6.351   2.546
 7837SOL    HW124410   6.086   6.386   2.626
 7837SOL    HW224411   6.079   6.368   2.464
 7838SOL     OW24412   4.188   7.015   4.972
 7838SOL    HW124413   4.271   0.046   4.981
 7838SOL    HW224414   4.167   7.002   4.875
 7839SOL     OW24415   6.023   4.860   4.736
 7839SOL    HW124416   6.111   4.826   4.704
 7839SOL    HW224417   6.004   4.825   4.827
 7840SOL     OW24418   5.281   2.878   4.360
 7840SOL    HW124419   5.215   2.917   4.424
 7840SOL    HW224420   5.253   2.785   4.336
 7841SOL     OW24421   0.265   2.017   6.260
 7841SOL    HW124422   0.345   2.054   6.308
 7841SOL    HW224423   0.271   1.918   6.257
 7842SOL     OW24424   2.214   1.355   2.987
 7842SOL    HW124425   2.148   1.428   2.999
 7842SOL    HW224426   2.211   1.323   2.892
 7843SOL     OW24427   5.997   4.143   1.109
 7843SOL    HW124428   6.073   4.186   1.158
 7843SOL    HW224429   6.032   4.097   1.027
 7844SOL     OW24430   4.243   0.792   3.220
 7844SOL    HW124431   4.150   0.807   3.184
 7844SOL    HW224432   4.244   0.812   3.318
 7845SOL     OW24433   6.737   1.150   4.371
 7845SOL    HW124434   6.790   1.148   4.286
 7845SOL    HW224435   6.640   1.140   4.350
 7846SOL     OW24436   2.060   0.313   1.420
 7846SOL    HW124437   2.095   0.237   1.474
 7846SOL    HW224438   2.077   0.399   1.469
 7847SOL     OW24439   6.875   0.263   0.623
 7847SOL    HW124440   6.877   0.352   0.578
 7847SOL    HW224441   6.967   0.240   0.655
 7848SOL     OW24442   4.263   3.991   1.428
 7848SOL    HW124443   4.189   3.940   1.384
 7848SOL    HW224444   4.232   4.024   1.518
 7849SOL     OW24445   5.082   2.984   4.526
 7849SOL    HW124446   5.052   3.067   4.481
 7849SOL    HW224447   5.008   2.949   4.585
 7850SOL     OW24448   0.188   0.996   5.387
 7850SOL    HW124449   0.253   1.047   5.444
 7850SOL    HW224450   0.212   1.007   5.291
 7851SOL     OW24451   5.801   0.622   0.209
 7851SOL    HW124452   5.763   0.712   0.187
 7851SOL    HW224453   5.817   0.571   0.124
 7852SOL     OW24454   3.182   6.382   0.100
 7852SOL    HW124455   3.200   6.467   0.150
 7852SOL    HW224456   3.245   6.311   0.132
 7853SOL     OW24457   2.682   2.547   0.582
 7853SOL    HW124458   2.660   2.589   0.494
 7853SOL    HW224459   2.777   2.515   0.581
 7854SOL     OW24460   3.412   4.013   2.272
 7854SOL    HW124461   3.447   4.075   2.343
 7854SOL    HW224462   3.488   3.964   2.230
 7855SOL     OW24463   4.573   5.433   6.639
 7855SOL    HW124464   4.616   5.434   6.730
 7855SOL    HW224465   4.588   5.345   6.596
 7856SOL     OW24466   5.547   3.494   5.206
 7856SOL    HW124467   5.467   3.434   5.211
 7856SOL    HW224468   5.630   3.438   5.204
 7857SOL     OW24469   6.004   1.790   5.794
 7857SOL    HW124470   6.079   1.763   5.853
 7857SOL    HW224471   5.987   1.888   5.803
 7858SOL     OW24472   6.192   4.075   3.794
 7858SOL    HW124473   6.269   4.139   3.798
 7858SOL    HW224474   6.107   4.126   3.778
 7859SOL     OW24475   1.276   4.846   5.834
 7859SOL    HW124476   1.185   4.806   5.822
 7859SOL    HW224477   1.324   4.847   5.746
 7860SOL     OW24478   3.900   6.942   1.502
 7860SOL    HW124479   3.831   6.904   1.440
 7860SOL    HW224480   3.977   6.879   1.507
 7861SOL     OW24481   4.173   5.228   1.427
 7861SOL    HW124482   4.194   5.268   1.338
 7861SOL    HW224483   4.107   5.153   1.414
 7862SOL     OW24484   2.790   4.139   1.699
 7862SOL    HW124485   2.694   4.150   1.724
 7862SOL    HW224486   2.832   4.067   1.754
 7863SOL     OW24487   6.429   6.175   1.930
 7863SOL    HW124488   6.387   6.220   2.009
 7863SOL    HW224489   6.526   6.202   1.925
 7864SOL     OW24490   0.635   5.900   4.731
 7864SOL    HW124491   0.658   5.966   4.660
 7864SOL    HW224492   0.719   5.866   4.774
 7865SOL     OW24493   3.538   6.444   3.412
 7865SOL    HW124494   3.609   6.443   3.482
 7865SOL    HW224495   3.580   6.446   3.321
 7866SOL     OW24496   2.651   1.906   3.538
 7866SOL    HW124497   2.697   1.923   3.451
 7866SOL    HW224498   2.697   1.956   3.611
 7867SOL     OW24499   6.291   5.877   2.245
 7867SOL    HW124500   6.297   5.854   2.148
 7867SOL    HW224501   6.372   5.930   2.271
 7868SOL     OW24502   5.135   6.264   0.842
 7868SOL    HW124503   5.068   6.295   0.775
 7868SOL    HW224504   5.089   6.231   0.924
 7869SOL     OW24505   0.244   2.894   1.894
 7869SOL    HW124506   0.242   2.796   1.875
 7869SOL    HW224507   0.231   2.944   1.808
 7870SOL     OW24508   6.490   5.328   3.652
 7870SOL    HW124509   6.421   5.261   3.625
 7870SOL    HW224510   6.568   5.281   3.692
 7871SOL     OW24511   5.819   2.931   2.873
 7871SOL    HW124512   5.798   2.962   2.780
 7871SOL    HW224513   5.814   2.832   2.876
 7872SOL     OW24514   0.314   3.426   2.878
 7872SOL    HW124515   0.379   3.376   2.935
 7872SOL    HW224516   0.223   3.385   2.887
 7873SOL     OW24517   6.972   6.423   6.087
 7873SOL    HW124518   6.898   6.367   6.124
 7873SOL    HW224519   0.036   6.396   6.129
 7874SOL     OW24520   5.773   1.652   7.002
 7874SOL    HW124521   5.712   1.582   6.965
 7874SOL    HW224522   5.770   1.733   6.943
 7875SOL     OW24523   4.713   3.809   6.596
 7875SOL    HW124524   4.638   3.745   6.618
 7875SOL    HW224525   4.681   3.903   6.608
 7876SOL     OW24526   6.795   0.104   4.130
 7876SOL    HW124527   6.805   0.045   4.050
 7876SOL    HW224528   6.714   0.077   4.181
 7877SOL     OW24529   6.585   2.680   2.891
 7877SOL    HW124530   6.642   2.662   2.971
 7877SOL    HW224531   6.632   2.650   2.808
 7878SOL     OW24532   4.742   4.385   2.339
 7878SOL    HW124533   4.687   4.468   2.350
 7878SOL    HW224534   4.716   4.319   2.410
 7879SOL     OW24535   4.984   6.447   3.348
 7879SOL    HW124536   5.035   6.518   3.397
 7879SOL    HW224537   5.006   6.358   3.387
 7880SOL     OW24538   0.530   6.222   6.850
 7880SOL    HW124539   0.487   6.193   6.764
 7880SOL    HW224540   0.546   6.143   6.908
 7881SOL     OW24541   0.571   4.165   5.267
 7881SOL    HW124542   0.655   4.218   5.255
 7881SOL    HW224543   0.591   4.083   5.322
 7882SOL     OW24544   0.659   3.148   2.762
 7882SOL    HW124545   0.741   3.091   2.758
 7882SOL    HW224546   0.653   3.193   2.851
 7883SOL     OW24547   2.587   1.113   2.969
 7883SOL    HW124548   2.649   1.124   3.048
 7883SOL    HW224549   2.568   1.203   2.929
 7884SOL     OW24550   1.681   4.306   3.911
 7884SOL    HW124551   1.763   4.349   3.871
 7884SOL    HW224552   1.635   4.372   3.970
 7885SOL     OW24553   5.584   5.829   2.922
 7885SOL    HW124554   5.657   5.779   2.875
 7885SOL    HW224555   5.624   5.888   2.992
 7886SOL     OW24556   4.802   3.015   1.664
 7886SOL    HW124557   4.767   3.057   1.580
 7886SOL    HW224558   4.730   3.014   1.734
 7887SOL     OW24559   4.021   3.414   0.019
 7887SOL    HW124560   4.072   3.480   0.075
 7887SOL    HW224561   4.084   3.344   7.008
 7888SOL     OW24562   6.264   1.520   4.154
 7888SOL    HW124563   6.197   1.493   4.222
 7888SOL    HW224564   6.355   1.520   4.195
 7889SOL     OW24565   5.469   5.228   0.713
 7889SOL    HW124566   5.510   5.180   0.635
 7889SOL    HW224567   5.535   5.233   0.787
 7890SOL     OW24568   1.409   3.023   3.940
 7890SOL    HW124569   1.464   2.965   4.001
 7890SOL    HW224570   1.317   3.032   3.977
 7891SOL     OW24571   0.278   2.190   4.230
 7891SOL    HW124572   0.299   2.280   4.268
 7891SOL    HW224573   0.211   2.200   4.156
 7892SOL     OW24574   1.510   3.319   5.499
 7892SOL    HW124575   1.507   3.366   5.410
 7892SOL    HW224576   1.510   3.387   5.572
 7893SOL     OW24577   6.025   0.336   1.882
 7893SOL    HW124578   5.977   0.288   1.955
 7893SOL    HW224579   5.965   0.343   1.802
 7894SOL     OW24580   2.560   1.480   5.793
 7894SOL    HW124581   2.574   1.450   5.888
 7894SOL    HW224582   2.630   1.547   5.769
 7895SOL     OW24583   3.691   6.272   3.636
 7895SOL    HW124584   3.687   6.257   3.735
 7895SOL    HW224585   3.683   6.184   3.589
 7896SOL     OW24586   4.117   2.525   1.708
 7896SOL    HW124587   4.166   2.537   1.622
 7896SOL    HW224588   4.182   2.528   1.784
 7897SOL     OW24589   3.915   4.080   6.510
 7897SOL    HW124590   3.825   4.048   6.541
 7897SOL    HW224591   3.986   4.035   6.564
 7898SOL     OW24592   4.999   0.224   4.587
 7898SOL    HW124593   5.033   0.271   4.668
 7898SOL    HW224594   5.073   0.170   4.546
 7899SOL     OW24595   5.318   5.311   1.573
 7899SOL    HW124596   5.363   5.242   1.517
 7899SOL    HW224597   5.221   5.289   1.581
 7900SOL     OW24598   0.608   3.979   0.689
 7900SOL    HW124599   0.543   4.032   0.742
 7900SOL    HW224600   0.601   3.882   0.713
 7901SOL     OW24601   5.527   1.093   6.111
 7901SOL    HW124602   5.552   1.094   6.208
 7901SOL    HW224603   5.518   0.998   6.080
 7902SOL     OW24604   0.484   5.868   2.777
 7902SOL    HW124605   0.502   5.872   2.875
 7902SOL    HW224606   0.393   5.906   2.758
 7903SOL     OW24607   2.553   1.743   4.494
 7903SOL    HW124608   2.545   1.752   4.394
 7903SOL    HW224609   2.618   1.671   4.516
 7904SOL     OW24610   5.936   0.637   2.259
 7904SOL    HW124611   5.863   0.690   2.302
 7904SOL    HW224612   5.980   0.579   2.328
 7905SOL     OW24613   5.533   1.075   0.627
 7905SOL    HW124614   5.580   1.061   0.540
 7905SOL    HW224615   5.438   1.044   0.620
 7906SOL     OW24616   1.431   5.066   0.875
 7906SOL    HW124617   1.407   5.103   0.965
 7906SOL    HW224618   1.383   5.118   0.804
 7907SOL     OW24619   6.015   0.455   2.679
 7907SOL    HW124620   5.971   0.469   2.768
 7907SOL    HW224621   6.055   0.363   2.677
 7908SOL     OW24622   0.492   0.860   6.368
 7908SOL    HW124623   0.423   0.925   6.397
 7908SOL    HW224624   0.529   0.888   6.279
 7909SOL     OW24625   5.671   3.883   2.621
 7909SOL    HW124626   5.618   3.859   2.702
 7909SOL    HW224627   5.609   3.903   2.545
 7910SOL     OW24628   1.948   3.874   1.008
 7910SOL    HW124629   2.047   3.865   1.017
 7910SOL    HW224630   1.904   3.821   1.081
 7911SOL     OW24631   0.910   4.008   0.870
 7911SOL    HW124632   0.897   4.033   0.774
 7911SOL    HW224633   1.006   3.984   0.887
 7912SOL     OW24634   5.019   5.343   0.574
 7912SOL    HW124635   5.073   5.262   0.549
 7912SOL    HW224636   5.080   5.412   0.613
 7913SOL     OW24637   0.471   3.470   0.669
 7913SOL    HW124638   0.384   3.471   0.620
 7913SOL    HW224639   0.517   3.382   0.655
 7914SOL     OW24640   6.371   5.311   5.383
 7914SOL    HW124641   6.417   5.298   5.295
 7914SOL    HW224642   6.325   5.226   5.409
 7915SOL     OW24643   3.759   0.324   2.733
 7915SOL    HW124644   3.694   0.368   2.672
 7915SOL    HW224645   3.756   0.225   2.719
 7916SOL     OW24646   0.770   0.156   4.585
 7916SOL    HW124647   0.831   0.154   4.506
 7916SOL    HW224648   0.799   0.229   4.648
 7917SOL     OW24649   4.080   2.697   7.013
 7917SOL    HW124650   4.005   2.660   6.959
 7917SOL    HW224651   4.053   2.786   0.029
 7918SOL     OW24652   1.848   0.776   4.838
 7918SOL    HW124653   1.914   0.703   4.819
 7918SOL    HW224654   1.863   0.852   4.774
 7919SOL     OW24655   1.349   5.007   3.495
 7919SOL    HW124656   1.377   5.023   3.589
 7919SOL    HW224657   1.411   4.941   3.452
 7920SOL     OW24658   4.680   0.437   1.026
 7920SOL    HW124659   4.749   0.373   0.994
 7920SOL    HW224660   4.715   0.485   1.107
 7921SOL     OW24661   4.928   1.643   1.726
 7921SOL    HW124662   4.989   1.569   1.757
 7921SOL    HW224663   4.851   1.603   1.677
 7922SOL     OW24664   0.885   6.238   0.124
 7922SOL    HW124665   0.851   6.145   0.134
 7922SOL    HW224666   0.983   6.236   0.103
 7923SOL     OW24667   4.099   1.637   6.695
 7923SOL    HW124668   4.162   1.567   6.663
 7923SOL    HW224669   4.006   1.614   6.668
 7924SOL     OW24670   6.032   6.652   1.548
 7924SOL    HW124671   6.072   6.694   1.630
 7924SOL    HW224672   6.041   6.552   1.555
 7925SOL     OW24673   2.608   6.507   0.694
 7925SOL    HW124674   2.656   6.427   0.658
 7925SOL    HW224675   2.663   6.549   0.767
 7926SOL     OW24676   5.811   0.538   6.572
 7926SOL    HW124677   5.750   0.616   6.576
 7926SOL    HW224678   5.768   0.459   6.617
 7927SOL     OW24679   4.692   0.113   2.540
 7927SOL    HW124680   4.739   0.104   2.453
 7927SOL    HW224681   4.716   0.036   2.599
 7928SOL     OW24682   6.634   0.754   2.994
 7928SOL    HW124683   6.701   0.817   3.031
 7928SOL    HW224684   6.641   0.666   3.042
 7929SOL     OW24685   4.691   3.953   6.087
 7929SOL    HW124686   4.735   4.040   6.112
 7929SOL    HW224687   4.594   3.957   6.110
 7930SOL     OW24688   3.887   5.994   5.650
 7930SOL    HW124689   3.890   5.897   5.675
 7930SOL    HW224690   3.963   6.014   5.588
 7931SOL     OW24691   2.847   2.310   0.355
 7931SOL    HW124692   2.861   2.246   0.280
 7931SOL    HW224693   2.754   2.346   0.351
 7932SOL     OW24694   6.946   5.342   1.197
 7932SOL    HW124695   6.962   5.347   1.099
 7932SOL    HW224696   0.008   5.319   1.244
 7933SOL     OW24697   6.706   1.292   5.702
 7933SOL    HW124698   6.777   1.275   5.771
 7933SOL    HW224699   6.746   1.283   5.611
 7934SOL     OW24700   1.362   4.397   0.765
 7934SOL    HW124701   1.264   4.384   0.781
 7934SOL    HW224702   1.398   4.461   0.832
 7935SOL     OW24703   5.836   3.754   3.004
 7935SOL    HW124704   5.748   3.744   2.957
 7935SOL    HW224705   5.822   3.797   3.093
 7936SOL     OW24706   3.816   6.781   3.777
 7936SOL    HW124707   3.836   6.692   3.818
 7936SOL    HW224708   3.840   6.854   3.841
 7937SOL     OW24709   2.387   6.174   5.474
 7937SOL    HW124710   2.346   6.091   5.437
 7937SOL    HW224711   2.316   6.235   5.507
 7938SOL     OW24712   4.538   6.829   5.025
 7938SOL    HW124713   4.558   6.843   5.122
 7938SOL    HW224714   4.621   6.846   4.971
 7939SOL     OW24715   0.957   1.864   4.876
 7939SOL    HW124716   0.972   1.837   4.971
 7939SOL    HW224717   0.865   1.837   4.848
 7940SOL     OW24718   4.642   1.855   2.459
 7940SOL    HW124719   4.597   1.765   2.456
 7940SOL    HW224720   4.573   1.927   2.450
 7941SOL     OW24721   4.304   6.300   2.138
 7941SOL    HW124722   4.256   6.212   2.130
 7941SOL    HW224723   4.287   6.355   2.057
 7942SOL     OW24724   0.782   2.675   1.726
 7942SOL    HW124725   0.803   2.590   1.677
 7942SOL    HW224726   0.788   2.658   1.824
 7943SOL     OW24727   2.176   5.295   5.995
 7943SOL    HW124728   2.247   5.234   6.031
 7943SOL    HW224729   2.211   5.344   5.915
 7944SOL     OW24730   0.783   3.043   1.286
 7944SOL    HW124731   0.742   2.987   1.214
 7944SOL    HW224732   0.772   3.140   1.263
 7945SOL     OW24733   5.978   5.198   2.893
 7945SOL    HW124734   6.013   5.147   2.814
 7945SOL    HW224735   5.937   5.283   2.861
 7946SOL     OW24736   3.906   0.793   5.821
 7946SOL    HW124737   3.900   0.697   5.848
 7946SOL    HW224738   3.949   0.846   5.894
 7947SOL     OW24739   1.190   2.892   5.521
 7947SOL    HW124740   1.271   2.948   5.539
 7947SOL    HW224741   1.177   2.885   5.422
 7948SOL     OW24742   1.585   4.758   2.411
 7948SOL    HW124743   1.579   4.857   2.421
 7948SOL    HW224744   1.496   4.716   2.432
 7949SOL     OW24745   4.383   4.990   5.851
 7949SOL    HW124746   4.283   4.997   5.845
 7949SOL    HW224747   4.418   5.059   5.913
 7950SOL     OW24748   5.984   5.945   5.445
 7950SOL    HW124749   5.901   5.995   5.422
 7950SOL    HW224750   6.064   6.001   5.420
 7951SOL     OW24751   3.053   5.554   2.702
 7951SOL    HW124752   3.148   5.558   2.669
 7951SOL    HW224753   2.991   5.560   2.624
 7952SOL     OW24754   5.619   3.540   0.195
 7952SOL    HW124755   5.638   3.537   0.293
 7952SOL    HW224756   5.679   3.607   0.151
 7953SOL     OW24757   3.887   1.889   0.520
 7953SOL    HW124758   3.883   1.789   0.515
 7953SOL    HW224759   3.980   1.920   0.502
 7954SOL     OW24760   3.835   3.223   6.895
 7954SOL    HW124761   3.866   3.235   6.801
 7954SOL    HW224762   3.807   3.312   6.932
 7955SOL     OW24763   1.554   1.417   6.544
 7955SOL    HW124764   1.632   1.477   6.561
 7955SOL    HW224765   1.481   1.468   6.500
 7956SOL     OW24766   6.446   1.034   1.885
 7956SOL    HW124767   6.479   1.089   1.962
 7956SOL    HW224768   6.382   0.964   1.918
 7957SOL     OW24769   4.478   0.628   5.700
 7957SOL    HW124770   4.404   0.664   5.756
 7957SOL    HW224771   4.440   0.562   5.634
 7958SOL     OW24772   5.663   3.504   6.679
 7958SOL    HW124773   5.637   3.416   6.717
 7958SOL    HW224774   5.681   3.569   6.753
 7959SOL     OW24775   5.056   0.968   6.115
 7959SOL    HW124776   5.140   0.922   6.146
 7959SOL    HW224777   5.035   1.043   6.177
 7960SOL     OW24778   6.552   1.105   6.651
 7960SOL    HW124779   6.471   1.070   6.604
 7960SOL    HW224780   6.632   1.091   6.593
 7961SOL     OW24781   6.355   6.465   6.931
 7961SOL    HW124782   6.257   6.447   6.943
 7961SOL    HW224783   6.402   6.380   6.909
 7962SOL     OW24784   6.538   6.986   6.020
 7962SOL    HW124785   6.528   0.050   5.971
 7962SOL    HW224786   6.573   6.917   5.957
 7963SOL     OW24787   6.097   4.304   4.491
 7963SOL    HW124788   6.038   4.341   4.419
 7963SOL    HW224789   6.102   4.368   4.567
 7964SOL     OW24790   7.007   3.430   1.371
 7964SOL    HW124791   6.913   3.448   1.343
 7964SOL    HW224792   0.047   3.473   1.306
 7965SOL     OW24793   4.374   2.083   6.811
 7965SOL    HW124794   4.395   2.086   6.714
 7965SOL    HW224795   4.297   2.020   6.827
 7966SOL     OW24796   4.244   4.204   5.301
 7966SOL    HW124797   4.168   4.226   5.363
 7966SOL    HW224798   4.245   4.270   5.226
 7967SOL     OW24799   1.826   5.277   2.178
 7967SOL    HW124800   1.902   5.307   2.120
 7967SOL    HW224801   1.826   5.330   2.263
 7968SOL     OW24802   6.508   2.115   4.451
 7968SOL    HW124803   6.410   2.130   4.467
 7968SOL    HW224804   6.534   2.154   4.363
 7969SOL     OW24805   4.673   5.853   0.050
 7969SOL    HW124806   4.663   5.790   6.996
 7969SOL    HW224807   4.759   5.902   0.042
 7970SOL     OW24808   6.412   3.197   2.554
 7970SOL    HW124809   6.458   3.264   2.613
 7970SOL    HW224810   6.396   3.113   2.606
 7971SOL     OW24811   3.401   1.459   1.229
 7971SOL    HW124812   3.500   1.473   1.232
 7971SOL    HW224813   3.379   1.367   1.262
 7972SOL     OW24814   4.054   3.103   2.519
 7972SOL    HW124815   4.126   3.042   2.553
 7972SOL    HW224816   3.965   3.059   2.532
 7973SOL     OW24817   6.353   3.955   3.590
 7973SOL    HW124818   6.285   3.911   3.648
 7973SOL    HW224819   6.323   4.049   3.570
 7974SOL     OW24820   5.992   1.596   5.285
 7974SOL    HW124821   5.999   1.600   5.385
 7974SOL    HW224822   6.054   1.526   5.250
 7975SOL     OW24823   4.548   1.679   0.402
 7975SOL    HW124824   4.480   1.730   0.456
 7975SOL    HW224825   4.534   1.699   0.305
 7976SOL     OW24826   1.756   6.740   6.484
 7976SOL    HW124827   1.702   6.797   6.545
 7976SOL    HW224828   1.762   6.647   6.521
 7977SOL     OW24829   5.723   6.312   3.182
 7977SOL    HW124830   5.684   6.287   3.270
 7977SOL    HW224831   5.690   6.404   3.157
 7978SOL     OW24832   0.291   4.306   1.121
 7978SOL    HW124833   0.232   4.343   1.192
 7978SOL    HW224834   0.347   4.379   1.082
 7979SOL     OW24835   2.165   3.559   4.587
 7979SOL    HW124836   2.190   3.646   4.544
 7979SOL    HW224837   2.152   3.574   4.686
 7980SOL     OW24838   3.658   4.719   5.865
 7980SOL    HW124839   3.680   4.765   5.779
 7980SOL    HW224840   3.663   4.785   5.941
 7981SOL     OW24841   1.892   4.980   3.611
 7981SOL    HW124842   1.872   4.882   3.605
 7981SOL    HW224843   1.807   5.032   3.619
 7982SOL     OW24844   1.451   1.510   5.843
 7982SOL    HW124845   1.502   1.434   5.884
 7982SOL    HW224846   1.482   1.524   5.749
 7983SOL     OW24847   5.184   1.269   1.366
 7983SOL    HW124848   5.233   1.316   1.293
 7983SOL    HW224849   5.239   1.273   1.450
 7984SOL     OW24850   0.583   1.738   1.428
 7984SOL    HW124851   0.544   1.826   1.453
 7984SOL    HW224852   0.683   1.742   1.436
 7985SOL     OW24853   2.441   2.441   5.880
 7985SOL    HW124854   2.431   2.539   5.865
 7985SOL    HW224855   2.445   2.394   5.792
 7986SOL     OW24856   3.914   1.382   4.088
 7986SOL    HW124857   3.844   1.451   4.105
 7986SOL    HW224858   3.886   1.325   4.011
 7987SOL     OW24859   1.269   3.751   1.206
 7987SOL    HW124860   1.338   3.688   1.169
 7987SOL    HW224861   1.309   3.805   1.280
 7988SOL     OW24862   6.618   1.272   1.657
 7988SOL    HW124863   6.546   1.204   1.641
 7988SOL    HW224864   6.689   1.232   1.716
 7989SOL     OW24865   1.479   4.094   0.437
 7989SOL    HW124866   1.486   4.003   0.480
 7989SOL    HW224867   1.498   4.164   0.505
 7990SOL     OW24868   2.412   6.400   5.317
 7990SOL    HW124869   2.390   6.310   5.355
 7990SOL    HW224870   2.485   6.390   5.250
 7991SOL     OW24871   5.458   1.410   4.877
 7991SOL    HW124872   5.513   1.383   4.956
 7991SOL    HW224873   5.391   1.478   4.904
 7992SOL     OW24874   1.857   0.437   0.653
 7992SOL    HW124875   1.784   0.386   0.698
 7992SOL    HW224876   1.942   0.383   0.656
 7993SOL     OW24877   0.054   6.922   1.742
 7993SOL    HW124878   0.022   6.832   1.771
 7993SOL    HW224879   0.129   6.912   1.677
 7994SOL     OW24880   4.977   0.752   3.281
 7994SOL    HW124881   4.894   0.744   3.225
 7994SOL    HW224882   4.952   0.783   3.373
 7995SOL     OW24883   6.490   4.393   1.989
 7995SOL    HW124884   6.452   4.303   1.968
 7995SOL    HW224885   6.438   4.435   2.064
 7996SOL     OW24886   4.220   0.210   3.210
 7996SOL    HW124887   4.243   0.306   3.193
 7996SOL    HW224888   4.166   0.174   3.135
 7997SOL     OW24889   0.973   2.052   6.670
 7997SOL    HW124890   1.011   1.961   6.654
 7997SOL    HW224891   0.935   2.088   6.585
 7998SOL     OW24892   2.687   0.181   0.389
 7998SOL    HW124893   2.702   0.280   0.388
 7998SOL    HW224894   2.683   0.146   0.295
 7999SOL     OW24895   1.222   2.001   5.444
 7999SOL    HW124896   1.321   2.008   5.432
 7999SOL    HW224897   1.178   1.985   5.355
 8000SOL     OW24898   5.690   6.561   6.425
 8000SOL    HW124899   5.632   6.480   6.419
 8000SOL    HW224900   5.763   6.544   6.491
 8001SOL     OW24901   5.201   0.389   0.749
 8001SOL    HW124902   5.283   0.432   0.787
 8001SOL    HW224903   5.166   0.321   0.813
 8002SOL     OW24904   0.345   0.561   5.982
 8002SOL    HW124905   0.262   0.570   6.036
 8002SOL    HW224906   0.371   0.464   5.977
 8003SOL     OW24907   1.794   6.617   2.892
 8003SOL    HW124908   1.808   6.529   2.848
 8003SOL    HW224909   1.775   6.686   2.823
 8004SOL     OW24910   1.882   2.781   3.487
 8004SOL    HW124911   1.869   2.758   3.391
 8004SOL    HW224912   1.933   2.867   3.494
 8005SOL     OW24913   2.270   0.088   3.905
 8005SOL    HW124914   2.368   0.078   3.888
 8005SOL    HW224915   2.227   7.020   3.902
 8006SOL     OW24916   3.788   5.414   4.745
 8006SOL    HW124917   3.704   5.368   4.717
 8006SOL    HW224918   3.863   5.348   4.751
 8007SOL     OW24919   6.271   1.879   6.085
 8007SOL    HW124920   6.370   1.870   6.085
 8007SOL    HW224921   6.245   1.969   6.048
 8008SOL     OW24922   4.025   6.520   0.193
 8008SOL    HW124923   4.082   6.465   0.132
 8008SOL    HW224924   4.040   6.489   0.288
 8009SOL     OW24925   4.968   1.430   0.996
 8009SOL    HW124926   4.992   1.400   0.904
 8009SOL    HW224927   4.876   1.469   0.995
 8010SOL     OW24928   2.580   2.675   5.377
 8010SOL    HW124929   2.657   2.736   5.392
 8010SOL    HW224930   2.495   2.722   5.400
 8011SOL     OW24931   3.476   1.989   2.031
 8011SOL    HW124932   3.533   2.072   2.028
 8011SOL    HW224933   3.471   1.949   1.940
 8012SOL     OW24934   1.279   3.130   5.740
 8012SOL    HW124935   1.311   3.121   5.646
 8012SOL    HW224936   1.280   3.226   5.767
 8013SOL     OW24937   1.237   2.351   3.438
 8013SOL    HW124938   1.318   2.300   3.468
 8013SOL    HW224939   1.267   2.435   3.393
 8014SOL     OW24940   1.852   0.563   3.356
 8014SOL    HW124941   1.897   0.637   3.407
 8014SOL    HW224942   1.766   0.596   3.318
 8015SOL     OW24943   1.484   0.498   5.853
 8015SOL    HW124944   1.513   0.540   5.939
 8015SOL    HW224945   1.465   0.401   5.868
 8016SOL     OW24946   4.062   1.365   5.402
 8016SOL    HW124947   4.125   1.400   5.332
 8016SOL    HW224948   4.036   1.440   5.463
 8017SOL     OW24949   6.817   6.987   0.629
 8017SOL    HW124950   6.846   7.007   0.722
 8017SOL    HW224951   6.730   0.011   0.610
 8018SOL     OW24952   3.880   2.062   0.209
 8018SOL    HW124953   3.801   2.021   0.255
 8018SOL    HW224954   3.943   2.099   0.278
 8019SOL     OW24955   3.306   3.611   1.133
 8019SOL    HW124956   3.281   3.522   1.172
 8019SOL    HW224957   3.223   3.662   1.112
 8020SOL     OW24958   6.129   0.109   4.949
 8020SOL    HW124959   6.194   0.184   4.939
 8020SOL    HW224960   6.140   0.044   4.874
 8021SOL     OW24961   2.161   1.923   2.138
 8021SOL    HW124962   2.237   1.870   2.101
 8021SOL    HW224963   2.181   2.021   2.129
 8022SOL     OW24964   5.494   0.914   1.948
 8022SOL    HW124965   5.580   0.965   1.954
 8022SOL    HW224966   5.439   0.930   2.030
 8023SOL     OW24967   5.318   6.390   3.529
 8023SOL    HW124968   5.303   6.408   3.627
 8023SOL    HW224969   5.231   6.365   3.486
 8024SOL     OW24970   1.740   6.319   6.208
 8024SOL    HW124971   1.820   6.286   6.259
 8024SOL    HW224972   1.659   6.270   6.240
 8025SOL     OW24973   1.753   4.747   1.790
 8025SOL    HW124974   1.682   4.777   1.727
 8025SOL    HW224975   1.745   4.649   1.806
 8026SOL     OW24976   0.139   4.627   0.299
 8026SOL    HW124977   0.188   4.714   0.295
 8026SOL    HW224978   0.117   4.605   0.394
 8027SOL     OW24979   4.072   6.648   5.960
 8027SOL    HW124980   4.008   6.599   6.018
 8027SOL    HW224981   4.035   6.655   5.867
 8028SOL     OW24982   3.494   5.468   4.173
 8028SOL    HW124983   3.525   5.384   4.220
 8028SOL    HW224984   3.432   5.518   4.233
 8029SOL     OW24985   5.853   1.514   1.519
 8029SOL    HW124986   5.804   1.457   1.453
 8029SOL    HW224987   5.807   1.509   1.608
 8030SOL     OW24988   5.802   4.775   0.925
 8030SOL    HW124989   5.862   4.852   0.905
 8030SOL    HW224990   5.855   4.690   0.923
 8031SOL     OW24991   5.652   0.245   2.645
 8031SOL    HW124992   5.578   0.200   2.695
 8031SOL    HW224993   5.736   0.241   2.700
 8032SOL     OW24994   5.089   3.064   1.446
 8032SOL    HW124995   5.089   3.059   1.546
 8032SOL    HW224996   5.126   3.152   1.416
 8033SOL     OW24997   3.796   3.823   0.578
 8033SOL    HW124998   3.815   3.757   0.651
 8033SOL    HW224999   3.883   3.862   0.545
 8034SOL     OW25000   5.566   0.417   4.979
 8034SOL    HW125001   5.600   0.394   4.888
 8034SOL    HW225002   5.641   0.453   5.035
 8035SOL     OW25003   4.404   1.112   2.688
 8035SOL    HW125004   4.410   1.045   2.614
 8035SOL    HW225005   4.462   1.084   2.764
 8036SOL     OW25006   6.934   2.562   4.057
 8036SOL    HW125007   6.848   2.565   4.108
 8036SOL    HW225008   6.916   2.533   3.963
 8037SOL     OW25009   1.187   3.050   6.523
 8037SOL    HW125010   1.281   3.018   6.536
 8037SOL    HW225011   1.136   3.038   6.608
 8038SOL     OW25012   5.939   6.443   2.359
 8038SOL    HW125013   5.990   6.505   2.300
 8038SOL    HW225014   5.895   6.373   2.303
 8039SOL     OW25015   0.677   2.523   5.452
 8039SOL    HW125016   0.754   2.539   5.514
 8039SOL    HW225017   0.712   2.492   5.363
 8040SOL     OW25018   1.508   6.204   5.635
 8040SOL    HW125019   1.597   6.159   5.642
 8040SOL    HW225020   1.505   6.259   5.552
 8041SOL     OW25021   3.343   1.543   3.198
 8041SOL    HW125022   3.277   1.613   3.172
 8041SOL    HW225023   3.306   1.489   3.274
 8042SOL     OW25024   4.293   3.981   5.930
 8042SOL    HW125025   4.329   3.973   6.022
 8042SOL    HW225026   4.367   3.970   5.864
 8043SOL     OW25027   4.920   4.832   1.558
 8043SOL    HW125028   4.841   4.784   1.597
 8043SOL    HW225029   4.892   4.882   1.477
 8044SOL     OW25030   4.068   3.858   1.291
 8044SOL    HW125031   3.984   3.871   1.343
 8044SOL    HW225032   4.067   3.917   1.210
 8045SOL     OW25033   0.157   0.968   2.666
 8045SOL    HW125034   0.125   1.061   2.684
 8045SOL    HW225035   0.085   0.902   2.687
 8046SOL     OW25036   0.244   5.519   2.133
 8046SOL    HW125037   0.329   5.501   2.084
 8046SOL    HW225038   0.183   5.440   2.125
 8047SOL     OW25039   3.969   6.756   6.494
 8047SOL    HW125040   4.030   6.811   6.551
 8047SOL    HW225041   4.020   6.683   6.450
 8048SOL     OW25042   3.460   3.561   0.470
 8048SOL    HW125043   3.482   3.653   0.503
 8048SOL    HW225044   3.443   3.500   0.548
 8049SOL     OW25045   1.467   6.929   0.885
 8049SOL    HW125046   1.418   6.861   0.830
 8049SOL    HW225047   1.552   6.955   0.838
 8050SOL     OW25048   1.486   4.072   4.454
 8050SOL    HW125049   1.405   4.108   4.406
 8050SOL    HW225050   1.535   4.009   4.393
 8051SOL     OW25051   4.703   5.957   4.312
 8051SOL    HW125052   4.750   5.921   4.392
 8051SOL    HW225053   4.610   5.920   4.309
 8052SOL     OW25054   2.482   1.568   2.158
 8052SOL    HW125055   2.475   1.657   2.203
 8052SOL    HW225056   2.462   1.579   2.061
 8053SOL     OW25057   3.180   3.330   6.323
 8053SOL    HW125058   3.270   3.375   6.315
 8053SOL    HW225059   3.135   3.361   6.407
 8054SOL     OW25060   5.408   4.088   5.149
 8054SOL    HW125061   5.381   4.026   5.076
 8054SOL    HW225062   5.457   4.037   5.219
 8055SOL     OW25063   0.196   1.047   5.130
 8055SOL    HW125064   0.177   0.976   5.061
 8055SOL    HW225065   0.198   1.136   5.085
 8056SOL     OW25066   2.539   0.061   3.828
 8056SOL    HW125067   2.635   0.034   3.828
 8056SOL    HW225068   2.530   0.155   3.860
 8057SOL     OW25069   2.433   2.144   1.642
 8057SOL    HW125070   2.491   2.222   1.665
 8057SOL    HW225071   2.341   2.159   1.679
 8058SOL     OW25072   3.174   6.526   3.688
 8058SOL    HW125073   3.132   6.534   3.598
 8058SOL    HW225074   3.267   6.489   3.679
 8059SOL     OW25075   2.953   2.067   5.784
 8059SOL    HW125076   2.924   2.120   5.864
 8059SOL    HW225077   3.020   1.999   5.812
 8060SOL     OW25078   6.977   0.492   6.338
 8060SOL    HW125079   0.028   0.549   6.375
 8060SOL    HW225080   6.951   0.526   6.248
 8061SOL     OW25081   0.395   0.875   2.032
 8061SOL    HW125082   0.393   0.776   2.047
 8061SOL    HW225083   0.416   0.893   1.936
 8062SOL     OW25084   3.978   5.384   5.097
 8062SOL    HW125085   4.061   5.336   5.126
 8062SOL    HW225086   3.901   5.353   5.153
 8063SOL     OW25087   3.328   0.380   3.089
 8063SOL    HW125088   3.249   0.318   3.088
 8063SOL    HW225089   3.323   0.439   3.170
 8064SOL     OW25090   6.520   3.351   0.215
 8064SOL    HW125091   6.540   3.390   0.305
 8064SOL    HW225092   6.423   3.326   0.211
 8065SOL     OW25093   3.404   0.119   4.523
 8065SOL    HW125094   3.366   0.171   4.600
 8065SOL    HW225095   3.357   0.032   4.514
 8066SOL     OW25096   6.723   1.219   4.622
 8066SOL    HW125097   6.734   1.205   4.524
 8066SOL    HW225098   6.741   1.315   4.645
 8067SOL     OW25099   5.420   2.924   3.904
 8067SOL    HW125100   5.415   2.936   3.805
 8067SOL    HW225101   5.372   2.839   3.929
 8068SOL     OW25102   0.484   4.526   1.752
 8068SOL    HW125103   0.412   4.457   1.760
 8068SOL    HW225104   0.573   4.481   1.748
 8069SOL     OW25105   2.972   5.154   2.348
 8069SOL    HW125106   2.989   5.070   2.297
 8069SOL    HW225107   2.901   5.138   2.417
 8070SOL     OW25108   4.224   4.507   0.769
 8070SOL    HW125109   4.233   4.408   0.762
 8070SOL    HW225110   4.171   4.529   0.852
 8071SOL     OW25111   4.351   6.922   5.582
 8071SOL    HW125112   4.258   6.887   5.570
 8071SOL    HW225113   4.358   6.970   5.669
 8072SOL     OW25114   2.471   2.535   0.759
 8072SOL    HW125115   2.542   2.522   0.690
 8072SOL    HW225116   2.468   2.455   0.819
 8073SOL     OW25117   2.919   0.026   6.292
 8073SOL    HW125118   2.982   0.028   6.369
 8073SOL    HW225119   2.953   6.986   6.222
 8074SOL     OW25120   1.995   1.625   0.151
 8074SOL    HW125121   2.052   1.698   0.188
 8074SOL    HW225122   2.041   1.537   0.167
 8075SOL     OW25123   0.509   6.524   6.792
 8075SOL    HW125124   0.487   6.587   6.867
 8075SOL    HW225125   0.470   6.434   6.812
 8076SOL     OW25126   6.751   6.843   6.783
 8076SOL    HW125127   6.829   6.781   6.775
 8076SOL    HW225128   6.774   6.931   6.742
 8077SOL     OW25129   3.922   5.848   1.856
 8077SOL    HW125130   3.950   5.944   1.858
 8077SOL    HW225131   3.828   5.842   1.822
 8078SOL     OW25132   0.916   1.871   0.503
 8078SOL    HW125133   0.842   1.932   0.534
 8078SOL    HW225134   0.886   1.776   0.510
 8079SOL     OW25135   0.649   1.128   4.200
 8079SOL    HW125136   0.699   1.192   4.142
 8079SOL    HW225137   0.616   1.175   4.282
 8080SOL     OW25138   0.828   2.939   2.781
 8080SOL    HW125139   0.915   2.904   2.814
 8080SOL    HW225140   0.764   2.863   2.770
 8081SOL     OW25141   5.984   4.545   5.596
 8081SOL    HW125142   5.904   4.601   5.619
 8081SOL    HW225143   6.006   4.486   5.674
 8082SOL     OW25144   2.904   0.974   2.299
 8082SOL    HW125145   2.906   1.074   2.292
 8082SOL    HW225146   2.968   0.945   2.371
 8083SOL     OW25147   5.271   2.443   4.057
 8083SOL    HW125148   5.249   2.467   3.962
 8083SOL    HW225149   5.241   2.349   4.074
 8084SOL     OW25150   2.198   0.383   6.000
 8084SOL    HW125151   2.120   0.407   6.057
 8084SOL    HW225152   2.283   0.412   6.046
 8085SOL     OW25153   0.059   5.621   3.234
 8085SOL    HW125154   0.121   5.630   3.312
 8085SOL    HW225155   0.111   5.617   3.149
 8086SOL     OW25156   0.339   1.074   1.372
 8086SOL    HW125157   0.312   1.072   1.276
 8086SOL    HW225158   0.430   1.115   1.380
 8087SOL     OW25159   1.079   0.545   6.435
 8087SOL    HW125160   1.130   0.566   6.518
 8087SOL    HW225161   1.123   0.469   6.387
 8088SOL     OW25162   5.443   6.871   6.431
 8088SOL    HW125163   5.479   6.813   6.505
 8088SOL    HW225164   5.453   6.825   6.344
 8089SOL     OW25165   5.713   2.763   6.649
 8089SOL    HW125166   5.692   2.669   6.677
 8089SOL    HW225167   5.628   2.815   6.638
 8090SOL     OW25168   4.222   1.616   6.166
 8090SOL    HW125169   4.199   1.668   6.249
 8090SOL    HW225170   4.145   1.558   6.141
 8091SOL     OW25171   1.535   4.334   4.439
 8091SOL    HW125172   1.559   4.237   4.441
 8091SOL    HW225173   1.552   4.374   4.529
 8092SOL     OW25174   4.799   2.020   5.228
 8092SOL    HW125175   4.703   1.996   5.237
 8092SOL    HW225176   4.825   2.080   5.304
 8093SOL     OW25177   3.036   5.978   3.111
 8093SOL    HW125178   3.081   5.927   3.038
 8093SOL    HW225179   2.957   5.927   3.144
 8094SOL     OW25180   0.935   4.020   5.170
 8094SOL    HW125181   1.022   4.069   5.174
 8094SOL    HW225182   0.896   4.029   5.078
 8095SOL     OW25183   1.165   4.797   5.280
 8095SOL    HW125184   1.231   4.737   5.325
 8095SOL    HW225185   1.080   4.746   5.264
 8096SOL     OW25186   1.092   0.381   2.250
 8096SOL    HW125187   0.994   0.400   2.244
 8096SOL    HW225188   1.107   0.282   2.242
 8097SOL     OW25189   3.819   0.308   5.031
 8097SOL    HW125190   3.883   0.240   5.068
 8097SOL    HW225191   3.824   0.308   4.931
 8098SOL     OW25192   0.943   6.086   4.204
 8098SOL    HW125193   0.877   6.113   4.274
 8098SOL    HW225194   1.034   6.117   4.230
 8099SOL     OW25195   4.526   5.870   4.523
 8099SOL    HW125196   4.473   5.939   4.473
 8099SOL    HW225197   4.467   5.822   4.587
 8100SOL     OW25198   5.795   1.185   6.075
 8100SOL    HW125199   5.813   1.190   5.977
 8100SOL    HW225200   5.732   1.110   6.094
 8101SOL     OW25201   2.365   5.332   0.707
 8101SOL    HW125202   2.267   5.324   0.692
 8101SOL    HW225203   2.383   5.343   0.805
 8102SOL     OW25204   0.865   3.179   4.378
 8102SOL    HW125205   0.897   3.274   4.379
 8102SOL    HW225206   0.789   3.170   4.314
 8103SOL     OW25207   3.700   1.066   2.202
 8103SOL    HW125208   3.673   1.153   2.161
 8103SOL    HW225209   3.675   0.991   2.140
 8104SOL     OW25210   2.136   6.743   5.963
 8104SOL    HW125211   2.208   6.813   5.968
 8104SOL    HW225212   2.065   6.764   6.030
 8105SOL     OW25213   6.958   2.379   2.822
 8105SOL    HW125214   0.009   2.384   2.754
 8105SOL    HW225215   6.870   2.373   2.775
 8106SOL     OW25216   2.607   6.661   3.749
 8106SOL    HW125217   2.642   6.606   3.674
 8106SOL    HW225218   2.606   6.607   3.833
 8107SOL     OW25219   1.535   5.885   4.878
 8107SOL    HW125220   1.481   5.946   4.935
 8107SOL    HW225221   1.510   5.790   4.897
 8108SOL     OW25222   6.711   1.672   6.820
 8108SOL    HW125223   6.708   1.664   6.920
 8108SOL    HW225224   6.744   1.586   6.781
 8109SOL     OW25225   0.090   4.039   6.608
 8109SOL    HW125226   0.122   3.953   6.647
 8109SOL    HW225227   0.146   4.114   6.642
 8110SOL     OW25228   3.947   5.036   1.335
 8110SOL    HW125229   3.857   4.997   1.314
 8110SOL    HW225230   4.000   5.044   1.251
 8111SOL     OW25231   5.808   1.012   3.771
 8111SOL    HW125232   5.815   1.104   3.809
 8111SOL    HW225233   5.777   0.949   3.842
 8112SOL     OW25234   0.621   2.894   4.743
 8112SOL    HW125235   0.675   2.938   4.814
 8112SOL    HW225236   0.657   2.919   4.653
 8113SOL     OW25237   6.635   3.315   1.492
 8113SOL    HW125238   6.695   3.377   1.541
 8113SOL    HW225239   6.544   3.315   1.533
 8114SOL     OW25240   1.068   3.935   2.150
 8114SOL    HW125241   1.148   3.947   2.091
 8114SOL    HW225242   1.005   4.011   2.136
 8115SOL     OW25243   3.099   6.601   6.159
 8115SOL    HW125244   3.174   6.569   6.102
 8115SOL    HW225245   3.018   6.615   6.102
 8116SOL     OW25246   4.177   5.124   0.338
 8116SOL    HW125247   4.270   5.156   0.357
 8116SOL    HW225248   4.131   5.099   0.423
 8117SOL     OW25249   1.981   6.713   3.072
 8117SOL    HW125250   1.924   6.687   2.994
 8117SOL    HW225251   2.036   6.635   3.100
 8118SOL     OW25252   6.570   4.403   6.477
 8118SOL    HW125253   6.669   4.397   6.487
 8118SOL    HW225254   6.536   4.319   6.433
 8119SOL     OW25255   5.076   6.552   6.140
 8119SOL    HW125256   5.023   6.502   6.071
 8119SOL    HW225257   5.135   6.619   6.094
 8120SOL     OW25258   2.504   5.172   0.471
 8120SOL    HW125259   2.497   5.115   0.553
 8120SOL    HW225260   2.546   5.260   0.496
 8121SOL     OW25261   1.012   4.158   2.681
 8121SOL    HW125262   1.065   4.115   2.609
 8121SOL    HW225263   1.067   4.228   2.726
 8122SOL     OW25264   0.885   4.533   2.770
 8122SOL    HW125265   0.900   4.606   2.836
 8122SOL    HW225266   0.807   4.478   2.798
 8123SOL     OW25267   0.389   1.267   6.825
 8123SOL    HW125268   0.481   1.259   6.785
 8123SOL    HW225269   0.391   1.232   6.919
 8124SOL     OW25270   5.675   6.154   3.880
 8124SOL    HW125271   5.632   6.217   3.815
 8124SOL    HW225272   5.636   6.063   3.869
 8125SOL     OW25273   1.198   0.956   2.807
 8125SOL    HW125274   1.144   0.990   2.730
 8125SOL    HW225275   1.239   0.869   2.782
 8126SOL     OW25276   4.640   4.959   3.572
 8126SOL    HW125277   4.545   4.962   3.600
 8126SOL    HW225278   4.682   5.048   3.588
 8127SOL     OW25279   3.125   2.660   6.790
 8127SOL    HW125280   3.031   2.648   6.822
 8127SOL    HW225281   3.188   2.623   6.858
 8128SOL     OW25282   3.098   2.239   1.761
 8128SOL    HW125283   3.032   2.312   1.782
 8128SOL    HW225284   3.190   2.277   1.758
 8129SOL     OW25285   2.030   1.970   6.986
 8129SOL    HW125286   1.943   2.011   6.958
 8129SOL    HW225287   2.040   1.880   6.942
 8130SOL     OW25288   1.782   6.448   6.963
 8130SOL    HW125289   1.705   6.388   6.944
 8130SOL    HW225290   1.852   6.398   7.014
 8131SOL     OW25291   2.811   2.728   1.324
 8131SOL    HW125292   2.759   2.684   1.250
 8131SOL    HW225293   2.833   2.661   1.394
 8132SOL     OW25294   6.394   6.850   4.381
 8132SOL    HW125295   6.309   6.799   4.373
 8132SOL    HW225296   6.375   6.948   4.373
 8133SOL     OW25297   4.086   5.412   2.276
 8133SOL    HW125298   4.020   5.459   2.334
 8133SOL    HW225299   4.158   5.372   2.334
 8134SOL     OW25300   6.322   1.328   6.043
 8134SOL    HW125301   6.242   1.370   6.086
 8134SOL    HW225302   6.373   1.276   6.111
 8135SOL     OW25303   1.768   0.377   1.547
 8135SOL    HW125304   1.788   0.420   1.460
 8135SOL    HW225305   1.829   0.412   1.617
 8136SOL     OW25306   5.271   5.360   2.243
 8136SOL    HW125307   5.213   5.439   2.260
 8136SOL    HW225308   5.251   5.323   2.152
 8137SOL     OW25309   2.785   0.943   4.901
 8137SOL    HW125310   2.734   0.917   4.819
 8137SOL    HW225311   2.754   1.033   4.932
 8138SOL     OW25312   5.754   1.330   1.345
 8138SOL    HW125313   5.732   1.357   1.251
 8138SOL    HW225314   5.712   1.241   1.365
 8139SOL     OW25315   0.384   1.251   2.299
 8139SOL    HW125316   0.353   1.175   2.356
 8139SOL    HW225317   0.449   1.306   2.350
 8140SOL     OW25318   4.438   0.963   4.471
 8140SOL    HW125319   4.528   1.005   4.459
 8140SOL    HW225320   4.393   1.005   4.550
 8141SOL     OW25321   4.019   5.232   5.693
 8141SOL    HW125322   4.066   5.205   5.609
 8141SOL    HW225323   3.920   5.238   5.676
 8142SOL     OW25324   6.002   5.232   0.252
 8142SOL    HW125325   6.072   5.269   0.312
 8142SOL    HW225326   6.044   5.206   0.164
 8143SOL     OW25327   6.244   4.969   6.632
 8143SOL    HW125328   6.145   4.984   6.638
 8143SOL    HW225329   6.263   4.872   6.645
 8144SOL     OW25330   5.598   0.390   6.949
 8144SOL    HW125331   5.631   0.331   0.000
 8144SOL    HW225332   5.510   0.358   6.917
 8145SOL     OW25333   5.932   6.251   2.768
 8145SOL    HW125334   5.837   6.222   2.773
 8145SOL    HW225335   5.987   6.176   2.729
 8146SOL     OW25336   3.408   1.109   5.993
 8146SOL    HW125337   3.459   1.159   5.923
 8146SOL    HW225338   3.351   1.040   5.949
 8147SOL     OW25339   5.330   1.702   3.198
 8147SOL    HW125340   5.276   1.778   3.162
 8147SOL    HW225341   5.277   1.654   3.268
 8148SOL     OW25342   5.578   3.388   2.460
 8148SOL    HW125343   5.565   3.474   2.409
 8148SOL    HW225344   5.489   3.353   2.489
 8149SOL     OW25345   2.770   5.798   2.832
 8149SOL    HW125346   2.732   5.714   2.871
 8149SOL    HW225347   2.869   5.800   2.846
 8150SOL     OW25348   0.291   4.884   0.889
 8150SOL    HW125349   0.233   4.803   0.883
 8150SOL    HW225350   0.325   4.907   0.797
 8151SOL     OW25351   0.740   2.102   3.349
 8151SOL    HW125352   0.757   2.067   3.441
 8151SOL    HW225353   0.825   2.099   3.296
 8152SOL     OW25354   1.465   1.299   2.533
 8152SOL    HW125355   1.439   1.261   2.622
 8152SOL    HW225356   1.546   1.251   2.499
 8153SOL     OW25357   2.949   6.799   2.667
 8153SOL    HW125358   3.005   6.880   2.650
 8153SOL    HW225359   2.987   6.721   2.618
 8154SOL     OW25360   2.196   5.754   4.476
 8154SOL    HW125361   2.284   5.718   4.510
 8154SOL    HW225362   2.213   5.818   4.402
 8155SOL     OW25363   2.977   3.174   2.522
 8155SOL    HW125364   3.014   3.165   2.430
 8155SOL    HW225365   3.028   3.114   2.584
 8156SOL     OW25366   5.802   0.534   5.107
 8156SOL    HW125367   5.840   0.573   5.191
 8156SOL    HW225368   5.808   0.601   5.033
 8157SOL     OW25369   5.579   5.253   6.680
 8157SOL    HW125370   5.496   5.203   6.706
 8157SOL    HW225371   5.555   5.347   6.655
 8158SOL     OW25372   1.225   5.846   0.992
 8158SOL    HW125373   1.212   5.866   0.895
 8158SOL    HW225374   1.196   5.751   1.010
 8159SOL     OW25375   2.111   5.382   2.112
 8159SOL    HW125376   2.147   5.436   2.037
 8159SOL    HW225377   2.159   5.294   2.116
 8160SOL     OW25378   4.853   1.877   1.353
 8160SOL    HW125379   4.887   1.787   1.379
 8160SOL    HW225380   4.767   1.867   1.302
 8161SOL     OW25381   5.200   1.232   0.718
 8161SOL    HW125382   5.255   1.258   0.797
 8161SOL    HW225383   5.162   1.314   0.675
 8162SOL     OW25384   6.141   6.774   0.603
 8162SOL    HW125385   6.200   6.823   0.538
 8162SOL    HW225386   6.091   6.840   0.658
 8163SOL     OW25387   2.703   4.217   5.333
 8163SOL    HW125388   2.703   4.117   5.333
 8163SOL    HW225389   2.614   4.250   5.301
 8164SOL     OW25390   5.430   3.065   1.421
 8164SOL    HW125391   5.383   3.134   1.367
 8164SOL    HW225392   5.492   3.013   1.363
 8165SOL     OW25393   1.920   4.307   1.166
 8165SOL    HW125394   1.905   4.247   1.088
 8165SOL    HW225395   1.913   4.255   1.251
 8166SOL     OW25396   2.388   0.510   2.160
 8166SOL    HW125397   2.356   0.463   2.242
 8166SOL    HW225398   2.317   0.507   2.090
 8167SOL     OW25399   6.038   2.609   3.848
 8167SOL    HW125400   6.082   2.540   3.905
 8167SOL    HW225401   5.955   2.643   3.893
 8168SOL     OW25402   3.342   1.512   2.811
 8168SOL    HW125403   3.267   1.468   2.761
 8168SOL    HW225404   3.305   1.584   2.869
 8169SOL     OW25405   4.510   3.693   0.961
 8169SOL    HW125406   4.469   3.637   1.033
 8169SOL    HW225407   4.507   3.789   0.989
 8170SOL     OW25408   1.447   6.031   3.901
 8170SOL    HW125409   1.435   6.018   3.802
 8170SOL    HW225410   1.358   6.044   3.944
 8171SOL     OW25411   0.505   2.018   6.467
 8171SOL    HW125412   0.560   1.935   6.464
 8171SOL    HW225413   0.427   2.005   6.529
 8172SOL     OW25414   0.151   6.906   0.814
 8172SOL    HW125415   0.178   6.996   0.779
 8172SOL    HW225416   0.062   6.881   0.778
 8173SOL     OW25417   3.857   2.569   6.888
 8173SOL    HW125418   3.769   2.582   6.934
 8173SOL    HW225419   3.842   2.532   6.796
 8174SOL     OW25420   5.782   1.713   0.989
 8174SOL    HW125421   5.775   1.797   0.935
 8174SOL    HW225422   5.873   1.674   0.979
 8175SOL     OW25423   6.866   2.194   6.259
 8175SOL    HW125424   6.806   2.181   6.338
 8175SOL    HW225425   6.936   2.262   6.281
 8176SOL     OW25426   2.517   5.764   2.160
 8176SOL    HW125427   2.430   5.747   2.206
 8176SOL    HW225428   2.500   5.784   2.063
 8177SOL     OW25429   1.295   5.785   4.261
 8177SOL    HW125430   1.383   5.755   4.226
 8177SOL    HW225431   1.241   5.824   4.186
 8178SOL     OW25432   2.493   6.812   6.324
 8178SOL    HW125433   2.408   6.840   6.368
 8178SOL    HW225434   2.568   6.869   6.356
 8179SOL     OW25435   3.119   2.926   6.905
 8179SOL    HW125436   3.069   3.005   6.868
 8179SOL    HW225437   3.104   2.847   6.846
 8180SOL     OW25438   0.296   0.054   4.373
 8180SOL    HW125439   0.375   0.097   4.418
 8180SOL    HW225440   0.213   0.076   4.424
 8181SOL     OW25441   2.741   2.305   2.873
 8181SOL    HW125442   2.664   2.346   2.824
 8181SOL    HW225443   2.806   2.266   2.807
 8182SOL     OW25444   3.141   2.522   5.959
 8182SOL    HW125445   3.107   2.498   5.868
 8182SOL    HW225446   3.187   2.442   5.999
 8183SOL     OW25447   0.558   3.922   5.390
 8183SOL    HW125448   0.572   3.903   5.487
 8183SOL    HW225449   0.567   3.838   5.337
 8184SOL     OW25450   6.984   0.451   5.584
 8184SOL    HW125451   7.020   0.511   5.656
 8184SOL    HW225452   6.979   0.502   5.498
 8185SOL     OW25453   2.820   1.146   1.217
 8185SOL    HW125454   2.914   1.175   1.234
 8185SOL    HW225455   2.793   1.171   1.124
 8186SOL     OW25456   3.532   6.320   5.787
 8186SOL    HW125457   3.544   6.231   5.830
 8186SOL    HW225458   3.435   6.336   5.770
 8187SOL     OW25459   1.733   1.775   5.400
 8187SOL    HW125460   1.645   1.729   5.383
 8187SOL    HW225461   1.748   1.781   5.499
 8188SOL     OW25462   5.432   1.906   2.657
 8188SOL    HW125463   5.452   2.001   2.680
 8188SOL    HW225464   5.515   1.851   2.669
 8189SOL     OW25465   5.656   4.295   2.356
 8189SOL    HW125466   5.607   4.233   2.294
 8189SOL    HW225467   5.722   4.242   2.410
 8190SOL     OW25468   5.390   3.798   4.139
 8190SOL    HW125469   5.366   3.835   4.228
 8190SOL    HW225470   5.466   3.734   4.149
 8191SOL     OW25471   0.902   5.959   3.806
 8191SOL    HW125472   0.835   5.904   3.755
 8191SOL    HW225473   0.928   5.911   3.889
 8192SOL     OW25474   2.542   5.794   1.859
 8192SOL    HW125475   2.627   5.797   1.807
 8192SOL    HW225476   2.469   5.838   1.807
 8193SOL     OW25477   5.018   6.746   5.061
 8193SOL    HW125478   5.034   6.779   5.154
 8193SOL    HW225479   4.966   6.661   5.064
 8194SOL     OW25480   6.366   1.470   6.906
 8194SOL    HW125481   6.278   1.422   6.909
 8194SOL    HW225482   6.438   1.406   6.878
 8195SOL     OW25483   6.813   0.087   0.073
 8195SOL    HW125484   6.845   0.091   0.168
 8195SOL    HW225485   6.891   0.094   0.011
 8196SOL     OW25486   3.775   6.599   6.372
 8196SOL    HW125487   3.825   6.684   6.381
 8196SOL    HW225488   3.791   6.541   6.452
 8197SOL     OW25489   6.629   0.956   6.270
 8197SOL    HW125490   6.595   0.930   6.361
 8197SOL    HW225491   6.668   0.875   6.225
 8198SOL     OW25492   2.566   6.402   3.166
 8198SOL    HW125493   2.634   6.381   3.097
 8198SOL    HW225494   2.521   6.318   3.196
 8199SOL     OW25495   0.622   4.056   0.053
 8199SOL    HW125496   0.680   4.042   6.995
 8199SOL    HW225497   0.621   4.154   0.075
 8200SOL     OW25498   4.597   4.048   1.713
 8200SOL    HW125499   4.549   4.116   1.767
 8200SOL    HW225500   4.539   3.967   1.701
 8201SOL     OW25501   5.630   0.281   3.619
 8201SOL    HW125502   5.535   0.313   3.613
 8201SOL    HW225503   5.632   0.182   3.609
 8202SOL     OW25504   1.606   4.678   3.648
 8202SOL    HW125505   1.566   4.587   3.645
 8202SOL    HW225506   1.577   4.725   3.731
 8203SOL     OW25507   5.209   3.811   1.433
 8203SOL    HW125508   5.198   3.734   1.370
 8203SOL    HW225509   5.182   3.896   1.388
 8204SOL     OW25510   3.225   6.638   2.416
 8204SOL    HW125511   3.272   6.551   2.427
 8204SOL    HW225512   3.265   6.705   2.479
 8205SOL     OW25513   5.405   5.469   1.811
 8205SOL    HW125514   5.387   5.557   1.766
 8205SOL    HW225515   5.396   5.395   1.744
 8206SOL     OW25516   4.282   2.228   5.458
 8206SOL    HW125517   4.278   2.135   5.492
 8206SOL    HW225518   4.340   2.284   5.518
 8207SOL     OW25519   3.403   5.030   6.057
 8207SOL    HW125520   3.360   4.970   6.124
 8207SOL    HW225521   3.419   5.120   6.098
 8208SOL     OW25522   1.902   5.072   1.725
 8208SOL    HW125523   1.926   4.984   1.682
 8208SOL    HW225524   1.952   5.146   1.679
 8209SOL     OW25525   1.204   0.914   5.055
 8209SOL    HW125526   1.234   0.948   4.966
 8209SOL    HW225527   1.241   0.972   5.128
 8210SOL     OW25528   2.056   1.335   0.232
 8210SOL    HW125529   1.988   1.308   0.164
 8210SOL    HW225530   2.142   1.288   0.214
 8211SOL     OW25531   2.931   3.740   4.179
 8211SOL    HW125532   2.968   3.830   4.157
 8211SOL    HW225533   2.894   3.698   4.096
 8212SOL     OW25534   2.199   6.955   1.346
 8212SOL    HW125535   2.105   6.937   1.316
 8212SOL    HW225536   2.248   6.868   1.355
 8213SOL     OW25537   4.490   4.517   1.797
 8213SOL    HW125538   4.578   4.484   1.764
 8213SOL    HW225539   4.464   4.467   1.879
 8214SOL     OW25540   3.175   5.496   4.141
 8214SOL    HW125541   3.216   5.486   4.232
 8214SOL    HW225542   3.227   5.562   4.087
 8215SOL     OW25543   3.869   6.022   0.248
 8215SOL    HW125544   3.804   5.946   0.247
 8215SOL    HW225545   3.823   6.105   0.214
 8216SOL     OW25546   4.682   6.132   2.602
 8216SOL    HW125547   4.691   6.230   2.621
 8216SOL    HW225548   4.746   6.107   2.529
 8217SOL     OW25549   2.506   5.192   3.864
 8217SOL    HW125550   2.431   5.134   3.831
 8217SOL    HW225551   2.568   5.136   3.920
 8218SOL     OW25552   1.803   0.256   4.774
 8218SOL    HW125553   1.749   0.264   4.690
 8218SOL    HW225554   1.880   0.194   4.757
 8219SOL     OW25555   3.905   3.651   0.772
 8219SOL    HW125556   3.856   3.577   0.726
 8219SOL    HW225557   3.976   3.613   0.830
 8220SOL     OW25558   4.042   3.926   4.550
 8220SOL    HW125559   4.128   3.973   4.569
 8220SOL    HW225560   4.018   3.868   4.628
 8221SOL     OW25561   6.225   3.244   3.602
 8221SOL    HW125562   6.298   3.301   3.639
 8221SOL    HW225563   6.258   3.198   3.519
 8222SOL     OW25564   6.103   2.435   1.599
 8222SOL    HW125565   6.110   2.470   1.505
 8222SOL    HW225566   6.007   2.424   1.623
 8223SOL     OW25567   6.934   5.937   5.623
 8223SOL    HW125568   6.937   5.837   5.634
 8223SOL    HW225569   6.913   5.979   5.711
 8224SOL     OW25570   5.335   2.039   6.891
 8224SOL    HW125571   5.273   1.990   6.830
 8224SOL    HW225572   5.290   2.054   6.979
 8225SOL     OW25573   4.430   1.739   6.932
 8225SOL    HW125574   4.513   1.766   6.885
 8225SOL    HW225575   4.350   1.763   6.877
 8226SOL     OW25576   3.269   0.643   0.252
 8226SOL    HW125577   3.189   0.591   0.283
 8226SOL    HW225578   3.284   0.626   0.155
 8227SOL     OW25579   5.433   2.108   2.889
 8227SOL    HW125580   5.337   2.120   2.865
 8227SOL    HW225581   5.452   2.011   2.903
 8228SOL     OW25582   0.796   1.200   5.724
 8228SOL    HW125583   0.764   1.144   5.647
 8228SOL    HW225584   0.729   1.196   5.798
 8229SOL     OW25585   4.412   4.758   1.122
 8229SOL    HW125586   4.499   4.807   1.119
 8229SOL    HW225587   4.430   4.660   1.125
 8230SOL     OW25588   4.268   0.811   5.887
 8230SOL    HW125589   4.249   0.906   5.910
 8230SOL    HW225590   4.236   0.752   5.961
 8231SOL     OW25591   3.085   1.391   1.913
 8231SOL    HW125592   3.151   1.325   1.878
 8231SOL    HW225593   3.002   1.344   1.943
 8232SOL     OW25594   4.389   6.801   2.806
 8232SOL    HW125595   4.295   6.784   2.838
 8232SOL    HW225596   4.386   6.831   2.711
 8233SOL     OW25597   0.474   0.863   5.290
 8233SOL    HW125598   0.475   0.963   5.280
 8233SOL    HW225599   0.490   0.821   5.201
 8234SOL     OW25600   2.305   2.471   0.383
 8234SOL    HW125601   2.293   2.529   0.463
 8234SOL    HW225602   2.270   2.518   0.302
 8235SOL     OW25603   7.008   5.661   0.401
 8235SOL    HW125604   6.969   5.630   0.488
 8235SOL    HW225605   0.015   5.756   0.410
 8236SOL     OW25606   0.938   6.675   5.912
 8236SOL    HW125607   0.874   6.599   5.927
 8236SOL    HW225608   0.887   6.760   5.902
 8237SOL     OW25609   4.666   5.357   5.980
 8237SOL    HW125610   4.731   5.309   5.920
 8237SOL    HW225611   4.576   5.315   5.972
 8238SOL     OW25612   1.962   4.761   0.937
 8238SOL    HW125613   2.025   4.819   0.987
 8238SOL    HW225614   1.921   4.694   1.000
 8239SOL     OW25615   0.508   1.957   5.351
 8239SOL    HW125616   0.414   1.990   5.342
 8239SOL    HW225617   0.569   2.019   5.301
 8240SOL     OW25618   3.521   3.810   5.018
 8240SOL    HW125619   3.600   3.832   5.075
 8240SOL    HW225620   3.471   3.733   5.058
 8241SOL     OW25621   1.810   3.668   6.383
 8241SOL    HW125622   1.825   3.600   6.311
 8241SOL    HW225623   1.712   3.675   6.402
 8242SOL     OW25624   1.014   3.986   4.412
 8242SOL    HW125625   1.071   4.033   4.479
 8242SOL    HW225626   0.987   4.050   4.340
 8243SOL     OW25627   0.677   4.784   4.849
 8243SOL    HW125628   0.712   4.867   4.894
 8243SOL    HW225629   0.588   4.761   4.888
 8244SOL     OW25630   1.566   0.313   3.603
 8244SOL    HW125631   1.657   0.352   3.613
 8244SOL    HW225632   1.571   0.229   3.549
 8245SOL     OW25633   5.558   1.193   4.040
 8245SOL    HW125634   5.542   1.266   4.107
 8245SOL    HW225635   5.632   1.220   3.978
 8246SOL     OW25636   1.446   4.324   6.492
 8246SOL    HW125637   1.438   4.385   6.571
 8246SOL    HW225638   1.517   4.358   6.430
 8247SOL     OW25639   3.001   5.672   3.443
 8247SOL    HW125640   2.905   5.647   3.428
 8247SOL    HW225641   3.057   5.589   3.443
 8248SOL     OW25642   0.763   5.160   3.036
 8248SOL    HW125643   0.743   5.105   3.117
 8248SOL    HW225644   0.825   5.235   3.061
 8249SOL     OW25645   2.583   2.290   6.078
 8249SOL    HW125646   2.529   2.350   6.019
 8249SOL    HW225647   2.524   2.253   6.150
 8250SOL     OW25648   1.683   1.580   6.312
 8250SOL    HW125649   1.718   1.642   6.241
 8250SOL    HW225650   1.661   1.633   6.394
 8251SOL     OW25651   6.947   2.454   5.105
 8251SOL    HW125652   7.008   2.533   5.096
 8251SOL    HW225653   6.970   2.386   5.036
 8252SOL     OW25654   1.802   2.349   6.724
 8252SOL    HW125655   1.800   2.371   6.822
 8252SOL    HW225656   1.711   2.326   6.693
 8253SOL     OW25657   3.899   5.713   0.238
 8253SOL    HW125658   3.825   5.780   0.247
 8253SOL    HW225659   3.961   5.741   0.165
 8254SOL     OW25660   5.220   5.180   0.822
 8254SOL    HW125661   5.181   5.270   0.844
 8254SOL    HW225662   5.311   5.191   0.784
 8255SOL     OW25663   0.442   6.381   6.395
 8255SOL    HW125664   0.413   6.388   6.300
 8255SOL    HW225665   0.541   6.363   6.398
 8256SOL     OW25666   1.738   5.775   2.887
 8256SOL    HW125667   1.747   5.676   2.879
 8256SOL    HW225668   1.764   5.804   2.979
 8257SOL     OW25669   4.860   4.086   4.137
 8257SOL    HW125670   4.959   4.093   4.133
 8257SOL    HW225671   4.833   4.028   4.214
 8258SOL     OW25672   6.611   3.449   2.135
 8258SOL    HW125673   6.621   3.368   2.077
 8258SOL    HW225674   6.521   3.490   2.120
 8259SOL     OW25675   4.399   1.719   3.867
 8259SOL    HW125676   4.400   1.749   3.772
 8259SOL    HW225677   4.400   1.619   3.870
 8260SOL     OW25678   3.189   0.622   1.032
 8260SOL    HW125679   3.116   0.689   1.023
 8260SOL    HW225680   3.270   0.666   1.070
 8261SOL     OW25681   5.377   0.468   3.344
 8261SOL    HW125682   5.306   0.528   3.382
 8261SOL    HW225683   5.341   0.375   3.335
 8262SOL     OW25684   6.972   3.852   1.745
 8262SOL    HW125685   6.991   3.945   1.713
 8262SOL    HW225686   6.932   3.799   1.670
 8263SOL     OW25687   0.003   2.401   6.353
 8263SOL    HW125688   0.088   2.361   6.318
 8263SOL    HW225689   7.004   2.483   6.300
 8264SOL     OW25690   1.613   6.463   3.193
 8264SOL    HW125691   1.707   6.433   3.175
 8264SOL    HW225692   1.581   6.520   3.118
 8265SOL     OW25693   5.648   0.916   0.857
 8265SOL    HW125694   5.621   0.959   0.771
 8265SOL    HW225695   5.695   0.984   0.914
 8266SOL     OW25696   2.203   0.379   3.781
 8266SOL    HW125697   2.255   0.414   3.703
 8266SOL    HW225698   2.216   0.438   3.860
 8267SOL     OW25699   1.614   3.709   2.897
 8267SOL    HW125700   1.529   3.698   2.947
 8267SOL    HW225701   1.596   3.705   2.798
 8268SOL     OW25702   3.306   4.595   6.550
 8268SOL    HW125703   3.334   4.562   6.640
 8268SOL    HW225704   3.317   4.522   6.483
 8269SOL     OW25705   4.834   2.132   3.317
 8269SOL    HW125706   4.753   2.130   3.375
 8269SOL    HW225707   4.848   2.224   3.281
 8270SOL     OW25708   4.004   0.027   6.163
 8270SOL    HW125709   4.049   7.001   6.088
 8270SOL    HW225710   3.946   0.099   6.125
 8271SOL     OW25711   4.345   6.570   5.221
 8271SOL    HW125712   4.294   6.642   5.267
 8271SOL    HW225713   4.439   6.601   5.204
 8272SOL     OW25714   0.603   6.690   1.624
 8272SOL    HW125715   0.620   6.781   1.586
 8272SOL    HW225716   0.686   6.635   1.615
 8273SOL     OW25717   2.945   6.454   6.731
 8273SOL    HW125718   3.042   6.458   6.707
 8273SOL    HW225719   2.935   6.429   6.827
 8274SOL     OW25720   5.281   6.356   6.540
 8274SOL    HW125721   5.323   6.311   6.619
 8274SOL    HW225722   5.204   6.412   6.571
 8275SOL     OW25723   5.747   1.060   4.521
 8275SOL    HW125724   5.775   1.085   4.613
 8275SOL    HW225725   5.697   0.973   4.524
 8276SOL     OW25726   6.561   3.248   6.539
 8276SOL    HW125727   6.560   3.253   6.639
 8276SOL    HW225728   6.623   3.175   6.509
 8277SOL     OW25729   1.266   5.417   6.101
 8277SOL    HW125730   1.329   5.400   6.026
 8277SOL    HW225731   1.262   5.338   6.161
 8278SOL     OW25732   3.815   1.363   0.131
 8278SOL    HW125733   3.747   1.348   0.203
 8278SOL    HW225734   3.879   1.287   0.129
 8279SOL     OW25735   4.771   5.671   5.815
 8279SOL    HW125736   4.865   5.687   5.782
 8279SOL    HW225737   4.738   5.585   5.777
 8280SOL     OW25738   5.377   3.016   0.058
 8280SOL    HW125739   5.317   2.973   0.126
 8280SOL    HW225740   5.444   3.073   0.104
 8281SOL     OW25741   2.089   4.671   7.008
 8281SOL    HW125742   2.182   4.635   7.013
 8281SOL    HW225743   2.055   4.689   0.077
 8282SOL     OW25744   2.958   2.691   0.758
 8282SOL    HW125745   2.953   2.637   0.673
 8282SOL    HW225746   2.909   2.643   0.831
 8283SOL     OW25747   0.236   4.919   3.014
 8283SOL    HW125748   0.291   4.868   2.948
 8283SOL    HW225749   0.295   4.950   3.089
 8284SOL     OW25750   2.171   2.203   2.117
 8284SOL    HW125751   2.103   2.257   2.167
 8284SOL    HW225752   2.215   2.261   2.048
 8285SOL     OW25753   3.201   4.289   6.005
 8285SOL    HW125754   3.238   4.370   5.958
 8285SOL    HW225755   3.141   4.318   6.079
 8286SOL     OW25756   5.326   0.926   4.833
 8286SOL    HW125757   5.411   0.968   4.803
 8286SOL    HW225758   5.340   0.828   4.848
 8287SOL     OW25759   1.807   0.437   3.602
 8287SOL    HW125760   1.843   0.494   3.676
 8287SOL    HW225761   1.821   0.483   3.514
 8288SOL     OW25762   1.155   1.284   2.507
 8288SOL    HW125763   1.141   1.223   2.429
 8288SOL    HW225764   1.252   1.287   2.530
 8289SOL     OW25765   6.519   1.535   5.456
 8289SOL    HW125766   6.579   1.573   5.527
 8289SOL    HW225767   6.450   1.477   5.498
 8290SOL     OW25768   3.752   2.580   1.492
 8290SOL    HW125769   3.798   2.657   1.447
 8290SOL    HW225770   3.793   2.494   1.463
 8291SOL     OW25771   6.097   5.924   6.111
 8291SOL    HW125772   6.167   5.854   6.104
 8291SOL    HW225773   6.007   5.882   6.107
 8292SOL     OW25774   1.163   3.769   4.508
 8292SOL    HW125775   1.141   3.850   4.453
 8292SOL    HW225776   1.160   3.792   4.605
 8293SOL     OW25777   2.930   5.528   3.165
 8293SOL    HW125778   2.911   5.515   3.067
 8293SOL    HW225779   3.028   5.539   3.179
 8294SOL     OW25780   6.293   4.156   6.120
 8294SOL    HW125781   6.362   4.083   6.114
 8294SOL    HW225782   6.207   4.124   6.080
 8295SOL     OW25783   4.761   4.235   2.122
 8295SOL    HW125784   4.772   4.277   2.212
 8295SOL    HW225785   4.665   4.237   2.095
 8296SOL     OW25786   3.658   6.837   1.416
 8296SOL    HW125787   3.603   6.901   1.363
 8296SOL    HW225788   3.653   6.746   1.375
 8297SOL     OW25789   5.922   4.824   2.804
 8297SOL    HW125790   5.945   4.825   2.901
 8297SOL    HW225791   5.994   4.871   2.752
 8298SOL     OW25792   6.431   0.378   6.266
 8298SOL    HW125793   6.355   0.374   6.331
 8298SOL    HW225794   6.482   0.292   6.269
 8299SOL     OW25795   0.830   3.872   1.491
 8299SOL    HW125796   0.859   3.776   1.494
 8299SOL    HW225797   0.822   3.902   1.396
 8300SOL     OW25798   5.856   5.267   3.267
 8300SOL    HW125799   5.852   5.293   3.364
 8300SOL    HW225800   5.932   5.313   3.223
 8301SOL     OW25801   4.398   6.488   0.506
 8301SOL    HW125802   4.358   6.538   0.583
 8301SOL    HW225803   4.497   6.503   0.504
 8302SOL     OW25804   3.803   6.825   5.124
 8302SOL    HW125805   3.826   6.851   5.030
 8302SOL    HW225806   3.822   6.728   5.137
 8303SOL     OW25807   6.602   6.361   3.086
 8303SOL    HW125808   6.622   6.458   3.099
 8303SOL    HW225809   6.638   6.331   2.997
 8304SOL     OW25810   5.680   3.764   3.440
 8304SOL    HW125811   5.670   3.827   3.363
 8304SOL    HW225812   5.631   3.679   3.420
 8305SOL     OW25813   5.315   5.668   4.489
 8305SOL    HW125814   5.308   5.720   4.574
 8305SOL    HW225815   5.286   5.726   4.413
 8306SOL     OW25816   6.236   0.790   2.249
 8306SOL    HW125817   6.260   0.826   2.159
 8306SOL    HW225818   6.137   0.774   2.253
 8307SOL     OW25819   2.444   4.860   2.509
 8307SOL    HW125820   2.487   4.935   2.560
 8307SOL    HW225821   2.345   4.865   2.520
 8308SOL     OW25822   1.247   5.057   6.840
 8308SOL    HW125823   1.193   5.141   6.827
 8308SOL    HW225824   1.234   5.023   6.933
 8309SOL     OW25825   5.971   4.320   4.218
 8309SOL    HW125826   5.988   4.319   4.119
 8309SOL    HW225827   5.947   4.228   4.249
 8310SOL     OW25828   0.813   6.572   6.983
 8310SOL    HW125829   0.774   6.558   6.892
 8310SOL    HW225830   0.767   6.649   0.004
 8311SOL     OW25831   5.452   0.522   3.934
 8311SOL    HW125832   5.373   0.570   3.971
 8311SOL    HW225833   5.466   0.549   3.838
 8312SOL     OW25834   5.564   1.468   6.498
 8312SOL    HW125835   5.614   1.414   6.565
 8312SOL    HW225836   5.598   1.446   6.406
 8313SOL     OW25837   4.105   1.600   5.045
 8313SOL    HW125838   4.156   1.552   5.116
 8313SOL    HW225839   4.156   1.681   5.016
 8314SOL     OW25840   4.945   6.097   5.882
 8314SOL    HW125841   4.929   6.045   5.798
 8314SOL    HW225842   5.016   6.165   5.866
 8315SOL     OW25843   3.620   3.499   4.910
 8315SOL    HW125844   3.631   3.417   4.854
 8315SOL    HW225845   3.573   3.570   4.857
 8316SOL     OW25846   1.471   2.669   6.940
 8316SOL    HW125847   1.570   2.679   6.930
 8316SOL    HW225848   1.449   2.572   6.954
 8317SOL     OW25849   1.581   1.365   3.301
 8317SOL    HW125850   1.500   1.416   3.272
 8317SOL    HW225851   1.568   1.267   3.283
 8318SOL     OW25852   4.122   0.037   0.010
 8318SOL    HW125853   4.063   0.060   6.955
 8318SOL    HW225854   4.194   6.998   7.003
 8319SOL     OW25855   1.944   6.728   6.164
 8319SOL    HW125856   1.875   6.705   6.096
 8319SOL    HW225857   1.900   6.756   6.249
 8320SOL     OW25858   2.911   3.674   4.472
 8320SOL    HW125859   2.889   3.660   4.376
 8320SOL    HW225860   2.943   3.768   4.486
 8321SOL     OW25861   6.291   6.333   0.593
 8321SOL    HW125862   6.365   6.354   0.656
 8321SOL    HW225863   6.203   6.356   0.635
 8322SOL     OW25864   0.120   0.442   6.795
 8322SOL    HW125865   0.063   0.431   6.876
 8322SOL    HW225866   0.136   0.539   6.778
 8323SOL     OW25867   4.638   4.886   1.057
 8323SOL    HW125868   4.593   4.929   0.979
 8323SOL    HW225869   4.735   4.911   1.058
 8324SOL     OW25870   5.808   6.796   6.438
 8324SOL    HW125871   5.762   6.709   6.422
 8324SOL    HW225872   5.906   6.782   6.445
 8325SOL     OW25873   0.955   5.719   5.574
 8325SOL    HW125874   1.027   5.776   5.616
 8325SOL    HW225875   0.925   5.650   5.639
 8326SOL     OW25876   1.907   3.726   1.826
 8326SOL    HW125877   1.835   3.750   1.891
 8326SOL    HW225878   1.926   3.628   1.831
 8327SOL     OW25879   1.048   6.895   4.511
 8327SOL    HW125880   1.068   6.936   4.421
 8327SOL    HW225881   0.977   6.949   4.557
 8328SOL     OW25882   1.749   0.449   6.639
 8328SOL    HW125883   1.844   0.451   6.609
 8328SOL    HW225884   1.726   0.534   6.686
 8329SOL     OW25885   1.386   2.492   4.909
 8329SOL    HW125886   1.333   2.421   4.862
 8329SOL    HW225887   1.461   2.448   4.960
 8330SOL     OW25888   2.986   1.420   6.799
 8330SOL    HW125889   2.997   1.408   6.701
 8330SOL    HW225890   3.076   1.433   6.842
 8331SOL     OW25891   1.803   2.132   6.925
 8331SOL    HW125892   1.802   2.181   7.012
 8331SOL    HW225893   1.716   2.147   6.877
 8332SOL     OW25894   5.809   5.023   2.151
 8332SOL    HW125895   5.756   5.028   2.066
 8332SOL    HW225896   5.750   4.992   2.226
 8333SOL     OW25897   2.597   4.631   1.243
 8333SOL    HW125898   2.607   4.688   1.162
 8333SOL    HW225899   2.603   4.689   1.325
 8334SOL     OW25900   3.733   1.930   6.575
 8334SOL    HW125901   3.635   1.946   6.585
 8334SOL    HW225902   3.754   1.904   6.481
 8335SOL     OW25903   5.096   3.668   5.687
 8335SOL    HW125904   5.091   3.745   5.751
 8335SOL    HW225905   5.084   3.582   5.737
 8336SOL     OW25906   1.026   3.592   3.415
 8336SOL    HW125907   0.966   3.620   3.341
 8336SOL    HW225908   1.032   3.492   3.418
 8337SOL     OW25909   0.565   1.270   3.838
 8337SOL    HW125910   0.585   1.281   3.741
 8337SOL    HW225911   0.650   1.267   3.890
 8338SOL     OW25912   4.335   5.163   2.750
 8338SOL    HW125913   4.346   5.261   2.730
 8338SOL    HW225914   4.250   5.150   2.802
 8339SOL     OW25915   6.567   0.091   0.586
 8339SOL    HW125916   6.631   0.120   0.515
 8339SOL    HW225917   6.478   0.072   0.545
 8340SOL     OW25918   5.871   2.639   0.359
 8340SOL    HW125919   5.890   2.588   0.443
 8340SOL    HW225920   5.782   2.683   0.366
 8341SOL     OW25921   2.799   1.098   0.404
 8341SOL    HW125922   2.777   1.065   0.495
 8341SOL    HW225923   2.888   1.062   0.376
 8342SOL     OW25924   4.422   0.525   0.212
 8342SOL    HW125925   4.488   0.597   0.192
 8342SOL    HW225926   4.342   0.565   0.257
 8343SOL     OW25927   6.003   3.882   3.894
 8343SOL    HW125928   6.078   3.932   3.852
 8343SOL    HW225929   5.939   3.853   3.823
 8344SOL     OW25930   1.281   5.375   5.426
 8344SOL    HW125931   1.320   5.351   5.515
 8344SOL    HW225932   1.353   5.410   5.367
 8345SOL     OW25933   4.393   0.616   2.406
 8345SOL    HW125934   4.374   0.651   2.498
 8345SOL    HW225935   4.470   0.552   2.410
 8346SOL     OW25936   4.948   3.263   5.401
 8346SOL    HW125937   4.901   3.351   5.396
 8346SOL    HW225938   4.884   3.189   5.378
 8347SOL     OW25939   2.421   0.184   6.138
 8347SOL    HW125940   2.482   0.149   6.209
 8347SOL    HW225941   2.474   0.241   6.075
 8348SOL     OW25942   3.588   6.689   2.205
 8348SOL    HW125943   3.617   6.777   2.242
 8348SOL    HW225944   3.526   6.704   2.128
 8349SOL     OW25945   1.134   6.204   2.133
 8349SOL    HW125946   1.047   6.155   2.121
 8349SOL    HW225947   1.206   6.138   2.157
 8350SOL     OW25948   2.533   6.806   0.140
 8350SOL    HW125949   2.527   6.707   0.126
 8350SOL    HW225950   2.465   6.852   0.084
 8351SOL     OW25951   0.055   4.252   3.717
 8351SOL    HW125952   0.051   4.315   3.639
 8351SOL    HW225953   0.131   4.188   3.703
 8352SOL     OW25954   2.956   5.468   1.520
 8352SOL    HW125955   2.865   5.510   1.525
 8352SOL    HW225956   2.980   5.452   1.425
 8353SOL     OW25957   1.709   4.240   2.641
 8353SOL    HW125958   1.754   4.267   2.726
 8353SOL    HW225959   1.705   4.318   2.579
 8354SOL     OW25960   3.285   0.154   3.990
 8354SOL    HW125961   3.298   0.253   4.001
 8354SOL    HW225962   3.328   0.124   3.905
 8355SOL     OW25963   1.832   6.222   5.621
 8355SOL    HW125964   1.836   6.316   5.655
 8355SOL    HW225965   1.859   6.159   5.693
 8356SOL     OW25966   1.360   5.402   0.945
 8356SOL    HW125967   1.403   5.384   0.856
 8356SOL    HW225968   1.355   5.317   0.997
 8357SOL     OW25969   4.645   6.315   6.064
 8357SOL    HW125970   4.594   6.315   5.978
 8357SOL    HW225971   4.583   6.334   6.140
 8358SOL     OW25972   1.063   2.378   4.679
 8358SOL    HW125973   1.010   2.436   4.740
 8358SOL    HW225974   1.132   2.328   4.731
 8359SOL     OW25975   3.188   2.066   5.536
 8359SOL    HW125976   3.155   2.076   5.630
 8359SOL    HW225977   3.280   2.025   5.537
 8360SOL     OW25978   4.892   0.291   0.964
 8360SOL    HW125979   4.951   0.315   1.041
 8360SOL    HW225980   4.942   0.232   0.901
 8361SOL     OW25981   3.448   0.010   0.385
 8361SOL    HW125982   3.530   6.991   0.424
 8361SOL    HW225983   3.428   0.095   0.433
 8362SOL     OW25984   6.853   3.730   1.523
 8362SOL    HW125985   6.910   3.717   1.442
 8362SOL    HW225986   6.803   3.645   1.543
 8363SOL     OW25987   2.826   2.474   6.997
 8363SOL    HW125988   2.738   2.447   0.014
 8363SOL    HW225989   2.832   2.573   6.993
 8364SOL     OW25990   0.067   2.213   4.051
 8364SOL    HW125991   7.001   2.255   4.071
 8364SOL    HW225992   0.101   2.247   3.964
 8365SOL     OW25993   2.084   2.521   2.969
 8365SOL    HW125994   2.006   2.571   2.933
 8365SOL    HW225995   2.167   2.574   2.956
 8366SOL     OW25996   5.001   5.909   1.172
 8366SOL    HW125997   5.069   5.853   1.220
 8366SOL    HW225998   4.941   5.849   1.119
 8367SOL     OW25999   4.221   5.257   4.697
 8367SOL    HW126000   4.194   5.220   4.608
 8367SOL    HW226001   4.294   5.324   4.685
 8368SOL     OW26002   0.584   5.976   0.529
 8368SOL    HW126003   0.572   5.951   0.433
 8368SOL    HW226004   0.574   6.075   0.540
 8369SOL     OW26005   1.237   1.397   6.984
 8369SOL    HW126006   1.225   1.432   0.054
 8369SOL    HW226007   1.322   1.431   6.946
 8370SOL     OW26008   3.182   2.291   0.439
 8370SOL    HW126009   3.207   2.387   0.432
 8370SOL    HW226010   3.199   2.258   0.532
 8371SOL     OW26011   2.115   4.659   6.049
 8371SOL    HW126012   2.066   4.671   6.135
 8371SOL    HW226013   2.049   4.639   5.976
 8372SOL     OW26014   1.776   5.884   2.536
 8372SOL    HW126015   1.712   5.820   2.493
 8372SOL    HW226016   1.734   5.922   2.619
 8373SOL     OW26017   0.159   0.983   4.225
 8373SOL    HW126018   0.182   0.898   4.273
 8373SOL    HW226019   0.243   1.026   4.192
 8374SOL     OW26020   1.612   0.645   4.843
 8374SOL    HW126021   1.591   0.597   4.928
 8374SOL    HW226022   1.705   0.680   4.846
 8375SOL     OW26023   3.869   1.498   4.912
 8375SOL    HW126024   3.869   1.401   4.937
 8375SOL    HW226025   3.945   1.544   4.958
 8376SOL     OW26026   1.956   0.499   2.949
 8376SOL    HW126027   1.875   0.483   2.892
 8376SOL    HW226028   1.947   0.448   3.035
 8377SOL     OW26029   5.236   5.453   6.717
 8377SOL    HW126030   5.245   5.362   6.677
 8377SOL    HW226031   5.314   5.471   6.778
 8378SOL     OW26032   6.300   5.799   3.563
 8378SOL    HW126033   6.244   5.859   3.620
 8378SOL    HW226034   6.296   5.830   3.468
 8379SOL     OW26035   5.847   1.097   2.209
 8379SOL    HW126036   5.872   1.194   2.211
 8379SOL    HW226037   5.890   1.049   2.285
 8380SOL     OW26038   6.625   5.431   0.630
 8380SOL    HW126039   6.609   5.334   0.610
 8380SOL    HW226040   6.652   5.478   0.545
 8381SOL     OW26041   0.070   1.482   2.574
 8381SOL    HW126042   0.011   1.560   2.554
 8381SOL    HW226043   0.157   1.493   2.527
 8382SOL     OW26044   2.599   0.512   0.503
 8382SOL    HW126045   2.509   0.470   0.496
 8382SOL    HW226046   2.597   0.602   0.459
 8383SOL     OW26047   3.024   6.427   5.421
 8383SOL    HW126048   3.105   6.475   5.457
 8383SOL    HW226049   2.999   6.467   5.333
 8384SOL     OW26050   0.574   2.751   0.724
 8384SOL    HW126051   0.491   2.708   0.689
 8384SOL    HW226052   0.650   2.733   0.662
 8385SOL     OW26053   4.302   3.468   0.790
 8385SOL    HW126054   4.390   3.450   0.745
 8385SOL    HW226055   4.271   3.559   0.764
 8386SOL     OW26056   1.531   5.359   1.753
 8386SOL    HW126057   1.613   5.391   1.707
 8386SOL    HW226058   1.556   5.309   1.836
 8387SOL     OW26059   1.605   1.181   1.669
 8387SOL    HW126060   1.697   1.188   1.708
 8387SOL    HW226061   1.585   1.263   1.615
 8388SOL     OW26062   3.299   6.644   0.757
 8388SOL    HW126063   3.370   6.692   0.810
 8388SOL    HW226064   3.235   6.600   0.820
 8389SOL     OW26065   1.061   2.265   4.434
 8389SOL    HW126066   1.031   2.302   4.522
 8389SOL    HW226067   1.095   2.171   4.448
 8390SOL     OW26068   2.004   0.519   5.607
 8390SOL    HW126069   1.931   0.495   5.671
 8390SOL    HW226070   2.092   0.493   5.645
 8391SOL     OW26071   4.795   5.573   1.684
 8391SOL    HW126072   4.848   5.536   1.608
 8391SOL    HW226073   4.797   5.509   1.760
 8392SOL     OW26074   5.806   6.537   5.163
 8392SOL    HW126075   5.813   6.448   5.207
 8392SOL    HW226076   5.840   6.530   5.069
 8393SOL     OW26077   0.483   5.890   3.057
 8393SOL    HW126078   0.553   5.820   3.071
 8393SOL    HW226079   0.407   5.874   3.120
 8394SOL     OW26080   0.852   1.712   3.369
 8394SOL    HW126081   0.808   1.631   3.330
 8394SOL    HW226082   0.783   1.769   3.414
 8395SOL     OW26083   0.115   6.499   4.724
 8395SOL    HW126084   0.192   6.497   4.787
 8395SOL    HW226085   0.079   6.406   4.712
 8396SOL     OW26086   4.679   4.189   2.618
 8396SOL    HW126087   4.622   4.256   2.666
 8396SOL    HW226088   4.621   4.121   2.574
 8397SOL     OW26089   1.655   5.998   2.744
 8397SOL    HW126090   1.668   5.929   2.815
 8397SOL    HW226091   1.560   6.028   2.744
 8398SOL     OW26092   4.317   1.520   0.029
 8398SOL    HW126093   4.227   1.557   0.051
 8398SOL    HW226094   4.376   1.593   7.017
 8399SOL     OW26095   5.367   6.183   0.363
 8399SOL    HW126096   5.410   6.164   0.451
 8399SOL    HW226097   5.399   6.271   0.328
 8400SOL     OW26098   0.065   0.159   2.611
 8400SOL    HW126099   0.042   0.063   2.629
 8400SOL    HW226100   0.069   0.174   2.512
 8401SOL     OW26101   3.714   3.947   6.253
 8401SOL    HW126102   3.793   3.994   6.215
 8401SOL    HW226103   3.713   3.852   6.221
 8402SOL     OW26104   3.975   1.981   6.281
 8402SOL    HW126105   3.892   2.032   6.261
 8402SOL    HW226106   4.034   2.034   6.341
 8403SOL     OW26107   1.716   1.465   4.282
 8403SOL    HW126108   1.791   1.522   4.316
 8403SOL    HW226109   1.676   1.507   4.201
 8404SOL     OW26110   4.689   5.934   5.870
 8404SOL    HW126111   4.734   5.969   5.952
 8404SOL    HW226112   4.722   5.841   5.852
 8405SOL     OW26113   0.249   2.322   6.294
 8405SOL    HW126114   0.259   2.232   6.253
 8405SOL    HW226115   0.336   2.349   6.335
 8406SOL     OW26116   4.907   2.170   1.182
 8406SOL    HW126117   4.811   2.197   1.175
 8406SOL    HW226118   4.931   2.158   1.278
 8407SOL     OW26119   5.427   4.078   4.103
 8407SOL    HW126120   5.409   4.061   4.006
 8407SOL    HW226121   5.457   3.993   4.147
 8408SOL     OW26122   5.174   1.293   4.060
 8408SOL    HW126123   5.112   1.371   4.059
 8408SOL    HW226124   5.200   1.272   4.154
 8409SOL     OW26125   1.427   1.385   3.979
 8409SOL    HW126126   1.496   1.327   3.935
 8409SOL    HW226127   1.382   1.442   3.910
 8410SOL     OW26128   4.199   6.919   1.525
 8410SOL    HW126129   4.266   6.892   1.455
 8410SOL    HW226130   4.242   6.912   1.615
 8411SOL     OW26131   1.702   4.062   4.138
 8411SOL    HW126132   1.626   3.998   4.143
 8411SOL    HW226133   1.787   4.016   4.163
 8412SOL     OW26134   4.439   2.371   2.058
 8412SOL    HW126135   4.419   2.406   1.967
 8412SOL    HW226136   4.363   2.315   2.090
 8413SOL     OW26137   3.562   5.187   0.410
 8413SOL    HW126138   3.497   5.114   0.430
 8413SOL    HW226139   3.652   5.148   0.394
 8414SOL     OW26140   4.015   6.052   3.420
 8414SOL    HW126141   4.001   5.955   3.442
 8414SOL    HW226142   4.058   6.098   3.497
 8415SOL     OW26143   0.039   4.097   3.145
 8415SOL    HW126144   0.085   4.153   3.215
 8415SOL    HW226145   6.983   4.146   3.110
 8416SOL     OW26146   5.401   3.926   2.548
 8416SOL    HW126147   5.390   3.993   2.475
 8416SOL    HW226148   5.357   3.959   2.631
 8417SOL     OW26149   2.083   6.250   6.331
 8417SOL    HW126150   2.156   6.199   6.285
 8417SOL    HW226151   2.007   6.188   6.352
 8418SOL     OW26152   6.242   5.809   2.707
 8418SOL    HW126153   6.228   5.876   2.634
 8418SOL    HW226154   6.281   5.855   2.787
 8419SOL     OW26155   4.264   0.290   2.308
 8419SOL    HW126156   4.347   0.344   2.298
 8419SOL    HW226157   4.236   0.256   2.218
 8420SOL     OW26158   3.925   0.594   6.406
 8420SOL    HW126159   3.913   0.516   6.346
 8420SOL    HW226160   4.010   0.584   6.458
 8421SOL     OW26161   1.889   6.559   2.072
 8421SOL    HW126162   1.937   6.472   2.078
 8421SOL    HW226163   1.929   6.624   2.136
 8422SOL     OW26164   4.973   6.883   0.486
 8422SOL    HW126165   4.887   6.838   0.463
 8422SOL    HW226166   4.955   6.975   0.521
 8423SOL     OW26167   3.421   4.864   0.288
 8423SOL    HW126168   3.356   4.799   0.249
 8423SOL    HW226169   3.510   4.853   0.242
 8424SOL     OW26170   3.448   1.829   3.053
 8424SOL    HW126171   3.536   1.782   3.061
 8424SOL    HW226172   3.450   1.913   3.108
 8425SOL     OW26173   6.057   5.099   1.652
 8425SOL    HW126174   6.068   5.029   1.724
 8425SOL    HW226175   6.041   5.188   1.695
 8426SOL     OW26176   3.690   3.325   3.557
 8426SOL    HW126177   3.626   3.252   3.581
 8426SOL    HW226178   3.652   3.413   3.582
 8427SOL     OW26179   2.022   3.823   6.828
 8427SOL    HW126180   1.993   3.767   6.906
 8427SOL    HW226181   2.038   3.764   6.749
 8428SOL     OW26182   0.434   4.349   2.174
 8428SOL    HW126183   0.424   4.283   2.100
 8428SOL    HW226184   0.359   4.337   2.240
 8429SOL     OW26185   2.135   5.629   3.896
 8429SOL    HW126186   2.229   5.660   3.908
 8429SOL    HW226187   2.134   5.530   3.885
 8430SOL     OW26188   4.651   4.598   3.078
 8430SOL    HW126189   4.730   4.659   3.092
 8430SOL    HW226190   4.677   4.524   3.016
 8431SOL     OW26191   3.546   4.518   1.264
 8431SOL    HW126192   3.626   4.498   1.208
 8431SOL    HW226193   3.484   4.578   1.213
 8432SOL     OW26194   4.163   5.491   6.177
 8432SOL    HW126195   4.083   5.458   6.127
 8432SOL    HW226196   4.135   5.561   6.242
 8433SOL     OW26197   1.039   2.959   6.331
 8433SOL    HW126198   1.041   2.859   6.342
 8433SOL    HW226199   1.090   3.001   6.406
 8434SOL     OW26200   4.894   6.418   5.955
 8434SOL    HW126201   4.872   6.458   5.866
 8434SOL    HW226202   4.810   6.396   6.004
 8435SOL     OW26203   4.561   1.945   1.188
 8435SOL    HW126204   4.584   2.032   1.144
 8435SOL    HW226205   4.472   1.954   1.233
 8436SOL     OW26206   4.241   4.685   2.501
 8436SOL    HW126207   4.204   4.636   2.422
 8436SOL    HW226208   4.172   4.750   2.534
 8437SOL     OW26209   0.871   0.958   0.997
 8437SOL    HW126210   0.828   1.048   0.986
 8437SOL    HW226211   0.830   0.894   0.933
 8438SOL     OW26212   2.609   4.645   2.484
 8438SOL    HW126213   2.552   4.726   2.472
 8438SOL    HW226214   2.689   4.650   2.424
 8439SOL     OW26215   0.071   5.315   2.077
 8439SOL    HW126216   0.034   5.256   2.149
 8439SOL    HW226217   0.151   5.271   2.036
 8440SOL     OW26218   0.186   0.732   1.378
 8440SOL    HW126219   0.232   0.776   1.455
 8440SOL    HW226220   0.109   0.678   1.412
 8441SOL     OW26221   5.617   5.903   6.703
 8441SOL    HW126222   5.672   5.918   6.621
 8441SOL    HW226223   5.524   5.875   6.677
 8442SOL     OW26224   2.761   4.414   0.124
 8442SOL    HW126225   2.768   4.458   0.035
 8442SOL    HW226226   2.709   4.474   0.186
 8443SOL     OW26227   0.929   0.473   3.141
 8443SOL    HW126228   0.834   0.476   3.172
 8443SOL    HW226229   0.990   0.476   3.220
 8444SOL     OW26230   3.958   6.533   3.843
 8444SOL    HW126231   3.941   6.478   3.762
 8444SOL    HW226232   3.973   6.473   3.922
 8445SOL     OW26233   3.553   5.362   3.150
 8445SOL    HW126234   3.470   5.308   3.134
 8445SOL    HW226235   3.623   5.337   3.084
 8446SOL     OW26236   5.358   5.499   3.116
 8446SOL    HW126237   5.315   5.455   3.194
 8446SOL    HW226238   5.299   5.490   3.036
 8447SOL     OW26239   5.250   2.280   1.813
 8447SOL    HW126240   5.157   2.252   1.839
 8447SOL    HW226241   5.251   2.379   1.799
 8448SOL     OW26242   0.100   3.738   6.516
 8448SOL    HW126243   0.175   3.714   6.455
 8448SOL    HW226244   0.064   3.655   6.559
 8449SOL     OW26245   0.489   3.432   5.083
 8449SOL    HW126246   0.425   3.384   5.024
 8449SOL    HW226247   0.525   3.369   5.151
 8450SOL     OW26248   1.400   6.096   2.766
 8450SOL    HW126249   1.420   6.168   2.700
 8450SOL    HW226250   1.333   6.130   2.833
 8451SOL     OW26251   3.643   3.287   1.334
 8451SOL    HW126252   3.582   3.279   1.413
 8451SOL    HW226253   3.727   3.334   1.361
 8452SOL     OW26254   6.585   0.532   1.053
 8452SOL    HW126255   6.620   0.607   1.110
 8452SOL    HW226256   6.492   0.509   1.080
 8453SOL     OW26257   6.235   4.629   6.746
 8453SOL    HW126258   6.275   4.617   6.837
 8453SOL    HW226259   6.264   4.554   6.687
 8454SOL     OW26260   1.349   6.545   2.926
 8454SOL    HW126261   1.438   6.585   2.907
 8454SOL    HW226262   1.277   6.609   2.899
 8455SOL     OW26263   4.748   1.649   1.113
 8455SOL    HW126264   4.715   1.627   1.021
 8455SOL    HW226265   4.671   1.678   1.170
 8456SOL     OW26266   5.448   5.375   3.938
 8456SOL    HW126267   5.390   5.301   3.904
 8456SOL    HW226268   5.500   5.414   3.862
 8457SOL     OW26269   6.784   0.268   5.549
 8457SOL    HW126270   6.768   0.200   5.620
 8457SOL    HW226271   6.853   0.333   5.580
 8458SOL     OW26272   1.966   2.017   0.250
 8458SOL    HW126273   1.924   1.933   0.287
 8458SOL    HW226274   1.996   2.000   0.156
 8459SOL     OW26275   3.618   5.839   2.560
 8459SOL    HW126276   3.600   5.831   2.462
 8459SOL    HW226277   3.609   5.934   2.588
 8460SOL     OW26278   4.522   2.383   6.901
 8460SOL    HW126279   4.521   2.314   6.829
 8460SOL    HW226280   4.429   2.400   6.933
 8461SOL     OW26281   0.529   3.839   1.536
 8461SOL    HW126282   0.484   3.853   1.447
 8461SOL    HW226283   0.621   3.804   1.521
 8462SOL     OW26284   3.715   4.073   6.964
 8462SOL    HW126285   3.742   3.984   6.926
 8462SOL    HW226286   3.630   4.063   7.015
 8463SOL     OW26287   6.920   2.112   0.186
 8463SOL    HW126288   6.942   2.019   0.156
 8463SOL    HW226289   6.935   2.176   0.110
 8464SOL     OW26290   0.528   3.518   6.802
 8464SOL    HW126291   0.576   3.490   6.719
 8464SOL    HW226292   0.437   3.477   6.803
 8465SOL     OW26293   3.207   2.388   1.088
 8465SOL    HW126294   3.203   2.484   1.061
 8465SOL    HW226295   3.114   2.354   1.103
 8466SOL     OW26296   5.381   0.553   5.511
 8466SOL    HW126297   5.369   0.462   5.470
 8466SOL    HW226298   5.470   0.590   5.484
 8467SOL     OW26299   3.333   0.875   0.381
 8467SOL    HW126300   3.318   0.788   0.334
 8467SOL    HW226301   3.287   0.873   0.470
 8468SOL     OW26302   6.102   3.729   6.799
 8468SOL    HW126303   6.146   3.685   6.721
 8468SOL    HW226304   6.049   3.662   6.851
 8469SOL     OW26305   4.207   2.762   5.581
 8469SOL    HW126306   4.188   2.859   5.571
 8469SOL    HW226307   4.122   2.710   5.568
 8470SOL     OW26308   0.717   4.833   1.160
 8470SOL    HW126309   0.623   4.853   1.136
 8470SOL    HW226310   0.749   4.898   1.230
 8471SOL     OW26311   2.820   0.549   4.947
 8471SOL    HW126312   2.868   0.626   4.990
 8471SOL    HW226313   2.873   0.518   4.868
 8472SOL     OW26314   5.678   1.421   6.254
 8472SOL    HW126315   5.742   1.488   6.292
 8472SOL    HW226316   5.729   1.341   6.220
 8473SOL     OW26317   4.732   4.785   6.942
 8473SOL    HW126318   4.767   4.799   0.012
 8473SOL    HW226319   4.778   4.706   6.901
 8474SOL     OW26320   3.145   3.008   3.080
 8474SOL    HW126321   3.107   2.916   3.090
 8474SOL    HW226322   3.110   3.051   2.997
 8475SOL     OW26323   0.473   3.478   1.289
 8475SOL    HW126324   0.388   3.495   1.239
 8475SOL    HW226325   0.466   3.389   1.335
 8476SOL     OW26326   6.404   0.403   1.520
 8476SOL    HW126327   6.457   0.366   1.596
 8476SOL    HW226328   6.401   0.337   1.446
 8477SOL     OW26329   4.955   6.641   1.291
 8477SOL    HW126330   5.001   6.564   1.335
 8477SOL    HW226331   5.022   6.698   1.244
 8478SOL     OW26332   0.966   0.664   5.753
 8478SOL    HW126333   0.926   0.577   5.728
 8478SOL    HW226334   1.063   0.652   5.774
 8479SOL     OW26335   1.908   2.261   1.127
 8479SOL    HW126336   1.911   2.253   1.028
 8479SOL    HW226337   1.905   2.170   1.168
 8480SOL     OW26338   4.395   2.799   0.137
 8480SOL    HW126339   4.468   2.829   0.199
 8480SOL    HW226340   4.420   2.823   0.043
 8481SOL     OW26341   3.575   2.111   4.468
 8481SOL    HW126342   3.499   2.120   4.532
 8481SOL    HW226343   3.659   2.091   4.520
 8482SOL     OW26344   4.732   1.337   6.931
 8482SOL    HW126345   4.639   1.375   6.928
 8482SOL    HW226346   4.740   1.276   7.009
 8483SOL     OW26347   3.441   6.005   3.695
 8483SOL    HW126348   3.515   6.051   3.647
 8483SOL    HW226349   3.358   6.009   3.640
 8484SOL     OW26350   6.303   6.027   5.028
 8484SOL    HW126351   6.274   6.116   4.991
 8484SOL    HW226352   6.399   6.011   5.002
 8485SOL     OW26353   3.383   2.159   0.227
 8485SOL    HW126354   3.423   2.088   0.285
 8485SOL    HW226355   3.344   2.231   0.285
 8486SOL     OW26356   1.865   1.392   2.173
 8486SOL    HW126357   1.845   1.307   2.124
 8486SOL    HW226358   1.945   1.436   2.132
 8487SOL     OW26359   5.453   1.873   5.952
 8487SOL    HW126360   5.480   1.928   6.031
 8487SOL    HW226361   5.520   1.884   5.879
 8488SOL     OW26362   5.794   5.546   2.472
 8488SOL    HW126363   5.724   5.493   2.519
 8488SOL    HW226364   5.859   5.582   2.539
 8489SOL     OW26365   5.538   1.184   1.506
 8489SOL    HW126366   5.588   1.118   1.562
 8489SOL    HW226367   5.450   1.204   1.550
 8490SOL     OW26368   2.726   6.886   6.437
 8490SOL    HW126369   2.807   6.926   6.396
 8490SOL    HW226370   2.748   6.795   6.472
 8491SOL     OW26371   2.059   5.723   2.811
 8491SOL    HW126372   1.984   5.779   2.847
 8491SOL    HW226373   2.053   5.721   2.711
 8492SOL     OW26374   6.227   3.688   4.490
 8492SOL    HW126375   6.228   3.765   4.426
 8492SOL    HW226376   6.289   3.707   4.566
 8493SOL     OW26377   2.985   1.351   0.456
 8493SOL    HW126378   2.894   1.312   0.470
 8493SOL    HW226379   3.052   1.297   0.507
 8494SOL     OW26380   5.664   4.955   1.913
 8494SOL    HW126381   5.626   4.969   1.822
 8494SOL    HW226382   5.706   4.864   1.918
 8495SOL     OW26383   5.915   5.399   0.691
 8495SOL    HW126384   5.843   5.339   0.655
 8495SOL    HW226385   5.952   5.359   0.775
 8496SOL     OW26386   5.633   1.150   1.997
 8496SOL    HW126387   5.588   1.236   2.023
 8496SOL    HW226388   5.699   1.125   2.068
 8497SOL     OW26389   0.233   0.347   3.532
 8497SOL    HW126390   0.284   0.265   3.508
 8497SOL    HW226391   0.212   0.347   3.630
 8498SOL     OW26392   4.971   6.866   3.699
 8498SOL    HW126393   4.955   6.895   3.794
 8498SOL    HW226394   5.067   6.880   3.676
 8499SOL     OW26395   0.308   5.659   0.601
 8499SOL    HW126396   0.245   5.630   0.674
 8499SOL    HW226397   0.316   5.759   0.603
 8500SOL     OW26398   1.677   0.748   5.784
 8500SOL    HW126399   1.621   0.809   5.729
 8500SOL    HW226400   1.772   0.751   5.752
 8501SOL     OW26401   0.420   2.155   6.973
 8501SOL    HW126402   0.503   2.211   6.976
 8501SOL    HW226403   0.347   2.201   0.001
 8502SOL     OW26404   0.374   3.232   6.731
 8502SOL    HW126405   0.429   3.176   6.792
 8502SOL    HW226406   0.322   3.299   6.784
 8503SOL     OW26407   6.379   6.242   4.626
 8503SOL    HW126408   6.316   6.209   4.696
 8503SOL    HW226409   6.382   6.177   4.550
 8504SOL     OW26410   2.397   5.287   2.568
 8504SOL    HW126411   2.478   5.232   2.583
 8504SOL    HW226412   2.418   5.363   2.506
 8505SOL     OW26413   5.452   3.578   2.894
 8505SOL    HW126414   5.461   3.497   2.836
 8505SOL    HW226415   5.359   3.583   2.930
 8506SOL     OW26416   1.696   0.938   6.760
 8506SOL    HW126417   1.735   1.019   6.715
 8506SOL    HW226418   1.702   0.949   6.859
 8507SOL     OW26419   4.391   0.148   5.155
 8507SOL    HW126420   4.341   0.098   5.225
 8507SOL    HW226421   4.345   0.235   5.137
 8508SOL     OW26422   4.129   2.095   6.461
 8508SOL    HW126423   4.078   2.086   6.546
 8508SOL    HW226424   4.227   2.096   6.480
 8509SOL     OW26425   5.524   0.084   3.126
 8509SOL    HW126426   5.581   0.161   3.154
 8509SOL    HW226427   5.577   0.023   3.066
 8510SOL     OW26428   5.174   2.608   4.260
 8510SOL    HW126429   5.155   2.557   4.344
 8510SOL    HW226430   5.188   2.544   4.184
 8511SOL     OW26431   5.680   3.140   2.454
 8511SOL    HW126432   5.750   3.130   2.382
 8511SOL    HW226433   5.639   3.231   2.448
 8512SOL     OW26434   2.149   0.275   3.513
 8512SOL    HW126435   2.082   0.252   3.443
 8512SOL    HW226436   2.216   0.338   3.475
 8513SOL     OW26437   5.928   6.215   6.956
 8513SOL    HW126438   5.967   6.300   6.992
 8513SOL    HW226439   5.886   6.164   0.008
 8514SOL     OW26440   3.376   6.699   3.435
 8514SOL    HW126441   3.439   6.634   3.478
 8514SOL    HW226442   3.424   6.785   3.418
 8515SOL     OW26443   5.634   2.550   0.853
 8515SOL    HW126444   5.643   2.495   0.770
 8515SOL    HW226445   5.718   2.602   0.868
 8516SOL     OW26446   6.658   2.148   2.296
 8516SOL    HW126447   6.580   2.155   2.234
 8516SOL    HW226448   6.626   2.128   2.389
 8517SOL     OW26449   1.086   2.685   6.408
 8517SOL    HW126450   1.015   2.705   6.476
 8517SOL    HW226451   1.126   2.595   6.427
 8518SOL     OW26452   3.267   5.639   0.330
 8518SOL    HW126453   3.325   5.568   0.368
 8518SOL    HW226454   3.183   5.597   0.293
 8519SOL     OW26455   1.533   5.782   2.402
 8519SOL    HW126456   1.509   5.763   2.307
 8519SOL    HW226457   1.460   5.835   2.445
 8520SOL     OW26458   3.973   1.167   0.158
 8520SOL    HW126459   3.978   1.068   0.141
 8520SOL    HW226460   4.054   1.195   0.211
 8521SOL     OW26461   0.329   6.515   5.990
 8521SOL    HW126462   0.312   6.597   6.044
 8521SOL    HW226463   0.302   6.434   6.042
 8522SOL     OW26464   0.972   6.446   4.033
 8522SOL    HW126465   1.067   6.415   4.046
 8522SOL    HW226466   0.933   6.403   3.952
 8523SOL     OW26467   2.642   6.744   6.116
 8523SOL    HW126468   2.722   6.704   6.161
 8523SOL    HW226469   2.572   6.764   6.185
 8524SOL     OW26470   1.277   3.672   5.401
 8524SOL    HW126471   1.326   3.759   5.398
 8524SOL    HW226472   1.180   3.688   5.419
 8525SOL     OW26473   5.853   3.237   3.174
 8525SOL    HW126474   5.836   3.310   3.107
 8525SOL    HW226475   5.799   3.157   3.150
 8526SOL     OW26476   2.538   3.006   1.621
 8526SOL    HW126477   2.440   3.017   1.636
 8526SOL    HW226478   2.581   3.097   1.614
 8527SOL     OW26479   4.582   0.517   4.294
 8527SOL    HW126480   4.560   0.542   4.389
 8527SOL    HW226481   4.609   0.421   4.291
 8528SOL     OW26482   4.730   3.303   6.025
 8528SOL    HW126483   4.658   3.319   6.093
 8528SOL    HW226484   4.794   3.380   6.025
 8529SOL     OW26485   1.514   4.868   6.934
 8529SOL    HW126486   1.457   4.946   6.907
 8529SOL    HW226487   1.541   4.817   6.852
 8530SOL     OW26488   1.322   4.210   5.482
 8530SOL    HW126489   1.270   4.145   5.537
 8530SOL    HW226490   1.351   4.287   5.539
 8531SOL     OW26491   5.155   4.780   2.728
 8531SOL    HW126492   5.074   4.839   2.720
 8531SOL    HW226493   5.145   4.701   2.667
 8532SOL     OW26494   3.605   5.079   5.439
 8532SOL    HW126495   3.527   5.063   5.500
 8532SOL    HW226496   3.595   5.022   5.357
 8533SOL     OW26497   3.073   1.182   4.439
 8533SOL    HW126498   3.082   1.149   4.533
 8533SOL    HW226499   2.978   1.172   4.409
 8534SOL     OW26500   1.442   3.312   2.950
 8534SOL    HW126501   1.526   3.366   2.956
 8534SOL    HW226502   1.419   3.277   3.041
 8535SOL     OW26503   0.613   2.013   4.280
 8535SOL    HW126504   0.648   1.919   4.269
 8535SOL    HW226505   0.550   2.033   4.205
 8536SOL     OW26506   6.509   1.809   5.588
 8536SOL    HW126507   6.468   1.856   5.666
 8536SOL    HW226508   6.589   1.859   5.557
 8537SOL     OW26509   5.613   0.730   1.363
 8537SOL    HW126510   5.686   0.778   1.411
 8537SOL    HW226511   5.554   0.796   1.317
 8538SOL     OW26512   0.062   0.527   4.565
 8538SOL    HW126513   0.008   0.575   4.496
 8538SOL    HW226514   0.037   0.430   4.564
 8539SOL     OW26515   0.469   2.493   1.982
 8539SOL    HW126516   0.409   2.547   1.923
 8539SOL    HW226517   0.514   2.422   1.928
 8540SOL     OW26518   3.069   0.582   0.742
 8540SOL    HW126519   3.102   0.518   0.812
 8540SOL    HW226520   2.989   0.544   0.697
 8541SOL     OW26521   3.083   1.461   4.479
 8541SOL    HW126522   3.022   1.492   4.406
 8541SOL    HW226523   3.087   1.361   4.479
 8542SOL     OW26524   1.724   4.181   6.721
 8542SOL    HW126525   1.650   4.133   6.768
 8542SOL    HW226526   1.773   4.239   6.787
 8543SOL     OW26527   2.287   2.374   5.194
 8543SOL    HW126528   2.251   2.412   5.109
 8543SOL    HW226529   2.385   2.393   5.200
 8544SOL     OW26530   5.139   3.968   5.422
 8544SOL    HW126531   5.234   3.967   5.451
 8544SOL    HW226532   5.079   3.974   5.502
 8545SOL     OW26533   3.473   6.791   6.006
 8545SOL    HW126534   3.402   6.804   6.075
 8545SOL    HW226535   3.560   6.828   6.040
 8546SOL     OW26536   5.311   0.988   1.733
 8546SOL    HW126537   5.365   0.944   1.805
 8546SOL    HW226538   5.323   0.938   1.647
 8547SOL     OW26539   6.450   6.537   5.867
 8547SOL    HW126540   6.471   6.446   5.831
 8547SOL    HW226541   6.351   6.546   5.880
 8548SOL     OW26542   0.982   3.302   5.952
 8548SOL    HW126543   1.062   3.339   5.998
 8548SOL    HW226544   0.960   3.212   5.989
 8549SOL     OW26545   2.035   0.751   3.008
 8549SOL    HW126546   1.981   0.818   3.059
 8549SOL    HW226547   1.990   0.662   3.011
 8550SOL     OW26548   1.027   4.534   6.973
 8550SOL    HW126549   0.939   4.488   6.988
 8550SOL    HW226550   1.101   4.475   7.006
 8551SOL     OW26551   2.184   2.008   6.367
 8551SOL    HW126552   2.203   1.913   6.341
 8551SOL    HW226553   2.210   2.022   6.462
 8552SOL     OW26554   2.596   1.390   2.827
 8552SOL    HW126555   2.692   1.415   2.811
 8552SOL    HW226556   2.566   1.426   2.915
 8553SOL     OW26557   4.784   2.931   1.048
 8553SOL    HW126558   4.825   2.972   0.967
 8553SOL    HW226559   4.856   2.903   1.112
 8554SOL     OW26560   0.934   6.317   0.628
 8554SOL    HW126561   1.000   6.352   0.693
 8554SOL    HW226562   0.937   6.372   0.544
 8555SOL     OW26563   4.630   1.394   3.624
 8555SOL    HW126564   4.614   1.363   3.718
 8555SOL    HW226565   4.575   1.476   3.607
 8556SOL     OW26566   1.996   6.323   0.109
 8556SOL    HW126567   1.900   6.335   0.135
 8556SOL    HW226568   2.045   6.409   0.124
 8557SOL     OW26569   7.016   0.893   6.918
 8557SOL    HW126570   0.049   0.940   6.987
 8557SOL    HW226571   6.979   0.960   6.854
 8558SOL     OW26572   3.016   4.836   3.220
 8558SOL    HW126573   3.083   4.852   3.292
 8558SOL    HW226574   2.935   4.793   3.259
 8559SOL     OW26575   0.965   5.008   2.745
 8559SOL    HW126576   0.972   4.936   2.675
 8559SOL    HW226577   0.928   4.969   2.829
 8560SOL     OW26578   2.262   4.606   1.577
 8560SOL    HW126579   2.265   4.512   1.542
 8560SOL    HW226580   2.331   4.661   1.531
 8561SOL     OW26581   3.845   0.127   2.296
 8561SOL    HW126582   3.790   0.192   2.244
 8561SOL    HW226583   3.924   0.175   2.336
 8562SOL     OW26584   4.074   1.296   6.700
 8562SOL    HW126585   4.027   1.308   6.787
 8562SOL    HW226586   4.006   1.292   6.626
 8563SOL     OW26587   1.546   5.424   3.555
 8563SOL    HW126588   1.466   5.364   3.551
 8563SOL    HW226589   1.568   5.457   3.463
 8564SOL     OW26590   3.946   0.091   6.848
 8564SOL    HW126591   3.905   0.182   6.855
 8564SOL    HW226592   3.944   0.061   6.752
 8565SOL     OW26593   3.030   5.457   1.265
 8565SOL    HW126594   3.052   5.360   1.257
 8565SOL    HW226595   3.073   5.507   1.190
 8566SOL     OW26596   3.312   1.297   3.386
 8566SOL    HW126597   3.375   1.352   3.441
 8566SOL    HW226598   3.223   1.295   3.430
 8567SOL     OW26599   1.648   1.893   1.505
 8567SOL    HW126600   1.635   1.888   1.406
 8567SOL    HW226601   1.687   1.807   1.538
 8568SOL     OW26602   0.023   1.593   6.888
 8568SOL    HW126603   0.004   1.634   6.799
 8568SOL    HW226604   0.094   1.645   6.935
 8569SOL     OW26605   5.378   2.506   6.212
 8569SOL    HW126606   5.441   2.582   6.192
 8569SOL    HW226607   5.288   2.527   6.175
 8570SOL     OW26608   1.126   2.486   4.230
 8570SOL    HW126609   1.098   2.429   4.307
 8570SOL    HW226610   1.073   2.570   4.229
 8571SOL     OW26611   2.070   0.927   3.900
 8571SOL    HW126612   2.102   1.010   3.945
 8571SOL    HW226613   1.982   0.898   3.940
 8572SOL     OW26614   3.290   4.139   5.807
 8572SOL    HW126615   3.240   4.197   5.871
 8572SOL    HW226616   3.236   4.127   5.724
 8573SOL     OW26617   3.653   6.011   0.957
 8573SOL    HW126618   3.605   6.051   0.879
 8573SOL    HW226619   3.747   6.047   0.960
 8574SOL     OW26620   6.767   6.566   5.676
 8574SOL    HW126621   6.724   6.532   5.593
 8574SOL    HW226622   6.821   6.494   5.719
 8575SOL     OW26623   3.034   6.363   2.693
 8575SOL    HW126624   2.978   6.331   2.769
 8575SOL    HW226625   3.107   6.422   2.728
 8576SOL     OW26626   0.682   3.620   3.817
 8576SOL    HW126627   0.673   3.719   3.810
 8576SOL    HW226628   0.777   3.593   3.801
 8577SOL     OW26629   1.706   1.291   6.373
 8577SOL    HW126630   1.776   1.357   6.344
 8577SOL    HW226631   1.636   1.338   6.427
 8578SOL     OW26632   6.242   6.956   5.170
 8578SOL    HW126633   6.180   6.977   5.094
 8578SOL    HW226634   6.188   6.934   5.252
 8579SOL     OW26635   2.589   6.219   2.692
 8579SOL    HW126636   2.656   6.145   2.686
 8579SOL    HW226637   2.553   6.240   2.601
 8580SOL     OW26638   1.396   6.469   1.241
 8580SOL    HW126639   1.370   6.459   1.337
 8580SOL    HW226640   1.495   6.465   1.233
 8581SOL     OW26641   3.665   4.974   1.285
 8581SOL    HW126642   3.674   4.964   1.186
 8581SOL    HW226643   3.592   5.040   1.305
 8582SOL     OW26644   4.231   4.826   5.477
 8582SOL    HW126645   4.225   4.789   5.570
 8582SOL    HW226646   4.242   4.751   5.412
 8583SOL     OW26647   4.039   0.647   2.636
 8583SOL    HW126648   4.136   0.662   2.654
 8583SOL    HW226649   4.019   0.668   2.541
 8584SOL     OW26650   6.732   0.908   4.529
 8584SOL    HW126651   6.739   0.996   4.481
 8584SOL    HW226652   6.724   0.925   4.627
 8585SOL     OW26653   5.911   2.026   1.169
 8585SOL    HW126654   5.886   1.930   1.186
 8585SOL    HW226655   5.830   2.084   1.179
 8586SOL     OW26656   5.555   6.250   1.239
 8586SOL    HW126657   5.523   6.329   1.186
 8586SOL    HW226658   5.644   6.272   1.280
 8587SOL     OW26659   1.349   1.266   5.651
 8587SOL    HW126660   1.336   1.363   5.628
 8587SOL    HW226661   1.261   1.221   5.658
 8588SOL     OW26662   3.118   1.782   0.062
 8588SOL    HW126663   3.198   1.832   0.095
 8588SOL    HW226664   3.037   1.840   0.070
 8589SOL     OW26665   0.667   3.079   5.878
 8589SOL    HW126666   0.750   3.026   5.896
 8589SOL    HW226667   0.637   3.124   5.962
 8590SOL     OW26668   0.203   1.878   2.889
 8590SOL    HW126669   0.199   1.947   2.962
 8590SOL    HW226670   0.234   1.922   2.804
 8591SOL     OW26671   6.674   5.210   0.371
 8591SOL    HW126672   6.770   5.216   0.345
 8591SOL    HW226673   6.667   5.189   0.469
 8592SOL     OW26674   0.932   2.721   6.611
 8592SOL    HW126675   0.952   2.643   6.670
 8592SOL    HW226676   0.961   2.806   6.655
 8593SOL     OW26677   2.844   0.550   6.735
 8593SOL    HW126678   2.767   0.601   6.695
 8593SOL    HW226679   2.815   0.457   6.755
 8594SOL     OW26680   6.156   2.793   6.125
 8594SOL    HW126681   6.108   2.838   6.200
 8594SOL    HW226682   6.104   2.713   6.095
 8595SOL     OW26683   4.763   6.582   2.294
 8595SOL    HW126684   4.811   6.590   2.207
 8595SOL    HW226685   4.788   6.495   2.337
 8596SOL     OW26686   1.080   3.317   3.392
 8596SOL    HW126687   1.020   3.286   3.465
 8596SOL    HW226688   1.057   3.270   3.307
 8597SOL     OW26689   6.241   3.435   1.358
 8597SOL    HW126690   6.148   3.461   1.382
 8597SOL    HW226691   6.250   3.431   1.258
 8598SOL     OW26692   5.672   0.353   4.720
 8598SOL    HW126693   5.763   0.340   4.680
 8598SOL    HW226694   5.613   0.277   4.694
 8599SOL     OW26695   1.602   2.648   3.361
 8599SOL    HW126696   1.599   2.580   3.434
 8599SOL    HW226697   1.589   2.739   3.401
 8600SOL     OW26698   4.371   3.244   1.015
 8600SOL    HW126699   4.279   3.210   1.033
 8600SOL    HW226700   4.411   3.192   0.940
 8601SOL     OW26701   0.763   0.579   3.500
 8601SOL    HW126702   0.733   0.648   3.566
 8601SOL    HW226703   0.683   0.537   3.457
 8602SOL     OW26704   2.643   6.925   4.300
 8602SOL    HW126705   2.639   6.831   4.335
 8602SOL    HW226706   2.617   6.926   4.204
 8603SOL     OW26707   6.985   0.408   7.010
 8603SOL    HW126708   6.992   0.508   7.010
 8603SOL    HW226709   6.966   0.376   0.080
 8604SOL     OW26710   1.537   4.317   5.805
 8604SOL    HW126711   1.527   4.345   5.710
 8604SOL    HW226712   1.448   4.295   5.843
 8605SOL     OW26713   6.875   4.913   4.719
 8605SOL    HW126714   6.816   4.901   4.799
 8605SOL    HW226715   6.951   4.974   4.742
 8606SOL     OW26716   1.977   2.390   6.508
 8606SOL    HW126717   1.907   2.351   6.567
 8606SOL    HW226718   2.033   2.317   6.468
 8607SOL     OW26719   2.037   4.846   1.609
 8607SOL    HW126720   2.021   4.777   1.538
 8607SOL    HW226721   2.133   4.841   1.639
 8608SOL     OW26722   2.608   4.728   3.316
 8608SOL    HW126723   2.633   4.704   3.223
 8608SOL    HW226724   2.545   4.805   3.316
 8609SOL     OW26725   5.071   1.497   3.312
 8609SOL    HW126726   5.129   1.478   3.391
 8609SOL    HW226727   5.112   1.458   3.230
 8610SOL     OW26728   0.065   6.493   3.128
 8610SOL    HW126729   0.104   6.582   3.153
 8610SOL    HW226730   0.045   6.441   3.211
 8611SOL     OW26731   2.764   1.486   3.742
 8611SOL    HW126732   2.820   1.568   3.727
 8611SOL    HW226733   2.759   1.434   3.657
 8612SOL     OW26734   4.096   3.246   3.245
 8612SOL    HW126735   4.123   3.168   3.303
 8612SOL    HW226736   4.003   3.272   3.267
 8613SOL     OW26737   2.938   2.513   1.491
 8613SOL    HW126738   2.999   2.448   1.446
 8613SOL    HW226739   2.859   2.463   1.529
 8614SOL     OW26740   1.012   1.995   1.109
 8614SOL    HW126741   1.092   2.037   1.068
 8614SOL    HW226742   1.025   1.896   1.114
 8615SOL     OW26743   4.483   1.904   3.696
 8615SOL    HW126744   4.471   1.962   3.776
 8615SOL    HW226745   4.555   1.943   3.637
 8616SOL     OW26746   4.428   4.872   2.364
 8616SOL    HW126747   4.365   4.830   2.429
 8616SOL    HW226748   4.515   4.891   2.409
 8617SOL     OW26749   4.963   0.228   4.106
 8617SOL    HW126750   5.062   0.218   4.098
 8617SOL    HW226751   4.932   0.302   4.047
 8618SOL     OW26752   5.653   4.084   1.443
 8618SOL    HW126753   5.679   4.077   1.347
 8618SOL    HW226754   5.602   4.002   1.470
 8619SOL     OW26755   5.349   4.726   2.308
 8619SOL    HW126756   5.428   4.667   2.325
 8619SOL    HW226757   5.277   4.705   2.375
 8620SOL     OW26758   2.248   1.000   4.629
 8620SOL    HW126759   2.233   0.915   4.679
 8620SOL    HW226760   2.265   1.075   4.694
 8621SOL     OW26761   4.993   2.536   1.955
 8621SOL    HW126762   4.988   2.436   1.952
 8621SOL    HW226763   4.900   2.574   1.954
 8622SOL     OW26764   6.585   5.302   2.511
 8622SOL    HW126765   6.613   5.250   2.592
 8622SOL    HW226766   6.655   5.368   2.487
 8623SOL     OW26767   6.921   3.116   5.292
 8623SOL    HW126768   6.982   3.058   5.346
 8623SOL    HW226769   6.923   3.086   5.197
 8624SOL     OW26770   3.444   3.478   6.409
 8624SOL    HW126771   3.434   3.545   6.483
 8624SOL    HW226772   3.474   3.390   6.448
 8625SOL     OW26773   3.393   1.686   5.459
 8625SOL    HW126774   3.410   1.784   5.452
 8625SOL    HW226775   3.349   1.653   5.375
 8626SOL     OW26776   4.371   3.328   0.325
 8626SOL    HW126777   4.336   3.392   0.256
 8626SOL    HW226778   4.428   3.378   0.390
 8627SOL     OW26779   1.624   1.069   2.477
 8627SOL    HW126780   1.550   1.030   2.423
 8627SOL    HW226781   1.710   1.065   2.425
 8628SOL     OW26782   0.409   6.345   0.313
 8628SOL    HW126783   0.441   6.376   0.224
 8628SOL    HW226784   0.478   6.287   0.356
 8629SOL     OW26785   0.505   6.892   4.226
 8629SOL    HW126786   0.435   6.956   4.260
 8629SOL    HW226787   0.557   6.855   4.303
 8630SOL     OW26788   4.920   3.239   3.499
 8630SOL    HW126789   4.839   3.288   3.466
 8630SOL    HW226790   4.892   3.152   3.539
 8631SOL     OW26791   2.393   6.395   6.850
 8631SOL    HW126792   2.348   6.375   6.937
 8631SOL    HW226793   2.458   6.323   6.828
 8632SOL     OW26794   4.521   4.739   5.114
 8632SOL    HW126795   4.465   4.664   5.078
 8632SOL    HW226796   4.464   4.820   5.128
 8633SOL     OW26797   5.491   4.224   5.872
 8633SOL    HW126798   5.440   4.299   5.830
 8633SOL    HW226799   5.459   4.210   5.966
 8634SOL     OW26800   5.570   5.124   1.177
 8634SOL    HW126801   5.617   5.116   1.089
 8634SOL    HW226802   5.634   5.160   1.246
 8635SOL     OW26803   6.222   3.034   6.916
 8635SOL    HW126804   6.151   2.969   6.888
 8635SOL    HW226805   6.312   2.998   6.893
 8636SOL     OW26806   4.153   5.959   0.890
 8636SOL    HW126807   4.165   5.955   0.790
 8636SOL    HW226808   4.174   6.052   0.921
 8637SOL     OW26809   2.093   1.590   6.424
 8637SOL    HW126810   2.025   1.657   6.454
 8637SOL    HW226811   2.149   1.629   6.351
 8638SOL     OW26812   4.294   2.995   5.366
 8638SOL    HW126813   4.351   2.918   5.337
 8638SOL    HW226814   4.352   3.066   5.407
 8639SOL     OW26815   4.327   3.190   6.643
 8639SOL    HW126816   4.368   3.109   6.599
 8639SOL    HW226817   4.394   3.264   6.644
 8640SOL     OW26818   3.081   3.381   1.275
 8640SOL    HW126819   3.144   3.336   1.212
 8640SOL    HW226820   3.021   3.313   1.317
 8641SOL     OW26821   4.412   5.442   2.715
 8641SOL    HW126822   4.482   5.471   2.780
 8641SOL    HW226823   4.401   5.512   2.645
 8642SOL     OW26824   0.949   6.525   4.476
 8642SOL    HW126825   0.987   6.434   4.492
 8642SOL    HW226826   0.961   6.581   4.558
 8643SOL     OW26827   3.525   6.774   0.882
 8643SOL    HW126828   3.528   6.814   0.974
 8643SOL    HW226829   3.604   6.714   0.869
 8644SOL     OW26830   6.185   2.228   6.546
 8644SOL    HW126831   6.236   2.150   6.582
 8644SOL    HW226832   6.247   2.289   6.497
 8645SOL     OW26833   6.155   4.051   1.881
 8645SOL    HW126834   6.108   3.962   1.886
 8645SOL    HW226835   6.118   4.111   1.952
 8646SOL     OW26836   0.411   2.122   5.597
 8646SOL    HW126837   0.508   2.123   5.572
 8646SOL    HW226838   0.368   2.207   5.567
 8647SOL     OW26839   2.403   4.887   1.593
 8647SOL    HW126840   2.412   4.964   1.530
 8647SOL    HW226841   2.352   4.917   1.674
 8648SOL     OW26842   5.916   6.079   1.386
 8648SOL    HW126843   5.870   6.161   1.352
 8648SOL    HW226844   5.954   6.027   1.310
 8649SOL     OW26845   4.595   0.035   0.678
 8649SOL    HW126846   4.670   7.008   0.721
 8649SOL    HW226847   4.577   0.118   0.731
 8650SOL     OW26848   2.310   0.179   4.528
 8650SOL    HW126849   2.214   0.171   4.502
 8650SOL    HW226850   2.322   0.152   4.623
 8651SOL     OW26851   2.339   1.500   0.612
 8651SOL    HW126852   2.355   1.576   0.549
 8651SOL    HW226853   2.306   1.536   0.699
 8652SOL     OW26854   1.402   4.359   4.195
 8652SOL    HW126855   1.343   4.280   4.212
 8652SOL    HW226856   1.460   4.375   4.276
 8653SOL     OW26857   6.867   1.779   5.909
 8653SOL    HW126858   6.816   1.712   5.964
 8653SOL    HW226859   6.859   1.869   5.950
 8654SOL     OW26860   0.959   4.559   2.496
 8654SOL    HW126861   0.960   4.467   2.457
 8654SOL    HW226862   0.938   4.554   2.593
 8655SOL     OW26863   6.926   1.308   5.485
 8655SOL    HW126864   6.939   1.292   5.387
 8655SOL    HW226865   6.916   1.406   5.501
 8656SOL     OW26866   5.007   6.992   1.650
 8656SOL    HW126867   4.992   0.012   1.739
 8656SOL    HW226868   5.025   0.040   1.582
 8657SOL     OW26869   5.405   0.275   2.404
 8657SOL    HW126870   5.433   0.353   2.461
 8657SOL    HW226871   5.475   0.204   2.407
 8658SOL     OW26872   6.244   5.037   1.454
 8658SOL    HW126873   6.167   5.031   1.517
 8658SOL    HW226874   6.225   4.981   1.373
 8659SOL     OW26875   4.968   1.411   2.243
 8659SOL    HW126876   5.048   1.469   2.253
 8659SOL    HW226877   4.892   1.465   2.206
 8660SOL     OW26878   0.725   2.575   1.369
 8660SOL    HW126879   0.734   2.658   1.314
 8660SOL    HW226880   0.746   2.495   1.313
 8661SOL     OW26881   6.091   2.993   2.950
 8661SOL    HW126882   6.131   2.989   3.042
 8661SOL    HW226883   5.993   2.973   2.956
 8662SOL     OW26884   3.341   5.549   2.665
 8662SOL    HW126885   3.364   5.561   2.569
 8662SOL    HW226886   3.346   5.451   2.688
 8663SOL     OW26887   3.385   5.401   3.361
 8663SOL    HW126888   3.441   5.434   3.285
 8663SOL    HW226889   3.436   5.332   3.413
 8664SOL     OW26890   2.439   6.053   3.542
 8664SOL    HW126891   2.455   5.991   3.619
 8664SOL    HW226892   2.361   6.112   3.562
 8665SOL     OW26893   6.175   4.619   5.918
 8665SOL    HW126894   6.169   4.536   5.862
 8665SOL    HW226895   6.235   4.685   5.874
 8666SOL     OW26896   5.606   0.592   3.346
 8666SOL    HW126897   5.514   0.553   3.351
 8666SOL    HW226898   5.650   0.585   3.435
 8667SOL     OW26899   5.035   1.507   4.049
 8667SOL    HW126900   4.972   1.471   3.980
 8667SOL    HW226901   4.987   1.519   4.136
 8668SOL     OW26902   5.509   2.813   5.169
 8668SOL    HW126903   5.452   2.782   5.093
 8668SOL    HW226904   5.501   2.749   5.245
 8669SOL     OW26905   5.908   6.415   5.976
 8669SOL    HW126906   5.871   6.470   6.051
 8669SOL    HW226907   5.944   6.329   6.012
 8670SOL     OW26908   6.033   4.898   5.846
 8670SOL    HW126909   6.082   4.944   5.920
 8670SOL    HW226910   5.961   4.841   5.884
 8671SOL     OW26911   0.198   2.354   2.716
 8671SOL    HW126912   0.232   2.430   2.661
 8671SOL    HW226913   0.169   2.387   2.805
 8672SOL     OW26914   0.100   0.440   3.279
 8672SOL    HW126915   0.149   0.401   3.357
 8672SOL    HW226916   0.044   0.370   3.236
 8673SOL     OW26917   0.543   1.555   0.070
 8673SOL    HW126918   0.614   1.594   0.127
 8673SOL    HW226919   0.464   1.617   0.067
 8674SOL     OW26920   0.627   4.340   3.170
 8674SOL    HW126921   0.690   4.263   3.183
 8674SOL    HW226922   0.630   4.398   3.252
 8675SOL     OW26923   3.457   1.797   6.056
 8675SOL    HW126924   3.556   1.811   6.046
 8675SOL    HW226925   3.435   1.704   6.027
 8676SOL     OW26926   5.638   1.284   1.063
 8676SOL    HW126927   5.710   1.230   1.020
 8676SOL    HW226928   5.638   1.376   1.023
 8677SOL     OW26929   1.351   6.701   5.525
 8677SOL    HW126930   1.271   6.752   5.494
 8677SOL    HW226931   1.322   6.621   5.578
 8678SOL     OW26932   1.199   0.523   0.568
 8678SOL    HW126933   1.208   0.444   0.508
 8678SOL    HW226934   1.112   0.569   0.549
 8679SOL     OW26935   2.528   0.902   3.986
 8679SOL    HW126936   2.479   0.954   4.056
 8679SOL    HW226937   2.556   0.814   4.024
 8680SOL     OW26938   6.399   2.765   6.284
 8680SOL    HW126939   6.319   2.775   6.226
 8680SOL    HW226940   6.458   2.845   6.274
 8681SOL     OW26941   5.283   6.034   0.963
 8681SOL    HW126942   5.324   6.038   1.055
 8681SOL    HW226943   5.190   6.072   0.967
 8682SOL     OW26944   0.111   0.287   1.255
 8682SOL    HW126945   0.028   0.343   1.255
 8682SOL    HW226946   0.142   0.272   1.348
 8683SOL     OW26947   1.802   3.666   4.888
 8683SOL    HW126948   1.745   3.605   4.834
 8683SOL    HW226949   1.832   3.619   4.971
 8684SOL     OW26950   0.897   4.337   4.817
 8684SOL    HW126951   0.862   4.413   4.762
 8684SOL    HW226952   0.977   4.297   4.771
 8685SOL     OW26953   4.848   2.349   6.052
 8685SOL    HW126954   4.889   2.305   5.972
 8685SOL    HW226955   4.921   2.385   6.111
 8686SOL     OW26956   6.485   6.478   2.266
 8686SOL    HW126957   6.466   6.533   2.347
 8686SOL    HW226958   6.561   6.417   2.285
 8687SOL     OW26959   6.239   3.058   3.394
 8687SOL    HW126960   6.179   3.007   3.332
 8687SOL    HW226961   6.288   2.994   3.454
 8688SOL     OW26962   1.493   4.168   6.130
 8688SOL    HW126963   1.537   4.079   6.132
 8688SOL    HW226964   1.546   4.233   6.184
 8689SOL     OW26965   4.221   3.063   0.530
 8689SOL    HW126966   4.195   3.132   0.462
 8689SOL    HW226967   4.209   3.101   0.621
 8690SOL     OW26968   1.249   1.826   3.241
 8690SOL    HW126969   1.289   1.913   3.211
 8690SOL    HW226970   1.279   1.806   3.334
 8691SOL     OW26971   2.844   2.200   4.753
 8691SOL    HW126972   2.846   2.114   4.702
 8691SOL    HW226973   2.756   2.245   4.738
 8692SOL     OW26974   4.433   2.320   5.714
 8692SOL    HW126975   4.354   2.282   5.762
 8692SOL    HW226976   4.468   2.398   5.765
 8693SOL     OW26977   6.540   0.767   6.448
 8693SOL    HW126978   6.573   0.677   6.418
 8693SOL    HW226979   6.459   0.755   6.506
 8694SOL     OW26980   5.936   3.048   4.069
 8694SOL    HW126981   5.879   3.048   3.987
 8694SOL    HW226982   5.881   3.071   4.148
 8695SOL     OW26983   4.282   3.663   6.884
 8695SOL    HW126984   4.229   3.606   6.821
 8695SOL    HW226985   4.322   3.606   6.956
 8696SOL     OW26986   2.860   5.754   5.807
 8696SOL    HW126987   2.871   5.850   5.832
 8696SOL    HW226988   2.768   5.738   5.771
 8697SOL     OW26989   1.782   4.157   5.534
 8697SOL    HW126990   1.764   4.156   5.436
 8697SOL    HW226991   1.873   4.122   5.552
 8698SOL     OW26992   5.277   6.205   5.298
 8698SOL    HW126993   5.242   6.133   5.358
 8698SOL    HW226994   5.200   6.249   5.250
 8699SOL     OW26995   2.492   2.732   6.911
 8699SOL    HW126996   2.436   2.657   6.947
 8699SOL    HW226997   2.540   2.702   6.829
 8700SOL     OW26998   0.408   0.440   5.284
 8700SOL    HW126999   0.493   0.450   5.335
 8700SOL    HW227000   0.345   0.514   5.308
 8701SOL     OW27001   0.877   2.121   6.409
 8701SOL    HW127002   0.830   2.205   6.384
 8701SOL    HW227003   0.874   2.057   6.332
 8702SOL     OW27004   5.137   4.642   1.660
 8702SOL    HW127005   5.099   4.709   1.596
 8702SOL    HW227006   5.202   4.687   1.720
 8703SOL     OW27007   2.257   4.313   0.799
 8703SOL    HW127008   2.354   4.298   0.817
 8703SOL    HW227009   2.213   4.350   0.881
 8704SOL     OW27010   0.837   2.213   3.910
 8704SOL    HW127011   0.890   2.137   3.873
 8704SOL    HW227012   0.889   2.298   3.899
 8705SOL     OW27013   4.527   2.731   6.853
 8705SOL    HW127014   4.430   2.707   6.864
 8705SOL    HW227015   4.583   2.654   6.880
 8706SOL     OW27016   5.084   3.499   6.631
 8706SOL    HW127017   5.059   3.532   6.722
 8706SOL    HW227018   5.184   3.492   6.624
 8707SOL     OW27019   1.438   1.696   4.531
 8707SOL    HW127020   1.413   1.683   4.435
 8707SOL    HW227021   1.396   1.780   4.565
 8708SOL     OW27022   5.817   2.190   2.831
 8708SOL    HW127023   5.777   2.103   2.860
 8708SOL    HW227024   5.779   2.215   2.742
 8709SOL     OW27025   6.279   0.469   5.971
 8709SOL    HW127026   6.350   0.528   6.011
 8709SOL    HW227027   6.218   0.437   6.043
 8710SOL     OW27028   2.269   0.760   2.860
 8710SOL    HW127029   2.189   0.762   2.921
 8710SOL    HW227030   2.311   0.850   2.858
 8711SOL     OW27031   1.435   0.686   1.698
 8711SOL    HW127032   1.447   0.653   1.604
 8711SOL    HW227033   1.343   0.662   1.730
 8712SOL     OW27034   2.238   2.630   5.372
 8712SOL    HW127035   2.258   2.601   5.278
 8712SOL    HW227036   2.256   2.727   5.382
 8713SOL     OW27037   1.028   4.384   2.126
 8713SOL    HW127038   1.101   4.419   2.068
 8713SOL    HW227039   1.059   4.380   2.221
 8714SOL     OW27040   0.065   6.062   6.876
 8714SOL    HW127041   0.058   6.154   6.836
 8714SOL    HW227042   0.019   6.061   6.965
 8715SOL     OW27043   2.675   1.939   0.340
 8715SOL    HW127044   2.754   1.944   0.401
 8715SOL    HW227045   2.605   2.003   0.370
 8716SOL     OW27046   6.761   6.658   1.353
 8716SOL    HW127047   6.844   6.603   1.345
 8716SOL    HW227048   6.687   6.614   1.302
 8717SOL     OW27049   2.266   4.444   6.914
 8717SOL    HW127050   2.259   4.398   7.002
 8717SOL    HW227051   2.213   4.394   6.846
 8718SOL     OW27052   2.000   3.854   6.344
 8718SOL    HW127053   2.088   3.814   6.368
 8718SOL    HW227054   1.927   3.789   6.364
 8719SOL     OW27055   3.641   0.856   6.117
 8719SOL    HW127056   3.667   0.945   6.081
 8719SOL    HW227057   3.579   0.868   6.195
 8720SOL     OW27058   6.386   4.114   5.234
 8720SOL    HW127059   6.438   4.125   5.319
 8720SOL    HW227060   6.448   4.116   5.156
 8721SOL     OW27061   6.945   6.624   6.647
 8721SOL    HW127062   6.885   6.544   6.653
 8721SOL    HW227063   0.016   6.593   6.633
 8722SOL     OW27064   4.058   0.651   1.036
 8722SOL    HW127065   4.027   0.661   1.130
 8722SOL    HW227066   4.158   0.656   1.033
 8723SOL     OW27067   5.050   0.160   2.071
 8723SOL    HW127068   5.004   0.098   2.135
 8723SOL    HW227069   5.086   0.239   2.121
 8724SOL     OW27070   4.193   0.021   4.480
 8724SOL    HW127071   4.261   0.089   4.509
 8724SOL    HW227072   4.117   0.068   4.435
 8725SOL     OW27073   0.299   6.492   4.523
 8725SOL    HW127074   0.224   6.508   4.588
 8725SOL    HW227075   0.281   6.543   4.439
 8726SOL     OW27076   0.770   0.799   0.382
 8726SOL    HW127077   0.686   0.749   0.403
 8726SOL    HW227078   0.756   0.897   0.397
 8727SOL     OW27079   5.785   5.904   6.481
 8727SOL    HW127080   5.883   5.901   6.504
 8727SOL    HW227081   5.764   5.827   6.420
 8728SOL     OW27082   5.648   0.553   3.074
 8728SOL    HW127083   5.601   0.634   3.038
 8728SOL    HW227084   5.648   0.557   3.174
 8729SOL     OW27085   3.632   5.489   6.289
 8729SOL    HW127086   3.597   5.580   6.310
 8729SOL    HW227087   3.677   5.491   6.199
 8730SOL     OW27088   5.663   5.023   2.675
 8730SOL    HW127089   5.730   4.978   2.733
 8730SOL    HW227090   5.605   5.082   2.731
 8731SOL     OW27091   0.466   2.203   3.472
 8731SOL    HW127092   0.426   2.275   3.415
 8731SOL    HW227093   0.430   2.115   3.443
 8732SOL     OW27094   4.994   5.742   0.828
 8732SOL    HW127095   5.054   5.822   0.831
 8732SOL    HW227096   4.924   5.751   0.900
 8733SOL     OW27097   0.838   4.628   1.783
 8733SOL    HW127098   0.834   4.598   1.688
 8733SOL    HW227099   0.769   4.699   1.798
 8734SOL     OW27100   7.004   3.605   2.063
 8734SOL    HW127101   7.005   3.508   2.036
 8734SOL    HW227102   0.024   3.659   1.991
 8735SOL     OW27103   1.987   4.167   5.306
 8735SOL    HW127104   2.059   4.133   5.366
 8735SOL    HW227105   2.011   4.259   5.274
 8736SOL     OW27106   0.383   5.366   2.638
 8736SOL    HW127107   0.363   5.463   2.626
 8736SOL    HW227108   0.468   5.356   2.690
 8737SOL     OW27109   1.407   5.557   6.359
 8737SOL    HW127110   1.346   5.627   6.397
 8737SOL    HW227111   1.353   5.490   6.308
 8738SOL     OW27112   1.084   4.047   3.731
 8738SOL    HW127113   1.020   4.094   3.671
 8738SOL    HW227114   1.177   4.078   3.712
 8739SOL     OW27115   5.394   4.362   5.172
 8739SOL    HW127116   5.397   4.262   5.182
 8739SOL    HW227117   5.404   4.386   5.076
 8740SOL     OW27118   3.681   1.596   3.705
 8740SOL    HW127119   3.676   1.695   3.716
 8740SOL    HW227120   3.652   1.551   3.789
 8741SOL     OW27121   1.514   0.009   2.623
 8741SOL    HW127122   1.469   0.097   2.639
 8741SOL    HW227123   1.613   0.019   2.634
 8742SOL     OW27124   3.453   1.487   2.540
 8742SOL    HW127125   3.461   1.387   2.546
 8742SOL    HW227126   3.436   1.525   2.631
 8743SOL     OW27127   1.853   0.556   1.784
 8743SOL    HW127128   1.903   0.476   1.753
 8743SOL    HW227129   1.801   0.533   1.866
 8744SOL     OW27130   3.808   3.853   0.153
 8744SOL    HW127131   3.806   3.757   0.181
 8744SOL    HW227132   3.809   3.858   0.053
 8745SOL     OW27133   6.590   1.916   6.413
 8745SOL    HW127134   6.532   1.993   6.389
 8745SOL    HW227135   6.536   1.832   6.414
 8746SOL     OW27136   5.096   5.551   4.252
 8746SOL    HW127137   5.167   5.525   4.186
 8746SOL    HW227138   5.138   5.574   4.339
 8747SOL     OW27139   6.595   0.683   1.953
 8747SOL    HW127140   6.612   0.731   2.039
 8747SOL    HW227141   6.530   0.735   1.898
 8748SOL     OW27142   0.576   2.145   3.711
 8748SOL    HW127143   0.538   2.171   3.623
 8748SOL    HW227144   0.573   2.223   3.773
 8749SOL     OW27145   2.841   1.386   5.664
 8749SOL    HW127146   2.766   1.325   5.640
 8749SOL    HW227147   2.822   1.478   5.629
 8750SOL     OW27148   4.501   2.691   5.875
 8750SOL    HW127149   4.557   2.621   5.919
 8750SOL    HW227150   4.472   2.759   5.943
 8751SOL     OW27151   0.376   6.399   1.579
 8751SOL    HW127152   0.402   6.351   1.663
 8751SOL    HW227153   0.345   6.491   1.602
 8752SOL     OW27154   4.739   3.187   0.560
 8752SOL    HW127155   4.817   3.171   0.500
 8752SOL    HW227156   4.658   3.141   0.522
 8753SOL     OW27157   1.600   2.926   6.960
 8753SOL    HW127158   1.527   2.867   6.928
 8753SOL    HW227159   1.664   2.873   7.016
 8754SOL     OW27160   2.714   4.851   6.803
 8754SOL    HW127161   2.679   4.845   6.897
 8754SOL    HW227162   2.688   4.768   6.753
 8755SOL     OW27163   0.601   1.343   2.021
 8755SOL    HW127164   0.517   1.292   2.038
 8755SOL    HW227165   0.583   1.416   1.955
 8756SOL     OW27166   2.394   2.627   3.837
 8756SOL    HW127167   2.300   2.623   3.802
 8756SOL    HW227168   2.391   2.636   3.937
 8757SOL     OW27169   5.008   6.488   5.617
 8757SOL    HW127170   5.018   6.496   5.518
 8757SOL    HW227171   5.052   6.566   5.662
 8758SOL     OW27172   3.448   6.498   3.745
 8758SOL    HW127173   3.459   6.598   3.743
 8758SOL    HW227174   3.489   6.458   3.663
 8759SOL     OW27175   5.991   0.917   6.815
 8759SOL    HW127176   6.088   0.916   6.842
 8759SOL    HW227177   5.958   1.011   6.817
 8760SOL     OW27178   2.156   1.921   4.064
 8760SOL    HW127179   2.232   1.884   4.011
 8760SOL    HW227180   2.094   1.971   4.004
 8761SOL     OW27181   4.774   1.140   2.068
 8761SOL    HW127182   4.674   1.138   2.075
 8761SOL    HW227183   4.813   1.173   2.154
 8762SOL     OW27184   1.576   5.026   3.957
 8762SOL    HW127185   1.558   4.928   3.947
 8762SOL    HW227186   1.671   5.045   3.934
 8763SOL     OW27187   0.190   0.849   5.834
 8763SOL    HW127188   0.103   0.830   5.790
 8763SOL    HW227189   0.255   0.884   5.766
 8764SOL     OW27190   4.024   5.028   5.516
 8764SOL    HW127191   3.947   5.003   5.574
 8764SOL    HW227192   4.083   4.948   5.501
 8765SOL     OW27193   5.155   0.336   5.534
 8765SOL    HW127194   5.184   0.389   5.614
 8765SOL    HW227195   5.235   0.296   5.489
 8766SOL     OW27196   5.069   4.669   5.946
 8766SOL    HW127197   4.993   4.632   5.999
 8766SOL    HW227198   5.036   4.743   5.888
 8767SOL     OW27199   2.880   0.473   3.807
 8767SOL    HW127200   2.904   0.449   3.901
 8767SOL    HW227201   2.899   0.395   3.747
 8768SOL     OW27202   6.659   2.848   0.229
 8768SOL    HW127203   6.664   2.946   0.205
 8768SOL    HW227204   6.673   2.837   0.327
 8769SOL     OW27205   6.765   1.116   1.172
 8769SOL    HW127206   6.826   1.054   1.222
 8769SOL    HW227207   6.710   1.062   1.107
 8770SOL     OW27208   5.057   3.436   2.234
 8770SOL    HW127209   5.129   3.416   2.167
 8770SOL    HW227210   5.027   3.351   2.277
 8771SOL     OW27211   0.797   3.710   6.198
 8771SOL    HW127212   0.764   3.759   6.117
 8771SOL    HW227213   0.798   3.612   6.180
 8772SOL     OW27214   5.667   0.302   4.295
 8772SOL    HW127215   5.755   0.327   4.255
 8772SOL    HW227216   5.611   0.384   4.306
 8773SOL     OW27217   6.770   2.024   4.138
 8773SOL    HW127218   6.794   1.948   4.078
 8773SOL    HW227219   6.850   2.050   4.192
 8774SOL     OW27220   1.326   0.049   0.113
 8774SOL    HW127221   1.276   0.076   0.195
 8774SOL    HW227222   1.264   0.002   0.050
 8775SOL     OW27223   5.583   1.702   4.020
 8775SOL    HW127224   5.585   1.790   4.068
 8775SOL    HW227225   5.489   1.669   4.015
 8776SOL     OW27226   4.990   2.750   0.410
 8776SOL    HW127227   4.995   2.718   0.505
 8776SOL    HW227228   4.965   2.674   0.350
 8777SOL     OW27229   1.112   2.805   2.739
 8777SOL    HW127230   1.201   2.849   2.734
 8777SOL    HW227231   1.123   2.707   2.759
 8778SOL     OW27232   4.628   4.539   5.812
 8778SOL    HW127233   4.679   4.543   5.725
 8778SOL    HW227234   4.535   4.507   5.794
 8779SOL     OW27235   3.179   4.875   2.800
 8779SOL    HW127236   3.157   4.836   2.710
 8779SOL    HW227237   3.098   4.874   2.858
 8780SOL     OW27238   0.127   5.488   2.501
 8780SOL    HW127239   0.058   5.488   2.429
 8780SOL    HW227240   0.087   5.455   2.587
 8781SOL     OW27241   3.778   6.314   2.101
 8781SOL    HW127242   3.786   6.384   2.031
 8781SOL    HW227243   3.700   6.334   2.160
 8782SOL     OW27244   4.909   0.958   1.667
 8782SOL    HW127245   4.926   1.039   1.724
 8782SOL    HW227246   4.812   0.933   1.674
 8783SOL     OW27247   4.962   3.455   4.804
 8783SOL    HW127248   4.896   3.501   4.864
 8783SOL    HW227249   5.055   3.478   4.833
 8784SOL     OW27250   5.684   6.492   0.890
 8784SOL    HW127251   5.748   6.470   0.963
 8784SOL    HW227252   5.656   6.587   0.898
 8785SOL     OW27253   0.419   5.434   6.183
 8785SOL    HW127254   0.359   5.501   6.226
 8785SOL    HW227255   0.482   5.397   6.251
 8786SOL     OW27256   4.253   2.231   2.171
 8786SOL    HW127257   4.233   2.242   2.269
 8786SOL    HW227258   4.167   2.228   2.120
 8787SOL     OW27259   3.695   0.847   1.750
 8787SOL    HW127260   3.668   0.751   1.748
 8787SOL    HW227261   3.728   0.874   1.659
 8788SOL     OW27262   0.230   0.514   5.042
 8788SOL    HW127263   0.300   0.547   5.105
 8788SOL    HW227264   0.151   0.481   5.094
 8789SOL     OW27265   0.617   3.823   4.867
 8789SOL    HW127266   0.651   3.907   4.910
 8789SOL    HW227267   0.617   3.834   4.767
 8790SOL     OW27268   5.790   2.924   6.921
 8790SOL    HW127269   5.870   2.890   6.872
 8790SOL    HW227270   5.712   2.864   6.904
 8791SOL     OW27271   4.606   5.814   5.391
 8791SOL    HW127272   4.610   5.714   5.386
 8791SOL    HW227273   4.694   5.852   5.363
 8792SOL     OW27274   4.783   5.282   1.645
 8792SOL    HW127275   4.809   5.186   1.654
 8792SOL    HW227276   4.785   5.326   1.735
 8793SOL     OW27277   0.613   5.052   4.424
 8793SOL    HW127278   0.596   5.142   4.464
 8793SOL    HW227279   0.642   4.989   4.495
 8794SOL     OW27280   0.048   0.279   2.048
 8794SOL    HW127281   6.990   0.335   2.030
 8794SOL    HW227282   0.021   0.184   2.063
 8795SOL     OW27283   1.756   5.121   5.269
 8795SOL    HW127284   1.743   5.220   5.265
 8795SOL    HW227285   1.751   5.084   5.176
 8796SOL     OW27286   6.471   3.401   3.640
 8796SOL    HW127287   6.558   3.449   3.655
 8796SOL    HW227288   6.456   3.389   3.542
 8797SOL     OW27289   6.139   0.167   3.414
 8797SOL    HW127290   6.233   0.191   3.392
 8797SOL    HW227291   6.100   0.238   3.474
 8798SOL     OW27292   4.532   6.649   5.612
 8798SOL    HW127293   4.619   6.670   5.656
 8798SOL    HW227294   4.485   6.733   5.587
 8799SOL     OW27295   2.405   4.880   2.164
 8799SOL    HW127296   2.357   4.823   2.231
 8799SOL    HW227297   2.391   4.841   2.072
 8800SOL     OW27298   6.984   5.914   5.211
 8800SOL    HW127299   6.962   5.987   5.276
 8800SOL    HW227300   0.059   5.917   5.191
 8801SOL     OW27301   6.234   1.950   4.876
 8801SOL    HW127302   6.278   2.034   4.908
 8801SOL    HW227303   6.271   1.872   4.927
 8802SOL     OW27304   0.796   5.916   5.844
 8802SOL    HW127305   0.878   5.880   5.890
 8802SOL    HW227306   0.805   5.902   5.746
 8803SOL     OW27307   6.173   0.821   6.592
 8803SOL    HW127308   6.078   0.792   6.601
 8803SOL    HW227309   6.212   0.836   6.682
 8804SOL     OW27310   1.698   5.735   1.776
 8804SOL    HW127311   1.763   5.660   1.762
 8804SOL    HW227312   1.748   5.822   1.778
 8805SOL     OW27313   4.246   5.881   2.441
 8805SOL    HW127314   4.313   5.955   2.447
 8805SOL    HW227315   4.195   5.876   2.527
 8806SOL     OW27316   2.290   6.519   0.317
 8806SOL    HW127317   2.239   6.596   0.278
 8806SOL    HW227318   2.355   6.553   0.384
 8807SOL     OW27319   4.954   1.814   1.036
 8807SOL    HW127320   5.041   1.827   1.084
 8807SOL    HW227321   4.899   1.746   1.085
 8808SOL     OW27322   2.312   2.251   0.545
 8808SOL    HW127323   2.268   2.251   0.634
 8808SOL    HW227324   2.277   2.328   0.491
 8809SOL     OW27325   1.919   3.962   3.775
 8809SOL    HW127326   1.995   3.950   3.840
 8809SOL    HW227327   1.857   4.031   3.810
 8810SOL     OW27328   6.762   1.924   5.491
 8810SOL    HW127329   6.848   1.892   5.531
 8810SOL    HW227330   6.752   1.888   5.398
 8811SOL     OW27331   4.159   6.071   2.119
 8811SOL    HW127332   4.077   6.074   2.176
 8811SOL    HW227333   4.231   6.022   2.168
 8812SOL     OW27334   3.384   1.600   6.716
 8812SOL    HW127335   3.461   1.661   6.698
 8812SOL    HW227336   3.338   1.577   6.630
 8813SOL     OW27337   2.480   4.542   3.498
 8813SOL    HW127338   2.385   4.572   3.502
 8813SOL    HW227339   2.532   4.604   3.440
 8814SOL     OW27340   5.906   0.300   0.324
 8814SOL    HW127341   6.006   0.296   0.318
 8814SOL    HW227342   5.879   0.367   0.393
 8815SOL     OW27343   5.435   1.406   0.476
 8815SOL    HW127344   5.490   1.417   0.559
 8815SOL    HW227345   5.340   1.431   0.496
 8816SOL     OW27346   0.516   6.485   5.747
 8816SOL    HW127347   0.480   6.451   5.661
 8816SOL    HW227348   0.445   6.477   5.818
 8817SOL     OW27349   1.029   3.395   4.404
 8817SOL    HW127350   1.116   3.413   4.449
 8817SOL    HW227351   0.984   3.481   4.383
 8818SOL     OW27352   2.585   6.852   4.036
 8818SOL    HW127353   2.654   6.798   3.988
 8818SOL    HW227354   2.536   6.910   3.971
 8819SOL     OW27355   5.148   4.174   5.733
 8819SOL    HW127356   5.159   4.151   5.830
 8819SOL    HW227357   5.106   4.265   5.726
 8820SOL     OW27358   3.168   0.753   4.560
 8820SOL    HW127359   3.253   0.803   4.571
 8820SOL    HW227360   3.093   0.804   4.603
 8821SOL     OW27361   1.360   4.812   0.131
 8821SOL    HW127362   1.433   4.815   0.063
 8821SOL    HW227363   1.299   4.891   0.118
 8822SOL     OW27364   6.458   6.612   3.802
 8822SOL    HW127365   6.412   6.524   3.788
 8822SOL    HW227366   6.555   6.596   3.823
 8823SOL     OW27367   3.598   1.158   3.151
 8823SOL    HW127368   3.639   1.195   3.234
 8823SOL    HW227369   3.514   1.210   3.130
 8824SOL     OW27370   1.608   0.850   1.050
 8824SOL    HW127371   1.690   0.884   1.002
 8824SOL    HW227372   1.526   0.883   1.004
 8825SOL     OW27373   0.411   6.866   0.185
 8825SOL    HW127374   0.339   6.923   0.145
 8825SOL    HW227375   0.498   6.915   0.183
 8826SOL     OW27376   1.034   3.322   1.086
 8826SOL    HW127377   1.053   3.395   1.151
 8826SOL    HW227378   1.117   3.298   1.036
 8827SOL     OW27379   3.987   6.997   2.611
 8827SOL    HW127380   3.994   0.066   2.571
 8827SOL    HW227381   3.972   6.930   2.539
 8828SOL     OW27382   4.282   3.592   6.450
 8828SOL    HW127383   4.286   3.690   6.464
 8828SOL    HW227384   4.194   3.567   6.409
 8829SOL     OW27385   6.949   1.889   1.960
 8829SOL    HW127386   6.983   1.913   2.051
 8829SOL    HW227387   0.004   1.868   1.901
 8830SOL     OW27388   2.460   1.888   3.046
 8830SOL    HW127389   2.481   1.969   2.992
 8830SOL    HW227390   2.491   1.900   3.140
 8831SOL     OW27391   0.851   1.797   2.271
 8831SOL    HW127392   0.816   1.704   2.262
 8831SOL    HW227393   0.874   1.833   2.181
 8832SOL     OW27394   6.855   6.754   3.984
 8832SOL    HW127395   6.946   6.724   3.956
 8832SOL    HW227396   6.836   6.844   3.944
 8833SOL     OW27397   3.484   2.562   1.157
 8833SOL    HW127398   3.397   2.607   1.179
 8833SOL    HW227399   3.492   2.550   1.058
 8834SOL     OW27400   5.865   3.794   5.368
 8834SOL    HW127401   5.926   3.715   5.382
 8834SOL    HW227402   5.855   3.843   5.454
 8835SOL     OW27403   6.451   0.782   5.624
 8835SOL    HW127404   6.401   0.840   5.560
 8835SOL    HW227405   6.462   0.831   5.711
 8836SOL     OW27406   4.994   2.558   6.200
 8836SOL    HW127407   5.051   2.583   6.122
 8836SOL    HW227408   4.934   2.634   6.223
 8837SOL     OW27409   5.951   7.014   1.939
 8837SOL    HW127410   5.996   6.994   2.026
 8837SOL    HW227411   6.018   0.026   1.874
 8838SOL     OW27412   6.720   4.315   2.736
 8838SOL    HW127413   6.696   4.239   2.675
 8838SOL    HW227414   6.803   4.360   2.703
 8839SOL     OW27415   5.483   6.157   2.910
 8839SOL    HW127416   5.564   6.113   2.948
 8839SOL    HW227417   5.472   6.248   2.951
 8840SOL     OW27418   0.273   1.058   1.125
 8840SOL    HW127419   0.179   1.038   1.096
 8840SOL    HW227420   0.336   1.036   1.050
 8841SOL     OW27421   3.538   1.192   2.416
 8841SOL    HW127422   3.445   1.227   2.412
 8841SOL    HW227423   3.573   1.179   2.323
 8842SOL     OW27424   3.009   3.185   3.826
 8842SOL    HW127425   3.060   3.166   3.742
 8842SOL    HW227426   2.928   3.240   3.805
 8843SOL     OW27427   2.077   3.490   5.261
 8843SOL    HW127428   2.140   3.564   5.284
 8843SOL    HW227429   2.126   3.420   5.208
 8844SOL     OW27430   5.396   2.091   5.039
 8844SOL    HW127431   5.305   2.049   5.039
 8844SOL    HW227432   5.394   2.173   4.982
 8845SOL     OW27433   1.316   4.951   1.411
 8845SOL    HW127434   1.383   5.024   1.402
 8845SOL    HW227435   1.278   4.928   1.321
 8846SOL     OW27436   5.290   4.538   3.606
 8846SOL    HW127437   5.288   4.636   3.586
 8846SOL    HW227438   5.199   4.499   3.589
 8847SOL     OW27439   2.547   2.553   2.907
 8847SOL    HW127440   2.646   2.559   2.920
 8847SOL    HW227441   2.527   2.492   2.830
 8848SOL     OW27442   3.152   1.570   1.143
 8848SOL    HW127443   3.166   1.666   1.167
 8848SOL    HW227444   3.219   1.513   1.190
 8849SOL     OW27445   3.574   6.177   4.575
 8849SOL    HW127446   3.518   6.097   4.599
 8849SOL    HW227447   3.661   6.172   4.624
 8850SOL     OW27448   2.924   1.957   0.501
 8850SOL    HW127449   2.952   2.048   0.531
 8850SOL    HW227450   3.000   1.913   0.453
 8851SOL     OW27451   1.191   4.476   3.387
 8851SOL    HW127452   1.270   4.420   3.410
 8851SOL    HW227453   1.218   4.572   3.380
 8852SOL     OW27454   5.483   3.111   5.710
 8852SOL    HW127455   5.442   3.120   5.801
 8852SOL    HW227456   5.425   3.156   5.642
 8853SOL     OW27457   3.994   1.895   5.247
 8853SOL    HW127458   3.900   1.908   5.215
 8853SOL    HW227459   4.001   1.923   5.342
 8854SOL     OW27460   1.588   1.196   5.727
 8854SOL    HW127461   1.618   1.234   5.815
 8854SOL    HW227462   1.495   1.228   5.707
 8855SOL     OW27463   6.230   5.931   6.733
 8855SOL    HW127464   6.268   5.877   6.658
 8855SOL    HW227465   6.222   5.874   6.815
 8856SOL     OW27466   5.940   0.878   5.022
 8856SOL    HW127467   5.994   0.799   5.051
 8856SOL    HW227468   5.895   0.918   5.102
 8857SOL     OW27469   6.310   2.173   3.571
 8857SOL    HW127470   6.373   2.096   3.573
 8857SOL    HW227471   6.226   2.150   3.620
 8858SOL     OW27472   0.596   3.852   5.645
 8858SOL    HW127473   0.688   3.875   5.677
 8858SOL    HW227474   0.585   3.753   5.642
 8859SOL     OW27475   1.204   6.434   4.732
 8859SOL    HW127476   1.200   6.501   4.658
 8859SOL    HW227477   1.176   6.478   4.818
 8860SOL     OW27478   1.571   2.195   2.642
 8860SOL    HW127479   1.563   2.106   2.597
 8860SOL    HW227480   1.648   2.192   2.707
 8861SOL     OW27481   3.554   3.297   0.101
 8861SOL    HW127482   3.593   3.238   0.172
 8861SOL    HW227483   3.623   3.362   0.069
 8862SOL     OW27484   5.986   1.344   5.110
 8862SOL    HW127485   6.067   1.348   5.169
 8862SOL    HW227486   6.013   1.360   5.015
 8863SOL     OW27487   2.011   5.873   4.881
 8863SOL    HW127488   2.076   5.910   4.948
 8863SOL    HW227489   2.044   5.784   4.849
 8864SOL     OW27490   2.421   3.402   6.702
 8864SOL    HW127491   2.408   3.337   6.627
 8864SOL    HW227492   2.367   3.484   6.685
 8865SOL     OW27493   2.589   2.055   5.035
 8865SOL    HW127494   2.644   2.135   5.009
 8865SOL    HW227495   2.650   1.979   5.058
 8866SOL     OW27496   3.662   6.833   3.178
 8866SOL    HW127497   3.710   6.867   3.098
 8866SOL    HW227498   3.646   6.735   3.169
 8867SOL     OW27499   5.803   1.900   2.936
 8867SOL    HW127500   5.708   1.916   2.963
 8867SOL    HW227501   5.814   1.804   2.910
 8868SOL     OW27502   4.873   3.783   0.428
 8868SOL    HW127503   4.971   3.800   0.438
 8868SOL    HW227504   4.839   3.735   0.509
 8869SOL     OW27505   4.977   3.730   3.625
 8869SOL    HW127506   4.955   3.659   3.692
 8869SOL    HW227507   5.077   3.736   3.615
 8870SOL     OW27508   3.688   1.066   0.788
 8870SOL    HW127509   3.749   1.145   0.797
 8870SOL    HW227510   3.727   0.987   0.835
 8871SOL     OW27511   1.653   1.173   3.895
 8871SOL    HW127512   1.737   1.222   3.920
 8871SOL    HW227513   1.661   1.138   3.802
 8872SOL     OW27514   2.270   4.096   3.988
 8872SOL    HW127515   2.270   4.015   4.046
 8872SOL    HW227516   2.176   4.131   3.980
 8873SOL     OW27517   0.661   5.649   3.877
 8873SOL    HW127518   0.691   5.719   3.942
 8873SOL    HW227519   0.677   5.558   3.915
 8874SOL     OW27520   2.380   0.519   0.930
 8874SOL    HW127521   2.367   0.540   0.833
 8874SOL    HW227522   2.292   0.520   0.976
 8875SOL     OW27523   1.561   2.884   4.116
 8875SOL    HW127524   1.643   2.930   4.150
 8875SOL    HW227525   1.568   2.786   4.134
 8876SOL     OW27526   0.430   1.290   4.927
 8876SOL    HW127527   0.358   1.242   4.877
 8876SOL    HW227528   0.444   1.381   4.887
 8877SOL     OW27529   3.035   0.809   4.273
 8877SOL    HW127530   3.102   0.788   4.202
 8877SOL    HW227531   3.072   0.786   4.363
 8878SOL     OW27532   0.065   4.748   0.649
 8878SOL    HW127533   6.993   4.744   0.678
 8878SOL    HW227534   0.082   4.835   0.603
 8879SOL     OW27535   5.099   6.099   0.440
 8879SOL    HW127536   5.190   6.129   0.411
 8879SOL    HW227537   5.107   6.010   0.487
 8880SOL     OW27538   6.515   5.178   4.449
 8880SOL    HW127539   6.451   5.228   4.391
 8880SOL    HW227540   6.604   5.173   4.404
 8881SOL     OW27541   6.799   1.240   1.874
 8881SOL    HW127542   6.840   1.226   1.965
 8881SOL    HW227543   6.745   1.324   1.875
 8882SOL     OW27544   5.510   2.198   6.733
 8882SOL    HW127545   5.466   2.232   6.650
 8882SOL    HW227546   5.452   2.130   6.777
 8883SOL     OW27547   6.422   1.167   6.241
 8883SOL    HW127548   6.395   1.138   6.333
 8883SOL    HW227549   6.452   1.088   6.188
 8884SOL     OW27550   5.586   0.187   6.319
 8884SOL    HW127551   5.560   0.198   6.415
 8884SOL    HW227552   5.656   0.116   6.312
 8885SOL     OW27553   6.063   3.824   1.773
 8885SOL    HW127554   6.028   3.776   1.693
 8885SOL    HW227555   6.149   3.781   1.802
 8886SOL     OW27556   3.047   6.249   6.145
 8886SOL    HW127557   2.984   6.269   6.221
 8886SOL    HW227558   2.996   6.245   6.060
 8887SOL     OW27559   2.441   1.513   1.108
 8887SOL    HW127560   2.431   1.465   1.196
 8887SOL    HW227561   2.496   1.595   1.121
 8888SOL     OW27562   1.666   1.323   1.013
 8888SOL    HW127563   1.709   1.410   0.986
 8888SOL    HW227564   1.571   1.340   1.039
 8889SOL     OW27565   4.820   0.031   4.549
 8889SOL    HW127566   4.880   0.109   4.567
 8889SOL    HW227567   4.825   0.008   4.452
 8890SOL     OW27568   6.981   5.774   4.534
 8890SOL    HW127569   6.924   5.698   4.502
 8890SOL    HW227570   0.051   5.741   4.551
 8891SOL     OW27571   5.554   3.142   6.558
 8891SOL    HW127572   5.509   3.056   6.581
 8891SOL    HW227573   5.625   3.126   6.490
 8892SOL     OW27574   1.979   0.108   3.334
 8892SOL    HW127575   1.952   0.076   3.425
 8892SOL    HW227576   1.934   0.051   3.264
 8893SOL     OW27577   0.049   1.014   0.986
 8893SOL    HW127578   7.020   0.937   0.949
 8893SOL    HW227579   0.026   1.098   0.936
 8894SOL     OW27580   4.256   2.578   5.802
 8894SOL    HW127581   4.338   2.595   5.857
 8894SOL    HW227582   4.259   2.636   5.720
 8895SOL     OW27583   0.409   6.778   1.217
 8895SOL    HW127584   0.485   6.791   1.153
 8895SOL    HW227585   0.326   6.817   1.179
 8896SOL     OW27586   1.600   3.879   4.936
 8896SOL    HW127587   1.629   3.784   4.949
 8896SOL    HW227588   1.679   3.935   4.911
 8897SOL     OW27589   1.379   1.192   1.798
 8897SOL    HW127590   1.467   1.201   1.750
 8897SOL    HW227591   1.394   1.199   1.897
 8898SOL     OW27592   6.019   3.606   4.288
 8898SOL    HW127593   6.062   3.558   4.212
 8898SOL    HW227594   6.086   3.617   4.362
 8899SOL     OW27595   2.114   4.396   6.671
 8899SOL    HW127596   2.029   4.442   6.697
 8899SOL    HW227597   2.110   4.300   6.697
 8900SOL     OW27598   4.695   2.717   3.155
 8900SOL    HW127599   4.659   2.793   3.102
 8900SOL    HW227600   4.752   2.752   3.229
 8901SOL     OW27601   1.302   0.721   2.717
 8901SOL    HW127602   1.401   0.714   2.707
 8901SOL    HW227603   1.264   0.631   2.739
 8902SOL     OW27604   1.840   5.376   6.432
 8902SOL    HW127605   1.819   5.457   6.378
 8902SOL    HW227606   1.777   5.371   6.510
 8903SOL     OW27607   2.323   1.511   3.895
 8903SOL    HW127608   2.274   1.444   3.840
 8903SOL    HW227609   2.405   1.541   3.847
 8904SOL     OW27610   0.304   5.836   4.123
 8904SOL    HW127611   0.355   5.913   4.084
 8904SOL    HW227612   0.223   5.871   4.170
 8905SOL     OW27613   2.041   3.052   5.365
 8905SOL    HW127614   2.009   3.114   5.293
 8905SOL    HW227615   1.971   3.043   5.435
 8906SOL     OW27616   6.613   6.358   6.157
 8906SOL    HW127617   6.524   6.402   6.146
 8906SOL    HW227618   6.656   6.347   6.067
 8907SOL     OW27619   3.378   2.596   5.336
 8907SOL    HW127620   3.314   2.524   5.308
 8907SOL    HW227621   3.342   2.685   5.309
 8908SOL     OW27622   1.656   2.074   1.154
 8908SOL    HW127623   1.622   1.983   1.134
 8908SOL    HW227624   1.666   2.126   1.069
 8909SOL     OW27625   3.087   0.553   6.163
 8909SOL    HW127626   3.106   0.469   6.112
 8909SOL    HW227627   3.005   0.597   6.126
 8910SOL     OW27628   3.057   3.437   6.542
 8910SOL    HW127629   2.970   3.390   6.527
 8910SOL    HW227630   3.040   3.533   6.567
 8911SOL     OW27631   3.139   2.156   4.510
 8911SOL    HW127632   3.082   2.183   4.587
 8911SOL    HW227633   3.232   2.138   4.543
 8912SOL     OW27634   4.599   1.707   5.875
 8912SOL    HW127635   4.545   1.647   5.934
 8912SOL    HW227636   4.551   1.794   5.863
 8913SOL     OW27637   5.109   4.353   1.981
 8913SOL    HW127638   5.129   4.333   1.885
 8913SOL    HW227639   5.073   4.446   1.988
 8914SOL     OW27640   3.724   1.761   4.964
 8914SOL    HW127641   3.779   1.686   4.928
 8914SOL    HW227642   3.769   1.848   4.945
 8915SOL     OW27643   2.149   3.244   3.694
 8915SOL    HW127644   2.133   3.151   3.662
 8915SOL    HW227645   2.203   3.241   3.778
 8916SOL     OW27646   6.946   4.468   2.664
 8916SOL    HW127647   0.011   4.487   2.709
 8916SOL    HW227648   6.954   4.485   2.566
 8917SOL     OW27649   6.117   5.677   6.350
 8917SOL    HW127650   6.169   5.760   6.328
 8917SOL    HW227651   6.135   5.652   6.445
 8918SOL     OW27652   5.673   6.462   6.898
 8918SOL    HW127653   5.731   6.517   6.958
 8918SOL    HW227654   5.621   6.522   6.838
 8919SOL     OW27655   3.349   4.323   0.921
 8919SOL    HW127656   3.293   4.386   0.974
 8919SOL    HW227657   3.346   4.232   0.963
 8920SOL     OW27658   6.116   5.463   6.144
 8920SOL    HW127659   6.125   5.532   6.216
 8920SOL    HW227660   6.060   5.387   6.177
 8921SOL     OW27661   1.647   0.784   3.797
 8921SOL    HW127662   1.565   0.757   3.746
 8921SOL    HW227663   1.705   0.842   3.739
 8922SOL     OW27664   1.819   4.783   0.710
 8922SOL    HW127665   1.878   4.769   0.790
 8922SOL    HW227666   1.874   4.777   0.627
 8923SOL     OW27667   1.992   3.589   6.594
 8923SOL    HW127668   1.924   3.645   6.547
 8923SOL    HW227669   2.084   3.615   6.563
 8924SOL     OW27670   3.008   5.123   5.568
 8924SOL    HW127671   2.943   5.047   5.561
 8924SOL    HW227672   3.066   5.109   5.648
 8925SOL     OW27673   6.712   6.828   2.295
 8925SOL    HW127674   6.715   6.771   2.377
 8925SOL    HW227675   6.701   6.771   2.214
 8926SOL     OW27676   5.575   2.026   1.890
 8926SOL    HW127677   5.574   2.078   1.975
 8926SOL    HW227678   5.670   2.006   1.864
 8927SOL     OW27679   2.447   2.719   5.128
 8927SOL    HW127680   2.429   2.814   5.104
 8927SOL    HW227681   2.521   2.714   5.195
 8928SOL     OW27682   0.427   0.706   5.741
 8928SOL    HW127683   0.365   0.716   5.818
 8928SOL    HW227684   0.406   0.621   5.692
 8929SOL     OW27685   6.837   3.858   4.224
 8929SOL    HW127686   6.921   3.806   4.210
 8929SOL    HW227687   6.853   3.930   4.291
 8930SOL     OW27688   1.201   5.626   4.857
 8930SOL    HW127689   1.173   5.722   4.871
 8930SOL    HW227690   1.142   5.584   4.788
 8931SOL     OW27691   5.125   1.596   1.445
 8931SOL    HW127692   5.164   1.667   1.387
 8931SOL    HW227693   5.032   1.576   1.415
 8932SOL     OW27694   6.162   0.396   6.736
 8932SOL    HW127695   6.126   0.337   6.809
 8932SOL    HW227696   6.120   0.486   6.742
 8933SOL     OW27697   1.009   1.224   4.899
 8933SOL    HW127698   0.952   1.205   4.819
 8933SOL    HW227699   1.106   1.213   4.875
 8934SOL     OW27700   3.874   5.357   3.308
 8934SOL    HW127701   3.810   5.420   3.352
 8934SOL    HW227702   3.843   5.263   3.322
 8935SOL     OW27703   4.647   2.652   2.849
 8935SOL    HW127704   4.587   2.710   2.794
 8935SOL    HW227705   4.597   2.572   2.880
 8936SOL     OW27706   0.415   4.552   1.076
 8936SOL    HW127707   0.327   4.571   1.121
 8936SOL    HW227708   0.462   4.639   1.057
 8937SOL     OW27709   0.405   6.670   4.068
 8937SOL    HW127710   0.346   6.642   4.144
 8937SOL    HW227711   0.440   6.762   4.086
 8938SOL     OW27712   6.227   0.850   0.467
 8938SOL    HW127713   6.290   0.783   0.505
 8938SOL    HW227714   6.139   0.844   0.513
 8939SOL     OW27715   0.018   2.911   4.414
 8939SOL    HW127716   0.054   2.821   4.388
 8939SOL    HW227717   0.047   2.979   4.347
 8940SOL     OW27718   0.114   3.425   0.946
 8940SOL    HW127719   0.126   3.329   0.971
 8940SOL    HW227720   0.048   3.433   0.871
 8941SOL     OW27721   5.307   2.488   2.188
 8941SOL    HW127722   5.254   2.559   2.234
 8941SOL    HW227723   5.331   2.518   2.096
 8942SOL     OW27724   6.257   4.744   3.891
 8942SOL    HW127725   6.188   4.762   3.821
 8942SOL    HW227726   6.254   4.815   3.961
 8943SOL     OW27727   4.175   3.549   0.218
 8943SOL    HW127728   4.138   3.589   0.301
 8943SOL    HW227729   4.250   3.605   0.184
 8944SOL     OW27730   4.416   5.473   4.589
 8944SOL    HW127731   4.386   5.564   4.617
 8944SOL    HW227732   4.417   5.467   4.490
 8945SOL     OW27733   6.091   3.417   4.654
 8945SOL    HW127734   6.184   3.387   4.633
 8945SOL    HW227735   6.092   3.513   4.683
 8946SOL     OW27736   5.300   1.170   4.311
 8946SOL    HW127737   5.268   1.080   4.280
 8946SOL    HW227738   5.399   1.167   4.325
 8947SOL     OW27739   1.272   4.577   6.002
 8947SOL    HW127740   1.275   4.658   5.944
 8947SOL    HW227741   1.234   4.601   6.091
 8948SOL     OW27742   6.415   0.211   3.399
 8948SOL    HW127743   6.431   0.293   3.454
 8948SOL    HW227744   6.502   0.181   3.359
 8949SOL     OW27745   3.348   6.177   0.253
 8949SOL    HW127746   3.332   6.080   0.266
 8949SOL    HW227747   3.390   6.215   0.336
 8950SOL     OW27748   4.684   4.711   1.681
 8950SOL    HW127749   4.602   4.760   1.709
 8950SOL    HW227750   4.662   4.646   1.608
 8951SOL     OW27751   2.511   1.221   4.370
 8951SOL    HW127752   2.544   1.289   4.304
 8951SOL    HW227753   2.449   1.158   4.325
 8952SOL     OW27754   2.273   4.736   3.458
 8952SOL    HW127755   2.328   4.819   3.455
 8952SOL    HW227756   2.205   4.744   3.531
 8953SOL     OW27757   2.647   4.937   2.254
 8953SOL    HW127758   2.681   5.003   2.187
 8953SOL    HW227759   2.559   4.901   2.223
 8954SOL     OW27760   0.894   5.537   5.158
 8954SOL    HW127761   0.799   5.562   5.179
 8954SOL    HW227762   0.946   5.532   5.244
 8955SOL     OW27763   5.334   2.678   3.641
 8955SOL    HW127764   5.308   2.695   3.546
 8955SOL    HW227765   5.426   2.713   3.657
 8956SOL     OW27766   0.641   5.953   6.064
 8956SOL    HW127767   0.545   5.953   6.035
 8956SOL    HW227768   0.700   5.947   5.983
 8957SOL     OW27769   1.319   5.193   1.968
 8957SOL    HW127770   1.243   5.185   2.031
 8957SOL    HW227771   1.406   5.189   2.018
 8958SOL     OW27772   1.830   3.411   5.391
 8958SOL    HW127773   1.808   3.405   5.488
 8958SOL    HW227774   1.926   3.440   5.381
 8959SOL     OW27775   0.678   3.168   2.377
 8959SOL    HW127776   0.754   3.233   2.378
 8959SOL    HW227777   0.711   3.078   2.405
 8960SOL     OW27778   5.661   3.945   4.237
 8960SOL    HW127779   5.654   3.961   4.138
 8960SOL    HW227780   5.754   3.916   4.260
 8961SOL     OW27781   3.374   6.845   5.071
 8961SOL    HW127782   3.362   6.852   5.170
 8961SOL    HW227783   3.388   6.749   5.046
 8962SOL     OW27784   0.710   5.809   1.447
 8962SOL    HW127785   0.769   5.849   1.517
 8962SOL    HW227786   0.760   5.737   1.398
 8963SOL     OW27787   3.484   6.445   4.504
 8963SOL    HW127788   3.574   6.471   4.469
 8963SOL    HW227789   3.484   6.348   4.526
 8964SOL     OW27790   6.707   3.677   4.017
 8964SOL    HW127791   6.747   3.759   4.059
 8964SOL    HW227792   6.608   3.684   4.019
 8965SOL     OW27793   4.320   4.922   0.204
 8965SOL    HW127794   4.265   4.846   0.238
 8965SOL    HW227795   4.288   5.007   0.246
 8966SOL     OW27796   5.269   5.626   6.318
 8966SOL    HW127797   5.184   5.659   6.359
 8966SOL    HW227798   5.248   5.574   6.235
 8967SOL     OW27799   3.494   0.835   3.214
 8967SOL    HW127800   3.500   0.918   3.160
 8967SOL    HW227801   3.495   0.755   3.153
 8968SOL     OW27802   3.525   5.084   1.863
 8968SOL    HW127803   3.447   5.112   1.806
 8968SOL    HW227804   3.553   5.162   1.919
 8969SOL     OW27805   6.931   0.850   2.399
 8969SOL    HW127806   6.837   0.873   2.424
 8969SOL    HW227807   6.989   0.932   2.406
 8970SOL     OW27808   1.470   1.175   6.187
 8970SOL    HW127809   1.435   1.268   6.197
 8970SOL    HW227810   1.518   1.147   6.270
 8971SOL     OW27811   4.227   5.608   0.679
 8971SOL    HW127812   4.313   5.606   0.731
 8971SOL    HW227813   4.217   5.523   0.628
 8972SOL     OW27814   5.728   4.515   0.690
 8972SOL    HW127815   5.773   4.497   0.777
 8972SOL    HW227816   5.722   4.614   0.676
 8973SOL     OW27817   0.553   2.156   2.107
 8973SOL    HW127818   0.554   2.250   2.144
 8973SOL    HW227819   0.483   2.149   2.036
 8974SOL     OW27820   2.314   4.316   4.283
 8974SOL    HW127821   2.352   4.235   4.240
 8974SOL    HW227822   2.278   4.293   4.373
 8975SOL     OW27823   0.558   0.609   6.373
 8975SOL    HW127824   0.654   0.601   6.347
 8975SOL    HW227825   0.540   0.701   6.409
 8976SOL     OW27826   6.695   6.989   1.408
 8976SOL    HW127827   6.735   6.899   1.392
 8976SOL    HW227828   6.765   0.037   1.399
 8977SOL     OW27829   7.004   5.099   6.185
 8977SOL    HW127830   7.007   5.116   6.284
 8977SOL    HW227831   6.950   5.171   6.141
 8978SOL     OW27832   5.987   5.674   5.807
 8978SOL    HW127833   5.968   5.578   5.786
 8978SOL    HW227834   6.068   5.680   5.866
 8979SOL     OW27835   0.931   5.495   5.766
 8979SOL    HW127836   0.940   5.395   5.758
 8979SOL    HW227837   0.987   5.527   5.842
 8980SOL     OW27838   3.679   1.179   4.824
 8980SOL    HW127839   3.724   1.148   4.740
 8980SOL    HW227840   3.643   1.272   4.810
 8981SOL     OW27841   4.340   2.748   6.249
 8981SOL    HW127842   4.241   2.740   6.236
 8981SOL    HW227843   4.376   2.819   6.188
 8982SOL     OW27844   6.858   1.364   1.341
 8982SOL    HW127845   6.783   1.421   1.374
 8982SOL    HW227846   6.826   1.269   1.333
 8983SOL     OW27847   0.804   5.790   2.978
 8983SOL    HW127848   0.797   5.843   2.893
 8983SOL    HW227849   0.890   5.738   2.977
 8984SOL     OW27850   5.913   0.404   4.053
 8984SOL    HW127851   5.947   0.346   3.979
 8984SOL    HW227852   5.982   0.410   4.126
 8985SOL     OW27853   4.893   2.334   0.586
 8985SOL    HW127854   4.972   2.333   0.525
 8985SOL    HW227855   4.809   2.325   0.533
 8986SOL     OW27856   6.454   4.522   1.487
 8986SOL    HW127857   6.450   4.596   1.554
 8986SOL    HW227858   6.410   4.440   1.526
 8987SOL     OW27859   2.259   6.704   1.228
 8987SOL    HW127860   2.265   6.724   1.130
 8987SOL    HW227861   2.282   6.608   1.243
 8988SOL     OW27862   1.710   4.929   1.304
 8988SOL    HW127863   1.778   4.857   1.292
 8988SOL    HW227864   1.658   4.940   1.220
 8989SOL     OW27865   5.602   1.833   1.640
 8989SOL    HW127866   5.633   1.800   1.551
 8989SOL    HW227867   5.681   1.861   1.695
 8990SOL     OW27868   3.193   6.726   1.759
 8990SOL    HW127869   3.147   6.808   1.725
 8990SOL    HW227870   3.290   6.730   1.735
 8991SOL     OW27871   1.912   2.352   0.832
 8991SOL    HW127872   1.952   2.288   0.766
 8991SOL    HW227873   1.978   2.424   0.852
 8992SOL     OW27874   0.642   3.839   6.531
 8992SOL    HW127875   0.711   3.798   6.470
 8992SOL    HW227876   0.573   3.886   6.476
 8993SOL     OW27877   5.688   2.547   3.374
 8993SOL    HW127878   5.597   2.508   3.380
 8993SOL    HW227879   5.730   2.550   3.464
 8994SOL     OW27880   1.111   5.166   3.727
 8994SOL    HW127881   1.153   5.219   3.653
 8994SOL    HW227882   1.181   5.107   3.768
 8995SOL     OW27883   1.851   3.516   5.111
 8995SOL    HW127884   1.791   3.442   5.141
 8995SOL    HW227885   1.933   3.518   5.168
 8996SOL     OW27886   0.512   3.866   2.465
 8996SOL    HW127887   0.589   3.857   2.528
 8996SOL    HW227888   0.544   3.848   2.372
 8997SOL     OW27889   4.294   1.027   5.173
 8997SOL    HW127890   4.275   0.929   5.181
 8997SOL    HW227891   4.209   1.076   5.152
 8998SOL     OW27892   1.620   2.518   5.743
 8998SOL    HW127893   1.666   2.522   5.833
 8998SOL    HW227894   1.668   2.579   5.679
 8999SOL     OW27895   5.708   1.274   5.454
 8999SOL    HW127896   5.677   1.339   5.385
 8999SOL    HW227897   5.747   1.323   5.531
 9000SOL     OW27898   3.273   4.129   0.578
 9000SOL    HW127899   3.333   4.101   0.653
 9000SOL    HW227900   3.198   4.184   0.613
 9001SOL     OW27901   2.181   4.731   3.962
 9001SOL    HW127902   2.270   4.750   3.920
 9001SOL    HW227903   2.183   4.640   4.005
 9002SOL     OW27904   6.074   4.621   6.178
 9002SOL    HW127905   6.123   4.623   6.091
 9002SOL    HW227906   5.975   4.618   6.161
 9003SOL     OW27907   6.480   2.970   6.970
 9003SOL    HW127908   6.508   2.916   6.891
 9003SOL    HW227909   6.458   2.910   0.023
 9004SOL     OW27910   4.779   6.335   1.515
 9004SOL    HW127911   4.731   6.416   1.481
 9004SOL    HW227912   4.776   6.335   1.615
 9005SOL     OW27913   5.080   2.083   3.406
 9005SOL    HW127914   5.148   2.157   3.403
 9005SOL    HW227915   5.002   2.109   3.348
 9006SOL     OW27916   1.352   5.176   1.116
 9006SOL    HW127917   1.409   5.160   1.197
 9006SOL    HW227918   1.273   5.231   1.142
 9007SOL     OW27919   3.336   5.673   4.028
 9007SOL    HW127920   3.367   5.715   3.943
 9007SOL    HW227921   3.407   5.612   4.063
 9008SOL     OW27922   0.070   4.113   1.739
 9008SOL    HW127923   0.113   4.129   1.828
 9008SOL    HW227924   0.010   4.189   1.716
 9009SOL     OW27925   2.544   6.067   0.605
 9009SOL    HW127926   2.613   6.140   0.608
 9009SOL    HW227927   2.564   6.005   0.529
 9010SOL     OW27928   0.194   6.564   5.139
 9010SOL    HW127929   0.153   6.655   5.142
 9010SOL    HW227930   0.248   6.555   5.055
 9011SOL     OW27931   4.209   1.870   0.941
 9011SOL    HW127932   4.292   1.821   0.915
 9011SOL    HW227933   4.230   1.967   0.954
 9012SOL     OW27934   0.656   5.239   1.983
 9012SOL    HW127935   0.658   5.167   2.052
 9012SOL    HW227936   0.734   5.301   1.997
 9013SOL     OW27937   6.488   5.961   3.264
 9013SOL    HW127938   6.585   5.945   3.280
 9013SOL    HW227939   6.477   6.030   3.193
 9014SOL     OW27940   1.352   0.645   0.757
 9014SOL    HW127941   1.435   0.589   0.754
 9014SOL    HW227942   1.304   0.639   0.670
 9015SOL     OW27943   0.334   1.175   5.955
 9015SOL    HW127944   0.275   1.148   6.031
 9015SOL    HW227945   0.286   1.163   5.869
 9016SOL     OW27946   6.394   5.944   5.900
 9016SOL    HW127947   6.345   5.867   5.941
 9016SOL    HW227948   6.393   6.021   5.963
 9017SOL     OW27949   6.064   2.169   3.751
 9017SOL    HW127950   6.067   2.238   3.824
 9017SOL    HW227951   6.050   2.079   3.792
 9018SOL     OW27952   3.356   1.967   5.200
 9018SOL    HW127953   3.276   1.942   5.145
 9018SOL    HW227954   3.413   1.887   5.215
 9019SOL     OW27955   2.676   5.894   0.432
 9019SOL    HW127956   2.642   5.908   0.339
 9019SOL    HW227957   2.635   5.812   0.470
 9020SOL     OW27958   1.744   4.605   2.747
 9020SOL    HW127959   1.782   4.650   2.666
 9020SOL    HW227960   1.652   4.572   2.727
 9021SOL     OW27961   7.004   5.430   4.465
 9021SOL    HW127962   0.019   5.393   4.550
 9021SOL    HW227963   0.046   5.415   4.390
 9022SOL     OW27964   2.637   0.821   0.541
 9022SOL    HW127965   2.586   0.795   0.459
 9022SOL    HW227966   2.585   0.890   0.592
 9023SOL     OW27967   3.385   3.374   3.773
 9023SOL    HW127968   3.404   3.364   3.871
 9023SOL    HW227969   3.389   3.471   3.748
 9024SOL     OW27970   1.431   6.315   5.955
 9024SOL    HW127971   1.529   6.311   5.934
 9024SOL    HW227972   1.416   6.383   6.027
 9025SOL     OW27973   6.088   4.936   1.877
 9025SOL    HW127974   6.185   4.961   1.874
 9025SOL    HW227975   6.074   4.866   1.947
 9026SOL     OW27976   3.497   2.842   4.807
 9026SOL    HW127977   3.492   2.770   4.876
 9026SOL    HW227978   3.542   2.922   4.846
 9027SOL     OW27979   2.860   2.289   3.124
 9027SOL    HW127980   2.787   2.309   3.189
 9027SOL    HW227981   2.830   2.312   3.031
 9028SOL     OW27982   2.572   4.553   5.190
 9028SOL    HW127983   2.626   4.524   5.270
 9028SOL    HW227984   2.634   4.594   5.122
 9029SOL     OW27985   4.945   5.892   3.385
 9029SOL    HW127986   4.894   5.810   3.413
 9029SOL    HW227987   4.935   5.904   3.286
 9030SOL     OW27988   2.202   0.946   2.417
 9030SOL    HW127989   2.291   0.990   2.424
 9030SOL    HW227990   2.163   0.934   2.509
 9031SOL     OW27991   2.275   6.352   5.643
 9031SOL    HW127992   2.194   6.406   5.668
 9031SOL    HW227993   2.352   6.378   5.703
 9032SOL     OW27994   2.790   2.176   1.689
 9032SOL    HW127995   2.827   2.084   1.678
 9032SOL    HW227996   2.841   2.224   1.761
 9033SOL     OW27997   1.680   3.418   3.739
 9033SOL    HW127998   1.734   3.401   3.822
 9033SOL    HW227999   1.737   3.464   3.671
 9034SOL     OW28000   2.880   6.299   5.930
 9034SOL    HW128001   2.888   6.351   5.844
 9034SOL    HW228002   2.789   6.312   5.968
 9035SOL     OW28003   6.960   0.902   4.116
 9035SOL    HW128004   7.015   0.929   4.195
 9035SOL    HW228005   7.015   0.845   4.055
 9036SOL     OW28006   1.115   2.647   5.630
 9036SOL    HW128007   1.185   2.576   5.621
 9036SOL    HW228008   1.155   2.737   5.611
 9037SOL     OW28009   2.730   4.310   6.691
 9037SOL    HW128010   2.722   4.252   6.610
 9037SOL    HW228011   2.639   4.332   6.726
 9038SOL     OW28012   4.710   6.511   4.809
 9038SOL    HW128013   4.672   6.422   4.835
 9038SOL    HW228014   4.642   6.561   4.756
 9039SOL     OW28015   2.162   4.910   4.820
 9039SOL    HW128016   2.078   4.914   4.766
 9039SOL    HW228017   2.155   4.973   4.897
 9040SOL     OW28018   2.275   1.912   2.469
 9040SOL    HW128019   2.247   1.839   2.531
 9040SOL    HW228020   2.228   1.997   2.493
 9041SOL     OW28021   1.034   2.730   0.877
 9041SOL    HW128022   1.069   2.822   0.898
 9041SOL    HW228023   0.958   2.709   0.938
 9042SOL     OW28024   2.867   5.093   3.084
 9042SOL    HW128025   2.784   5.133   3.046
 9042SOL    HW228026   2.908   5.030   3.017
 9043SOL     OW28027   0.914   2.837   5.938
 9043SOL    HW128028   0.973   2.906   5.980
 9043SOL    HW228029   0.920   2.844   5.838
 9044SOL     OW28030   6.274   0.285   0.760
 9044SOL    HW128031   6.272   0.277   0.661
 9044SOL    HW228032   6.369   0.276   0.792
 9045SOL     OW28033   3.132   0.201   3.171
 9045SOL    HW128034   3.057   0.265   3.189
 9045SOL    HW228035   3.137   0.133   3.244
 9046SOL     OW28036   3.433   4.358   5.658
 9046SOL    HW128037   3.386   4.294   5.718
 9046SOL    HW228038   3.370   4.431   5.631
 9047SOL     OW28039   1.266   4.128   4.268
 9047SOL    HW128040   1.176   4.096   4.297
 9047SOL    HW228041   1.298   4.073   4.191
 9048SOL     OW28042   1.362   3.603   5.027
 9048SOL    HW128043   1.419   3.614   5.109
 9048SOL    HW228044   1.289   3.671   5.029
 9049SOL     OW28045   5.624   6.239   5.940
 9049SOL    HW128046   5.624   6.187   5.855
 9049SOL    HW228047   5.716   6.242   5.978
 9050SOL     OW28048   0.147   4.978   6.992
 9050SOL    HW128049   0.179   4.906   6.930
 9050SOL    HW228050   0.084   5.038   6.943
 9051SOL     OW28051   5.492   6.042   0.139
 9051SOL    HW128052   5.495   6.078   0.232
 9051SOL    HW228053   5.423   5.971   0.132
 9052SOL     OW28054   2.658   4.865   4.611
 9052SOL    HW128055   2.599   4.918   4.671
 9052SOL    HW228056   2.603   4.815   4.545
 9053SOL     OW28057   2.408   2.700   4.087
 9053SOL    HW128058   2.473   2.634   4.124
 9053SOL    HW228059   2.397   2.776   4.151
 9054SOL     OW28060   1.732   0.501   2.015
 9054SOL    HW128061   1.638   0.524   1.987
 9054SOL    HW228062   1.739   0.505   2.114
 9055SOL     OW28063   0.777   2.481   4.054
 9055SOL    HW128064   0.721   2.401   4.077
 9055SOL    HW228065   0.827   2.511   4.135
 9056SOL     OW28066   4.858   0.316   2.570
 9056SOL    HW128067   4.941   0.295   2.518
 9056SOL    HW228068   4.798   0.236   2.573
 9057SOL     OW28069   6.331   5.727   0.131
 9057SOL    HW128070   6.253   5.721   0.194
 9057SOL    HW228071   6.320   5.660   0.058
 9058SOL     OW28072   1.959   2.729   5.115
 9058SOL    HW128073   1.942   2.680   5.201
 9058SOL    HW228074   2.004   2.816   5.135
 9059SOL     OW28075   6.607   1.894   3.208
 9059SOL    HW128076   6.559   1.922   3.125
 9059SOL    HW228077   6.542   1.890   3.284
 9060SOL     OW28078   0.057   3.326   1.926
 9060SOL    HW128079   7.000   3.316   1.866
 9060SOL    HW228080   0.109   3.407   1.899
 9061SOL     OW28081   4.840   5.982   2.426
 9061SOL    HW128082   4.939   5.970   2.429
 9061SOL    HW228083   4.803   5.927   2.350
 9062SOL     OW28084   0.945   4.502   3.507
 9062SOL    HW128085   0.945   4.561   3.589
 9062SOL    HW228086   1.039   4.484   3.479
 9063SOL     OW28087   2.932   0.852   2.811
 9063SOL    HW128088   2.973   0.765   2.838
 9063SOL    HW228089   2.985   0.927   2.851
 9064SOL     OW28090   0.288   4.131   3.670
 9064SOL    HW128091   0.280   4.111   3.573
 9064SOL    HW228092   0.384   4.149   3.693
 9065SOL     OW28093   2.945   6.205   5.047
 9065SOL    HW128094   3.028   6.247   5.010
 9065SOL    HW228095   2.904   6.266   5.115
 9066SOL     OW28096   5.831   5.687   6.311
 9066SOL    HW128097   5.918   5.671   6.360
 9066SOL    HW228098   5.851   5.718   6.218
 9067SOL     OW28099   6.339   0.094   4.324
 9067SOL    HW128100   6.384   0.144   4.398
 9067SOL    HW228101   6.251   0.137   4.304
 9068SOL     OW28102   5.113   0.426   5.003
 9068SOL    HW128103   5.124   0.525   5.006
 9068SOL    HW228104   5.200   0.382   5.022
 9069SOL     OW28105   4.920   2.107   2.109
 9069SOL    HW128106   4.866   2.144   2.184
 9069SOL    HW228107   4.942   2.011   2.127
 9070SOL     OW28108   1.186   2.118   5.728
 9070SOL    HW128109   1.269   2.157   5.688
 9070SOL    HW228110   1.146   2.052   5.665
 9071SOL     OW28111   4.534   1.382   5.690
 9071SOL    HW128112   4.613   1.443   5.681
 9071SOL    HW228113   4.561   1.301   5.744
 9072SOL     OW28114   5.066   0.180   1.495
 9072SOL    HW128115   5.032   0.266   1.533
 9072SOL    HW228116   5.154   0.196   1.450
 9073SOL     OW28117   3.926   0.377   7.013
 9073SOL    HW128118   4.004   0.386   6.952
 9073SOL    HW228119   3.957   0.384   0.085
 9074SOL     OW28120   1.280   0.066   1.011
 9074SOL    HW128121   1.341   7.022   0.969
 9074SOL    HW228122   1.333   0.139   1.055
 9075SOL     OW28123   6.790   0.882   1.422
 9075SOL    HW128124   6.816   0.884   1.519
 9075SOL    HW228125   6.871   0.903   1.366
 9076SOL     OW28126   5.106   0.236   2.499
 9076SOL    HW128127   5.141   0.242   2.405
 9076SOL    HW228128   5.161   0.295   2.558
 9077SOL     OW28129   5.143   1.230   5.853
 9077SOL    HW128130   5.152   1.168   5.775
 9077SOL    HW228131   5.232   1.238   5.899
 9078SOL     OW28132   4.969   5.734   6.970
 9078SOL    HW128133   4.907   5.754   0.023
 9078SOL    HW228134   4.968   5.635   6.952
 9079SOL     OW28135   1.267   0.495   5.518
 9079SOL    HW128136   1.365   0.486   5.536
 9079SOL    HW228137   1.252   0.565   5.449
 9080SOL     OW28138   6.773   3.726   0.655
 9080SOL    HW128139   6.697   3.777   0.615
 9080SOL    HW228140   6.799   3.651   0.594
 9081SOL     OW28141   3.637   1.762   1.772
 9081SOL    HW128142   3.660   1.751   1.868
 9081SOL    HW228143   3.553   1.816   1.763
 9082SOL     OW28144   3.398   5.717   6.197
 9082SOL    HW128145   3.433   5.746   6.286
 9082SOL    HW228146   3.298   5.717   6.199
 9083SOL     OW28147   4.884   5.072   6.097
 9083SOL    HW128148   4.976   5.104   6.079
 9083SOL    HW228149   4.845   5.032   6.014
 9084SOL     OW28150   0.840   2.700   5.636
 9084SOL    HW128151   0.933   2.662   5.643
 9084SOL    HW228152   0.791   2.683   5.721
 9085SOL     OW28153   2.933   4.748   0.105
 9085SOL    HW128154   2.856   4.732   0.168
 9085SOL    HW228155   2.920   4.694   0.023
 9086SOL     OW28156   6.679   4.231   0.692
 9086SOL    HW128157   6.752   4.200   0.753
 9086SOL    HW228158   6.592   4.193   0.722
 9087SOL     OW28159   6.129   2.636   2.319
 9087SOL    HW128160   6.037   2.670   2.337
 9087SOL    HW228161   6.136   2.606   2.224
 9088SOL     OW28162   6.135   0.490   1.678
 9088SOL    HW128163   6.228   0.476   1.647
 9088SOL    HW228164   6.131   0.478   1.778
 9089SOL     OW28165   4.378   5.510   3.816
 9089SOL    HW128166   4.307   5.566   3.858
 9089SOL    HW228167   4.341   5.459   3.739
 9090SOL     OW28168   5.699   6.246   4.387
 9090SOL    HW128169   5.709   6.203   4.297
 9090SOL    HW228170   5.786   6.286   4.415
 9091SOL     OW28171   3.476   2.059   0.468
 9091SOL    HW128172   3.533   2.081   0.547
 9091SOL    HW228173   3.383   2.090   0.484
 9092SOL     OW28174   1.265   6.997   5.700
 9092SOL    HW128175   1.231   6.942   5.624
 9092SOL    HW228176   1.251   6.947   5.786
 9093SOL     OW28177   1.483   5.989   0.284
 9093SOL    HW128178   1.499   6.086   0.302
 9093SOL    HW228179   1.564   5.937   0.310
 9094SOL     OW28180   0.195   5.935   1.984
 9094SOL    HW128181   0.206   5.845   1.941
 9094SOL    HW228182   0.135   5.991   1.927
 9095SOL     OW28183   5.084   3.277   6.457
 9095SOL    HW128184   5.095   3.358   6.514
 9095SOL    HW228185   5.107   3.195   6.511
 9096SOL     OW28186   5.476   3.058   2.909
 9096SOL    HW128187   5.556   3.067   2.968
 9096SOL    HW228188   5.415   2.987   2.946
 9097SOL     OW28189   1.199   3.681   6.875
 9097SOL    HW128190   1.119   3.715   6.824
 9097SOL    HW228191   1.276   3.669   6.812
 9098SOL     OW28192   3.856   4.054   1.872
 9098SOL    HW128193   3.805   4.072   1.788
 9098SOL    HW228194   3.794   4.021   1.943
 9099SOL     OW28195   3.242   3.294   1.072
 9099SOL    HW128196   3.333   3.257   1.093
 9099SOL    HW228197   3.217   3.269   0.978
 9100SOL     OW28198   0.568   2.808   1.631
 9100SOL    HW128199   0.529   2.871   1.699
 9100SOL    HW228200   0.656   2.775   1.663
 9101SOL     OW28201   2.189   3.006   2.935
 9101SOL    HW128202   2.207   2.934   2.868
 9101SOL    HW228203   2.157   3.088   2.888
 9102SOL     OW28204   3.757   5.651   2.721
 9102SOL    HW128205   3.767   5.704   2.806
 9102SOL    HW228206   3.717   5.710   2.650
 9103SOL     OW28207   0.310   3.671   0.775
 9103SOL    HW128208   0.373   3.613   0.723
 9103SOL    HW228209   0.216   3.642   0.758
 9104SOL     OW28210   3.755   6.094   1.940
 9104SOL    HW128211   3.768   6.173   2.000
 9104SOL    HW228212   3.760   6.122   1.845
 9105SOL     OW28213   1.645   0.709   6.670
 9105SOL    HW128214   1.681   0.800   6.689
 9105SOL    HW228215   1.597   0.710   6.582
 9106SOL     OW28216   6.004   4.422   0.521
 9106SOL    HW128217   6.027   4.345   0.462
 9106SOL    HW228218   5.967   4.388   0.608
 9107SOL     OW28219   4.364   6.907   6.902
 9107SOL    HW128220   4.417   6.973   6.848
 9107SOL    HW228221   4.294   6.866   6.844
 9108SOL     OW28222   4.796   4.454   5.152
 9108SOL    HW128223   4.865   4.382   5.155
 9108SOL    HW228224   4.837   4.539   5.118
 9109SOL     OW28225   2.004   1.991   3.232
 9109SOL    HW128226   2.004   1.965   3.135
 9109SOL    HW228227   2.097   2.012   3.260
 9110SOL     OW28228   2.535   4.608   3.801
 9110SOL    HW128229   2.512   4.575   3.709
 9110SOL    HW228230   2.490   4.696   3.816
 9111SOL     OW28231   3.727   3.929   1.155
 9111SOL    HW128232   3.721   3.829   1.156
 9111SOL    HW228233   3.822   3.957   1.145
 9112SOL     OW28234   0.432   3.854   3.400
 9112SOL    HW128235   0.447   3.840   3.302
 9112SOL    HW228236   0.500   3.803   3.452
 9113SOL     OW28237   4.453   0.839   0.105
 9113SOL    HW128238   4.524   0.857   0.173
 9113SOL    HW228239   4.369   0.885   0.132
 9114SOL     OW28240   1.979   4.983   2.475
 9114SOL    HW128241   2.048   5.044   2.435
 9114SOL    HW228242   2.018   4.937   2.555
 9115SOL     OW28243   1.239   5.183   4.946
 9115SOL    HW128244   1.204   5.269   4.982
 9115SOL    HW228245   1.311   5.201   4.879
 9116SOL     OW28246   6.888   1.899   7.019
 9116SOL    HW128247   6.875   1.920   6.922
 9116SOL    HW228248   6.815   1.838   0.027
 9117SOL     OW28249   6.073   3.261   6.755
 9117SOL    HW128250   5.979   3.229   6.751
 9117SOL    HW228251   6.123   3.213   6.827
 9118SOL     OW28252   5.674   6.745   0.599
 9118SOL    HW128253   5.690   6.730   0.696
 9118SOL    HW228254   5.625   6.667   0.560
 9119SOL     OW28255   5.775   1.488   2.594
 9119SOL    HW128256   5.844   1.462   2.527
 9119SOL    HW228257   5.753   1.410   2.651
 9120SOL     OW28258   5.848   2.878   5.888
 9120SOL    HW128259   5.907   2.812   5.842
 9120SOL    HW228260   5.752   2.852   5.876
 9121SOL     OW28261   0.895   3.270   5.692
 9121SOL    HW128262   0.930   3.296   5.783
 9121SOL    HW228263   0.953   3.196   5.655
 9122SOL     OW28264   2.127   2.459   1.598
 9122SOL    HW128265   2.045   2.471   1.541
 9122SOL    HW228266   2.108   2.490   1.691
 9123SOL     OW28267   3.575   7.011   5.249
 9123SOL    HW128268   3.533   0.026   5.167
 9123SOL    HW228269   3.629   6.930   5.225
 9124SOL     OW28270   5.608   6.059   5.643
 9124SOL    HW128271   5.621   5.963   5.667
 9124SOL    HW228272   5.696   6.100   5.618
 9125SOL     OW28273   4.456   4.625   4.005
 9125SOL    HW128274   4.483   4.572   3.925
 9125SOL    HW228275   4.503   4.713   4.004
 9126SOL     OW28276   5.941   1.400   2.405
 9126SOL    HW128277   5.884   1.380   2.325
 9126SOL    HW228278   6.037   1.395   2.380
 9127SOL     OW28279   6.118   0.403   5.667
 9127SOL    HW128280   6.213   0.380   5.686
 9127SOL    HW228281   6.064   0.319   5.661
 9128SOL     OW28282   3.727   1.981   5.210
 9128SOL    HW128283   3.653   1.920   5.183
 9128SOL    HW228284   3.755   1.962   5.304
 9129SOL     OW28285   1.841   3.560   0.824
 9129SOL    HW128286   1.939   3.576   0.824
 9129SOL    HW228287   1.806   3.569   0.917
 9130SOL     OW28288   0.005   4.185   0.022
 9130SOL    HW128289   0.021   4.219   6.952
 9130SOL    HW228290   0.062   4.236   0.086
 9131SOL     OW28291   0.353   4.277   4.868
 9131SOL    HW128292   0.368   4.281   4.967
 9131SOL    HW228293   0.275   4.216   4.849
 9132SOL     OW28294   0.213   4.449   3.920
 9132SOL    HW128295   0.159   4.379   3.872
 9132SOL    HW228296   0.218   4.426   4.017
 9133SOL     OW28297   3.217   5.457   0.800
 9133SOL    HW128298   3.161   5.378   0.775
 9133SOL    HW228299   3.249   5.447   0.894
 9134SOL     OW28300   3.389   0.136   1.099
 9134SOL    HW128301   3.322   0.210   1.089
 9134SOL    HW228302   3.455   0.140   1.024
 9135SOL     OW28303   0.046   6.364   1.727
 9135SOL    HW128304   0.076   6.446   1.777
 9135SOL    HW228305   0.006   6.392   1.639
 9136SOL     OW28306   4.829   5.609   5.461
 9136SOL    HW128307   4.851   5.686   5.400
 9136SOL    HW228308   4.909   5.549   5.468
 9137SOL     OW28309   5.152   1.702   0.851
 9137SOL    HW128310   5.059   1.706   0.889
 9137SOL    HW228311   5.218   1.722   0.923
 9138SOL     OW28312   6.696   4.973   6.251
 9138SOL    HW128313   6.658   5.039   6.316
 9138SOL    HW228314   6.686   5.009   6.158
 9139SOL     OW28315   2.317   1.339   4.531
 9139SOL    HW128316   2.298   1.292   4.617
 9139SOL    HW228317   2.398   1.300   4.488
 9140SOL     OW28318   6.530   2.918   2.817
 9140SOL    HW128319   6.617   2.965   2.805
 9140SOL    HW228320   6.545   2.829   2.859
 9141SOL     OW28321   5.662   0.327   6.681
 9141SOL    HW128322   5.573   0.291   6.655
 9141SOL    HW228323   5.658   0.363   6.774
 9142SOL     OW28324   0.563   2.675   6.145
 9142SOL    HW128325   0.467   2.663   6.172
 9142SOL    HW228326   0.620   2.676   6.226
 9143SOL     OW28327   4.987   4.065   6.973
 9143SOL    HW128328   5.086   4.061   6.986
 9143SOL    HW228329   4.965   4.024   6.884
 9144SOL     OW28330   2.437   5.567   6.194
 9144SOL    HW128331   2.515   5.535   6.140
 9144SOL    HW228332   2.462   5.567   6.291
 9145SOL     OW28333   6.735   5.066   1.263
 9145SOL    HW128334   6.803   4.998   1.290
 9145SOL    HW228335   6.742   5.146   1.323
 9146SOL     OW28336   5.094   1.827   1.853
 9146SOL    HW128337   5.128   1.880   1.775
 9146SOL    HW228338   5.033   1.755   1.820
 9147SOL     OW28339   5.911   0.059   4.157
 9147SOL    HW128340   5.892   0.018   4.068
 9147SOL    HW228341   5.861   0.011   4.228
 9148SOL     OW28342   5.547   0.148   0.869
 9148SOL    HW128343   5.528   0.113   0.777
 9148SOL    HW228344   5.481   0.220   0.892
 9149SOL     OW28345   5.055   2.815   3.793
 9149SOL    HW128346   5.131   2.837   3.733
 9149SOL    HW228347   5.087   2.755   3.866
 9150SOL     OW28348   3.549   5.213   3.500
 9150SOL    HW128349   3.507   5.123   3.497
 9150SOL    HW228350   3.639   5.207   3.545
 9151SOL     OW28351   1.304   4.100   3.186
 9151SOL    HW128352   1.269   4.040   3.259
 9151SOL    HW228353   1.230   4.156   3.151
 9152SOL     OW28354   3.067   5.451   4.727
 9152SOL    HW128355   3.103   5.491   4.643
 9152SOL    HW228356   3.068   5.351   4.719
 9153SOL     OW28357   1.594   3.390   1.253
 9153SOL    HW128358   1.643   3.355   1.333
 9153SOL    HW228359   1.528   3.322   1.222
 9154SOL     OW28360   3.002   4.992   0.206
 9154SOL    HW128361   3.012   4.916   0.142
 9154SOL    HW228362   3.083   5.051   0.202
 9155SOL     OW28363   2.047   3.143   0.630
 9155SOL    HW128364   1.953   3.136   0.595
 9155SOL    HW228365   2.051   3.213   0.701
 9156SOL     OW28366   3.010   2.765   1.130
 9156SOL    HW128367   2.944   2.727   1.195
 9156SOL    HW228368   2.963   2.827   1.067
 9157SOL     OW28369   6.081   4.927   6.301
 9157SOL    HW128370   6.000   4.949   6.356
 9157SOL    HW228371   6.114   4.836   6.324
 9158SOL     OW28372   5.840   3.402   4.777
 9158SOL    HW128373   5.936   3.386   4.753
 9158SOL    HW228374   5.827   3.499   4.799
 9159SOL     OW28375   1.088   6.930   3.570
 9159SOL    HW128376   1.065   6.996   3.499
 9159SOL    HW228377   1.003   6.893   3.609
 9160SOL     OW28378   6.481   0.455   5.135
 9160SOL    HW128379   6.536   0.512   5.074
 9160SOL    HW228380   6.535   0.376   5.165
 9161SOL     OW28381   4.707   4.288   4.440
 9161SOL    HW128382   4.646   4.364   4.464
 9161SOL    HW228383   4.736   4.297   4.345
 9162SOL     OW28384   4.876   1.463   3.795
 9162SOL    HW128385   4.796   1.404   3.790
 9162SOL    HW228386   4.891   1.508   3.707
 9163SOL     OW28387   2.107   3.461   4.085
 9163SOL    HW128388   2.078   3.469   4.180
 9163SOL    HW228389   2.125   3.553   4.048
 9164SOL     OW28390   2.804   0.244   0.138
 9164SOL    HW128391   2.762   0.245   0.047
 9164SOL    HW228392   2.893   0.198   0.133
 9165SOL     OW28393   5.716   1.612   5.374
 9165SOL    HW128394   5.805   1.596   5.331
 9165SOL    HW228395   5.650   1.545   5.340
 9166SOL     OW28396   4.530   6.011   0.867
 9166SOL    HW128397   4.473   6.087   0.835
 9166SOL    HW228398   4.523   6.005   0.967
 9167SOL     OW28399   1.502   2.746   6.679
 9167SOL    HW128400   1.595   2.758   6.643
 9167SOL    HW228401   1.507   2.700   6.768
 9168SOL     OW28402   0.677   0.403   6.085
 9168SOL    HW128403   0.644   0.497   6.078
 9168SOL    HW228404   0.775   0.400   6.062
 9169SOL     OW28405   6.387   1.521   5.089
 9169SOL    HW128406   6.408   1.587   5.161
 9169SOL    HW228407   6.407   1.428   5.121
 9170SOL     OW28408   0.698   4.934   0.673
 9170SOL    HW128409   0.749   4.897   0.595
 9170SOL    HW228410   0.743   4.905   0.758
 9171SOL     OW28411   3.448   5.138   1.306
 9171SOL    HW128412   3.394   5.204   1.358
 9171SOL    HW228413   3.408   5.124   1.216
 9172SOL     OW28414   3.465   0.253   4.965
 9172SOL    HW128415   3.499   0.342   4.994
 9172SOL    HW228416   3.375   0.237   5.007
 9173SOL     OW28417   5.921   4.312   4.808
 9173SOL    HW128418   5.844   4.281   4.753
 9173SOL    HW228419   5.966   4.388   4.762
 9174SOL     OW28420   5.845   4.825   1.222
 9174SOL    HW128421   5.828   4.788   1.131
 9174SOL    HW228422   5.821   4.757   1.291
 9175SOL     OW28423   1.285   6.699   4.580
 9175SOL    HW128424   1.298   6.644   4.497
 9175SOL    HW228425   1.208   6.761   4.567
 9176SOL     OW28426   2.929   0.794   4.720
 9176SOL    HW128427   2.926   0.694   4.727
 9176SOL    HW228428   2.896   0.834   4.806
 9177SOL     OW28429   1.579   4.439   4.971
 9177SOL    HW128430   1.631   4.523   4.987
 9177SOL    HW228431   1.549   4.401   5.059
 9178SOL     OW28432   2.207   5.701   0.009
 9178SOL    HW128433   2.237   5.797   0.006
 9178SOL    HW228434   2.286   5.641   0.000
 9179SOL     OW28435   3.343   5.383   3.764
 9179SOL    HW128436   3.340   5.284   3.762
 9179SOL    HW228437   3.428   5.414   3.807
 9180SOL     OW28438   5.609   2.098   3.236
 9180SOL    HW128439   5.518   2.085   3.197
 9180SOL    HW228440   5.662   2.158   3.177
 9181SOL     OW28441   3.691   2.040   4.018
 9181SOL    HW128442   3.753   2.091   4.077
 9181SOL    HW228443   3.597   2.054   4.048
 9182SOL     OW28444   2.154   6.432   2.384
 9182SOL    HW128445   2.105   6.519   2.395
 9182SOL    HW228446   2.123   6.368   2.454
 9183SOL     OW28447   5.375   6.752   0.542
 9183SOL    HW128448   5.316   6.781   0.467
 9183SOL    HW228449   5.462   6.801   0.537
 9184SOL     OW28450   5.226   2.072   0.120
 9184SOL    HW128451   5.171   2.000   0.163
 9184SOL    HW228452   5.176   2.159   0.124
 9185SOL     OW28453   3.985   0.100   5.080
 9185SOL    HW128454   4.074   0.059   5.060
 9185SOL    HW228455   3.916   0.064   5.017
 9186SOL     OW28456   5.804   0.306   3.829
 9186SOL    HW128457   5.750   0.308   3.744
 9186SOL    HW228458   5.742   0.294   3.907
 9187SOL     OW28459   2.610   1.295   1.015
 9187SOL    HW128460   2.553   1.377   1.015
 9187SOL    HW228461   2.705   1.322   0.996
 9188SOL     OW28462   1.839   6.522   1.791
 9188SOL    HW128463   1.917   6.517   1.728
 9188SOL    HW228464   1.869   6.557   1.879
 9189SOL     OW28465   4.675   5.661   0.831
 9189SOL    HW128466   4.580   5.628   0.838
 9189SOL    HW228467   4.731   5.591   0.786
 9190SOL     OW28468   1.919   4.177   0.084
 9190SOL    HW128469   1.892   4.094   0.036
 9190SOL    HW228470   1.883   4.174   0.178
 9191SOL     OW28471   6.032   1.105   5.853
 9191SOL    HW128472   5.965   1.140   5.788
 9191SOL    HW228473   6.109   1.065   5.804
 9192SOL     OW28474   0.720   3.920   6.034
 9192SOL    HW128475   0.655   3.996   6.025
 9192SOL    HW228476   0.812   3.956   6.050
 9193SOL     OW28477   4.433   4.070   0.334
 9193SOL    HW128478   4.487   4.014   0.398
 9193SOL    HW228479   4.463   4.165   0.340
 9194SOL     OW28480   2.905   0.370   3.246
 9194SOL    HW128481   2.858   0.454   3.219
 9194SOL    HW228482   2.865   0.293   3.197
 9195SOL     OW28483   1.975   2.185   4.405
 9195SOL    HW128484   2.063   2.139   4.389
 9195SOL    HW228485   1.913   2.122   4.451
 9196SOL     OW28486   4.356   0.284   4.003
 9196SOL    HW128487   4.295   0.232   3.942
 9196SOL    HW228488   4.365   0.235   4.089
 9197SOL     OW28489   2.162   4.717   2.351
 9197SOL    HW128490   2.169   4.706   2.450
 9197SOL    HW228491   2.221   4.651   2.305
 9198SOL     OW28492   6.653   4.957   6.554
 9198SOL    HW128493   6.751   4.948   6.536
 9198SOL    HW228494   6.601   4.908   6.484
 9199SOL     OW28495   1.610   3.837   5.688
 9199SOL    HW128496   1.703   3.802   5.696
 9199SOL    HW228497   1.610   3.935   5.708
 9200SOL     OW28498   2.960   0.084   0.884
 9200SOL    HW128499   3.013   0.048   0.807
 9200SOL    HW228500   2.880   0.133   0.850
 9201SOL     OW28501   0.293   2.798   0.309
 9201SOL    HW128502   0.246   2.762   0.389
 9201SOL    HW228503   0.304   2.897   0.318
 9202SOL     OW28504   1.574   6.411   2.728
 9202SOL    HW128505   1.482   6.403   2.767
 9202SOL    HW228506   1.636   6.351   2.779
 9203SOL     OW28507   0.562   5.035   7.001
 9203SOL    HW128508   0.598   4.960   0.033
 9203SOL    HW228509   0.570   5.120   0.029
 9204SOL     OW28510   4.146   2.999   6.105
 9204SOL    HW128511   4.150   2.900   6.099
 9204SOL    HW228512   4.235   3.038   6.083
 9205SOL     OW28513   6.183   4.649   2.484
 9205SOL    HW128514   6.103   4.673   2.428
 9205SOL    HW228515   6.163   4.566   2.537
 9206SOL     OW28516   4.226   5.307   1.920
 9206SOL    HW128517   4.204   5.221   1.967
 9206SOL    HW228518   4.157   5.376   1.943
 9207SOL     OW28519   4.600   5.313   6.342
 9207SOL    HW128520   4.564   5.256   6.416
 9207SOL    HW228521   4.525   5.362   6.298
 9208SOL     OW28522   6.113   4.050   4.078
 9208SOL    HW128523   6.075   3.988   4.010
 9208SOL    HW228524   6.192   4.097   4.039
 9209SOL     OW28525   3.129   0.472   6.901
 9209SOL    HW128526   3.042   0.521   6.891
 9209SOL    HW228527   3.199   0.518   6.846
 9210SOL     OW28528   0.192   0.723   2.984
 9210SOL    HW128529   0.200   0.822   2.971
 9210SOL    HW228530   0.158   0.705   3.076
 9211SOL     OW28531   6.931   2.900   5.001
 9211SOL    HW128532   6.832   2.900   5.016
 9211SOL    HW228533   6.950   2.874   4.906
 9212SOL     OW28534   4.614   5.391   4.753
 9212SOL    HW128535   4.541   5.417   4.689
 9212SOL    HW228536   4.698   5.440   4.729
 9213SOL     OW28537   5.415   3.828   5.720
 9213SOL    HW128538   5.350   3.827   5.796
 9213SOL    HW228539   5.442   3.734   5.699
 9214SOL     OW28540   0.182   4.917   5.810
 9214SOL    HW128541   0.174   4.895   5.908
 9214SOL    HW228542   0.160   5.014   5.796
 9215SOL     OW28543   1.254   2.189   0.185
 9215SOL    HW128544   1.233   2.152   0.094
 9215SOL    HW228545   1.270   2.113   0.248
 9216SOL     OW28546   2.672   0.281   2.510
 9216SOL    HW128547   2.583   0.313   2.543
 9216SOL    HW228548   2.729   0.254   2.588
 9217SOL     OW28549   0.451   1.332   6.477
 9217SOL    HW128550   0.502   1.297   6.399
 9217SOL    HW228551   0.385   1.264   6.508
 9218SOL     OW28552   2.781   6.684   0.877
 9218SOL    HW128553   2.853   6.619   0.900
 9218SOL    HW228554   2.803   6.773   0.916
 9219SOL     OW28555   0.011   2.598   1.612
 9219SOL    HW128556   0.057   2.582   1.700
 9219SOL    HW228557   0.077   2.586   1.538
 9220SOL     OW28558   1.849   6.558   0.673
 9220SOL    HW128559   1.923   6.614   0.711
 9220SOL    HW228560   1.843   6.473   0.725
 9221SOL     OW28561   2.753   1.117   4.359
 9221SOL    HW128562   2.653   1.111   4.357
 9221SOL    HW228563   2.792   1.060   4.287
 9222SOL     OW28564   2.281   6.864   6.500
 9222SOL    HW128565   2.204   6.815   6.539
 9222SOL    HW228566   2.337   6.903   6.573
 9223SOL     OW28567   1.817   1.509   3.821
 9223SOL    HW128568   1.844   1.417   3.850
 9223SOL    HW228569   1.820   1.571   3.900
 9224SOL     OW28570   2.195   5.131   4.985
 9224SOL    HW128571   2.230   5.068   5.055
 9224SOL    HW228572   2.251   5.214   4.984
 9225SOL     OW28573   3.588   6.428   6.279
 9225SOL    HW128574   3.570   6.458   6.185
 9225SOL    HW228575   3.653   6.491   6.322
 9226SOL     OW28576   5.423   6.794   1.688
 9226SOL    HW128577   5.336   6.749   1.707
 9226SOL    HW228578   5.457   6.839   1.771
 9227SOL     OW28579   0.991   5.054   1.312
 9227SOL    HW128580   1.050   4.987   1.266
 9227SOL    HW228581   1.006   5.049   1.411
 9228SOL     OW28582   1.928   1.112   5.976
 9228SOL    HW128583   1.909   1.076   6.068
 9228SOL    HW228584   1.947   1.210   5.981
 9229SOL     OW28585   1.426   5.261   4.772
 9229SOL    HW128586   1.367   5.265   4.691
 9229SOL    HW228587   1.508   5.208   4.751
 9230SOL     OW28588   5.892   1.184   3.378
 9230SOL    HW128589   5.955   1.225   3.444
 9230SOL    HW228590   5.856   1.098   3.414
 9231SOL     OW28591   1.105   4.940   4.924
 9231SOL    HW128592   1.154   5.026   4.909
 9231SOL    HW228593   1.097   4.922   5.022
 9232SOL     OW28594   3.578   5.180   0.097
 9232SOL    HW128595   3.633   5.097   0.092
 9232SOL    HW228596   3.560   5.202   0.193
 9233SOL     OW28597   5.467   5.017   1.735
 9233SOL    HW128598   5.434   5.066   1.816
 9233SOL    HW228599   5.473   5.081   1.658
 9234SOL     OW28600   3.443   5.436   5.203
 9234SOL    HW128601   3.466   5.533   5.201
 9234SOL    HW228602   3.431   5.406   5.297
 9235SOL     OW28603   1.036   2.793   3.692
 9235SOL    HW128604   1.115   2.842   3.727
 9235SOL    HW228605   1.065   2.708   3.650
 9236SOL     OW28606   3.092   4.136   5.595
 9236SOL    HW128607   3.153   4.099   5.525
 9236SOL    HW228608   2.998   4.108   5.575
 9237SOL     OW28609   1.968   5.260   4.914
 9237SOL    HW128610   2.045   5.196   4.919
 9237SOL    HW228611   1.975   5.325   4.990
 9238SOL     OW28612   3.883   1.634   6.546
 9238SOL    HW128613   3.800   1.670   6.589
 9238SOL    HW228614   3.860   1.595   6.456
 9239SOL     OW28615   0.456   4.008   0.460
 9239SOL    HW128616   0.502   4.026   0.547
 9239SOL    HW228617   0.523   3.978   0.392
 9240SOL     OW28618   5.025   1.930   0.463
 9240SOL    HW128619   5.040   1.987   0.543
 9240SOL    HW228620   4.955   1.861   0.483
 9241SOL     OW28621   0.788   5.063   6.130
 9241SOL    HW128622   0.759   4.982   6.182
 9241SOL    HW228623   0.835   5.126   6.191
 9242SOL     OW28624   7.004   5.293   0.625
 9242SOL    HW128625   6.960   5.380   0.602
 9242SOL    HW228626   0.070   5.287   0.579
 9243SOL     OW28627   5.394   6.933   2.600
 9243SOL    HW128628   5.318   6.990   2.628
 9243SOL    HW228629   5.462   6.989   2.553
 9244SOL     OW28630   4.586   5.102   6.169
 9244SOL    HW128631   4.593   5.176   6.236
 9244SOL    HW228632   4.665   5.105   6.108
 9245SOL     OW28633   1.835   5.340   3.774
 9245SOL    HW128634   1.807   5.407   3.705
 9245SOL    HW228635   1.825   5.248   3.736
 9246SOL     OW28636   0.163   4.467   3.059
 9246SOL    HW128637   0.173   4.369   3.039
 9246SOL    HW228638   0.069   4.484   3.091
 9247SOL     OW28639   1.469   0.115   3.458
 9247SOL    HW128640   1.430   0.170   3.384
 9247SOL    HW228641   1.397   0.061   3.501
 9248SOL     OW28642   1.881   2.898   6.276
 9248SOL    HW128643   1.848   2.975   6.330
 9248SOL    HW228644   1.963   2.859   6.320
 9249SOL     OW28645   4.802   3.327   6.338
 9249SOL    HW128646   4.893   3.326   6.298
 9249SOL    HW228647   4.809   3.308   6.436
 9250SOL     OW28648   5.333   3.358   4.823
 9250SOL    HW128649   5.282   3.274   4.804
 9250SOL    HW228650   5.431   3.340   4.819
 9251SOL     OW28651   3.926   2.073   3.086
 9251SOL    HW128652   3.988   2.146   3.061
 9251SOL    HW228653   3.849   2.070   3.022
 9252SOL     OW28654   6.300   0.224   3.797
 9252SOL    HW128655   6.374   0.286   3.823
 9252SOL    HW228656   6.213   0.273   3.796
 9253SOL     OW28657   5.516   6.360   6.401
 9253SOL    HW128658   5.558   6.271   6.420
 9253SOL    HW228659   5.439   6.374   6.464
 9254SOL     OW28660   6.287   4.414   2.220
 9254SOL    HW128661   6.294   4.335   2.159
 9254SOL    HW228662   6.221   4.394   2.293
 9255SOL     OW28663   5.129   3.795   0.553
 9255SOL    HW128664   5.112   3.892   0.536
 9255SOL    HW228665   5.201   3.762   0.493
 9256SOL     OW28666   4.071   5.184   2.868
 9256SOL    HW128667   3.988   5.167   2.815
 9256SOL    HW228668   4.057   5.262   2.928
 9257SOL     OW28669   0.908   3.330   2.373
 9257SOL    HW128670   0.964   3.247   2.366
 9257SOL    HW228671   0.909   3.378   2.285
 9258SOL     OW28672   3.928   2.982   3.409
 9258SOL    HW128673   3.839   2.969   3.452
 9258SOL    HW228674   3.931   2.934   3.321
 9259SOL     OW28675   1.572   1.923   0.858
 9259SOL    HW128676   1.472   1.920   0.856
 9259SOL    HW228677   1.601   2.011   0.893
 9260SOL     OW28678   5.064   1.529   5.303
 9260SOL    HW128679   4.966   1.548   5.309
 9260SOL    HW228680   5.077   1.438   5.263
 9261SOL     OW28681   4.959   0.901   6.458
 9261SOL    HW128682   4.874   0.862   6.422
 9261SOL    HW228683   4.983   0.983   6.407
 9262SOL     OW28684   6.671   3.417   5.392
 9262SOL    HW128685   6.757   3.468   5.387
 9262SOL    HW228686   6.595   3.480   5.405
 9263SOL     OW28687   6.186   4.523   1.345
 9263SOL    HW128688   6.286   4.523   1.344
 9263SOL    HW228689   6.154   4.541   1.438
 9264SOL     OW28690   5.405   4.430   0.338
 9264SOL    HW128691   5.443   4.392   0.422
 9264SOL    HW228692   5.308   4.405   0.331
 9265SOL     OW28693   2.548   1.752   0.223
 9265SOL    HW128694   2.571   1.666   0.269
 9265SOL    HW228695   2.584   1.828   0.276
 9266SOL     OW28696   2.094   6.205   2.532
 9266SOL    HW128697   2.131   6.158   2.612
 9266SOL    HW228698   2.051   6.139   2.470
 9267SOL     OW28699   7.006   4.675   5.800
 9267SOL    HW128700   6.996   4.604   5.729
 9267SOL    HW228701   0.033   4.753   5.762
 9268SOL     OW28702   1.596   5.688   0.983
 9268SOL    HW128703   1.517   5.643   0.941
 9268SOL    HW228704   1.660   5.717   0.912
 9269SOL     OW28705   3.253   2.763   5.997
 9269SOL    HW128706   3.220   2.673   5.968
 9269SOL    HW228707   3.176   2.817   6.032
 9270SOL     OW28708   5.264   0.069   5.810
 9270SOL    HW128709   5.242   0.163   5.837
 9270SOL    HW228710   5.180   0.015   5.808
 9271SOL     OW28711   1.430   5.119   6.244
 9271SOL    HW128712   1.514   5.147   6.199
 9271SOL    HW228713   1.398   5.032   6.206
 9272SOL     OW28714   2.177   5.746   5.388
 9272SOL    HW128715   2.151   5.745   5.484
 9272SOL    HW228716   2.122   5.814   5.340
 9273SOL     OW28717   5.740   6.111   4.153
 9273SOL    HW128718   5.708   6.142   4.064
 9273SOL    HW228719   5.782   6.020   4.144
 9274SOL     OW28720   6.646   3.127   0.095
 9274SOL    HW128721   6.595   3.202   0.137
 9274SOL    HW228722   6.583   3.069   0.044
 9275SOL     OW28723   0.412   2.261   6.673
 9275SOL    HW128724   0.330   2.246   6.618
 9275SOL    HW228725   0.412   2.199   6.751
 9276SOL     OW28726   2.826   4.774   4.044
 9276SOL    HW128727   2.759   4.701   4.059
 9276SOL    HW228728   2.782   4.863   4.058
 9277SOL     OW28729   4.516   3.422   0.625
 9277SOL    HW128730   4.531   3.480   0.545
 9277SOL    HW228731   4.593   3.359   0.636
 9278SOL     OW28732   1.754   0.751   4.471
 9278SOL    HW128733   1.711   0.796   4.548
 9278SOL    HW228734   1.781   0.658   4.497
 9279SOL     OW28735   4.218   0.549   1.435
 9279SOL    HW128736   4.159   0.471   1.456
 9279SOL    HW228737   4.236   0.601   1.518
 9280SOL     OW28738   1.464   0.599   2.986
 9280SOL    HW128739   1.429   0.511   2.955
 9280SOL    HW228740   1.551   0.586   3.034
 9281SOL     OW28741   3.227   4.338   1.654
 9281SOL    HW128742   3.248   4.243   1.678
 9281SOL    HW228743   3.145   4.368   1.702
 9282SOL     OW28744   4.651   1.992   4.718
 9282SOL    HW128745   4.708   2.029   4.645
 9282SOL    HW228746   4.611   1.906   4.689
 9283SOL     OW28747   5.537   0.888   3.376
 9283SOL    HW128748   5.461   0.942   3.340
 9283SOL    HW228749   5.526   0.792   3.348
 9284SOL     OW28750   3.443   5.261   6.199
 9284SOL    HW128751   3.493   5.347   6.198
 9284SOL    HW228752   3.376   5.261   6.273
 9285SOL     OW28753   4.987   3.181   0.469
 9285SOL    HW128754   4.976   3.214   0.563
 9285SOL    HW228755   5.085   3.174   0.448
 9286SOL     OW28756   5.461   0.141   6.096
 9286SOL    HW128757   5.366   0.129   6.126
 9286SOL    HW228758   5.520   0.157   6.175
 9287SOL     OW28759   2.915   5.336   0.352
 9287SOL    HW128760   2.868   5.376   0.431
 9287SOL    HW228761   2.877   5.246   0.334
 9288SOL     OW28762   2.804   1.164   5.106
 9288SOL    HW128763   2.806   1.241   5.170
 9288SOL    HW228764   2.832   1.081   5.154
 9289SOL     OW28765   3.871   1.847   2.371
 9289SOL    HW128766   3.811   1.916   2.330
 9289SOL    HW228767   3.884   1.867   2.468
 9290SOL     OW28768   5.214   1.474   3.790
 9290SOL    HW128769   5.257   1.384   3.781
 9290SOL    HW228770   5.115   1.464   3.800
 9291SOL     OW28771   2.667   0.006   5.484
 9291SOL    HW128772   2.733   6.985   5.424
 9291SOL    HW228773   2.601   0.058   5.430
 9292SOL     OW28774   0.073   3.337   6.181
 9292SOL    HW128775   0.081   3.270   6.107
 9292SOL    HW228776   0.158   3.389   6.189
 9293SOL     OW28777   6.089   3.937   0.636
 9293SOL    HW128778   6.087   4.026   0.682
 9293SOL    HW228779   6.154   3.940   0.560
 9294SOL     OW28780   3.482   6.682   5.540
 9294SOL    HW128781   3.562   6.735   5.510
 9294SOL    HW228782   3.438   6.730   5.616
 9295SOL     OW28783   5.793   2.196   4.114
 9295SOL    HW128784   5.711   2.157   4.073
 9295SOL    HW228785   5.789   2.186   4.214
 9296SOL     OW28786   0.441   6.063   6.605
 9296SOL    HW128787   0.510   6.050   6.534
 9296SOL    HW228788   0.357   6.099   6.564
 9297SOL     OW28789   6.922   0.818   0.849
 9297SOL    HW128790   6.856   0.862   0.788
 9297SOL    HW228791   6.940   0.725   0.818
 9298SOL     OW28792   1.288   0.269   5.100
 9298SOL    HW128793   1.338   0.258   5.014
 9298SOL    HW228794   1.318   0.200   5.165
 9299SOL     OW28795   1.144   2.837   4.304
 9299SOL    HW128796   1.087   2.895   4.362
 9299SOL    HW228797   1.155   2.747   4.347
 9300SOL     OW28798   0.231   4.905   5.089
 9300SOL    HW128799   0.142   4.881   5.050
 9300SOL    HW228800   0.221   4.987   5.146
 9301SOL     OW28801   4.749   4.207   3.554
 9301SOL    HW128802   4.797   4.125   3.587
 9301SOL    HW228803   4.751   4.208   3.454
 9302SOL     OW28804   2.055   3.087   4.260
 9302SOL    HW128805   2.070   3.172   4.310
 9302SOL    HW228806   1.961   3.056   4.275
 9303SOL     OW28807   3.757   6.147   0.671
 9303SOL    HW128808   3.790   6.228   0.718
 9303SOL    HW228809   3.660   6.135   0.688
 9304SOL     OW28810   4.670   4.152   0.604
 9304SOL    HW128811   4.762   4.160   0.642
 9304SOL    HW228812   4.614   4.230   0.633
 9305SOL     OW28813   3.726   1.728   2.033
 9305SOL    HW128814   3.761   1.654   1.976
 9305SOL    HW228815   3.786   1.807   2.027
 9306SOL     OW28816   0.642   4.475   5.073
 9306SOL    HW128817   0.580   4.419   5.018
 9306SOL    HW228818   0.729   4.487   5.024
 9307SOL     OW28819   1.122   3.252   2.087
 9307SOL    HW128820   1.197   3.188   2.104
 9307SOL    HW228821   1.138   3.336   2.139
 9308SOL     OW28822   1.219   3.831   0.922
 9308SOL    HW128823   1.262   3.920   0.908
 9308SOL    HW228824   1.220   3.808   1.019
 9309SOL     OW28825   3.365   4.974   5.567
 9309SOL    HW128826   3.328   4.969   5.660
 9309SOL    HW228827   3.304   5.028   5.509
 9310SOL     OW28828   4.641   5.666   6.482
 9310SOL    HW128829   4.601   5.592   6.535
 9310SOL    HW228830   4.724   5.633   6.437
 9311SOL     OW28831   5.439   4.620   2.039
 9311SOL    HW128832   5.392   4.538   2.073
 9311SOL    HW228833   5.435   4.693   2.107
 9312SOL     OW28834   1.115   3.708   1.663
 9312SOL    HW128835   1.081   3.802   1.649
 9312SOL    HW228836   1.202   3.711   1.712
 9313SOL     OW28837   0.054   0.768   0.563
 9313SOL    HW128838   0.123   0.717   0.614
 9313SOL    HW228839   6.988   0.722   0.570
 9314SOL     OW28840   4.292   5.854   6.190
 9314SOL    HW128841   4.383   5.840   6.230
 9314SOL    HW228842   4.298   5.846   6.091
 9315SOL     OW28843   6.519   0.773   5.200
 9315SOL    HW128844   6.565   0.717   5.131
 9315SOL    HW228845   6.461   0.715   5.257
 9316SOL     OW28846   3.675   5.502   5.467
 9316SOL    HW128847   3.590   5.510   5.518
 9316SOL    HW228848   3.655   5.472   5.373
 9317SOL     OW28849   6.527   5.680   3.267
 9317SOL    HW128850   6.543   5.768   3.310
 9317SOL    HW228851   6.574   5.608   3.318
 9318SOL     OW28852   6.208   1.071   5.109
 9318SOL    HW128853   6.254   1.012   5.043
 9318SOL    HW228854   6.142   1.017   5.162
 9319SOL     OW28855   0.667   2.632   5.890
 9319SOL    HW128856   0.682   2.538   5.861
 9319SOL    HW228857   0.639   2.633   5.987
 9320SOL     OW28858   4.425   1.507   5.984
 9320SOL    HW128859   4.342   1.541   6.029
 9320SOL    HW228860   4.453   1.421   6.025
 9321SOL     OW28861   6.351   0.006   2.732
 9321SOL    HW128862   6.298   0.065   2.794
 9321SOL    HW228863   6.412   0.063   2.677
 9322SOL     OW28864   0.127   5.294   6.846
 9322SOL    HW128865   0.213   5.246   6.864
 9322SOL    HW228866   0.054   5.255   6.903
 9323SOL     OW28867   1.580   0.205   5.203
 9323SOL    HW128868   1.559   0.231   5.298
 9323SOL    HW228869   1.637   0.276   5.161
 9324SOL     OW28870   2.207   5.110   0.418
 9324SOL    HW128871   2.220   5.031   0.358
 9324SOL    HW228872   2.296   5.142   0.450
 9325SOL     OW28873   4.938   1.709   6.957
 9325SOL    HW128874   4.868   1.668   6.898
 9325SOL    HW228875   4.893   1.750   0.014
 9326SOL     OW28876   2.095   6.971   0.965
 9326SOL    HW128877   2.001   6.961   0.996
 9326SOL    HW228878   2.142   6.883   0.971
 9327SOL     OW28879   5.058   6.800   2.653
 9327SOL    HW128880   5.130   6.802   2.583
 9327SOL    HW228881   4.970   6.780   2.609
 9328SOL     OW28882   3.521   1.131   6.228
 9328SOL    HW128883   3.476   1.134   6.139
 9328SOL    HW228884   3.467   1.075   6.291
 9329SOL     OW28885   6.869   4.087   2.049
 9329SOL    HW128886   6.876   4.184   2.072
 9329SOL    HW228887   6.880   4.076   1.950
 9330SOL     OW28888   0.467   6.399   0.033
 9330SOL    HW128889   0.532   6.474   0.040
 9330SOL    HW228890   0.510   6.322   7.008
 9331SOL     OW28891   1.627   1.775   5.924
 9331SOL    HW128892   1.549   1.712   5.920
 9331SOL    HW228893   1.593   1.870   5.925
 9332SOL     OW28894   3.579   4.083   2.736
 9332SOL    HW128895   3.677   4.069   2.719
 9332SOL    HW228896   3.564   4.103   2.833
 9333SOL     OW28897   4.579   3.953   1.053
 9333SOL    HW128898   4.504   3.972   0.990
 9333SOL    HW228899   4.556   3.991   1.143
 9334SOL     OW28900   4.261   6.536   3.792
 9334SOL    HW128901   4.214   6.602   3.850
 9334SOL    HW228902   4.359   6.558   3.788
 9335SOL     OW28903   1.198   1.491   5.679
 9335SOL    HW128904   1.109   1.449   5.697
 9335SOL    HW228905   1.252   1.494   5.764
 9336SOL     OW28906   3.569   5.282   5.872
 9336SOL    HW128907   3.632   5.214   5.836
 9336SOL    HW228908   3.489   5.237   5.911
 9337SOL     OW28909   4.858   0.867   3.532
 9337SOL    HW128910   4.847   0.805   3.610
 9337SOL    HW228911   4.795   0.943   3.542
 9338SOL     OW28912   3.968   0.599   1.924
 9338SOL    HW128913   4.026   0.584   2.005
 9338SOL    HW228914   3.955   0.513   1.876
 9339SOL     OW28915   5.080   0.124   0.819
 9339SOL    HW128916   5.021   0.077   0.753
 9339SOL    HW228917   5.120   0.056   0.882
 9340SOL     OW28918   5.594   3.756   5.042
 9340SOL    HW128919   5.660   3.732   4.971
 9340SOL    HW228920   5.573   3.675   5.097
 9341SOL     OW28921   0.454   5.808   6.715
 9341SOL    HW128922   0.454   5.895   6.666
 9341SOL    HW228923   0.377   5.752   6.683
 9342SOL     OW28924   2.144   0.931   3.645
 9342SOL    HW128925   2.120   0.926   3.742
 9342SOL    HW228926   2.176   0.842   3.614
 9343SOL     OW28927   5.957   4.451   3.026
 9343SOL    HW128928   5.980   4.354   3.039
 9343SOL    HW228929   5.921   4.465   2.934
 9344SOL     OW28930   4.552   6.013   1.465
 9344SOL    HW128931   4.643   6.010   1.423
 9344SOL    HW228932   4.562   6.018   1.564
 9345SOL     OW28933   6.589   3.826   2.146
 9345SOL    HW128934   6.523   3.776   2.202
 9345SOL    HW228935   6.681   3.794   2.166
 9346SOL     OW28936   6.462   0.749   0.855
 9346SOL    HW128937   6.410   0.734   0.939
 9346SOL    HW228938   6.398   0.749   0.777
 9347SOL     OW28939   0.782   5.215   1.020
 9347SOL    HW128940   0.806   5.126   0.981
 9347SOL    HW228941   0.698   5.249   0.978
 9348SOL     OW28942   3.734   5.539   1.815
 9348SOL    HW128943   3.682   5.623   1.828
 9348SOL    HW228944   3.748   5.523   1.717
 9349SOL     OW28945   0.901   6.420   2.367
 9349SOL    HW128946   0.847   6.339   2.390
 9349SOL    HW228947   0.922   6.419   2.269
 9350SOL     OW28948   0.770   3.509   5.417
 9350SOL    HW128949   0.730   3.510   5.508
 9350SOL    HW228950   0.736   3.430   5.366
 9351SOL     OW28951   3.246   1.349   6.052
 9351SOL    HW128952   3.247   1.348   6.152
 9351SOL    HW228953   3.217   1.259   6.019
 9352SOL     OW28954   2.628   2.663   0.335
 9352SOL    HW128955   2.724   2.688   0.323
 9352SOL    HW228956   2.615   2.568   0.305
 9353SOL     OW28957   0.600   5.323   1.397
 9353SOL    HW128958   0.505   5.322   1.368
 9353SOL    HW228959   0.605   5.350   1.493
 9354SOL     OW28960   6.667   2.251   6.810
 9354SOL    HW128961   6.639   2.272   6.717
 9354SOL    HW228962   6.587   2.233   6.866
 9355SOL     OW28963   0.434   2.408   4.902
 9355SOL    HW128964   0.492   2.329   4.925
 9355SOL    HW228965   0.460   2.486   4.958
 9356SOL     OW28966   3.773   0.201   0.879
 9356SOL    HW128967   3.736   0.213   0.971
 9356SOL    HW228968   3.815   0.110   0.872
 9357SOL     OW28969   1.494   3.403   5.968
 9357SOL    HW128970   1.443   3.416   5.883
 9357SOL    HW228971   1.587   3.374   5.946
 9358SOL     OW28972   0.110   3.991   2.112
 9358SOL    HW128973   0.115   4.008   2.210
 9358SOL    HW228974   0.017   4.010   2.080
 9359SOL     OW28975   1.813   4.181   6.467
 9359SOL    HW128976   1.906   4.218   6.464
 9359SOL    HW228977   1.782   4.173   6.562
 9360SOL     OW28978   1.535   6.165   6.321
 9360SOL    HW128979   1.555   6.107   6.401
 9360SOL    HW228980   1.491   6.109   6.250
 9361SOL     OW28981   1.998   5.526   3.261
 9361SOL    HW128982   2.085   5.548   3.217
 9361SOL    HW228983   1.958   5.609   3.301
 9362SOL     OW28984   1.500   1.725   2.223
 9362SOL    HW128985   1.513   1.667   2.303
 9362SOL    HW228986   1.440   1.802   2.246
 9363SOL     OW28987   3.491   5.578   1.477
 9363SOL    HW128988   3.525   5.652   1.535
 9363SOL    HW228989   3.460   5.616   1.390
 9364SOL     OW28990   2.535   1.702   1.410
 9364SOL    HW128991   2.576   1.785   1.448
 9364SOL    HW228992   2.576   1.622   1.455
 9365SOL     OW28993   2.938   2.261   3.819
 9365SOL    HW128994   2.866   2.277   3.886
 9365SOL    HW228995   3.027   2.261   3.864
 9366SOL     OW28996   3.245   5.904   0.236
 9366SOL    HW128997   3.252   5.805   0.251
 9366SOL    HW228998   3.172   5.923   0.171
 9367SOL     OW28999   5.917   6.787   1.271
 9367SOL    HW129000   5.976   6.812   1.194
 9367SOL    HW229001   5.861   6.866   1.298
 9368SOL     OW29002   3.713   6.687   2.505
 9368SOL    HW129003   3.802   6.728   2.487
 9368SOL    HW229004   3.655   6.698   2.424
 9369SOL     OW29005   0.363   6.026   4.932
 9369SOL    HW129006   0.321   6.036   5.022
 9369SOL    HW229007   0.457   5.993   4.943
 9370SOL     OW29008   5.121   1.206   3.404
 9370SOL    HW129009   5.177   1.271   3.456
 9370SOL    HW229010   5.044   1.177   3.460
 9371SOL     OW29011   3.174   5.648   1.104
 9371SOL    HW129012   3.263   5.618   1.070
 9371SOL    HW229013   3.159   5.744   1.078
 9372SOL     OW29014   4.062   6.781   1.884
 9372SOL    HW129015   4.124   6.740   1.817
 9372SOL    HW229016   3.984   6.822   1.837
 9373SOL     OW29017   6.161   2.719   0.606
 9373SOL    HW129018   6.167   2.713   0.507
 9373SOL    HW229019   6.078   2.674   0.638
 9374SOL     OW29020   0.429   3.810   6.074
 9374SOL    HW129021   0.527   3.801   6.093
 9374SOL    HW229022   0.408   3.904   6.048
 9375SOL     OW29023   0.039   1.869   0.725
 9375SOL    HW129024   0.105   1.797   0.745
 9375SOL    HW229025   7.008   1.889   0.807
 9376SOL     OW29026   2.093   3.238   2.188
 9376SOL    HW129027   2.087   3.143   2.157
 9376SOL    HW229028   2.148   3.290   2.123
 9377SOL     OW29029   3.083   5.276   3.053
 9377SOL    HW129030   3.075   5.375   3.038
 9377SOL    HW229031   2.992   5.238   3.073
 9378SOL     OW29032   3.616   1.272   3.706
 9378SOL    HW129033   3.598   1.183   3.664
 9378SOL    HW229034   3.549   1.338   3.674
 9379SOL     OW29035   4.555   0.087   4.535
 9379SOL    HW129036   4.647   0.118   4.557
 9379SOL    HW229037   4.508   0.059   4.619
 9380SOL     OW29038   3.328   5.859   5.733
 9380SOL    HW129039   3.324   5.784   5.799
 9380SOL    HW229040   3.408   5.847   5.674
 9381SOL     OW29041   5.332   2.009   4.312
 9381SOL    HW129042   5.269   1.953   4.366
 9381SOL    HW229043   5.347   2.096   4.359
 9382SOL     OW29044   3.971   0.677   4.074
 9382SOL    HW129045   4.039   0.638   4.011
 9382SOL    HW229046   3.889   0.703   4.022
 9383SOL     OW29047   4.658   4.257   4.118
 9383SOL    HW129048   4.736   4.195   4.118
 9383SOL    HW229049   4.628   4.273   4.023
 9384SOL     OW29050   2.292   6.908   1.751
 9384SOL    HW129051   2.302   6.893   1.850
 9384SOL    HW229052   2.266   6.822   1.707
 9385SOL     OW29053   3.856   1.909   4.274
 9385SOL    HW129054   3.956   1.915   4.273
 9385SOL    HW229055   3.828   1.819   4.239
 9386SOL     OW29056   3.325   6.122   5.554
 9386SOL    HW129057   3.339   6.028   5.583
 9386SOL    HW229058   3.243   6.127   5.497
 9387SOL     OW29059   3.586   1.873   0.063
 9387SOL    HW129060   3.596   1.778   0.033
 9387SOL    HW229061   3.644   1.888   0.143
 9388SOL     OW29062   1.507   6.457   4.133
 9388SOL    HW129063   1.561   6.378   4.104
 9388SOL    HW229064   1.567   6.525   4.175
 9389SOL     OW29065   3.033   5.409   2.346
 9389SOL    HW129066   3.008   5.312   2.351
 9389SOL    HW229067   2.967   5.463   2.397
 9390SOL     OW29068   5.400   4.621   5.810
 9390SOL    HW129069   5.465   4.568   5.756
 9390SOL    HW229070   5.420   4.610   5.907
 9391SOL     OW29071   0.550   0.310   5.046
 9391SOL    HW129072   0.486   0.340   5.118
 9391SOL    HW229073   0.542   0.211   5.034
 9392SOL     OW29074   4.805   4.489   3.527
 9392SOL    HW129075   4.779   4.393   3.536
 9392SOL    HW229076   4.724   4.544   3.511
 9393SOL     OW29077   3.353   6.096   6.113
 9393SOL    HW129078   3.347   6.194   6.098
 9393SOL    HW229079   3.436   6.074   6.164
 9394SOL     OW29080   5.240   0.826   1.459
 9394SOL    HW129081   5.180   0.892   1.413
 9394SOL    HW229082   5.193   0.790   1.540
 9395SOL     OW29083   2.417   1.838   0.735
 9395SOL    HW129084   2.400   1.750   0.779
 9395SOL    HW229085   2.348   1.904   0.766
 9396SOL     OW29086   1.895   6.088   5.860
 9396SOL    HW129087   1.809   6.114   5.904
 9396SOL    HW229088   1.963   6.066   5.930
 9397SOL     OW29089   3.506   6.670   6.489
 9397SOL    HW129090   3.570   6.651   6.415
 9397SOL    HW229091   3.507   6.595   6.555
 9398SOL     OW29092   6.106   1.464   6.184
 9398SOL    HW129093   6.073   1.376   6.218
 9398SOL    HW229094   6.039   1.502   6.120
 9399SOL     OW29095   1.221   2.441   3.921
 9399SOL    HW129096   1.202   2.471   4.015
 9399SOL    HW229097   1.267   2.353   3.923
 9400SOL     OW29098   5.010   1.537   0.395
 9400SOL    HW129099   4.966   1.622   0.366
 9400SOL    HW229100   5.038   1.485   0.314
 9401SOL     OW29101   0.458   3.185   2.227
 9401SOL    HW129102   0.526   3.185   2.300
 9401SOL    HW229103   0.436   3.091   2.203
 9402SOL     OW29104   1.853   5.669   3.739
 9402SOL    HW129105   1.845   5.766   3.763
 9402SOL    HW229106   1.874   5.616   3.822
 9403SOL     OW29107   0.084   1.065   2.016
 9403SOL    HW129108   0.060   1.146   2.071
 9403SOL    HW229109   0.014   0.995   2.028
 9404SOL     OW29110   0.979   3.103   1.749
 9404SOL    HW129111   0.968   3.162   1.830
 9404SOL    HW229112   0.890   3.093   1.704
 9405SOL     OW29113   0.434   4.743   4.942
 9405SOL    HW129114   0.368   4.702   4.880
 9405SOL    HW229115   0.386   4.783   5.020
 9406SOL     OW29116   0.676   2.951   6.567
 9406SOL    HW129117   0.640   3.012   6.497
 9406SOL    HW229118   0.657   2.856   6.541
 9407SOL     OW29119   2.877   5.220   5.016
 9407SOL    HW129120   2.850   5.138   5.066
 9407SOL    HW229121   2.851   5.210   4.920
 9408SOL     OW29122   6.607   3.691   5.602
 9408SOL    HW129123   6.591   3.723   5.696
 9408SOL    HW229124   6.527   3.640   5.571
 9409SOL     OW29125   6.560   5.952   2.276
 9409SOL    HW129126   6.597   5.895   2.349
 9409SOL    HW229127   6.602   5.927   2.189
 9410SOL     OW29128   4.529   0.758   1.946
 9410SOL    HW129129   4.619   0.801   1.952
 9410SOL    HW229130   4.528   0.676   2.004
 9411SOL     OW29131   3.459   3.169   3.585
 9411SOL    HW129132   3.459   3.078   3.627
 9411SOL    HW229133   3.414   3.234   3.646
 9412SOL     OW29134   0.501   0.578   1.028
 9412SOL    HW129135   0.430   0.525   0.982
 9412SOL    HW229136   0.458   0.637   1.098
 9413SOL     OW29137   4.485   4.954   4.613
 9413SOL    HW129138   4.508   4.874   4.669
 9413SOL    HW229139   4.490   4.929   4.517
 9414SOL     OW29140   2.252   2.489   4.925
 9414SOL    HW129141   2.287   2.581   4.902
 9414SOL    HW229142   2.266   2.428   4.847
 9415SOL     OW29143   3.193   0.493   2.343
 9415SOL    HW129144   3.154   0.530   2.258
 9415SOL    HW229145   3.200   0.566   2.411
 9416SOL     OW29146   0.615   6.923   5.979
 9416SOL    HW129147   0.535   6.905   5.922
 9416SOL    HW229148   0.626   6.849   6.046
 9417SOL     OW29149   3.585   6.578   1.287
 9417SOL    HW129150   3.639   6.538   1.213
 9417SOL    HW229151   3.488   6.568   1.268
 9418SOL     OW29152   3.164   1.879   4.094
 9418SOL    HW129153   3.154   1.960   4.036
 9418SOL    HW229154   3.171   1.907   4.190
 9419SOL     OW29155   2.875   2.546   6.612
 9419SOL    HW129156   2.905   2.563   6.519
 9419SOL    HW229157   2.882   2.448   6.632
 9420SOL     OW29158   5.585   4.243   0.183
 9420SOL    HW129159   5.622   4.294   0.105
 9420SOL    HW229160   5.513   4.296   0.227
 9421SOL     OW29161   3.813   6.334   4.998
 9421SOL    HW129162   3.900   6.305   5.038
 9421SOL    HW229163   3.812   6.311   4.901
 9422SOL     OW29164   2.751   5.734   4.572
 9422SOL    HW129165   2.823   5.732   4.502
 9422SOL    HW229166   2.771   5.666   4.642
 9423SOL     OW29167   3.979   5.781   3.425
 9423SOL    HW129168   4.059   5.767   3.484
 9423SOL    HW229169   3.999   5.748   3.333
 9424SOL     OW29170   5.439   1.520   4.495
 9424SOL    HW129171   5.418   1.607   4.540
 9424SOL    HW229172   5.361   1.458   4.506
 9425SOL     OW29173   6.180   4.514   1.632
 9425SOL    HW129174   6.237   4.576   1.685
 9425SOL    HW229175   6.109   4.475   1.690
 9426SOL     OW29176   0.655   2.313   6.069
 9426SOL    HW129177   0.736   2.372   6.075
 9426SOL    HW229178   0.610   2.308   6.158
 9427SOL     OW29179   3.267   5.652   3.043
 9427SOL    HW129180   3.350   5.610   3.005
 9427SOL    HW229181   3.281   5.671   3.140
 9428SOL     OW29182   6.333   6.195   6.806
 9428SOL    HW129183   6.384   6.252   6.741
 9428SOL    HW229184   6.327   6.102   6.772
 9429SOL     OW29185   1.635   2.608   3.946
 9429SOL    HW129186   1.535   2.607   3.950
 9429SOL    HW229187   1.670   2.515   3.957
 9430SOL     OW29188   0.593   2.140   4.038
 9430SOL    HW129189   0.539   2.091   3.969
 9430SOL    HW229190   0.688   2.143   4.009
 9431SOL     OW29191   0.131   4.316   0.581
 9431SOL    HW129192   0.033   4.320   0.560
 9431SOL    HW229193   0.144   4.284   0.674
 9432SOL     OW29194   6.899   1.362   3.628
 9432SOL    HW129195   6.916   1.299   3.553
 9432SOL    HW229196   6.804   1.355   3.657
 9433SOL     OW29197   3.961   5.872   2.992
 9433SOL    HW129198   3.863   5.866   2.976
 9433SOL    HW229199   4.009   5.878   2.905
 9434SOL     OW29200   5.528   5.653   4.053
 9434SOL    HW129201   5.577   5.649   3.965
 9434SOL    HW229202   5.470   5.572   4.063
 9435SOL     OW29203   0.804   2.930   2.522
 9435SOL    HW129204   0.888   2.897   2.478
 9435SOL    HW229205   0.819   2.937   2.620
 9436SOL     OW29206   0.527   0.817   2.499
 9436SOL    HW129207   0.489   0.910   2.505
 9436SOL    HW229208   0.553   0.798   2.404
 9437SOL     OW29209   0.001   5.320   3.746
 9437SOL    HW129210   7.004   5.309   3.843
 9437SOL    HW229211   0.100   5.316   3.732
 9438SOL     OW29212   2.042   6.262   1.784
 9438SOL    HW129213   2.134   6.291   1.757
 9438SOL    HW229214   2.000   6.211   1.710
 9439SOL     OW29215   1.199   2.988   0.316
 9439SOL    HW129216   1.116   2.962   0.367
 9439SOL    HW229217   1.200   3.087   0.303
 9440SOL     OW29218   3.190   4.892   3.415
 9440SOL    HW129219   3.284   4.907   3.445
 9440SOL    HW229220   3.129   4.895   3.494
 9441SOL     OW29221   6.766   5.554   4.428
 9441SOL    HW129222   6.720   5.544   4.516
 9441SOL    HW229223   6.856   5.510   4.432
 9442SOL     OW29224   4.978   3.599   1.207
 9442SOL    HW129225   5.006   3.532   1.276
 9442SOL    HW229226   4.884   3.580   1.178
 9443SOL     OW29227   3.225   5.250   1.798
 9443SOL    HW129228   3.262   5.307   1.724
 9443SOL    HW229229   3.181   5.169   1.759
 9444SOL     OW29230   2.290   3.606   0.391
 9444SOL    HW129231   2.216   3.672   0.395
 9444SOL    HW229232   2.254   3.513   0.398
 9445SOL     OW29233   0.697   1.578   3.659
 9445SOL    HW129234   0.644   1.642   3.603
 9445SOL    HW229235   0.780   1.623   3.692
 9446SOL     OW29236   6.103   4.861   3.696
 9446SOL    HW129237   6.112   4.830   3.601
 9446SOL    HW229238   6.076   4.957   3.696
 9447SOL     OW29239   5.416   5.383   2.495
 9447SOL    HW129240   5.362   5.334   2.427
 9447SOL    HW229241   5.424   5.479   2.468
 9448SOL     OW29242   5.800   6.824   6.005
 9448SOL    HW129243   5.883   6.809   5.950
 9448SOL    HW229244   5.733   6.875   5.951
 9449SOL     OW29245   5.271   0.214   0.564
 9449SOL    HW129246   5.188   0.158   0.567
 9449SOL    HW229247   5.264   0.287   0.631
 9450SOL     OW29248   1.548   5.857   4.591
 9450SOL    HW129249   1.486   5.788   4.553
 9450SOL    HW229250   1.546   5.853   4.691
 9451SOL     OW29251   3.867   5.765   6.080
 9451SOL    HW129252   3.813   5.684   6.056
 9451SOL    HW229253   3.925   5.790   6.003
 9452SOL     OW29254   0.522   4.218   0.799
 9452SOL    HW129255   0.587   4.209   0.723
 9452SOL    HW229256   0.493   4.314   0.806
 9453SOL     OW29257   3.561   4.935   3.062
 9453SOL    HW129258   3.616   4.953   3.143
 9453SOL    HW229259   3.481   4.881   3.088
 9454SOL     OW29260   4.532   4.312   0.836
 9454SOL    HW129261   4.562   4.274   0.923
 9454SOL    HW229262   4.588   4.392   0.813
 9455SOL     OW29263   2.913   2.259   2.330
 9455SOL    HW129264   2.903   2.260   2.230
 9455SOL    HW229265   3.001   2.220   2.354
 9456SOL     OW29266   6.424   3.693   2.331
 9456SOL    HW129267   6.396   3.601   2.357
 9456SOL    HW229268   6.420   3.753   2.411
 9457SOL     OW29269   1.485   4.728   4.254
 9457SOL    HW129270   1.583   4.705   4.251
 9457SOL    HW229271   1.454   4.730   4.348
 9458SOL     OW29272   6.889   4.289   0.516
 9458SOL    HW129273   6.888   4.315   0.419
 9458SOL    HW229274   6.796   4.287   0.551
 9459SOL     OW29275   4.967   4.776   4.883
 9459SOL    HW129276   5.015   4.859   4.912
 9459SOL    HW229277   4.875   4.801   4.851
 9460SOL     OW29278   1.242   3.126   3.612
 9460SOL    HW129279   1.176   3.169   3.674
 9460SOL    HW229280   1.313   3.192   3.588
 9461SOL     OW29281   0.983   2.295   0.947
 9461SOL    HW129282   0.894   2.334   0.925
 9461SOL    HW229283   1.017   2.334   1.033
 9462SOL     OW29284   1.937   1.880   3.824
 9462SOL    HW129285   1.839   1.860   3.820
 9462SOL    HW229286   1.951   1.977   3.842
 9463SOL     OW29287   5.166   6.750   1.155
 9463SOL    HW129288   5.175   6.653   1.132
 9463SOL    HW229289   5.255   6.795   1.146
 9464SOL     OW29290   7.004   0.568   1.531
 9464SOL    HW129291   0.049   0.538   1.598
 9464SOL    HW229292   6.924   0.604   1.579
 9465SOL     OW29293   0.134   4.066   1.146
 9465SOL    HW129294   0.144   4.061   1.246
 9465SOL    HW229295   0.186   4.144   1.111
 9466SOL     OW29296   4.090   5.599   6.595
 9466SOL    HW129297   4.183   5.572   6.568
 9466SOL    HW229298   4.033   5.607   6.513
 9467SOL     OW29299   1.654   2.770   1.119
 9467SOL    HW129300   1.572   2.745   1.171
 9467SOL    HW229301   1.648   2.731   1.027
 9468SOL     OW29302   6.732   4.018   0.129
 9468SOL    HW129303   6.727   4.062   0.218
 9468SOL    HW229304   6.827   3.999   0.105
 9469SOL     OW29305   6.969   6.190   0.703
 9469SOL    HW129306   6.973   6.108   0.760
 9469SOL    HW229307   0.039   6.217   0.677
 9470SOL     OW29308   4.977   3.661   6.894
 9470SOL    HW129309   5.058   3.717   6.882
 9470SOL    HW229310   4.978   3.620   6.985
 9471SOL     OW29311   6.110   2.247   5.274
 9471SOL    HW129312   6.073   2.165   5.318
 9471SOL    HW229313   6.065   2.259   5.185
 9472SOL     OW29314   1.589   4.556   5.933
 9472SOL    HW129315   1.504   4.559   5.985
 9472SOL    HW229316   1.593   4.470   5.882
 9473SOL     OW29317   2.864   4.162   0.109
 9473SOL    HW129318   2.830   4.255   0.116
 9473SOL    HW229319   2.923   4.142   0.187
 9474SOL     OW29320   5.894   3.461   1.711
 9474SOL    HW129321   5.932   3.470   1.803
 9474SOL    HW229322   5.932   3.532   1.652
 9475SOL     OW29323   4.828   3.701   5.601
 9475SOL    HW129324   4.809   3.793   5.567
 9475SOL    HW229325   4.927   3.690   5.612
 9476SOL     OW29326   3.807   4.237   5.704
 9476SOL    HW129327   3.756   4.308   5.655
 9476SOL    HW229328   3.754   4.152   5.703
 9477SOL     OW29329   1.969   3.454   1.855
 9477SOL    HW129330   2.046   3.458   1.919
 9477SOL    HW229331   2.001   3.474   1.763
 9478SOL     OW29332   4.685   2.632   0.556
 9478SOL    HW129333   4.739   2.603   0.477
 9478SOL    HW229334   4.740   2.625   0.639
 9479SOL     OW29335   4.691   0.979   1.359
 9479SOL    HW129336   4.707   1.073   1.329
 9479SOL    HW229337   4.672   0.977   1.457
 9480SOL     OW29338   6.039   5.697   6.850
 9480SOL    HW129339   6.013   5.781   6.899
 9480SOL    HW229340   6.131   5.670   6.877
 9481SOL     OW29341   4.761   1.676   3.350
 9481SOL    HW129342   4.663   1.661   3.338
 9481SOL    HW229343   4.783   1.672   3.448
 9482SOL     OW29344   5.539   1.334   0.733
 9482SOL    HW129345   5.482   1.320   0.814
 9482SOL    HW229346   5.546   1.248   0.682
 9483SOL     OW29347   0.608   0.692   6.971
 9483SOL    HW129348   0.594   0.779   7.018
 9483SOL    HW229349   0.703   0.686   6.940
 9484SOL     OW29350   2.447   6.525   4.760
 9484SOL    HW129351   2.354   6.492   4.777
 9484SOL    HW229352   2.492   6.542   4.848
 9485SOL     OW29353   6.312   1.315   0.522
 9485SOL    HW129354   6.377   1.345   0.452
 9485SOL    HW229355   6.254   1.392   0.547
 9486SOL     OW29356   4.592   5.666   0.478
 9486SOL    HW129357   4.675   5.717   0.502
 9486SOL    HW229358   4.591   5.650   0.380
 9487SOL     OW29359   3.375   4.166   4.306
 9487SOL    HW129360   3.318   4.119   4.373
 9487SOL    HW229361   3.450   4.214   4.352
 9488SOL     OW29362   1.452   1.382   1.548
 9488SOL    HW129363   1.461   1.471   1.501
 9488SOL    HW229364   1.362   1.377   1.593
 9489SOL     OW29365   5.189   4.354   1.173
 9489SOL    HW129366   5.151   4.419   1.107
 9489SOL    HW229367   5.169   4.386   1.266
 9490SOL     OW29368   5.967   5.105   3.664
 9490SOL    HW129369   5.894   5.042   3.640
 9490SOL    HW229370   6.029   5.116   3.586
 9491SOL     OW29371   5.237   6.631   3.875
 9491SOL    HW129372   5.164   6.625   3.807
 9491SOL    HW229373   5.303   6.558   3.858
 9492SOL     OW29374   4.644   2.780   4.902
 9492SOL    HW129375   4.574   2.721   4.943
 9492SOL    HW229376   4.669   2.852   4.967
 9493SOL     OW29377   3.773   6.221   4.171
 9493SOL    HW129378   3.751   6.149   4.236
 9493SOL    HW229379   3.779   6.309   4.219
 9494SOL     OW29380   5.152   3.102   2.117
 9494SOL    HW129381   5.069   3.112   2.172
 9494SOL    HW229382   5.142   3.022   2.056
 9495SOL     OW29383   0.031   0.579   2.032
 9495SOL    HW129384   0.093   0.550   2.105
 9495SOL    HW229385   0.067   0.547   1.944
 9496SOL     OW29386   4.503   2.076   2.281
 9496SOL    HW129387   4.451   1.993   2.261
 9496SOL    HW229388   4.455   2.155   2.243
 9497SOL     OW29389   5.578   5.738   5.236
 9497SOL    HW129390   5.483   5.716   5.259
 9497SOL    HW229391   5.639   5.680   5.290
 9498SOL     OW29392   6.589   4.902   4.621
 9498SOL    HW129393   6.528   4.950   4.684
 9498SOL    HW229394   6.679   4.946   4.622
 9499SOL     OW29395   6.489   5.421   5.154
 9499SOL    HW129396   6.419   5.428   5.084
 9499SOL    HW229397   6.490   5.506   5.208
 9500SOL     OW29398   4.112   0.209   0.864
 9500SOL    HW129399   4.183   0.141   0.882
 9500SOL    HW229400   4.109   0.275   0.939
 9501SOL     OW29401   1.922   1.627   4.394
 9501SOL    HW129402   2.006   1.646   4.343
 9501SOL    HW229403   1.944   1.606   4.489
 9502SOL     OW29404   5.243   4.833   5.245
 9502SOL    HW129405   5.151   4.845   5.280
 9502SOL    HW229406   5.248   4.869   5.152
 9503SOL     OW29407   0.681   2.252   6.982
 9503SOL    HW129408   0.684   2.331   0.020
 9503SOL    HW229409   0.758   2.256   6.918
 9504SOL     OW29410   0.392   4.276   1.557
 9504SOL    HW129411   0.328   4.319   1.493
 9504SOL    HW229412   0.354   4.278   1.649
 9505SOL     OW29413   4.454   5.001   5.525
 9505SOL    HW129414   4.380   4.993   5.591
 9505SOL    HW229415   4.455   4.920   5.466
 9506SOL     OW29416   2.195   2.285   1.074
 9506SOL    HW129417   2.244   2.271   1.159
 9506SOL    HW229418   2.106   2.238   1.078
 9507SOL     OW29419   5.883   0.463   1.226
 9507SOL    HW129420   5.830   0.487   1.308
 9507SOL    HW229421   5.820   0.449   1.150
 9508SOL     OW29422   4.668   1.707   2.194
 9508SOL    HW129423   4.695   1.781   2.256
 9508SOL    HW229424   4.608   1.643   2.243
 9509SOL     OW29425   6.616   0.712   2.736
 9509SOL    HW129426   6.633   0.703   2.834
 9509SOL    HW229427   6.616   0.622   2.693
 9510SOL     OW29428   0.617   3.651   3.492
 9510SOL    HW129429   0.634   3.558   3.461
 9510SOL    HW229430   0.576   3.649   3.583
 9511SOL     OW29431   1.136   1.013   0.897
 9511SOL    HW129432   1.155   1.110   0.915
 9511SOL    HW229433   1.062   0.982   0.958
 9512SOL     OW29434   6.463   3.436   1.034
 9512SOL    HW129435   6.495   3.402   0.945
 9512SOL    HW229436   6.498   3.377   1.107
 9513SOL     OW29437   4.045   4.935   6.400
 9513SOL    HW129438   4.091   4.875   6.465
 9513SOL    HW229439   3.966   4.978   6.444
 9514SOL     OW29440   3.352   2.950   6.703
 9514SOL    HW129441   3.414   3.020   6.739
 9514SOL    HW229442   3.269   2.994   6.669
 9515SOL     OW29443   2.808   5.129   4.001
 9515SOL    HW129444   2.829   5.227   4.003
 9515SOL    HW229445   2.781   5.099   4.092
 9516SOL     OW29446   6.248   4.555   0.387
 9516SOL    HW129447   6.166   4.526   0.438
 9516SOL    HW229448   6.250   4.509   0.298
 9517SOL     OW29449   0.966   4.688   1.174
 9517SOL    HW129450   0.985   4.681   1.272
 9517SOL    HW229451   0.875   4.726   1.160
 9518SOL     OW29452   2.442   0.979   0.664
 9518SOL    HW129453   2.417   1.055   0.603
 9518SOL    HW229454   2.440   1.010   0.759
 9519SOL     OW29455   1.385   2.290   5.228
 9519SOL    HW129456   1.452   2.361   5.252
 9519SOL    HW229457   1.395   2.213   5.291
 9520SOL     OW29458   2.591   0.071   2.794
 9520SOL    HW129459   2.667   0.112   2.745
 9520SOL    HW229460   2.507   0.084   2.742
 9521SOL     OW29461   5.927   6.152   3.676
 9521SOL    HW129462   5.894   6.176   3.767
 9521SOL    HW229463   5.849   6.139   3.615
 9522SOL     OW29464   3.190   6.212   1.021
 9522SOL    HW129465   3.245   6.137   0.982
 9522SOL    HW229466   3.210   6.220   1.119
 9523SOL     OW29467   3.649   5.102   4.108
 9523SOL    HW129468   3.682   5.021   4.158
 9523SOL    HW229469   3.552   5.091   4.087
 9524SOL     OW29470   3.388   2.997   1.303
 9524SOL    HW129471   3.390   3.054   1.385
 9524SOL    HW229472   3.424   2.906   1.324
 9525SOL     OW29473   2.007   1.345   6.363
 9525SOL    HW129474   1.962   1.352   6.274
 9525SOL    HW229475   2.053   1.432   6.384
 9526SOL     OW29476   4.919   6.191   3.041
 9526SOL    HW129477   4.844   6.214   3.104
 9526SOL    HW229478   5.002   6.237   3.071
 9527SOL     OW29479   0.762   0.901   2.249
 9527SOL    HW129480   0.857   0.889   2.277
 9527SOL    HW229481   0.743   0.998   2.235
 9528SOL     OW29482   6.305   6.773   1.032
 9528SOL    HW129483   6.344   6.699   0.977
 9528SOL    HW229484   6.377   6.814   1.088
 9529SOL     OW29485   1.257   3.283   6.338
 9529SOL    HW129486   1.346   3.287   6.385
 9529SOL    HW229487   1.193   3.230   6.393
 9530SOL     OW29488   1.725   2.664   2.633
 9530SOL    HW129489   1.729   2.691   2.536
 9530SOL    HW229490   1.630   2.652   2.660
 9531SOL     OW29491   3.885   6.491   3.367
 9531SOL    HW129492   3.914   6.400   3.340
 9531SOL    HW229493   3.847   6.539   3.288
 9532SOL     OW29494   1.767   6.381   1.046
 9532SOL    HW129495   1.707   6.337   1.113
 9532SOL    HW229496   1.792   6.472   1.078
 9533SOL     OW29497   0.782   1.097   5.228
 9533SOL    HW129498   0.724   1.131   5.153
 9533SOL    HW229499   0.817   1.007   5.204
 9534SOL     OW29500   5.349   1.717   4.634
 9534SOL    HW129501   5.336   1.664   4.718
 9534SOL    HW229502   5.410   1.794   4.651
 9535SOL     OW29503   2.792   1.034   5.948
 9535SOL    HW129504   2.773   1.083   6.033
 9535SOL    HW229505   2.846   1.092   5.887
 9536SOL     OW29506   1.787   5.889   5.415
 9536SOL    HW129507   1.723   5.880   5.492
 9536SOL    HW229508   1.769   5.817   5.348
 9537SOL     OW29509   3.447   0.118   2.261
 9537SOL    HW129510   3.396   0.032   2.267
 9537SOL    HW229511   3.494   0.122   2.173
 9538SOL     OW29512   6.585   2.310   4.271
 9538SOL    HW129513   6.518   2.351   4.208
 9538SOL    HW229514   6.580   2.356   4.360
 9539SOL     OW29515   1.372   5.605   6.702
 9539SOL    HW129516   1.364   5.648   6.612
 9539SOL    HW229517   1.357   5.506   6.692
 9540SOL     OW29518   4.333   4.952   5.217
 9540SOL    HW129519   4.336   4.994   5.308
 9540SOL    HW229520   4.241   4.920   5.198
 9541SOL     OW29521   1.868   2.762   4.143
 9541SOL    HW129522   1.906   2.753   4.235
 9541SOL    HW229523   1.848   2.859   4.125
 9542SOL     OW29524   4.911   3.196   4.822
 9542SOL    HW129525   4.890   3.217   4.918
 9542SOL    HW229526   4.939   3.279   4.775
 9543SOL     OW29527   4.338   1.028   3.900
 9543SOL    HW129528   4.397   0.961   3.947
 9543SOL    HW229529   4.246   0.989   3.890
 9544SOL     OW29530   5.445   0.635   1.980
 9544SOL    HW129531   5.457   0.724   1.936
 9544SOL    HW229532   5.530   0.609   2.025
 9545SOL     OW29533   6.289   0.339   3.165
 9545SOL    HW129534   6.342   0.417   3.132
 9545SOL    HW229535   6.325   0.310   3.254
 9546SOL     OW29536   2.842   5.491   6.600
 9546SOL    HW129537   2.842   5.395   6.628
 9546SOL    HW229538   2.816   5.497   6.503
 9547SOL     OW29539   1.202   6.210   4.312
 9547SOL    HW129540   1.279   6.150   4.331
 9547SOL    HW229541   1.159   6.238   4.398
 9548SOL     OW29542   5.876   5.928   4.504
 9548SOL    HW129543   5.925   5.918   4.417
 9548SOL    HW229544   5.817   5.849   4.519
 9549SOL     OW29545   3.219   5.223   0.458
 9549SOL    HW129546   3.226   5.171   0.372
 9549SOL    HW229547   3.296   5.286   0.464
 9550SOL     OW29548   0.693   1.052   0.372
 9550SOL    HW129549   0.619   1.011   0.318
 9550SOL    HW229550   0.719   1.139   0.331
 9551SOL     OW29551   0.359   0.305   4.785
 9551SOL    HW129552   0.392   0.278   4.694
 9551SOL    HW229553   0.401   0.392   4.811
 9552SOL     OW29554   1.664   6.360   3.752
 9552SOL    HW129555   1.629   6.297   3.821
 9552SOL    HW229556   1.607   6.355   3.670
 9553SOL     OW29557   5.830   4.985   6.389
 9553SOL    HW129558   5.798   5.079   6.377
 9553SOL    HW229559   5.759   4.922   6.357
 9554SOL     OW29560   2.667   1.089   2.187
 9554SOL    HW129561   2.737   1.042   2.240
 9554SOL    HW229562   2.626   1.025   2.121
 9555SOL     OW29563   6.563   2.673   1.011
 9555SOL    HW129564   6.553   2.677   1.110
 9555SOL    HW229565   6.537   2.582   0.978
 9556SOL     OW29566   2.189   0.873   1.220
 9556SOL    HW129567   2.161   0.796   1.162
 9556SOL    HW229568   2.146   0.957   1.188
 9557SOL     OW29569   5.860   0.263   2.096
 9557SOL    HW129570   5.912   0.186   2.133
 9557SOL    HW229571   5.783   0.283   2.157
 9558SOL     OW29572   6.365   4.941   3.078
 9558SOL    HW129573   6.330   5.014   3.019
 9558SOL    HW229574   6.431   4.886   3.027
 9559SOL     OW29575   6.965   3.331   2.378
 9559SOL    HW129576   7.018   3.342   2.462
 9559SOL    HW229577   0.002   3.343   2.299
 9560SOL     OW29578   2.717   1.166   3.205
 9560SOL    HW129579   2.666   1.153   3.289
 9560SOL    HW229580   2.783   1.092   3.193
 9561SOL     OW29581   3.877   6.685   0.557
 9561SOL    HW129582   3.927   6.762   0.518
 9561SOL    HW229583   3.938   6.605   0.561
 9562SOL     OW29584   4.568   5.477   2.428
 9562SOL    HW129585   4.658   5.520   2.421
 9562SOL    HW229586   4.523   5.478   2.339
 9563SOL     OW29587   6.732   5.840   6.145
 9563SOL    HW129588   6.752   5.914   6.080
 9563SOL    HW229589   6.645   5.797   6.120
 9564SOL     OW29590   3.011   6.780   6.815
 9564SOL    HW129591   3.058   6.834   6.884
 9564SOL    HW229592   3.076   6.718   6.770
 9565SOL     OW29593   3.743   6.532   4.437
 9565SOL    HW129594   3.685   6.580   4.372
 9565SOL    HW229595   3.827   6.585   4.453
 9566SOL     OW29596   2.913   4.509   5.997
 9566SOL    HW129597   2.933   4.465   5.909
 9566SOL    HW229598   2.979   4.582   6.013
 9567SOL     OW29599   6.373   5.750   6.564
 9567SOL    HW129600   6.460   5.729   6.608
 9567SOL    HW229601   6.317   5.667   6.558
 9568SOL     OW29602   4.948   3.705   6.381
 9568SOL    HW129603   4.877   3.704   6.311
 9568SOL    HW229604   4.925   3.640   6.453
 9569SOL     OW29605   6.694   0.580   0.150
 9569SOL    HW129606   6.781   0.620   0.120
 9569SOL    HW229607   6.633   0.569   0.072
 9570SOL     OW29608   0.674   1.813   0.140
 9570SOL    HW129609   0.674   1.850   0.047
 9570SOL    HW229610   0.757   1.842   0.187
 9571SOL     OW29611   1.823   3.120   0.021
 9571SOL    HW129612   1.802   3.054   0.094
 9571SOL    HW229613   1.828   3.073   6.956
 9572SOL     OW29614   1.358   4.203   1.835
 9572SOL    HW129615   1.365   4.297   1.802
 9572SOL    HW229616   1.404   4.195   1.923
 9573SOL     OW29617   1.761   1.423   6.940
 9573SOL    HW129618   1.842   1.466   6.901
 9573SOL    HW229619   1.710   1.375   6.868
 9574SOL     OW29620   3.519   3.395   5.800
 9574SOL    HW129621   3.484   3.481   5.837
 9574SOL    HW229622   3.468   3.319   5.840
 9575SOL     OW29623   5.297   1.182   1.942
 9575SOL    HW129624   5.213   1.234   1.954
 9575SOL    HW229625   5.281   1.106   1.879
 9576SOL     OW29626   3.447   1.275   4.468
 9576SOL    HW129627   3.446   1.230   4.379
 9576SOL    HW229628   3.482   1.368   4.458
 9577SOL     OW29629   0.995   5.936   2.807
 9577SOL    HW129630   1.059   5.868   2.770
 9577SOL    HW229631   1.037   5.981   2.887
 9578SOL     OW29632   6.687   2.925   2.208
 9578SOL    HW129633   6.640   2.988   2.270
 9578SOL    HW229634   6.641   2.836   2.210
 9579SOL     OW29635   1.378   6.810   2.484
 9579SOL    HW129636   1.326   6.771   2.560
 9579SOL    HW229637   1.439   6.881   2.518
 9580SOL     OW29638   4.460   3.475   7.007
 9580SOL    HW129639   4.541   3.481   6.947
 9580SOL    HW229640   4.473   3.536   0.062
 9581SOL     OW29641   1.055   4.251   6.329
 9581SOL    HW129642   1.029   4.206   6.414
 9581SOL    HW229643   1.123   4.321   6.348
 9582SOL     OW29644   4.064   4.831   4.172
 9582SOL    HW129645   4.133   4.824   4.243
 9582SOL    HW229646   4.059   4.926   4.139
 9583SOL     OW29647   2.128   3.544   2.262
 9583SOL    HW129648   2.207   3.532   2.323
 9583SOL    HW229649   2.147   3.502   2.174
 9584SOL     OW29650   5.884   5.417   0.049
 9584SOL    HW129651   5.973   5.426   0.002
 9584SOL    HW229652   5.893   5.351   0.124
 9585SOL     OW29653   6.085   0.421   3.508
 9585SOL    HW129654   6.012   0.463   3.455
 9585SOL    HW229655   6.101   0.475   3.591
 9586SOL     OW29656   5.478   3.555   3.376
 9586SOL    HW129657   5.391   3.572   3.423
 9586SOL    HW229658   5.507   3.461   3.393
 9587SOL     OW29659   5.066   0.604   2.268
 9587SOL    HW129660   5.024   0.624   2.357
 9587SOL    HW229661   5.090   0.689   2.222
 9588SOL     OW29662   0.417   0.764   1.213
 9588SOL    HW129663   0.340   0.806   1.262
 9588SOL    HW229664   0.478   0.836   1.179
 9589SOL     OW29665   2.541   0.698   6.266
 9589SOL    HW129666   2.564   0.744   6.180
 9589SOL    HW229667   2.556   0.762   6.342
 9590SOL     OW29668   6.857   4.286   3.080
 9590SOL    HW129669   6.866   4.372   3.129
 9590SOL    HW229670   6.760   4.269   3.059
 9591SOL     OW29671   1.489   5.019   0.489
 9591SOL    HW129672   1.565   5.048   0.432
 9591SOL    HW229673   1.493   4.921   0.504
 9592SOL     OW29674   4.587   5.697   2.050
 9592SOL    HW129675   4.503   5.743   2.022
 9592SOL    HW229676   4.621   5.640   1.974
 9593SOL     OW29677   0.073   2.584   4.547
 9593SOL    HW129678   0.078   2.646   4.625
 9593SOL    HW229679   0.062   2.490   4.579
 9594SOL     OW29680   6.422   6.931   2.301
 9594SOL    HW129681   6.357   6.886   2.362
 9594SOL    HW229682   6.513   6.892   2.315
 9595SOL     OW29683   1.973   5.634   4.561
 9595SOL    HW129684   2.003   5.599   4.650
 9595SOL    HW229685   2.041   5.698   4.526
 9596SOL     OW29686   5.872   5.988   5.145
 9596SOL    HW129687   5.948   5.944   5.192
 9596SOL    HW229688   5.867   5.954   5.051
 9597SOL     OW29689   1.717   4.163   1.661
 9597SOL    HW129690   1.771   4.193   1.739
 9597SOL    HW229691   1.636   4.222   1.651
 9598SOL     OW29692   0.151   5.556   6.050
 9598SOL    HW129693   0.158   5.456   6.051
 9598SOL    HW229694   0.074   5.585   6.107
 9599SOL     OW29695   4.545   1.292   5.263
 9599SOL    HW129696   4.510   1.227   5.330
 9599SOL    HW229697   4.630   1.332   5.296
 9600SOL     OW29698   1.523   0.440   6.426
 9600SOL    HW129699   1.471   0.356   6.442
 9600SOL    HW229700   1.466   0.519   6.449
 9601SOL     OW29701   0.393   5.145   5.687
 9601SOL    HW129702   0.469   5.186   5.636
 9601SOL    HW229703   0.398   5.174   5.783
 9602SOL     OW29704   1.075   5.270   6.611
 9602SOL    HW129705   1.066   5.369   6.596
 9602SOL    HW229706   1.021   5.243   6.691
 9603SOL     OW29707   1.873   6.159   4.561
 9603SOL    HW129708   1.827   6.180   4.474
 9603SOL    HW229709   1.832   6.078   4.602
 9604SOL     OW29710   5.900   1.861   6.736
 9604SOL    HW129711   5.922   1.926   6.809
 9604SOL    HW229712   5.889   1.910   6.649
 9605SOL     OW29713   1.953   5.843   6.250
 9605SOL    HW129714   2.008   5.772   6.293
 9605SOL    HW229715   1.863   5.806   6.226
 9606SOL     OW29716   0.066   6.649   3.931
 9606SOL    HW129717   0.156   6.664   3.974
 9606SOL    HW229718   0.047   6.551   3.927
 9607SOL     OW29719   1.216   1.804   1.864
 9607SOL    HW129720   1.301   1.796   1.811
 9607SOL    HW229721   1.224   1.749   1.947
 9608SOL     OW29722   0.664   6.900   2.458
 9608SOL    HW129723   0.624   6.896   2.550
 9608SOL    HW229724   0.597   6.870   2.391
 9609SOL     OW29725   1.953   4.137   4.385
 9609SOL    HW129726   1.877   4.144   4.450
 9609SOL    HW229727   1.944   4.209   4.316
 9610SOL     OW29728   2.164   1.950   5.770
 9610SOL    HW129729   2.245   1.984   5.724
 9610SOL    HW229730   2.160   1.987   5.863
 9611SOL     OW29731   5.996   6.928   0.789
 9611SOL    HW129732   5.916   6.987   0.781
 9611SOL    HW229733   6.075   6.981   0.821
 9612SOL     OW29734   6.292   2.907   1.881
 9612SOL    HW129735   6.338   2.935   1.797
 9612SOL    HW229736   6.212   2.852   1.858
 9613SOL     OW29737   6.122   6.631   4.997
 9613SOL    HW129738   6.215   6.595   4.986
 9613SOL    HW229739   6.090   6.612   5.090
 9614SOL     OW29740   3.558   3.645   2.409
 9614SOL    HW129741   3.542   3.550   2.382
 9614SOL    HW229742   3.493   3.670   2.481
 9615SOL     OW29743   0.976   5.732   2.493
 9615SOL    HW129744   1.028   5.648   2.505
 9615SOL    HW229745   0.992   5.793   2.571
 9616SOL     OW29746   3.762   3.126   1.037
 9616SOL    HW129747   3.665   3.133   1.060
 9616SOL    HW229748   3.776   3.048   0.976
 9617SOL     OW29749   0.839   3.146   3.857
 9617SOL    HW129750   0.816   3.053   3.886
 9617SOL    HW229751   0.757   3.202   3.854
 9618SOL     OW29752   3.888   6.147   6.630
 9618SOL    HW129753   3.952   6.140   6.707
 9618SOL    HW229754   3.877   6.057   6.588
 9619SOL     OW29755   2.765   6.228   0.635
 9619SOL    HW129756   2.838   6.222   0.702
 9619SOL    HW229757   2.803   6.244   0.544
 9620SOL     OW29758   3.251   1.611   6.482
 9620SOL    HW129759   3.325   1.627   6.416
 9620SOL    HW229760   3.166   1.648   6.446
 9621SOL     OW29761   0.577   0.349   1.343
 9621SOL    HW129762   0.557   0.442   1.373
 9621SOL    HW229763   0.513   0.322   1.271
 9622SOL     OW29764   5.981   0.719   6.120
 9622SOL    HW129765   5.940   0.642   6.071
 9622SOL    HW229766   5.990   0.696   6.217
 9623SOL     OW29767   4.860   6.003   6.343
 9623SOL    HW129768   4.943   6.040   6.384
 9623SOL    HW229769   4.837   6.056   6.262
 9624SOL     OW29770   4.196   5.245   5.173
 9624SOL    HW129771   4.130   5.203   5.235
 9624SOL    HW229772   4.241   5.174   5.119
 9625SOL     OW29773   4.930   4.420   6.357
 9625SOL    HW129774   4.960   4.516   6.356
 9625SOL    HW229775   4.913   4.392   6.451
 9626SOL     OW29776   1.882   4.224   5.983
 9626SOL    HW129777   1.827   4.175   5.916
 9626SOL    HW229778   1.889   4.169   6.066
 9627SOL     OW29779   0.894   5.002   0.050
 9627SOL    HW129780   0.835   5.059   0.107
 9627SOL    HW229781   0.878   4.905   0.071
 9628SOL     OW29782   5.442   3.381   0.071
 9628SOL    HW129783   5.492   3.457   0.112
 9628SOL    HW229784   5.447   3.301   0.132
 9629SOL     OW29785   0.217   5.636   3.438
 9629SOL    HW129786   0.259   5.545   3.435
 9629SOL    HW229787   0.219   5.670   3.532
 9630SOL     OW29788   6.643   5.918   5.774
 9630SOL    HW129789   6.725   5.926   5.831
 9630SOL    HW229790   6.562   5.938   5.829
 9631SOL     OW29791   4.260   1.422   0.543
 9631SOL    HW129792   4.316   1.370   0.608
 9631SOL    HW229793   4.315   1.445   0.463
 9632SOL     OW29794   3.729   6.451   1.053
 9632SOL    HW129795   3.798   6.393   1.096
 9632SOL    HW229796   3.642   6.401   1.047
 9633SOL     OW29797   3.632   2.875   2.759
 9633SOL    HW129798   3.605   2.810   2.830
 9633SOL    HW229799   3.691   2.945   2.798
 9634SOL     OW29800   5.539   4.539   2.361
 9634SOL    HW129801   5.591   4.455   2.349
 9634SOL    HW229802   5.540   4.566   2.457
 9635SOL     OW29803   0.735   3.884   3.497
 9635SOL    HW129804   0.715   3.919   3.588
 9635SOL    HW229805   0.708   3.788   3.491
 9636SOL     OW29806   4.251   2.308   4.543
 9636SOL    HW129807   4.198   2.388   4.571
 9636SOL    HW229808   4.349   2.327   4.556
 9637SOL     OW29809   2.846   2.906   0.979
 9637SOL    HW129810   2.789   2.964   1.038
 9637SOL    HW229811   2.797   2.887   0.894
 9638SOL     OW29812   6.986   4.485   5.592
 9638SOL    HW129813   0.002   4.467   5.501
 9638SOL    HW229814   6.988   4.401   5.646
 9639SOL     OW29815   4.494   1.596   1.942
 9639SOL    HW129816   4.550   1.586   2.024
 9639SOL    HW229817   4.495   1.691   1.911
 9640SOL     OW29818   3.509   0.435   2.631
 9640SOL    HW129819   3.467   0.394   2.550
 9640SOL    HW229820   3.473   0.527   2.645
 9641SOL     OW29821   6.061   4.164   2.699
 9641SOL    HW129822   6.017   4.102   2.763
 9641SOL    HW229823   6.100   4.241   2.749
 9642SOL     OW29824   2.417   0.426   3.454
 9642SOL    HW129825   2.401   0.413   3.356
 9642SOL    HW229826   2.443   0.339   3.496
 9643SOL     OW29827   5.306   4.471   4.324
 9643SOL    HW129828   5.209   4.449   4.313
 9643SOL    HW229829   5.361   4.414   4.263
 9644SOL     OW29830   1.573   5.398   4.955
 9644SOL    HW129831   1.489   5.377   4.905
 9644SOL    HW229832   1.625   5.314   4.971
 9645SOL     OW29833   1.313   5.761   6.482
 9645SOL    HW129834   1.221   5.784   6.515
 9645SOL    HW229835   1.376   5.835   6.502
 9646SOL     OW29836   3.536   6.300   5.530
 9646SOL    HW129837   3.532   6.318   5.628
 9646SOL    HW229838   3.465   6.235   5.505
 9647SOL     OW29839   6.224   6.255   3.408
 9647SOL    HW129840   6.224   6.354   3.398
 9647SOL    HW229841   6.249   6.231   3.502
 9648SOL     OW29842   4.685   2.434   0.927
 9648SOL    HW129843   4.724   2.396   0.843
 9648SOL    HW229844   4.753   2.488   0.974
 9649SOL     OW29845   2.713   3.535   0.587
 9649SOL    HW129846   2.801   3.579   0.604
 9649SOL    HW229847   2.641   3.604   0.587
 9650SOL     OW29848   6.929   4.731   4.497
 9650SOL    HW129849   6.910   4.793   4.573
 9650SOL    HW229850   6.844   4.687   4.468
 9651SOL     OW29851   3.235   1.295   0.237
 9651SOL    HW129852   3.286   1.270   0.319
 9651SOL    HW229853   3.144   1.326   0.262
 9652SOL     OW29854   0.187   3.978   0.572
 9652SOL    HW129855   0.201   4.020   0.662
 9652SOL    HW229856   0.274   3.942   0.539
 9653SOL     OW29857   4.853   4.157   6.151
 9653SOL    HW129858   4.938   4.106   6.167
 9653SOL    HW229859   4.875   4.246   6.111
 9654SOL     OW29860   3.436   3.318   4.075
 9654SOL    HW129861   3.461   3.236   4.024
 9654SOL    HW229862   3.389   3.291   4.159
 9655SOL     OW29863   5.361   0.982   2.184
 9655SOL    HW129864   5.383   1.068   2.138
 9655SOL    HW229865   5.344   1.000   2.281
 9656SOL     OW29866   5.361   4.184   1.549
 9656SOL    HW129867   5.443   4.132   1.574
 9656SOL    HW229868   5.383   4.282   1.552
 9657SOL     OW29869   6.246   3.661   3.399
 9657SOL    HW129870   6.190   3.607   3.462
 9657SOL    HW229871   6.249   3.616   3.310
 9658SOL     OW29872   4.867   1.600   2.047
 9658SOL    HW129873   4.849   1.622   1.951
 9658SOL    HW229874   4.793   1.633   2.104
 9659SOL     OW29875   3.210   2.640   1.241
 9659SOL    HW129876   3.143   2.691   1.187
 9659SOL    HW229877   3.164   2.595   1.318
 9660SOL     OW29878   0.748   5.954   1.156
 9660SOL    HW129879   0.845   5.970   1.177
 9660SOL    HW229880   0.700   5.925   1.239
 9661SOL     OW29881   5.069   4.726   1.345
 9661SOL    HW129882   5.030   4.770   1.426
 9661SOL    HW229883   5.085   4.795   1.274
 9662SOL     OW29884   5.151   4.092   6.642
 9662SOL    HW129885   5.103   4.169   6.683
 9662SOL    HW229886   5.085   4.025   6.609
 9663SOL     OW29887   0.634   4.464   3.418
 9663SOL    HW129888   0.683   4.398   3.474
 9663SOL    HW229889   0.600   4.538   3.477
 9664SOL     OW29890   5.518   4.364   3.520
 9664SOL    HW129891   5.446   4.430   3.542
 9664SOL    HW229892   5.565   4.336   3.604
 9665SOL     OW29893   5.876   6.521   6.609
 9665SOL    HW129894   5.851   6.558   6.698
 9665SOL    HW229895   5.942   6.447   6.620
 9666SOL     OW29896   6.197   4.267   1.239
 9666SOL    HW129897   6.176   4.355   1.281
 9666SOL    HW229898   6.290   4.268   1.204
 9667SOL     OW29899   4.912   5.330   1.198
 9667SOL    HW129900   5.002   5.299   1.229
 9667SOL    HW229901   4.866   5.379   1.273
 9668SOL     OW29902   0.925   6.179   5.885
 9668SOL    HW129903   0.893   6.095   5.842
 9668SOL    HW229904   1.024   6.183   5.882
 9669SOL     OW29905   3.283   6.580   0.488
 9669SOL    HW129906   3.291   6.594   0.587
 9669SOL    HW229907   3.371   6.598   0.445
 9670SOL     OW29908   0.021   0.024   6.160
 9670SOL    HW129909   6.964   7.018   6.109
 9670SOL    HW229910   0.104   7.020   6.110
 9671SOL     OW29911   1.200   4.902   6.619
 9671SOL    HW129912   1.255   4.961   6.559
 9671SOL    HW229913   1.229   4.916   6.713
 9672SOL     OW29914   0.550   4.311   4.206
 9672SOL    HW129915   0.474   4.298   4.270
 9672SOL    HW229916   0.515   4.311   4.112
 9673SOL     OW29917   2.546   3.896   1.352
 9673SOL    HW129918   2.635   3.857   1.379
 9673SOL    HW229919   2.506   3.944   1.430
 9674SOL     OW29920   3.229   6.017   3.347
 9674SOL    HW129921   3.289   6.096   3.348
 9674SOL    HW229922   3.166   6.024   3.270
 9675SOL     OW29923   4.770   4.012   1.528
 9675SOL    HW129924   4.844   3.948   1.548
 9675SOL    HW229925   4.709   4.017   1.607
 9676SOL     OW29926   1.411   2.900   5.884
 9676SOL    HW129927   1.468   2.855   5.815
 9676SOL    HW229928   1.368   2.981   5.843
 9677SOL     OW29929   6.124   5.132   0.576
 9677SOL    HW129930   6.140   5.224   0.540
 9677SOL    HW229931   6.062   5.083   0.516
 9678SOL     OW29932   3.398   4.076   5.036
 9678SOL    HW129933   3.421   3.979   5.026
 9678SOL    HW229934   3.482   4.130   5.040
 9679SOL     OW29935   2.028   1.465   4.820
 9679SOL    HW129936   1.979   1.442   4.903
 9679SOL    HW229937   1.974   1.439   4.740
 9680SOL     OW29938   4.738   6.304   2.888
 9680SOL    HW129939   4.817   6.267   2.936
 9680SOL    HW229940   4.719   6.396   2.921
 9681SOL     OW29941   1.774   0.610   1.344
 9681SOL    HW129942   1.767   0.631   1.441
 9681SOL    HW229943   1.697   0.650   1.295
 9682SOL     OW29944   5.938   5.972   4.860
 9682SOL    HW129945   5.873   6.027   4.808
 9682SOL    HW229946   5.934   5.878   4.829
 9683SOL     OW29947   2.197   0.212   1.010
 9683SOL    HW129948   2.293   0.224   1.036
 9683SOL    HW229949   2.181   0.118   0.980
 9684SOL     OW29950   1.493   4.291   5.232
 9684SOL    HW129951   1.437   4.291   5.315
 9684SOL    HW229952   1.565   4.222   5.241
 9685SOL     OW29953   3.987   3.979   0.477
 9685SOL    HW129954   3.936   4.026   0.405
 9685SOL    HW229955   4.050   4.043   0.521
 9686SOL     OW29956   6.272   2.234   6.026
 9686SOL    HW129957   6.263   2.323   5.982
 9686SOL    HW229958   6.225   2.165   5.972
 9687SOL     OW29959   6.213   0.178   2.198
 9687SOL    HW129960   6.236   0.200   2.104
 9687SOL    HW229961   6.212   0.078   2.210
 9688SOL     OW29962   1.605   4.847   1.580
 9688SOL    HW129963   1.618   4.887   1.489
 9688SOL    HW229964   1.513   4.869   1.612
 9689SOL     OW29965   1.149   6.215   0.050
 9689SOL    HW129966   1.153   6.180   6.979
 9689SOL    HW229967   1.191   6.149   0.112
 9690SOL     OW29968   5.736   6.066   5.373
 9690SOL    HW129969   5.774   6.040   5.284
 9690SOL    HW229970   5.637   6.055   5.372
 9691SOL     OW29971   3.226   3.745   1.909
 9691SOL    HW129972   3.170   3.826   1.929
 9691SOL    HW229973   3.202   3.711   1.818
 9692SOL     OW29974   4.559   4.743   0.211
 9692SOL    HW129975   4.477   4.793   0.183
 9692SOL    HW229976   4.567   4.745   0.310
 9693SOL     OW29977   5.716   3.957   3.961
 9693SOL    HW129978   5.805   3.977   3.921
 9693SOL    HW229979   5.657   3.912   3.893
 9694SOL     OW29980   2.777   6.559   1.899
 9694SOL    HW129981   2.756   6.644   1.851
 9694SOL    HW229982   2.692   6.509   1.918
 9695SOL     OW29983   0.064   3.519   4.251
 9695SOL    HW129984   0.061   3.487   4.156
 9695SOL    HW229985   0.075   3.619   4.252
 9696SOL     OW29986   6.060   1.971   3.001
 9696SOL    HW129987   5.972   1.941   2.962
 9696SOL    HW229988   6.073   2.068   2.983
 9697SOL     OW29989   0.116   5.920   0.412
 9697SOL    HW129990   0.111   6.013   0.376
 9697SOL    HW229991   0.143   5.924   0.508
 9698SOL     OW29992   5.066   3.494   0.407
 9698SOL    HW129993   5.046   3.457   0.316
 9698SOL    HW229994   5.162   3.522   0.411
 9699SOL     OW29995   1.178   5.002   0.121
 9699SOL    HW129996   1.194   5.028   0.216
 9699SOL    HW229997   1.080   4.998   0.103
 9700SOL     OW29998   6.025   6.696   3.963
 9700SOL    HW129999   5.959   6.725   4.033
 9700SOL    HW230000   6.112   6.744   3.978
 9701SOL     OW30001   4.921   2.883   6.530
 9701SOL    HW130002   4.921   2.967   6.585
 9701SOL    HW230003   4.885   2.807   6.585
 9702SOL     OW30004   3.380   2.944   0.674
 9702SOL    HW130005   3.446   2.997   0.727
 9702SOL    HW230006   3.297   2.931   0.728
 9703SOL     OW30007   6.139   4.148   5.147
 9703SOL    HW130008   6.232   4.158   5.182
 9703SOL    HW230009   6.119   4.051   5.133
 9704SOL     OW30010   2.484   4.675   2.751
 9704SOL    HW130011   2.466   4.754   2.693
 9704SOL    HW230012   2.532   4.605   2.698
 9705SOL     OW30013   6.188   4.397   5.467
 9705SOL    HW130014   6.153   4.372   5.377
 9705SOL    HW230015   6.116   4.443   5.518
 9706SOL     OW30016   1.016   1.402   1.927
 9706SOL    HW130017   0.955   1.326   1.947
 9706SOL    HW230018   1.054   1.438   2.012
 9707SOL     OW30019   6.056   4.967   2.280
 9707SOL    HW130020   5.972   4.998   2.235
 9707SOL    HW230021   6.034   4.890   2.341
 9708SOL     OW30022   1.475   0.717   2.368
 9708SOL    HW130023   1.472   0.705   2.468
 9708SOL    HW230024   1.433   0.639   2.323
 9709SOL     OW30025   5.901   3.135   2.266
 9709SOL    HW130026   5.848   3.064   2.219
 9709SOL    HW230027   5.994   3.100   2.284
 9710SOL     OW30028   5.843   6.209   5.654
 9710SOL    HW130029   5.826   6.307   5.639
 9710SOL    HW230030   5.902   6.198   5.734
 9711SOL     OW30031   4.179   6.337   0.043
 9711SOL    HW130032   4.254   6.300   7.012
 9711SOL    HW230033   4.104   6.363   7.005
 9712SOL     OW30034   6.194   3.011   0.541
 9712SOL    HW130035   6.180   2.914   0.560
 9712SOL    HW230036   6.251   3.021   0.459
 9713SOL     OW30037   1.909   6.153   3.672
 9713SOL    HW130038   1.875   6.199   3.590
 9713SOL    HW230039   1.918   6.220   3.746
 9714SOL     OW30040   4.175   5.144   4.475
 9714SOL    HW130041   4.233   5.118   4.398
 9714SOL    HW230042   4.088   5.180   4.441
 9715SOL     OW30043   6.171   4.772   0.978
 9715SOL    HW130044   6.263   4.735   0.967
 9715SOL    HW230045   6.115   4.707   1.028
 9716SOL     OW30046   3.761   4.458   6.972
 9716SOL    HW130047   3.861   4.462   6.965
 9716SOL    HW230048   3.723   4.426   6.886
 9717SOL     OW30049   4.627   0.876   5.886
 9717SOL    HW130050   4.658   0.787   5.918
 9717SOL    HW230051   4.655   0.888   5.791
 9718SOL     OW30052   3.218   1.896   0.412
 9718SOL    HW130053   3.251   1.814   0.364
 9718SOL    HW230054   3.212   1.972   0.346
 9719SOL     OW30055   4.689   6.249   5.054
 9719SOL    HW130056   4.706   6.224   5.149
 9719SOL    HW230057   4.699   6.169   4.995
 9720SOL     OW30058   1.737   4.161   3.054
 9720SOL    HW130059   1.704   4.150   3.148
 9720SOL    HW230060   1.793   4.082   3.029
 9721SOL     OW30061   0.910   1.884   0.218
 9721SOL    HW130062   1.009   1.878   0.201
 9721SOL    HW230063   0.895   1.905   0.314
 9722SOL     OW30064   3.701   2.676   5.476
 9722SOL    HW130065   3.683   2.770   5.447
 9722SOL    HW230066   3.615   2.633   5.503
 9723SOL     OW30067   6.064   4.516   4.676
 9723SOL    HW130068   5.984   4.565   4.642
 9723SOL    HW230069   6.146   4.571   4.660
 9724SOL     OW30070   1.554   5.422   6.995
 9724SOL    HW130071   1.651   5.436   7.019
 9724SOL    HW230072   1.531   5.478   6.916
 9725SOL     OW30073   3.414   5.382   5.466
 9725SOL    HW130074   3.333   5.324   5.454
 9725SOL    HW230075   3.417   5.415   5.561
 9726SOL     OW30076   6.055   0.650   4.009
 9726SOL    HW130077   5.977   0.592   4.033
 9726SOL    HW230078   6.045   0.739   4.054
 9727SOL     OW30079   0.642   2.397   6.701
 9727SOL    HW130080   0.625   2.448   6.786
 9727SOL    HW230081   0.556   2.358   6.668
 9728SOL     OW30082   5.819   0.449   6.051
 9728SOL    HW130083   5.848   0.379   5.986
 9728SOL    HW230084   5.798   0.406   6.139
 9729SOL     OW30085   0.803   4.270   3.543
 9729SOL    HW130086   0.865   4.345   3.523
 9729SOL    HW230087   0.840   4.186   3.503
 9730SOL     OW30088   0.408   4.598   3.234
 9730SOL    HW130089   0.321   4.564   3.200
 9730SOL    HW230090   0.447   4.531   3.298
 9731SOL     OW30091   4.992   3.748   2.772
 9731SOL    HW130092   4.979   3.672   2.708
 9731SOL    HW230093   5.023   3.829   2.723
 9732SOL     OW30094   1.602   2.638   2.336
 9732SOL    HW130095   1.645   2.580   2.267
 9732SOL    HW230096   1.627   2.734   2.320
 9733SOL     OW30097   6.157   5.580   2.907
 9733SOL    HW130098   6.235   5.543   2.857
 9733SOL    HW230099   6.072   5.552   2.862
 9734SOL     OW30100   6.157   6.347   6.387
 9734SOL    HW130101   6.068   6.305   6.374
 9734SOL    HW230102   6.148   6.428   6.446
 9735SOL     OW30103   1.546   1.559   2.436
 9735SOL    HW130104   1.578   1.593   2.525
 9735SOL    HW230105   1.495   1.474   2.450
 9736SOL     OW30106   5.143   1.977   5.091
 9736SOL    HW130107   5.155   1.960   4.993
 9736SOL    HW230108   5.079   2.052   5.104
 9737SOL     OW30109   6.078   1.687   2.440
 9737SOL    HW130110   6.013   1.623   2.400
 9737SOL    HW230111   6.137   1.638   2.505
 9738SOL     OW30112   2.434   5.994   1.046
 9738SOL    HW130113   2.491   5.915   1.022
 9738SOL    HW230114   2.339   5.965   1.057
 9739SOL     OW30115   4.787   6.877   6.882
 9739SOL    HW130116   4.750   6.896   6.792
 9739SOL    HW230117   4.843   6.954   6.913
 9740SOL     OW30118   6.222   1.141   2.458
 9740SOL    HW130119   6.241   1.132   2.555
 9740SOL    HW230120   6.302   1.111   2.406
 9741SOL     OW30121   3.143   1.678   4.618
 9741SOL    HW130122   3.118   1.608   4.551
 9741SOL    HW230123   3.069   1.687   4.686
 9742SOL     OW30124   4.334   1.405   6.320
 9742SOL    HW130125   4.316   1.316   6.278
 9742SOL    HW230126   4.307   1.477   6.255
 9743SOL     OW30127   6.626   2.968   3.394
 9743SOL    HW130128   6.672   3.057   3.385
 9743SOL    HW230129   6.601   2.934   3.303
 9744SOL     OW30130   1.994   6.781   3.668
 9744SOL    HW130131   2.029   6.728   3.591
 9744SOL    HW230132   1.912   6.738   3.704
 9745SOL     OW30133   5.921   1.392   5.611
 9745SOL    HW130134   6.016   1.404   5.583
 9745SOL    HW230135   5.886   1.476   5.651
 9746SOL     OW30136   5.022   6.166   6.697
 9746SOL    HW130137   4.948   6.122   6.748
 9746SOL    HW230138   5.090   6.202   6.760
 9747SOL     OW30139   2.365   2.034   1.975
 9747SOL    HW130140   2.439   2.047   2.041
 9747SOL    HW230141   2.294   2.103   1.991
 9748SOL     OW30142   0.305   0.355   3.042
 9748SOL    HW130143   0.252   0.344   2.958
 9748SOL    HW230144   0.260   0.309   3.118
 9749SOL     OW30145   0.699   1.566   2.183
 9749SOL    HW130146   0.652   1.489   2.138
 9749SOL    HW230147   0.650   1.651   2.164
 9750SOL     OW30148   5.983   4.747   4.313
 9750SOL    HW130149   5.919   4.814   4.352
 9750SOL    HW230150   5.938   4.696   4.241
 9751SOL     OW30151   2.542   0.367   1.747
 9751SOL    HW130152   2.560   0.310   1.828
 9751SOL    HW230153   2.627   0.404   1.712
 9752SOL     OW30154   4.353   2.344   0.272
 9752SOL    HW130155   4.369   2.354   0.371
 9752SOL    HW230156   4.318   2.429   0.235
 9753SOL     OW30157   0.082   5.833   6.302
 9753SOL    HW130158   7.020   5.866   6.343
 9753SOL    HW230159   0.107   5.746   6.343
 9754SOL     OW30160   3.925   0.852   0.622
 9754SOL    HW130161   3.890   0.897   0.540
 9754SOL    HW230162   3.849   0.813   0.674
 9755SOL     OW30163   3.390   4.221   5.422
 9755SOL    HW130164   3.468   4.197   5.364
 9755SOL    HW230165   3.421   4.275   5.499
 9756SOL     OW30166   5.387   1.501   6.154
 9756SOL    HW130167   5.321   1.514   6.228
 9756SOL    HW230168   5.468   1.454   6.190
 9757SOL     OW30169   5.653   4.139   4.419
 9757SOL    HW130170   5.568   4.117   4.466
 9757SOL    HW230171   5.655   4.093   4.330
 9758SOL     OW30172   0.971   0.650   0.482
 9758SOL    HW130173   0.991   0.596   0.400
 9758SOL    HW230174   0.907   0.723   0.459
 9759SOL     OW30175   0.852   1.610   0.551
 9759SOL    HW130176   0.845   1.512   0.533
 9759SOL    HW230177   0.763   1.645   0.577
 9760SOL     OW30178   4.767   2.518   6.980
 9760SOL    HW130179   4.675   2.490   6.953
 9760SOL    HW230180   4.834   2.459   6.935
 9761SOL     OW30181   1.138   0.874   1.766
 9761SOL    HW130182   1.045   0.887   1.801
 9761SOL    HW230183   1.158   0.945   1.698
 9762SOL     OW30184   2.981   1.475   4.772
 9762SOL    HW130185   3.024   1.467   4.682
 9762SOL    HW230186   2.912   1.403   4.782
 9763SOL     OW30187   6.537   1.702   1.864
 9763SOL    HW130188   6.502   1.758   1.939
 9763SOL    HW230189   6.466   1.692   1.794
 9764SOL     OW30190   5.795   2.376   2.379
 9764SOL    HW130191   5.708   2.401   2.336
 9764SOL    HW230192   5.865   2.367   2.309
 9765SOL     OW30193   6.510   1.245   2.084
 9765SOL    HW130194   6.452   1.285   2.155
 9765SOL    HW230195   6.537   1.316   2.019
 9766SOL     OW30196   2.634   0.485   3.700
 9766SOL    HW130197   2.635   0.447   3.608
 9766SOL    HW230198   2.726   0.515   3.725
 9767SOL     OW30199   2.152   3.143   5.913
 9767SOL    HW130200   2.139   3.089   5.830
 9767SOL    HW230201   2.108   3.232   5.901
 9768SOL     OW30202   5.939   2.514   0.620
 9768SOL    HW130203   5.973   2.510   0.713
 9768SOL    HW230204   5.854   2.462   0.613
 9769SOL     OW30205   3.058   1.434   5.345
 9769SOL    HW130206   2.968   1.392   5.341
 9769SOL    HW230207   3.125   1.374   5.301
 9770SOL     OW30208   3.751   2.502   6.135
 9770SOL    HW130209   3.675   2.496   6.071
 9770SOL    HW230210   3.777   2.598   6.147
 9771SOL     OW30211   2.468   6.540   2.408
 9771SOL    HW130212   2.484   6.442   2.424
 9771SOL    HW230213   2.440   6.584   2.493
 9772SOL     OW30214   1.430   5.725   2.124
 9772SOL    HW130215   1.425   5.666   2.044
 9772SOL    HW230216   1.338   5.738   2.161
 9773SOL     OW30217   5.403   5.788   2.686
 9773SOL    HW130218   5.451   5.808   2.771
 9773SOL    HW230219   5.307   5.816   2.694
 9774SOL     OW30220   0.911   5.451   3.559
 9774SOL    HW130221   1.007   5.479   3.565
 9774SOL    HW230222   0.879   5.461   3.465
 9775SOL     OW30223   2.898   0.758   3.732
 9775SOL    HW130224   2.827   0.824   3.753
 9775SOL    HW230225   2.871   0.668   3.767
 9776SOL     OW30226   1.604   5.004   5.965
 9776SOL    HW130227   1.685   4.952   5.937
 9776SOL    HW230228   1.545   4.945   6.020
 9777SOL     OW30229   5.389   7.007   6.849
 9777SOL    HW130230   5.318   6.969   6.791
 9777SOL    HW230231   5.415   6.940   6.919
 9778SOL     OW30232   0.420   1.987   4.551
 9778SOL    HW130233   0.488   2.001   4.478
 9778SOL    HW230234   0.437   2.053   4.624
 9779SOL     OW30235   0.523   2.071   3.166
 9779SOL    HW130236   0.589   2.073   3.241
 9779SOL    HW230237   0.561   2.018   3.090
 9780SOL     OW30238   1.358   1.835   1.202
 9780SOL    HW130239   1.319   1.810   1.291
 9780SOL    HW230240   1.300   1.797   1.130
 9781SOL     OW30241   1.349   3.660   3.701
 9781SOL    HW130242   1.266   3.712   3.682
 9781SOL    HW230243   1.325   3.566   3.724
 9782SOL     OW30244   0.337   2.561   0.182
 9782SOL    HW130245   0.344   2.656   0.213
 9782SOL    HW230246   0.298   2.504   0.254
 9783SOL     OW30247   4.084   1.693   3.140
 9783SOL    HW130248   4.091   1.762   3.212
 9783SOL    HW230249   4.002   1.638   3.156
 9784SOL     OW30250   2.993   1.147   6.973
 9784SOL    HW130251   3.032   1.215   6.912
 9784SOL    HW230252   2.901   1.174   7.001
 9785SOL     OW30253   6.804   2.598   4.716
 9785SOL    HW130254   6.793   2.504   4.684
 9785SOL    HW230255   6.773   2.604   4.811
 9786SOL     OW30256   3.281   4.496   0.722
 9786SOL    HW130257   3.286   4.423   0.789
 9786SOL    HW230258   3.188   4.531   0.718
 9787SOL     OW30259   3.790   3.765   3.736
 9787SOL    HW130260   3.743   3.764   3.824
 9787SOL    HW230261   3.787   3.674   3.695
 9788SOL     OW30262   0.688   5.747   1.967
 9788SOL    HW130263   0.640   5.771   2.052
 9788SOL    HW230264   0.778   5.791   1.966
 9789SOL     OW30265   3.074   0.135   6.701
 9789SOL    HW130266   3.072   0.145   6.801
 9789SOL    HW230267   3.003   0.069   6.674
 9790SOL     OW30268   6.568   4.128   5.048
 9790SOL    HW130269   6.648   4.072   5.024
 9790SOL    HW230270   6.508   4.136   4.969
 9791SOL     OW30271   0.592   6.230   0.485
 9791SOL    HW130272   0.668   6.280   0.442
 9791SOL    HW230273   0.575   6.267   0.576
 9792SOL     OW30274   3.115   5.207   0.717
 9792SOL    HW130275   3.184   5.157   0.769
 9792SOL    HW230276   3.143   5.212   0.621
 9793SOL     OW30277   4.524   1.164   1.682
 9793SOL    HW130278   4.601   1.228   1.681
 9793SOL    HW230279   4.473   1.172   1.596
 9794SOL     OW30280   4.943   4.532   4.745
 9794SOL    HW130281   4.970   4.622   4.779
 9794SOL    HW230282   4.942   4.532   4.645
 9795SOL     OW30283   0.861   3.426   4.139
 9795SOL    HW130284   0.784   3.366   4.157
 9795SOL    HW230285   0.929   3.378   4.084
 9796SOL     OW30286   4.059   3.844   3.644
 9796SOL    HW130287   3.967   3.847   3.682
 9796SOL    HW230288   4.113   3.777   3.693
 9797SOL     OW30289   3.459   6.200   6.811
 9797SOL    HW130290   3.479   6.201   6.713
 9797SOL    HW230291   3.361   6.216   6.826
 9798SOL     OW30292   2.316   2.667   1.193
 9798SOL    HW130293   2.227   2.622   1.203
 9798SOL    HW230294   2.388   2.607   1.229
 9799SOL     OW30295   2.892   5.217   6.581
 9799SOL    HW130296   2.916   5.128   6.618
 9799SOL    HW230297   2.894   5.214   6.481
 9800SOL     OW30298   5.839   2.759   4.299
 9800SOL    HW130299   5.781   2.814   4.358
 9800SOL    HW230300   5.795   2.746   4.210
 9801SOL     OW30301   5.217   4.896   6.815
 9801SOL    HW130302   5.231   4.915   6.913
 9801SOL    HW230303   5.252   4.805   6.794
 9802SOL     OW30304   3.990   5.156   0.568
 9802SOL    HW130305   3.957   5.240   0.611
 9802SOL    HW230306   4.047   5.106   0.633
 9803SOL     OW30307   1.761   3.124   6.435
 9803SOL    HW130308   1.681   3.117   6.375
 9803SOL    HW230309   1.734   3.107   6.530
 9804SOL     OW30310   6.531   5.830   2.970
 9804SOL    HW130311   6.516   5.775   3.053
 9804SOL    HW230312   6.501   5.924   2.988
 9805SOL     OW30313   0.525   6.500   3.373
 9805SOL    HW130314   0.573   6.575   3.420
 9805SOL    HW230315   0.537   6.510   3.275
 9806SOL     OW30316   3.815   2.151   5.975
 9806SOL    HW130317   3.854   2.195   6.056
 9806SOL    HW230318   3.717   2.136   5.989
 9807SOL     OW30319   3.128   2.998   2.662
 9807SOL    HW130320   3.083   2.917   2.626
 9807SOL    HW230321   3.226   2.983   2.667
 9808SOL     OW30322   4.200   6.105   4.045
 9808SOL    HW130323   4.214   6.154   3.959
 9808SOL    HW230324   4.263   6.027   4.050
 9809SOL     OW30325   0.547   2.913   0.446
 9809SOL    HW130326   0.593   2.826   0.466
 9809SOL    HW230327   0.530   2.920   0.348
 9810SOL     OW30328   2.702   1.804   5.053
 9810SOL    HW130329   2.773   1.753   5.101
 9810SOL    HW230330   2.696   1.772   4.958
 9811SOL     OW30331   6.594   3.751   4.331
 9811SOL    HW130332   6.678   3.736   4.279
 9811SOL    HW230333   6.591   3.688   4.409
 9812SOL     OW30334   2.670   6.730   4.928
 9812SOL    HW130335   2.704   6.658   4.868
 9812SOL    HW230336   2.726   6.812   4.917
 9813SOL     OW30337   5.440   2.729   0.702
 9813SOL    HW130338   5.480   2.637   0.707
 9813SOL    HW230339   5.444   2.772   0.792
 9814SOL     OW30340   5.862   1.913   0.220
 9814SOL    HW130341   5.864   1.988   0.286
 9814SOL    HW230342   5.777   1.916   0.167
 9815SOL     OW30343   4.789   2.397   4.250
 9815SOL    HW130344   4.834   2.486   4.252
 9815SOL    HW230345   4.689   2.410   4.250
 9816SOL     OW30346   1.236   6.879   5.963
 9816SOL    HW130347   1.222   6.786   5.998
 9816SOL    HW230348   1.156   6.935   5.984
 9817SOL     OW30349   0.965   6.675   2.947
 9817SOL    HW130350   0.896   6.738   2.911
 9817SOL    HW230351   0.962   6.589   2.895
 9818SOL     OW30352   5.777   1.616   5.027
 9818SOL    HW130353   5.827   1.539   5.064
 9818SOL    HW230354   5.680   1.606   5.047
 9819SOL     OW30355   4.231   2.291   3.281
 9819SOL    HW130356   4.313   2.347   3.267
 9819SOL    HW230357   4.184   2.322   3.363
 9820SOL     OW30358   3.306   4.363   6.389
 9820SOL    HW130359   3.400   4.368   6.356
 9820SOL    HW230360   3.244   4.346   6.313
 9821SOL     OW30361   6.071   6.619   6.787
 9821SOL    HW130362   6.004   6.693   6.783
 9821SOL    HW230363   6.107   6.601   6.696
 9822SOL     OW30364   0.739   6.819   2.887
 9822SOL    HW130365   0.643   6.832   2.865
 9822SOL    HW230366   0.795   6.879   2.830
 9823SOL     OW30367   3.624   0.646   1.391
 9823SOL    HW130368   3.636   0.572   1.325
 9823SOL    HW230369   3.589   0.609   1.477
 9824SOL     OW30370   1.112   4.118   5.891
 9824SOL    HW130371   1.182   4.178   5.930
 9824SOL    HW230372   1.115   4.029   5.937
 9825SOL     OW30373   3.523   5.847   5.541
 9825SOL    HW130374   3.478   5.776   5.487
 9825SOL    HW230375   3.571   5.910   5.480
 9826SOL     OW30376   4.795   6.112   6.120
 9826SOL    HW130377   4.727   6.183   6.101
 9826SOL    HW230378   4.860   6.107   6.044
 9827SOL     OW30379   1.718   4.075   4.593
 9827SOL    HW130380   1.727   4.005   4.664
 9827SOL    HW230381   1.637   4.056   4.537
 9828SOL     OW30382   3.485   2.909   6.198
 9828SOL    HW130383   3.487   3.008   6.215
 9828SOL    HW230384   3.411   2.868   6.250
 9829SOL     OW30385   3.439   6.368   0.746
 9829SOL    HW130386   3.391   6.437   0.801
 9829SOL    HW230387   3.514   6.412   0.696
 9830SOL     OW30388   6.071   1.894   1.580
 9830SOL    HW130389   6.087   1.988   1.551
 9830SOL    HW230390   6.000   1.852   1.523
 9831SOL     OW30391   1.237   6.068   0.720
 9831SOL    HW130392   1.302   6.141   0.699
 9831SOL    HW230393   1.251   5.991   0.657
 9832SOL     OW30394   4.701   4.975   2.505
 9832SOL    HW130395   4.677   5.069   2.528
 9832SOL    HW230396   4.748   4.972   2.417
 9833SOL     OW30397   3.316   3.150   5.065
 9833SOL    HW130398   3.379   3.099   5.125
 9833SOL    HW230399   3.255   3.086   5.019
 9834SOL     OW30400   2.857   3.736   5.794
 9834SOL    HW130401   2.799   3.783   5.860
 9834SOL    HW230402   2.800   3.680   5.733
 9835SOL     OW30403   4.534   2.131   4.942
 9835SOL    HW130404   4.553   2.047   4.993
 9835SOL    HW230405   4.524   2.110   4.845
 9836SOL     OW30406   6.484   3.723   3.533
 9836SOL    HW130407   6.405   3.677   3.492
 9836SOL    HW230408   6.454   3.808   3.576
 9837SOL     OW30409   1.417   6.780   3.239
 9837SOL    HW130410   1.482   6.756   3.167
 9837SOL    HW230411   1.324   6.775   3.202
 9838SOL     OW30412   0.416   0.101   5.691
 9838SOL    HW130413   0.340   0.108   5.626
 9838SOL    HW230414   0.410   0.015   5.740
 9839SOL     OW30415   6.801   1.460   2.545
 9839SOL    HW130416   6.798   1.426   2.639
 9839SOL    HW230417   6.858   1.543   2.542
 9840SOL     OW30418   0.129   0.206   0.730
 9840SOL    HW130419   0.208   0.257   0.696
 9840SOL    HW230420   0.136   0.194   0.829
 9841SOL     OW30421   1.645   4.431   4.679
 9841SOL    HW130422   1.653   4.399   4.774
 9841SOL    HW230423   1.728   4.407   4.629
 9842SOL     OW30424   3.138   3.760   3.628
 9842SOL    HW130425   3.143   3.660   3.632
 9842SOL    HW230426   3.110   3.788   3.536
 9843SOL     OW30427   6.458   1.832   1.540
 9843SOL    HW130428   6.389   1.770   1.578
 9843SOL    HW230429   6.509   1.786   1.468
 9844SOL     OW30430   4.607   6.794   3.239
 9844SOL    HW130431   4.543   6.831   3.307
 9844SOL    HW230432   4.669   6.729   3.284
 9845SOL     OW30433   2.154   1.230   5.053
 9845SOL    HW130434   2.145   1.329   5.054
 9845SOL    HW230435   2.079   1.189   5.104
 9846SOL     OW30436   3.721   3.967   3.207
 9846SOL    HW130437   3.807   3.965   3.257
 9846SOL    HW230438   3.651   3.920   3.260
 9847SOL     OW30439   2.231   2.508   6.077
 9847SOL    HW130440   2.304   2.467   6.022
 9847SOL    HW230441   2.253   2.501   6.174
 9848SOL     OW30442   3.618   2.540   6.621
 9848SOL    HW130443   3.564   2.557   6.703
 9848SOL    HW230444   3.582   2.596   6.546
 9849SOL     OW30445   6.025   0.620   6.845
 9849SOL    HW130446   6.103   0.637   6.905
 9849SOL    HW230447   5.969   0.703   6.838
 9850SOL     OW30448   5.145   5.963   2.299
 9850SOL    HW130449   5.227   5.961   2.242
 9850SOL    HW230450   5.160   5.905   2.380
 9851SOL     OW30451   4.516   1.969   5.217
 9851SOL    HW130452   4.502   1.875   5.247
 9851SOL    HW230453   4.428   2.011   5.195
 9852SOL     OW30454   3.989   2.089   3.376
 9852SOL    HW130455   3.981   2.104   3.278
 9852SOL    HW230456   4.025   1.997   3.394
 9853SOL     OW30457   4.784   4.166   3.277
 9853SOL    HW130458   4.785   4.203   3.184
 9853SOL    HW230459   4.812   4.070   3.274
 9854SOL     OW30460   6.119   5.225   4.954
 9854SOL    HW130461   6.028   5.199   4.922
 9854SOL    HW230462   6.140   5.176   5.039
 9855SOL     OW30463   1.456   4.266   1.546
 9855SOL    HW130464   1.435   4.199   1.618
 9855SOL    HW230465   1.482   4.218   1.463
 9856SOL     OW30466   4.424   3.674   0.178
 9856SOL    HW130467   4.514   3.685   0.222
 9856SOL    HW230468   4.388   3.764   0.154
 9857SOL     OW30469   5.435   2.425   3.351
 9857SOL    HW130470   5.472   2.381   3.269
 9857SOL    HW230471   5.336   2.409   3.354
 9858SOL     OW30472   5.894   0.205   1.355
 9858SOL    HW130473   5.897   0.305   1.345
 9858SOL    HW230474   5.983   0.172   1.386
 9859SOL     OW30475   6.669   6.611   1.093
 9859SOL    HW130476   6.761   6.571   1.087
 9859SOL    HW230477   6.628   6.613   1.002
 9860SOL     OW30478   0.442   0.956   1.777
 9860SOL    HW130479   0.427   1.054   1.787
 9860SOL    HW230480   0.508   0.939   1.703
 9861SOL     OW30481   3.178   6.926   4.005
 9861SOL    HW130482   3.244   7.001   3.991
 9861SOL    HW230483   3.094   6.963   4.046
 9862SOL     OW30484   2.735   3.770   0.910
 9862SOL    HW130485   2.675   3.692   0.926
 9862SOL    HW230486   2.808   3.745   0.846
 9863SOL     OW30487   3.329   6.637   3.167
 9863SOL    HW130488   3.347   6.712   3.103
 9863SOL    HW230489   3.325   6.673   3.260
 9864SOL     OW30490   3.891   5.992   3.713
 9864SOL    HW130491   3.978   6.020   3.674
 9864SOL    HW230492   3.863   6.057   3.783
 9865SOL     OW30493   1.008   0.805   4.158
 9865SOL    HW130494   0.941   0.776   4.089
 9865SOL    HW230495   0.979   0.891   4.199
 9866SOL     OW30496   4.946   4.487   4.484
 9866SOL    HW130497   4.904   4.399   4.462
 9866SOL    HW230498   4.967   4.536   4.400
 9867SOL     OW30499   4.755   0.583   1.247
 9867SOL    HW130500   4.662   0.576   1.284
 9867SOL    HW230501   4.795   0.671   1.274
 9868SOL     OW30502   1.798   4.677   5.810
 9868SOL    HW130503   1.871   4.610   5.795
 9868SOL    HW230504   1.723   4.633   5.860
 9869SOL     OW30505   2.020   3.787   2.767
 9869SOL    HW130506   2.018   3.702   2.715
 9869SOL    HW230507   2.043   3.768   2.862
 9870SOL     OW30508   3.920   5.942   2.601
 9870SOL    HW130509   3.979   5.948   2.681
 9870SOL    HW230510   3.843   6.004   2.612
 9871SOL     OW30511   0.677   6.544   6.007
 9871SOL    HW130512   0.611   6.560   5.935
 9871SOL    HW230513   0.694   6.446   6.016
 9872SOL     OW30514   2.861   5.052   3.372
 9872SOL    HW130515   2.895   4.958   3.374
 9872SOL    HW230516   2.866   5.087   3.278
 9873SOL     OW30517   2.058   2.538   1.223
 9873SOL    HW130518   2.016   2.449   1.210
 9873SOL    HW230519   1.998   2.595   1.280
 9874SOL     OW30520   0.703   2.758   4.013
 9874SOL    HW130521   0.638   2.798   4.078
 9874SOL    HW230522   0.696   2.659   4.015
 9875SOL     OW30523   0.206   6.351   2.202
 9875SOL    HW130524   0.163   6.294   2.273
 9875SOL    HW230525   0.247   6.292   2.133
 9876SOL     OW30526   0.064   1.262   1.824
 9876SOL    HW130527   0.072   1.183   1.885
 9876SOL    HW230528   7.001   1.256   1.774
 9877SOL     OW30529   1.042   5.651   2.960
 9877SOL    HW130530   1.084   5.660   3.050
 9877SOL    HW230531   1.097   5.702   2.893
 9878SOL     OW30532   2.518   5.175   4.904
 9878SOL    HW130533   2.580   5.248   4.932
 9878SOL    HW230534   2.479   5.132   4.986
 9879SOL     OW30535   5.878   5.132   4.827
 9879SOL    HW130536   5.783   5.147   4.801
 9879SOL    HW230537   5.907   5.041   4.797
 9880SOL     OW30538   1.845   2.123   5.400
 9880SOL    HW130539   1.863   2.044   5.458
 9880SOL    HW230540   1.860   2.097   5.304
 9881SOL     OW30541   1.850   1.471   5.035
 9881SOL    HW130542   1.835   1.482   5.134
 9881SOL    HW230543   1.762   1.469   4.988
 9882SOL     OW30544   0.776   2.018   3.612
 9882SOL    HW130545   0.860   2.010   3.666
 9882SOL    HW230546   0.713   2.081   3.657
 9883SOL     OW30547   1.677   5.584   0.288
 9883SOL    HW130548   1.578   5.575   0.290
 9883SOL    HW230549   1.710   5.570   0.195
 9884SOL     OW30550   4.313   1.564   3.090
 9884SOL    HW130551   4.318   1.511   3.175
 9884SOL    HW230552   4.222   1.604   3.081
 9885SOL     OW30553   0.268   3.162   5.605
 9885SOL    HW130554   0.258   3.155   5.506
 9885SOL    HW230555   0.363   3.146   5.630
 9886SOL     OW30556   1.054   3.977   1.729
 9886SOL    HW130557   0.999   3.978   1.645
 9886SOL    HW230558   1.002   4.021   1.802
 9887SOL     OW30559   3.063   1.739   6.371
 9887SOL    HW130560   3.069   1.672   6.297
 9887SOL    HW230561   3.047   1.830   6.332
 9888SOL     OW30562   6.912   4.217   1.568
 9888SOL    HW130563   6.873   4.291   1.514
 9888SOL    HW230564   6.909   4.132   1.516
 9889SOL     OW30565   6.515   4.946   1.393
 9889SOL    HW130566   6.421   4.975   1.413
 9889SOL    HW230567   6.562   5.018   1.342
 9890SOL     OW30568   1.551   2.335   0.420
 9890SOL    HW130569   1.623   2.391   0.461
 9890SOL    HW230570   1.493   2.393   0.361
 9891SOL     OW30571   5.952   3.260   1.418
 9891SOL    HW130572   5.864   3.306   1.405
 9891SOL    HW230573   5.935   3.165   1.445
 9892SOL     OW30574   6.600   5.148   0.619
 9892SOL    HW130575   6.522   5.109   0.667
 9892SOL    HW230576   6.684   5.131   0.671
 9893SOL     OW30577   1.144   0.169   0.812
 9893SOL    HW130578   1.176   0.263   0.823
 9893SOL    HW230579   1.205   0.107   0.861
 9894SOL     OW30580   1.815   2.112   1.573
 9894SOL    HW130581   1.862   2.093   1.659
 9894SOL    HW230582   1.737   2.050   1.563
 9895SOL     OW30583   6.101   3.632   5.416
 9895SOL    HW130584   6.128   3.705   5.352
 9895SOL    HW230585   6.144   3.647   5.504
 9896SOL     OW30586   6.259   0.294   6.478
 9896SOL    HW130587   6.195   0.228   6.437
 9896SOL    HW230588   6.214   0.340   6.554
 9897SOL     OW30589   5.960   5.615   3.533
 9897SOL    HW130590   6.009   5.629   3.447
 9897SOL    HW230591   5.932   5.519   3.540
 9898SOL     OW30592   2.041   6.526   5.498
 9898SOL    HW130593   2.099   6.591   5.449
 9898SOL    HW230594   1.953   6.570   5.519
 9899SOL     OW30595   0.775   5.446   6.742
 9899SOL    HW130596   0.815   5.431   6.833
 9899SOL    HW230597   0.721   5.365   6.717
 9900SOL     OW30598   1.668   4.015   3.446
 9900SOL    HW130599   1.730   4.027   3.368
 9900SOL    HW230600   1.697   3.935   3.499
 9901SOL     OW30601   3.068   1.561   6.174
 9901SOL    HW130602   3.130   1.531   6.102
 9901SOL    HW230603   2.982   1.592   6.133
 9902SOL     OW30604   3.181   4.691   0.233
 9902SOL    HW130605   3.098   4.717   0.185
 9902SOL    HW230606   3.160   4.673   0.329
 9903SOL     OW30607   4.727   1.250   1.358
 9903SOL    HW130608   4.637   1.285   1.329
 9903SOL    HW230609   4.797   1.286   1.297
 9904SOL     OW30610   0.802   3.684   0.116
 9904SOL    HW130611   0.895   3.702   0.148
 9904SOL    HW230612   0.805   3.648   0.023
 9905SOL     OW30613   2.700   0.513   6.395
 9905SOL    HW130614   2.799   0.522   6.398
 9905SOL    HW230615   2.660   0.593   6.349
 9906SOL     OW30616   2.858   3.078   1.780
 9906SOL    HW130617   2.873   3.130   1.864
 9906SOL    HW230618   2.779   3.116   1.732
 9907SOL     OW30619   6.693   0.531   0.780
 9907SOL    HW130620   6.645   0.530   0.868
 9907SOL    HW230621   6.667   0.614   0.729
 9908SOL     OW30622   5.522   1.463   4.237
 9908SOL    HW130623   5.453   1.499   4.173
 9908SOL    HW230624   5.504   1.498   4.329
 9909SOL     OW30625   4.185   0.615   3.867
 9909SOL    HW130626   4.244   0.655   3.798
 9909SOL    HW230627   4.133   0.539   3.827
 9910SOL     OW30628   1.573   3.687   2.642
 9910SOL    HW130629   1.517   3.708   2.562
 9910SOL    HW230630   1.636   3.613   2.621
 9911SOL     OW30631   2.955   6.323   1.835
 9911SOL    HW130632   2.916   6.249   1.890
 9911SOL    HW230633   2.900   6.406   1.847
 9912SOL     OW30634   3.849   1.554   1.883
 9912SOL    HW130635   3.783   1.536   1.811
 9912SOL    HW230636   3.933   1.589   1.843
 9913SOL     OW30637   6.463   4.146   0.824
 9913SOL    HW130638   6.447   4.072   0.889
 9913SOL    HW230639   6.377   4.194   0.806
 9914SOL     OW30640   5.704   2.316   4.625
 9914SOL    HW130641   5.626   2.342   4.682
 9914SOL    HW230642   5.771   2.390   4.626
 9915SOL     OW30643   5.679   0.823   3.955
 9915SOL    HW130644   5.703   0.737   4.000
 9915SOL    HW230645   5.620   0.877   4.015
 9916SOL     OW30646   1.598   2.409   3.112
 9916SOL    HW130647   1.619   2.311   3.117
 9916SOL    HW230648   1.667   2.460   3.163
 9917SOL     OW30649   5.636   3.935   6.944
 9917SOL    HW130650   5.721   3.944   6.996
 9917SOL    HW230651   5.558   3.955   7.004
 9918SOL     OW30652   3.014   1.464   3.384
 9918SOL    HW130653   3.023   1.383   3.442
 9918SOL    HW230654   2.918   1.488   3.375
 9919SOL     OW30655   6.397   5.087   1.078
 9919SOL    HW130656   6.483   5.127   1.047
 9919SOL    HW230657   6.337   5.158   1.113
 9920SOL     OW30658   5.224   1.652   2.125
 9920SOL    HW130659   5.283   1.727   2.094
 9920SOL    HW230660   5.178   1.679   2.209
 9921SOL     OW30661   4.247   0.276   6.170
 9921SOL    HW130662   4.221   0.276   6.073
 9921SOL    HW230663   4.254   0.181   6.202
 9922SOL     OW30664   2.632   4.468   0.608
 9922SOL    HW130665   2.640   4.374   0.576
 9922SOL    HW230666   2.590   4.469   0.699
 9923SOL     OW30667   4.893   4.637   0.226
 9923SOL    HW130668   4.813   4.578   0.218
 9923SOL    HW230669   4.963   4.607   0.160
 9924SOL     OW30670   6.617   1.988   4.888
 9924SOL    HW130671   6.534   1.962   4.938
 9924SOL    HW230672   6.596   2.061   4.823
 9925SOL     OW30673   6.454   3.348   3.919
 9925SOL    HW130674   6.355   3.333   3.912
 9925SOL    HW230675   6.493   3.358   3.827
 9926SOL     OW30676   3.980   2.698   0.824
 9926SOL    HW130677   4.037   2.716   0.743
 9926SOL    HW230678   3.980   2.600   0.843
 9927SOL     OW30679   6.748   6.729   0.621
 9927SOL    HW130680   6.726   6.704   0.527
 9927SOL    HW230681   6.768   6.827   0.626
 9928SOL     OW30682   5.418   5.972   2.068
 9928SOL    HW130683   5.433   6.067   2.096
 9928SOL    HW230684   5.461   5.957   1.978
 9929SOL     OW30685   3.181   5.006   5.216
 9929SOL    HW130686   3.177   5.020   5.117
 9929SOL    HW230687   3.130   4.923   5.240
 9930SOL     OW30688   6.876   0.070   4.416
 9930SOL    HW130689   6.853   0.049   4.321
 9930SOL    HW230690   6.854   7.015   4.473
 9931SOL     OW30691   1.144   4.921   4.223
 9931SOL    HW130692   1.100   4.852   4.167
 9931SOL    HW230693   1.196   4.876   4.297
 9932SOL     OW30694   2.464   5.586   6.855
 9932SOL    HW130695   2.390   5.552   6.798
 9932SOL    HW230696   2.464   5.686   6.854
 9933SOL     OW30697   0.948   5.457   3.835
 9933SOL    HW130698   0.945   5.479   3.738
 9933SOL    HW230699   0.873   5.395   3.858
 9934SOL     OW30700   5.335   1.281   5.421
 9934SOL    HW130701   5.420   1.252   5.376
 9934SOL    HW230702   5.357   1.337   5.501
 9935SOL     OW30703   2.840   6.584   0.324
 9935SOL    HW130704   2.839   6.602   0.422
 9935SOL    HW230705   2.747   6.563   0.293
 9936SOL     OW30706   6.673   5.267   6.630
 9936SOL    HW130707   6.618   5.347   6.607
 9936SOL    HW230708   6.751   5.260   6.567
 9937SOL     OW30709   0.042   1.838   0.197
 9937SOL    HW130710   7.021   1.804   0.280
 9937SOL    HW230711   7.001   1.833   0.120
 9938SOL     OW30712   6.992   5.215   2.334
 9938SOL    HW130713   0.037   5.187   2.402
 9938SOL    HW230714   6.921   5.269   2.378
 9939SOL     OW30715   4.343   2.502   1.148
 9939SOL    HW130716   4.341   2.418   1.203
 9939SOL    HW230717   4.402   2.488   1.068
 9940SOL     OW30718   0.796   0.227   1.199
 9940SOL    HW130719   0.752   0.172   1.128
 9940SOL    HW230720   0.737   0.305   1.222
 9941SOL     OW30721   2.827   4.009   5.580
 9941SOL    HW130722   2.838   3.965   5.491
 9941SOL    HW230723   2.730   4.027   5.597
 9942SOL     OW30724   2.526   5.299   2.133
 9942SOL    HW130725   2.606   5.240   2.122
 9942SOL    HW230726   2.532   5.376   2.069
 9943SOL     OW30727   6.960   5.208   5.327
 9943SOL    HW130728   6.878   5.210   5.269
 9943SOL    HW230729   6.944   5.264   5.408
 9944SOL     OW30730   1.900   4.060   6.210
 9944SOL    HW130731   1.879   4.123   6.284
 9944SOL    HW230732   1.957   3.986   6.244
 9945SOL     OW30733   6.433   5.366   6.564
 9945SOL    HW130734   6.335   5.356   6.583
 9945SOL    HW230735   6.454   5.322   6.477
 9946SOL     OW30736   4.732   0.978   4.024
 9946SOL    HW130737   4.797   1.049   3.998
 9946SOL    HW230738   4.772   0.923   4.098
 9947SOL     OW30739   1.478   2.826   4.967
 9947SOL    HW130740   1.559   2.813   5.024
 9947SOL    HW230741   1.405   2.766   4.998
 9948SOL     OW30742   5.302   4.752   4.572
 9948SOL    HW130743   5.314   4.652   4.573
 9948SOL    HW230744   5.375   4.794   4.627
 9949SOL     OW30745   5.681   4.893   4.163
 9949SOL    HW130746   5.730   4.810   4.140
 9949SOL    HW230747   5.640   4.884   4.254
 9950SOL     OW30748   5.779   6.255   4.931
 9950SOL    HW130749   5.794   6.325   4.861
 9950SOL    HW230750   5.735   6.175   4.890
 9951SOL     OW30751   6.402   1.274   5.162
 9951SOL    HW130752   6.461   1.206   5.206
 9951SOL    HW230753   6.323   1.228   5.122
 9952SOL     OW30754   0.703   3.601   1.256
 9952SOL    HW130755   0.617   3.553   1.272
 9952SOL    HW230756   0.745   3.623   1.344
 9953SOL     OW30757   6.127   2.585   4.261
 9953SOL    HW130758   6.181   2.502   4.271
 9953SOL    HW230759   6.030   2.562   4.255
 9954SOL     OW30760   6.390   0.625   6.170
 9954SOL    HW130761   6.389   0.541   6.224
 9954SOL    HW230762   6.330   0.693   6.212
 9955SOL     OW30763   6.265   3.652   5.166
 9955SOL    HW130764   6.209   3.569   5.171
 9955SOL    HW230765   6.298   3.665   5.073
 9956SOL     OW30766   1.468   0.276   2.124
 9956SOL    HW130767   1.463   0.177   2.132
 9956SOL    HW230768   1.405   0.307   2.052
 9957SOL     OW30769   5.402   5.646   2.446
 9957SOL    HW130770   5.381   5.698   2.530
 9957SOL    HW230771   5.449   5.706   2.381
 9958SOL     OW30772   3.425   5.384   0.989
 9958SOL    HW130773   3.426   5.287   1.010
 9958SOL    HW230774   3.487   5.432   1.052
 9959SOL     OW30775   4.131   3.655   5.262
 9959SOL    HW130776   4.154   3.558   5.253
 9959SOL    HW230777   4.087   3.687   5.178
 9960SOL     OW30778   6.770   6.567   2.447
 9960SOL    HW130779   6.789   6.549   2.543
 9960SOL    HW230780   6.758   6.481   2.398
 9961SOL     OW30781   1.797   5.344   4.081
 9961SOL    HW130782   1.720   5.301   4.126
 9961SOL    HW230783   1.814   5.300   3.993
 9962SOL     OW30784   6.658   0.240   2.814
 9962SOL    HW130785   6.569   0.285   2.805
 9962SOL    HW230786   6.644   0.143   2.832
 9963SOL     OW30787   3.440   2.708   6.803
 9963SOL    HW130788   3.386   2.787   6.775
 9963SOL    HW230789   3.396   2.624   6.771
 9964SOL     OW30790   4.799   5.074   5.574
 9964SOL    HW130791   4.728   5.009   5.601
 9964SOL    HW230792   4.787   5.098   5.477
 9965SOL     OW30793   4.108   6.772   0.160
 9965SOL    HW130794   4.106   6.792   0.062
 9965SOL    HW230795   4.096   6.674   0.174
 9966SOL     OW30796   1.706   5.472   1.545
 9966SOL    HW130797   1.637   5.535   1.511
 9966SOL    HW230798   1.737   5.412   1.471
 9967SOL     OW30799   0.311   6.262   1.948
 9967SOL    HW130800   0.235   6.236   1.890
 9967SOL    HW230801   0.396   6.258   1.896
 9968SOL     OW30802   3.466   3.773   1.325
 9968SOL    HW130803   3.516   3.819   1.252
 9968SOL    HW230804   3.367   3.783   1.309
 9969SOL     OW30805   1.825   2.774   2.098
 9969SOL    HW130806   1.785   2.815   2.017
 9969SOL    HW230807   1.809   2.834   2.177
 9970SOL     OW30808   4.823   3.873   3.255
 9970SOL    HW130809   4.741   3.817   3.251
 9970SOL    HW230810   4.877   3.860   3.172
 9971SOL     OW30811   1.743   5.191   1.404
 9971SOL    HW130812   1.824   5.227   1.450
 9971SOL    HW230813   1.746   5.091   1.403
 9972SOL     OW30814   5.738   5.207   1.385
 9972SOL    HW130815   5.740   5.158   1.472
 9972SOL    HW230816   5.816   5.269   1.380
 9973SOL     OW30817   6.134   1.641   3.743
 9973SOL    HW130818   6.180   1.597   3.820
 9973SOL    HW230819   6.124   1.575   3.668
 9974SOL     OW30820   1.124   2.539   2.823
 9974SOL    HW130821   1.185   2.464   2.796
 9974SOL    HW230822   1.095   2.526   2.918
 9975SOL     OW30823   5.819   4.109   0.291
 9975SOL    HW130824   5.876   4.042   0.244
 9975SOL    HW230825   5.741   4.132   0.233
 9976SOL     OW30826   0.921   6.684   5.623
 9976SOL    HW130827   0.955   6.695   5.716
 9976SOL    HW230828   0.957   6.598   5.585
 9977SOL     OW30829   6.707   5.578   5.497
 9977SOL    HW130830   6.761   5.605   5.418
 9977SOL    HW230831   6.666   5.488   5.481
 9978SOL     OW30832   0.658   2.591   4.720
 9978SOL    HW130833   0.577   2.533   4.713
 9978SOL    HW230834   0.632   2.685   4.698
 9979SOL     OW30835   6.269   4.865   5.719
 9979SOL    HW130836   6.269   4.829   5.626
 9979SOL    HW230837   6.175   4.870   5.754
 9980SOL     OW30838   2.131   0.731   6.248
 9980SOL    HW130839   2.228   0.712   6.266
 9980SOL    HW230840   2.117   0.743   6.150
 9981SOL     OW30841   2.457   1.487   3.038
 9981SOL    HW130842   2.455   1.558   3.108
 9981SOL    HW230843   2.370   1.437   3.040
 9982SOL     OW30844   6.223   6.105   4.311
 9982SOL    HW130845   6.206   6.140   4.219
 9982SOL    HW230846   6.322   6.094   4.325
 9983SOL     OW30847   6.847   2.065   2.571
 9983SOL    HW130848   6.850   2.034   2.666
 9983SOL    HW230849   6.921   2.021   2.519
 9984SOL     OW30850   2.659   1.059   0.147
 9984SOL    HW130851   2.710   1.043   0.232
 9984SOL    HW230852   2.682   0.988   0.080
 9985SOL     OW30853   1.116   0.909   0.569
 9985SOL    HW130854   1.057   0.914   0.650
 9985SOL    HW230855   1.099   0.824   0.521
 9986SOL     OW30856   5.808   4.751   5.946
 9986SOL    HW130857   5.748   4.692   5.892
 9986SOL    HW230858   5.754   4.802   6.012
 9987SOL     OW30859   6.844   3.089   4.350
 9987SOL    HW130860   6.859   3.132   4.261
 9987SOL    HW230861   6.900   3.006   4.357
 9988SOL     OW30862   0.585   5.792   4.233
 9988SOL    HW130863   0.540   5.862   4.289
 9988SOL    HW230864   0.517   5.726   4.202
 9989SOL     OW30865   6.727   3.418   4.079
 9989SOL    HW130866   6.683   3.370   4.002
 9989SOL    HW230867   6.730   3.516   4.060
 9990SOL     OW30868   2.157   4.843   3.058
 9990SOL    HW130869   2.156   4.745   3.080
 9990SOL    HW230870   2.126   4.895   3.138
 9991SOL     OW30871   2.591   2.112   3.864
 9991SOL    HW130872   2.505   2.148   3.829
 9991SOL    HW230873   2.649   2.084   3.787
 9992SOL     OW30874   5.699   5.074   0.501
 9992SOL    HW130875   5.616   5.059   0.448
 9992SOL    HW230876   5.754   5.145   0.457
 9993SOL     OW30877   2.863   0.845   0.807
 9993SOL    HW130878   2.764   0.857   0.809
 9993SOL    HW230879   2.907   0.935   0.805
 9994SOL     OW30880   5.995   4.720   3.122
 9994SOL    HW130881   5.978   4.630   3.083
 9994SOL    HW230882   6.087   4.723   3.160
 9995SOL     OW30883   4.894   1.637   3.065
 9995SOL    HW130884   4.949   1.574   3.119
 9995SOL    HW230885   4.876   1.720   3.118
 9996SOL     OW30886   3.235   3.921   0.188
 9996SOL    HW130887   3.246   3.830   0.228
 9996SOL    HW230888   3.290   3.986   0.239
 9997SOL     OW30889   3.150   1.608   5.832
 9997SOL    HW130890   3.174   1.594   5.736
 9997SOL    HW230891   3.087   1.536   5.861
 9998SOL     OW30892   6.133   5.047   6.044
 9998SOL    HW130893   6.161   5.143   6.047
 9998SOL    HW230894   6.110   5.016   6.136
 9999SOL     OW30895   6.329   2.960   5.985
 9999SOL    HW130896   6.274   2.883   6.019
 9999SOL    HW230897   6.270   3.038   5.966
10000SOL     OW30898   6.699   4.201   6.934
10000SOL    HW130899   6.777   4.257   6.907
10000SOL    HW230900   6.715   4.164   0.003
10001SOL     OW30901   4.626   6.912   2.095
10001SOL    HW130902   4.594   6.845   2.162
10001SOL    HW230903   4.694   6.869   2.035
10002SOL     OW30904   1.527   6.664   1.868
10002SOL    HW130905   1.591   6.625   1.802
10002SOL    HW230906   1.507   6.597   1.939
10003SOL     OW30907   3.684   2.154   3.564
10003SOL    HW130908   3.686   2.148   3.464
10003SOL    HW230909   3.770   2.118   3.601
10004SOL     OW30910   6.831   2.320   4.183
10004SOL    HW130911   6.895   2.363   4.247
10004SOL    HW230912   6.749   2.292   4.233
10005SOL     OW30913   6.087   0.402   3.808
10005SOL    HW130914   6.110   0.442   3.896
10005SOL    HW230915   5.988   0.403   3.795
10006SOL     OW30916   5.048   5.898   4.497
10006SOL    HW130917   4.951   5.904   4.521
10006SOL    HW230918   5.060   5.914   4.400
10007SOL     OW30919   7.015   4.127   5.036
10007SOL    HW130920   0.013   4.035   5.069
10007SOL    HW230921   6.991   4.186   5.114
10008SOL     OW30922   3.829   1.272   5.041
10008SOL    HW130923   3.751   1.226   4.998
10008SOL    HW230924   3.886   1.203   5.087
10009SOL     OW30925   1.828   3.283   2.203
10009SOL    HW130926   1.782   3.349   2.261
10009SOL    HW230927   1.927   3.297   2.209
10010SOL     OW30928   2.588   1.425   6.057
10010SOL    HW130929   2.574   1.328   6.073
10010SOL    HW230930   2.634   1.466   6.136
10011SOL     OW30931   6.596   0.469   5.776
10011SOL    HW130932   6.679   0.418   5.753
10011SOL    HW230933   6.547   0.493   5.692
10012SOL     OW30934   6.091   0.959   2.864
10012SOL    HW130935   6.137   0.887   2.916
10012SOL    HW230936   6.015   0.995   2.918
10013SOL     OW30937   0.532   0.915   3.079
10013SOL    HW130938   0.620   0.946   3.043
10013SOL    HW230939   0.463   0.920   3.007
10014SOL     OW30940   0.792   4.441   0.009
10014SOL    HW130941   0.704   4.457   0.054
10014SOL    HW230942   0.779   4.376   6.957
10015SOL     OW30943   2.370   4.916   0.961
10015SOL    HW130944   2.350   4.821   0.936
10015SOL    HW230945   2.287   4.960   0.996
10016SOL     OW30946   1.013   1.456   6.204
10016SOL    HW130947   1.008   1.389   6.130
10016SOL    HW230948   1.062   1.417   6.282
10017SOL     OW30949   3.412   2.124   3.415
10017SOL    HW130950   3.320   2.162   3.413
10017SOL    HW230951   3.412   2.039   3.467
10018SOL     OW30952   5.134   0.364   6.747
10018SOL    HW130953   5.160   0.434   6.680
10018SOL    HW230954   5.040   0.336   6.730
10019SOL     OW30955   0.921   1.832   2.969
10019SOL    HW130956   0.967   1.763   3.024
10019SOL    HW230957   0.872   1.788   2.894
10020SOL     OW30958   1.062   2.189   1.689
10020SOL    HW130959   1.128   2.118   1.665
10020SOL    HW230960   0.970   2.151   1.686
10021SOL     OW30961   6.776   3.305   0.990
10021SOL    HW130962   6.757   3.286   1.086
10021SOL    HW230963   6.856   3.366   0.983
10022SOL     OW30964   2.645   1.775   5.844
10022SOL    HW130965   2.545   1.771   5.853
10022SOL    HW230966   2.669   1.837   5.769
10023SOL     OW30967   6.786   4.496   0.804
10023SOL    HW130968   6.852   4.467   0.873
10023SOL    HW230969   6.775   4.423   0.736
10024SOL     OW30970   1.489   5.903   3.610
10024SOL    HW130971   1.530   5.835   3.671
10024SOL    HW230972   1.561   5.950   3.559
10025SOL     OW30973   1.537   0.448   0.738
10025SOL    HW130974   1.549   0.397   0.653
10025SOL    HW230975   1.567   0.392   0.816
10026SOL     OW30976   5.382   0.370   3.638
10026SOL    HW130977   5.323   0.304   3.685
10026SOL    HW230978   5.326   0.447   3.605
10027SOL     OW30979   5.612   3.272   4.480
10027SOL    HW130980   5.697   3.325   4.488
10027SOL    HW230981   5.632   3.185   4.434
10028SOL     OW30982   0.828   0.587   0.707
10028SOL    HW130983   0.871   0.586   0.617
10028SOL    HW230984   0.849   0.502   0.756
10029SOL     OW30985   5.734   1.991   3.758
10029SOL    HW130986   5.730   2.031   3.666
10029SOL    HW230987   5.824   1.951   3.773
10030SOL     OW30988   1.906   0.350   3.191
10030SOL    HW130989   1.896   0.432   3.248
10030SOL    HW230990   1.928   0.272   3.249
10031SOL     OW30991   5.544   4.726   3.469
10031SOL    HW130992   5.462   4.752   3.520
10031SOL    HW230993   5.610   4.684   3.530
10032SOL     OW30994   2.792   1.384   5.300
10032SOL    HW130995   2.819   1.481   5.298
10032SOL    HW230996   2.694   1.378   5.318
10033SOL     OW30997   6.449   3.108   4.167
10033SOL    HW130998   6.372   3.161   4.130
10033SOL    HW230999   6.515   3.169   4.209
10034SOL     OW31000   3.519   0.735   4.270
10034SOL    HW131001   3.556   0.650   4.234
10034SOL    HW231002   3.588   0.807   4.264
10035SOL     OW31003   6.545   5.306   2.128
10035SOL    HW131004   6.460   5.280   2.174
10035SOL    HW231005   6.581   5.390   2.168
10036SOL     OW31006   6.735   2.249   0.577
10036SOL    HW131007   6.657   2.312   0.580
10036SOL    HW231008   6.717   2.177   0.510
10037SOL     OW31009   6.816   1.494   6.438
10037SOL    HW131010   6.732   1.458   6.399
10037SOL    HW231011   6.816   1.594   6.431
10038SOL     OW31012   6.706   6.916   0.316
10038SOL    HW131013   6.614   6.900   0.280
10038SOL    HW231014   6.723   7.014   0.324
10039SOL     OW31015   3.274   6.819   3.675
10039SOL    HW131016   3.175   6.818   3.692
10039SOL    HW231017   3.295   6.757   3.600
10040SOL     OW31018   5.783   4.301   7.000
10040SOL    HW131019   5.872   4.346   6.991
10040SOL    HW231020   5.774   4.230   6.930
10041SOL     OW31021   3.492   6.219   0.497
10041SOL    HW131022   3.436   6.275   0.557
10041SOL    HW231023   3.587   6.249   0.501
10042SOL     OW31024   6.861   2.015   3.160
10042SOL    HW131025   6.841   2.091   3.098
10042SOL    HW231026   6.784   1.950   3.158
10043SOL     OW31027   6.745   2.215   5.923
10043SOL    HW131028   6.829   2.263   5.948
10043SOL    HW231029   6.759   2.165   5.838
10044SOL     OW31030   2.732   3.098   5.873
10044SOL    HW131031   2.799   3.158   5.918
10044SOL    HW231032   2.780   3.023   5.828
10045SOL     OW31033   4.398   1.259   0.708
10045SOL    HW131034   4.489   1.218   0.714
10045SOL    HW231035   4.340   1.225   0.783
10046SOL     OW31036   1.380   4.462   1.174
10046SOL    HW131037   1.358   4.368   1.200
10046SOL    HW231038   1.356   4.524   1.250
10047SOL     OW31039   1.224   3.350   6.076
10047SOL    HW131040   1.306   3.359   6.021
10047SOL    HW231041   1.249   3.331   6.171
10048SOL     OW31042   6.821   6.529   2.714
10048SOL    HW131043   6.914   6.533   2.750
10048SOL    HW231044   6.763   6.592   2.765
10049SOL     OW31045   7.015   2.705   6.238
10049SOL    HW131046   0.066   2.644   6.208
10049SOL    HW231047   0.028   2.797   6.253
10050SOL     OW31048   5.267   3.414   5.101
10050SOL    HW131049   5.200   3.486   5.121
10050SOL    HW231050   5.290   3.416   5.004
10051SOL     OW31051   0.865   3.953   4.698
10051SOL    HW131052   0.926   4.011   4.643
10051SOL    HW231053   0.871   3.858   4.666
10052SOL     OW31054   1.005   0.478   3.433
10052SOL    HW131055   0.926   0.501   3.489
10052SOL    HW231056   1.010   0.379   3.422
10053SOL     OW31057   4.774   5.253   4.382
10053SOL    HW131058   4.787   5.173   4.440
10053SOL    HW231059   4.863   5.294   4.360
10054SOL     OW31060   5.392   3.931   4.917
10054SOL    HW131061   5.379   3.910   4.820
10054SOL    HW231062   5.485   3.906   4.945
10055SOL     OW31063   6.645   2.388   6.562
10055SOL    HW131064   6.568   2.435   6.519
10055SOL    HW231065   6.723   2.451   6.568
10056SOL     OW31066   5.501   3.234   3.419
10056SOL    HW131067   5.450   3.176   3.355
10056SOL    HW231068   5.446   3.252   3.500
10057SOL     OW31069   5.504   4.326   6.455
10057SOL    HW131070   5.469   4.249   6.508
10057SOL    HW231071   5.525   4.297   6.362
10058SOL     OW31072   6.420   2.852   5.139
10058SOL    HW131073   6.378   2.892   5.058
10058SOL    HW231074   6.391   2.757   5.150
10059SOL     OW31075   6.564   1.372   0.375
10059SOL    HW131076   6.529   1.353   0.283
10059SOL    HW231077   6.664   1.369   0.374
10060SOL     OW31078   2.689   2.013   2.422
10060SOL    HW131079   2.670   1.985   2.328
10060SOL    HW231080   2.706   2.111   2.425
10061SOL     OW31081   3.813   0.873   3.554
10061SOL    HW131082   3.805   0.788   3.504
10061SOL    HW231083   3.906   0.908   3.546
10062SOL     OW31084   0.540   0.046   3.689
10062SOL    HW131085   0.541   0.127   3.748
10062SOL    HW231086   0.604   7.001   3.725
10063SOL     OW31087   1.637   2.662   4.764
10063SOL    HW131088   1.661   2.730   4.694
10063SOL    HW231089   1.590   2.708   4.840
10064SOL     OW31090   3.119   6.340   0.574
10064SOL    HW131091   3.168   6.423   0.547
10064SOL    HW231092   3.039   6.328   0.514
10065SOL     OW31093   0.943   0.596   2.023
10065SOL    HW131094   1.042   0.611   2.024
10065SOL    HW231095   0.899   0.672   1.975
10066SOL     OW31096   6.523   3.673   4.762
10066SOL    HW131097   6.550   3.764   4.731
10066SOL    HW231098   6.538   3.607   4.688
10067SOL     OW31099   0.392   2.279   5.937
10067SOL    HW131100   0.347   2.350   5.883
10067SOL    HW231101   0.491   2.292   5.935
10068SOL     OW31102   2.276   2.710   2.909
10068SOL    HW131103   2.271   2.774   2.986
10068SOL    HW231104   2.371   2.685   2.892
10069SOL     OW31105   3.558   5.087   1.583
10069SOL    HW131106   3.549   5.175   1.630
10069SOL    HW231107   3.472   5.064   1.538
10070SOL     OW31108   3.183   5.908   5.010
10070SOL    HW131109   3.121   5.911   5.088
10070SOL    HW231110   3.185   5.815   4.973
10071SOL     OW31111   0.121   0.115   3.182
10071SOL    HW131112   0.098   0.044   3.248
10071SOL    HW231113   0.148   0.073   3.095
10072SOL     OW31114   6.670   1.751   2.279
10072SOL    HW131115   6.577   1.763   2.246
10072SOL    HW231116   6.718   1.685   2.221
10073SOL     OW31117   5.983   3.053   4.498
10073SOL    HW131118   6.046   2.977   4.483
10073SOL    HW231119   5.981   3.076   4.595
10074SOL     OW31120   1.979   4.732   0.511
10074SOL    HW131121   2.048   4.749   0.580
10074SOL    HW231122   2.017   4.677   0.437
10075SOL     OW31123   1.771   2.524   2.158
10075SOL    HW131124   1.796   2.620   2.143
10075SOL    HW231125   1.797   2.471   2.077
10076SOL     OW31126   5.175   5.097   3.306
10076SOL    HW131127   5.147   5.050   3.223
10076SOL    HW231128   5.132   5.054   3.386
10077SOL     OW31129   6.599   3.333   6.805
10077SOL    HW131130   6.639   3.337   6.896
10077SOL    HW231131   6.528   3.402   6.795
10078SOL     OW31132   0.068   6.235   4.693
10078SOL    HW131133   0.064   6.205   4.789
10078SOL    HW231134   0.095   6.158   4.635
10079SOL     OW31135   5.021   2.607   3.233
10079SOL    HW131136   4.940   2.558   3.200
10079SOL    HW231137   5.031   2.692   3.181
10080SOL     OW31138   5.713   0.695   5.935
10080SOL    HW131139   5.727   0.603   5.973
10080SOL    HW231140   5.801   0.732   5.904
10081SOL     OW31141   1.869   2.743   0.664
10081SOL    HW131142   1.949   2.716   0.717
10081SOL    HW231143   1.794   2.766   0.726
10082SOL     OW31144   1.214   4.372   2.393
10082SOL    HW131145   1.276   4.314   2.445
10082SOL    HW231146   1.119   4.347   2.413
10083SOL     OW31147   4.187   5.115   3.833
10083SOL    HW131148   4.193   5.205   3.788
10083SOL    HW231149   4.278   5.085   3.859
10084SOL     OW31150   1.203   0.542   5.080
10084SOL    HW131151   1.237   0.448   5.092
10084SOL    HW231152   1.103   0.542   5.082
10085SOL     OW31153   4.432   6.872   0.580
10085SOL    HW131154   4.434   6.870   0.480
10085SOL    HW231155   4.483   6.952   0.613
10086SOL     OW31156   6.957   5.867   1.676
10086SOL    HW131157   6.888   5.839   1.610
10086SOL    HW231158   0.025   5.857   1.636
10087SOL     OW31159   1.538   6.936   4.685
10087SOL    HW131160   1.482   6.874   4.740
10087SOL    HW231161   1.632   6.934   4.717
10088SOL     OW31162   6.912   3.189   0.205
10088SOL    HW131163   6.997   3.165   0.160
10088SOL    HW231164   6.835   3.168   0.144
10089SOL     OW31165   3.950   1.613   2.300
10089SOL    HW131166   4.049   1.623   2.306
10089SOL    HW231167   3.906   1.701   2.320
10090SOL     OW31168   1.446   5.832   1.150
10090SOL    HW131169   1.368   5.840   1.087
10090SOL    HW231170   1.515   5.771   1.110
10091SOL     OW31171   6.574   4.550   6.127
10091SOL    HW131172   6.537   4.628   6.077
10091SOL    HW231173   6.515   4.530   6.205
10092SOL     OW31174   0.419   2.717   5.391
10092SOL    HW131175   0.363   2.742   5.312
10092SOL    HW231176   0.487   2.650   5.364
10093SOL     OW31177   5.317   4.342   6.144
10093SOL    HW131178   5.265   4.338   6.230
10093SOL    HW231179   5.405   4.296   6.156
10094SOL     OW31180   3.297   1.073   0.910
10094SOL    HW131181   3.203   1.046   0.890
10094SOL    HW231182   3.359   1.001   0.881
10095SOL     OW31183   4.821   2.535   5.192
10095SOL    HW131184   4.738   2.514   5.141
10095SOL    HW231185   4.797   2.590   5.272
10096SOL     OW31186   5.052   0.986   2.685
10096SOL    HW131187   5.047   0.973   2.784
10096SOL    HW231188   5.097   0.907   2.643
10097SOL     OW31189   1.221   1.736   6.754
10097SOL    HW131190   1.205   1.803   6.681
10097SOL    HW231191   1.157   1.752   6.829
10098SOL     OW31192   3.592   5.249   4.337
10098SOL    HW131193   3.638   5.217   4.420
10098SOL    HW231194   3.615   5.189   4.261
10099SOL     OW31195   6.705   4.602   1.643
10099SOL    HW131196   6.618   4.643   1.669
10099SOL    HW231197   6.762   4.670   1.597
10100SOL     OW31198   4.919   5.311   4.835
10100SOL    HW131199   4.875   5.399   4.816
10100SOL    HW231200   4.925   5.258   4.751
10101SOL     OW31201   1.267   2.107   0.686
10101SOL    HW131202   1.363   2.136   0.681
10101SOL    HW231203   1.262   2.010   0.709
10102SOL     OW31204   6.313   6.136   1.486
10102SOL    HW131205   6.278   6.088   1.406
10102SOL    HW231206   6.396   6.091   1.518
10103SOL     OW31207   6.955   6.676   6.227
10103SOL    HW131208   7.007   6.673   6.312
10103SOL    HW231209   6.983   6.600   6.168
10104SOL     OW31210   1.741   1.024   5.392
10104SOL    HW131211   1.695   0.979   5.469
10104SOL    HW231212   1.805   0.960   5.349
10105SOL     OW31213   2.619   0.823   6.034
10105SOL    HW131214   2.579   0.836   5.943
10105SOL    HW231215   2.686   0.895   6.052
10106SOL     OW31216   4.815   6.013   1.375
10106SOL    HW131217   4.855   6.064   1.452
10106SOL    HW231218   4.884   6.003   1.303
10107SOL     OW31219   4.995   3.874   6.590
10107SOL    HW131220   5.048   3.804   6.543
10107SOL    HW231221   4.899   3.845   6.595
10108SOL     OW31222   1.785   2.466   0.497
10108SOL    HW131223   1.845   2.387   0.512
10108SOL    HW231224   1.791   2.528   0.576
10109SOL     OW31225   1.152   1.753   0.500
10109SOL    HW131226   1.117   1.666   0.534
10109SOL    HW231227   1.076   1.816   0.486
10110SOL     OW31228   4.740   6.660   2.929
10110SOL    HW131229   4.708   6.753   2.950
10110SOL    HW231230   4.663   6.607   2.892
10111SOL     OW31231   1.498   1.132   2.065
10111SOL    HW131232   1.446   1.119   2.150
10111SOL    HW231233   1.554   1.213   2.073
10112SOL     OW31234   6.412   2.246   3.903
10112SOL    HW131235   6.366   2.290   3.826
10112SOL    HW231236   6.420   2.148   3.884
10113SOL     OW31237   5.756   1.295   6.631
10113SOL    HW131238   5.841   1.322   6.676
10113SOL    HW231239   5.774   1.218   6.569
10114SOL     OW31240   4.134   1.807   2.490
10114SOL    HW131241   4.176   1.792   2.401
10114SOL    HW231242   4.126   1.720   2.539
10115SOL     OW31243   3.461   2.624   5.592
10115SOL    HW131244   3.405   2.608   5.511
10115SOL    HW231245   3.435   2.711   5.634
10116SOL     OW31246   6.183   0.262   4.664
10116SOL    HW131247   6.089   0.295   4.652
10116SOL    HW231248   6.186   0.163   4.654
10117SOL     OW31249   6.286   4.923   4.083
10117SOL    HW131250   6.234   5.007   4.072
10117SOL    HW231251   6.298   4.903   4.181
10118SOL     OW31252   3.756   5.145   4.576
10118SOL    HW131253   3.676   5.178   4.626
10118SOL    HW231254   3.748   5.047   4.561
10119SOL     OW31255   0.464   5.048   4.735
10119SOL    HW131256   0.492   5.054   4.831
10119SOL    HW231257   0.366   5.029   4.731
10120SOL     OW31258   2.169   2.715   2.270
10120SOL    HW131259   2.092   2.655   2.292
10120SOL    HW231260   2.255   2.664   2.278
10121SOL     OW31261   6.229   4.277   0.706
10121SOL    HW131262   6.131   4.259   0.714
10121SOL    HW231263   6.252   4.362   0.753
10122SOL     OW31264   1.225   0.766   3.846
10122SOL    HW131265   1.202   0.846   3.902
10122SOL    HW231266   1.287   0.707   3.897
10123SOL     OW31267   5.686   5.694   0.558
10123SOL    HW131268   5.695   5.739   0.469
10123SOL    HW231269   5.658   5.599   0.544
10124SOL     OW31270   1.456   4.181   2.963
10124SOL    HW131271   1.556   4.174   2.967
10124SOL    HW231272   1.417   4.145   3.047
10125SOL     OW31273   1.340   1.670   6.059
10125SOL    HW131274   1.275   1.727   6.008
10125SOL    HW231275   1.390   1.611   5.994
10126SOL     OW31276   6.474   6.370   6.663
10126SOL    HW131277   6.507   6.463   6.647
10126SOL    HW231278   6.538   6.304   6.623
10127SOL     OW31279   1.988   5.414   6.122
10127SOL    HW131280   1.920   5.342   6.112
10127SOL    HW231281   2.076   5.383   6.086
10128SOL     OW31282   2.798   0.770   6.901
10128SOL    HW131283   2.786   0.694   6.837
10128SOL    HW231284   2.838   0.849   6.853
10129SOL     OW31285   6.167   1.439   3.910
10129SOL    HW131286   6.112   1.356   3.899
10129SOL    HW231287   6.177   1.460   4.007
10130SOL     OW31288   1.621   1.721   2.651
10130SOL    HW131289   1.714   1.748   2.624
10130SOL    HW231290   1.607   1.741   2.747
10131SOL     OW31291   2.128   0.709   4.312
10131SOL    HW131292   2.048   0.766   4.335
10131SOL    HW231293   2.111   0.615   4.341
10132SOL     OW31294   6.824   0.729   1.668
10132SOL    HW131295   6.742   0.671   1.669
10132SOL    HW231296   6.826   0.785   1.750
10133SOL     OW31297   5.027   0.177   0.308
10133SOL    HW131298   5.031   0.114   0.230
10133SOL    HW231299   5.076   0.261   0.285
10134SOL     OW31300   6.259   0.843   1.968
10134SOL    HW131301   6.299   0.798   1.888
10134SOL    HW231302   6.165   0.868   1.949
10135SOL     OW31303   6.345   0.552   2.429
10135SOL    HW131304   6.299   0.639   2.444
10135SOL    HW231305   6.353   0.504   2.517
10136SOL     OW31306   5.532   1.837   2.965
10136SOL    HW131307   5.583   1.781   3.030
10136SOL    HW231308   5.437   1.808   2.962
10137SOL     OW31309   6.261   5.736   5.538
10137SOL    HW131310   6.355   5.764   5.523
10137SOL    HW231311   6.206   5.815   5.567
10138SOL     OW31312   6.674   1.888   0.494
10138SOL    HW131313   6.626   1.814   0.448
10138SOL    HW231314   6.647   1.975   0.453
10139SOL     OW31315   3.337   3.479   6.101
10139SOL    HW131316   3.259   3.528   6.062
10139SOL    HW231317   3.359   3.518   6.191
10140SOL     OW31318   0.043   6.133   5.914
10140SOL    HW131319   0.073   6.167   5.825
10140SOL    HW231320   0.123   6.124   5.975
10141SOL     OW31321   2.196   2.031   4.301
10141SOL    HW131322   2.244   1.976   4.370
10141SOL    HW231323   2.176   1.974   4.221
10142SOL     OW31324   5.457   6.226   4.562
10142SOL    HW131325   5.439   6.302   4.624
10142SOL    HW231326   5.551   6.232   4.528
10143SOL     OW31327   5.357   3.465   6.603
10143SOL    HW131328   5.367   3.433   6.509
10143SOL    HW231329   5.425   3.420   6.661
10144SOL     OW31330   3.683   6.525   5.689
10144SOL    HW131331   3.623   6.581   5.632
10144SOL    HW231332   3.631   6.447   5.725
10145SOL     OW31333   5.666   6.222   6.715
10145SOL    HW131334   5.717   6.162   6.776
10145SOL    HW231335   5.654   6.311   6.758
10146SOL     OW31336   0.337   2.429   4.401
10146SOL    HW131337   0.266   2.494   4.428
10146SOL    HW231338   0.390   2.402   4.481
10147SOL     OW31339   5.140   5.713   5.969
10147SOL    HW131340   5.134   5.782   6.040
10147SOL    HW231341   5.090   5.631   5.998
10148SOL     OW31342   1.210   4.652   6.801
10148SOL    HW131343   1.143   4.629   6.872
10148SOL    HW231344   1.266   4.729   6.830
10149SOL     OW31345   4.356   4.466   0.393
10149SOL    HW131346   4.257   4.450   0.384
10149SOL    HW231347   4.372   4.562   0.418
10150SOL     OW31348   4.277   4.553   0.006
10150SOL    HW131349   4.226   4.583   0.086
10150SOL    HW231350   4.322   4.631   6.986
10151SOL     OW31351   5.647   6.826   5.466
10151SOL    HW131352   5.556   6.827   5.509
10151SOL    HW231353   5.682   6.733   5.465
10152SOL     OW31354   5.424   6.382   3.091
10152SOL    HW131355   5.332   6.344   3.101
10152SOL    HW231356   5.480   6.358   3.170
10153SOL     OW31357   4.891   3.972   3.542
10153SOL    HW131358   4.923   3.889   3.588
10153SOL    HW231359   4.856   3.947   3.451
10154SOL     OW31360   5.446   5.404   5.245
10154SOL    HW131361   5.462   5.415   5.147
10154SOL    HW231362   5.413   5.312   5.263
10155SOL     OW31363   3.907   1.973   4.894
10155SOL    HW131364   3.995   2.021   4.887
10155SOL    HW231365   3.836   2.037   4.920
10156SOL     OW31366   4.983   2.371   6.837
10156SOL    HW131367   4.927   2.301   6.793
10156SOL    HW231368   5.051   2.405   6.772
10157SOL     OW31369   0.390   2.589   0.984
10157SOL    HW131370   0.367   2.684   1.007
10157SOL    HW231371   0.489   2.578   0.981
10158SOL     OW31372   5.844   5.531   1.072
10158SOL    HW131373   5.858   5.432   1.072
10158SOL    HW231374   5.775   5.554   1.141
10159SOL     OW31375   3.770   3.355   2.560
10159SOL    HW131376   3.823   3.301   2.625
10159SOL    HW231377   3.818   3.358   2.472
10160SOL     OW31378   1.691   5.168   3.564
10160SOL    HW131379   1.647   5.258   3.565
10160SOL    HW231380   1.635   5.104   3.513
10161SOL     OW31381   5.278   3.242   5.513
10161SOL    HW131382   5.208   3.282   5.573
10161SOL    HW231383   5.357   3.303   5.509
10162SOL     OW31384   1.286   3.251   2.523
10162SOL    HW131385   1.269   3.338   2.568
10162SOL    HW231386   1.342   3.193   2.582
10163SOL     OW31387   1.298   6.138   5.384
10163SOL    HW131388   1.388   6.118   5.345
10163SOL    HW231389   1.251   6.053   5.406
10164SOL     OW31390   1.094   2.757   3.050
10164SOL    HW131391   1.079   2.663   3.081
10164SOL    HW231392   1.106   2.758   2.951
10165SOL     OW31393   6.688   3.342   4.635
10165SOL    HW131394   6.772   3.387   4.603
10165SOL    HW231395   6.694   3.244   4.619
10166SOL     OW31396   1.388   0.944   0.857
10166SOL    HW131397   1.298   0.974   0.891
10166SOL    HW231398   1.378   0.859   0.806
10167SOL     OW31399   2.317   0.124   6.639
10167SOL    HW131400   2.289   0.211   6.598
10167SOL    HW231401   2.405   0.097   6.602
10168SOL     OW31402   6.994   1.048   0.583
10168SOL    HW131403   0.002   0.954   0.598
10168SOL    HW231404   6.952   1.083   0.667
10169SOL     OW31405   6.354   2.654   3.638
10169SOL    HW131406   6.409   2.708   3.702
10169SOL    HW231407   6.261   2.691   3.635
10170SOL     OW31408   6.246   5.671   5.999
10170SOL    HW131409   6.195   5.613   6.063
10170SOL    HW231410   6.292   5.613   5.931
10171SOL     OW31411   2.171   3.613   5.793
10171SOL    HW131412   2.145   3.691   5.849
10171SOL    HW231413   2.098   3.545   5.795
10172SOL     OW31414   6.473   0.164   2.527
10172SOL    HW131415   6.468   0.133   2.432
10172SOL    HW231416   6.567   0.190   2.548
10173SOL     OW31417   3.204   4.516   5.595
10173SOL    HW131418   3.189   4.609   5.631
10173SOL    HW231419   3.176   4.513   5.499
10174SOL     OW31420   4.666   5.811   3.151
10174SOL    HW131421   4.756   5.851   3.137
10174SOL    HW231422   4.642   5.814   3.248
10175SOL     OW31423   0.383   1.063   3.902
10175SOL    HW131424   0.444   1.122   3.849
10175SOL    HW231425   0.294   1.056   3.857
10176SOL     OW31426   5.876   2.040   5.880
10176SOL    HW131427   5.825   1.983   5.944
10176SOL    HW231428   5.815   2.069   5.806
10177SOL     OW31429   2.456   0.425   2.608
10177SOL    HW131430   2.495   0.481   2.681
10177SOL    HW231431   2.378   0.473   2.568
10178SOL     OW31432   2.161   1.795   0.267
10178SOL    HW131433   2.134   1.885   0.302
10178SOL    HW231434   2.229   1.755   0.328
10179SOL     OW31435   1.129   4.515   1.030
10179SOL    HW131436   1.209   4.499   1.088
10179SOL    HW231437   1.075   4.590   1.067
10180SOL     OW31438   4.418   0.405   6.361
10180SOL    HW131439   4.371   0.426   6.447
10180SOL    HW231440   4.357   0.352   6.302
10181SOL     OW31441   0.180   3.519   1.807
10181SOL    HW131442   0.163   3.512   1.709
10181SOL    HW231443   0.178   3.615   1.834
10182SOL     OW31444   5.622   2.371   0.124
10182SOL    HW131445   5.662   2.351   0.213
10182SOL    HW231446   5.630   2.290   0.065
10183SOL     OW31447   6.297   2.577   6.884
10183SOL    HW131448   6.278   2.622   6.972
10183SOL    HW231449   6.211   2.558   6.837
10184SOL     OW31450   5.735   3.469   6.099
10184SOL    HW131451   5.744   3.518   6.012
10184SOL    HW231452   5.721   3.535   6.173
10185SOL     OW31453   3.995   5.846   2.339
10185SOL    HW131454   4.091   5.871   2.355
10185SOL    HW231455   3.941   5.872   2.419
10186SOL     OW31456   3.871   3.272   5.931
10186SOL    HW131457   3.855   3.308   5.840
10186SOL    HW231458   3.969   3.256   5.944
10187SOL     OW31459   1.737   5.689   5.688
10187SOL    HW131460   1.826   5.727   5.714
10187SOL    HW231461   1.669   5.762   5.689
10188SOL     OW31462   2.951   0.108   6.940
10188SOL    HW131463   2.912   0.020   6.965
10188SOL    HW231464   3.029   0.129   7.000
10189SOL     OW31465   1.195   1.878   5.913
10189SOL    HW131466   1.147   1.850   5.830
10189SOL    HW231467   1.190   1.978   5.922
10190SOL     OW31468   2.811   5.472   2.037
10190SOL    HW131469   2.855   5.528   1.966
10190SOL    HW231470   2.863   5.389   2.051
10191SOL     OW31471   5.631   5.426   6.966
10191SOL    HW131472   5.721   5.412   7.007
10191SOL    HW231473   5.614   5.357   6.896
10192SOL     OW31474   1.987   1.692   4.672
10192SOL    HW131475   1.993   1.640   4.757
10192SOL    HW231476   2.075   1.688   4.624
10193SOL     OW31477   3.572   4.100   3.511
10193SOL    HW131478   3.582   4.017   3.458
10193SOL    HW231479   3.475   4.121   3.524
10194SOL     OW31480   3.649   0.164   3.758
10194SOL    HW131481   3.558   0.125   3.772
10194SOL    HW231482   3.714   0.122   3.822
10195SOL     OW31483   3.997   6.367   1.793
10195SOL    HW131484   3.971   6.271   1.806
10195SOL    HW231485   4.095   6.377   1.809
10196SOL     OW31486   6.174   1.653   3.153
10196SOL    HW131487   6.212   1.699   3.073
10196SOL    HW231488   6.195   1.555   3.148
10197SOL     OW31489   5.438   0.701   2.259
10197SOL    HW131490   5.417   0.794   2.231
10197SOL    HW231491   5.432   0.639   2.181
10198SOL     OW31492   2.649   0.361   1.259
10198SOL    HW131493   2.641   0.366   1.159
10198SOL    HW231494   2.563   0.329   1.298
10199SOL     OW31495   0.539   0.962   7.018
10199SOL    HW131496   0.626   1.012   7.013
10199SOL    HW231497   0.498   0.975   0.085
10200SOL     OW31498   5.173   4.366   5.341
10200SOL    HW131499   5.101   4.330   5.282
10200SOL    HW231500   5.255   4.385   5.286
10201SOL     OW31501   1.329   4.623   2.402
10201SOL    HW131502   1.293   4.530   2.405
10201SOL    HW231503   1.310   4.663   2.313
10202SOL     OW31504   1.390   2.878   2.372
10202SOL    HW131505   1.376   2.839   2.281
10202SOL    HW231506   1.356   2.814   2.441
10203SOL     OW31507   2.099   2.780   2.719
10203SOL    HW131508   2.176   2.735   2.763
10203SOL    HW231509   2.014   2.745   2.756
10204SOL     OW31510   3.002   4.782   5.280
10204SOL    HW131511   2.961   4.795   5.370
10204SOL    HW231512   2.978   4.691   5.245
10205SOL     OW31513   5.173   2.374   3.350
10205SOL    HW131514   5.154   2.325   3.264
10205SOL    HW231515   5.109   2.451   3.359
10206SOL     OW31516   5.213   0.099   6.189
10206SOL    HW131517   5.205   0.007   6.229
10206SOL    HW231518   5.131   0.119   6.136
10207SOL     OW31519   3.558   1.007   2.848
10207SOL    HW131520   3.622   1.048   2.784
10207SOL    HW231521   3.464   1.020   2.815
10208SOL     OW31522   6.336   4.234   5.637
10208SOL    HW131523   6.414   4.202   5.583
10208SOL    HW231524   6.274   4.286   5.578
10209SOL     OW31525   6.321   6.450   6.195
10209SOL    HW131526   6.258   6.456   6.118
10209SOL    HW231527   6.288   6.382   6.261
10210SOL     OW31528   5.216   6.005   2.680
10210SOL    HW131529   5.153   6.050   2.743
10210SOL    HW231530   5.267   6.074   2.629
10211SOL     OW31531   3.891   6.010   4.841
10211SOL    HW131532   3.819   5.941   4.850
10211SOL    HW231533   3.959   5.997   4.913
10212SOL     OW31534   7.009   1.049   4.823
10212SOL    HW131535   7.022   0.982   4.750
10212SOL    HW231536   0.064   1.112   4.824
10213SOL     OW31537   6.531   1.587   3.205
10213SOL    HW131538   6.445   1.598   3.254
10213SOL    HW231539   6.525   1.633   3.116
10214SOL     OW31540   6.730   0.977   1.793
10214SOL    HW131541   6.761   1.059   1.841
10214SOL    HW231542   6.635   0.957   1.820
10215SOL     OW31543   3.877   4.374   6.313
10215SOL    HW131544   3.961   4.324   6.291
10215SOL    HW231545   3.850   4.429   6.234
10216SOL     OW31546   5.301   0.611   1.153
10216SOL    HW131547   5.316   0.682   1.084
10216SOL    HW231548   5.243   0.539   1.115
10217SOL     OW31549   2.645   1.750   4.788
10217SOL    HW131550   2.566   1.701   4.752
10217SOL    HW231551   2.644   1.845   4.755
10218SOL     OW31552   1.718   0.988   0.499
10218SOL    HW131553   1.647   1.017   0.563
10218SOL    HW231554   1.808   1.009   0.538
10219SOL     OW31555   0.806   2.369   1.196
10219SOL    HW131556   0.903   2.365   1.173
10219SOL    HW231557   0.763   2.282   1.174
10220SOL     OW31558   4.325   1.990   1.330
10220SOL    HW131559   4.262   2.024   1.260
10220SOL    HW231560   4.279   1.922   1.387
10221SOL     OW31561   2.930   0.293   5.161
10221SOL    HW131562   2.956   0.387   5.184
10221SOL    HW231563   2.867   0.294   5.083
10222SOL     OW31564   1.931   4.906   5.349
10222SOL    HW131565   1.854   4.969   5.335
10222SOL    HW231566   1.927   4.869   5.442
10223SOL     OW31567   1.551   3.922   0.253
10223SOL    HW131568   1.526   4.000   0.310
10223SOL    HW231569   1.478   3.904   0.186
10224SOL     OW31570   1.331   0.279   4.232
10224SOL    HW131571   1.320   0.303   4.136
10224SOL    HW231572   1.334   0.179   4.242
10225SOL     OW31573   6.724   5.550   4.722
10225SOL    HW131574   6.644   5.596   4.760
10225SOL    HW231575   6.799   5.551   4.788
10226SOL     OW31576   1.801   1.189   6.667
10226SOL    HW131577   1.779   1.258   6.598
10226SOL    HW231578   1.900   1.184   6.678
10227SOL     OW31579   4.979   5.115   6.864
10227SOL    HW131580   5.078   5.124   6.848
10227SOL    HW231581   4.930   5.172   6.797
10228SOL     OW31582   1.327   5.389   3.761
10228SOL    HW131583   1.326   5.433   3.851
10228SOL    HW231584   1.268   5.441   3.698
10229SOL     OW31585   1.107   0.140   2.994
10229SOL    HW131586   1.031   0.095   3.041
10229SOL    HW231587   1.071   0.196   2.919
10230SOL     OW31588   6.537   0.596   3.749
10230SOL    HW131589   6.604   0.669   3.729
10230SOL    HW231590   6.482   0.623   3.828
10231SOL     OW31591   5.694   6.916   4.981
10231SOL    HW131592   5.676   6.948   5.074
10231SOL    HW231593   5.623   6.953   4.920
10232SOL     OW31594   3.420   2.143   4.936
10232SOL    HW131595   3.375   2.061   4.902
10232SOL    HW231596   3.357   2.192   4.997
10233SOL     OW31597   4.636   2.131   5.780
10233SOL    HW131598   4.609   2.043   5.743
10233SOL    HW231599   4.565   2.199   5.760
10234SOL     OW31600   5.732   7.007   1.326
10234SOL    HW131601   5.791   0.064   1.333
10234SOL    HW231602   5.660   7.012   1.394
10235SOL     OW31603   5.054   1.477   0.133
10235SOL    HW131604   5.115   1.403   0.104
10235SOL    HW231605   5.030   1.533   0.054
10236SOL     OW31606   1.894   6.011   2.107
10236SOL    HW131607   1.965   5.951   2.070
10236SOL    HW231608   1.804   5.970   2.091
10237SOL     OW31609   6.410   3.822   2.567
10237SOL    HW131610   6.369   3.765   2.638
10237SOL    HW231611   6.391   3.918   2.586
10238SOL     OW31612   4.176   4.850   4.893
10238SOL    HW131613   4.133   4.831   4.805
10238SOL    HW231614   4.213   4.943   4.893
10239SOL     OW31615   0.282   3.970   4.414
10239SOL    HW131616   0.291   3.934   4.507
10239SOL    HW231617   0.322   3.905   4.349
10240SOL     OW31618   1.280   3.714   3.385
10240SOL    HW131619   1.337   3.654   3.329
10240SOL    HW231620   1.195   3.666   3.409
10241SOL     OW31621   0.939   1.890   2.598
10241SOL    HW131622   0.985   1.899   2.509
10241SOL    HW231623   0.997   1.928   2.669
10242SOL     OW31624   0.116   1.169   6.161
10242SOL    HW131625   0.122   1.259   6.204
10242SOL    HW231626   0.024   1.155   6.124
10243SOL     OW31627   0.489   5.465   2.005
10243SOL    HW131628   0.558   5.537   2.000
10243SOL    HW231629   0.531   5.377   1.982
10244SOL     OW31630   2.219   5.525   6.758
10244SOL    HW131631   2.230   5.429   6.735
10244SOL    HW231632   2.159   5.534   6.838
10245SOL     OW31633   1.801   2.767   5.987
10245SOL    HW131634   1.705   2.750   6.010
10245SOL    HW231635   1.844   2.822   6.059
10246SOL     OW31636   3.145   3.961   4.872
10246SOL    HW131637   3.059   3.944   4.920
10246SOL    HW231638   3.212   3.998   4.936
10247SOL     OW31639   7.009   5.277   5.875
10247SOL    HW131640   0.033   5.247   5.792
10247SOL    HW231641   0.051   5.280   5.951
10248SOL     OW31642   2.666   6.967   2.024
10248SOL    HW131643   2.656   6.907   1.945
10248SOL    HW231644   2.759   7.003   2.028
10249SOL     OW31645   4.765   1.326   5.438
10249SOL    HW131646   4.717   1.406   5.474
10249SOL    HW231647   4.783   1.262   5.512
10250SOL     OW31648   5.936   1.181   0.705
10250SOL    HW131649   6.005   1.237   0.750
10250SOL    HW231650   5.873   1.240   0.654
10251SOL     OW31651   2.578   2.826   0.134
10251SOL    HW131652   2.586   2.768   0.053
10251SOL    HW231653   2.597   2.771   0.216
10252SOL     OW31654   5.914   6.485   1.136
10252SOL    HW131655   5.855   6.492   1.217
10252SOL    HW231656   6.004   6.451   1.163
10253SOL     OW31657   4.743   4.514   6.871
10253SOL    HW131658   4.814   4.448   6.896
10253SOL    HW231659   4.700   4.485   6.785
10254SOL     OW31660   2.820   1.667   5.307
10254SOL    HW131661   2.910   1.696   5.340
10254SOL    HW231662   2.756   1.664   5.384
10255SOL     OW31663   2.462   5.487   2.388
10255SOL    HW131664   2.468   5.412   2.322
10255SOL    HW231665   2.413   5.564   2.347
10256SOL     OW31666   4.744   0.770   0.255
10256SOL    HW131667   4.772   0.851   0.307
10256SOL    HW231668   4.766   0.688   0.307
10257SOL     OW31669   1.383   5.873   5.913
10257SOL    HW131670   1.389   5.803   5.985
10257SOL    HW231671   1.291   5.872   5.874
10258SOL     OW31672   4.401   0.075   3.390
10258SOL    HW131673   4.394   7.003   3.362
10258SOL    HW231674   4.332   0.130   3.343
10259SOL     OW31675   0.451   4.291   3.946
10259SOL    HW131676   0.372   4.345   3.917
10259SOL    HW231677   0.508   4.270   3.867
10260SOL     OW31678   0.853   6.984   2.218
10260SOL    HW131679   0.828   6.961   2.124
10260SOL    HW231680   0.811   6.918   2.281
10261SOL     OW31681   0.815   5.441   2.157
10261SOL    HW131682   0.757   5.464   2.235
10261SOL    HW231683   0.891   5.505   2.152
10262SOL     OW31684   3.154   4.977   4.372
10262SOL    HW131685   3.103   4.926   4.441
10262SOL    HW231686   3.134   4.938   4.281
10263SOL     OW31687   5.242   1.834   5.610
10263SOL    HW131688   5.338   1.813   5.630
10263SOL    HW231689   5.190   1.749   5.606
10264SOL     OW31690   6.322   1.052   6.478
10264SOL    HW131691   6.238   1.106   6.476
10264SOL    HW231692   6.299   0.956   6.492
10265SOL     OW31693   3.613   1.555   2.945
10265SOL    HW131694   3.600   1.575   3.042
10265SOL    HW231695   3.618   1.456   2.932
10266SOL     OW31696   3.509   4.129   6.374
10266SOL    HW131697   3.459   4.082   6.446
10266SOL    HW231698   3.589   4.074   6.348
10267SOL     OW31699   0.163   2.264   6.570
10267SOL    HW131700   0.144   2.280   6.473
10267SOL    HW231701   0.102   2.193   6.604
10268SOL     OW31702   5.090   5.552   1.577
10268SOL    HW131703   5.181   5.581   1.607
10268SOL    HW231704   5.068   5.464   1.618
10269SOL     OW31705   2.287   2.488   6.386
10269SOL    HW131706   2.371   2.539   6.403
10269SOL    HW231707   2.309   2.391   6.373
10270SOL     OW31708   1.876   5.699   0.706
10270SOL    HW131709   1.895   5.642   0.786
10270SOL    HW231710   1.918   5.658   0.625
10271SOL     OW31711   4.035   3.710   1.779
10271SOL    HW131712   4.074   3.699   1.688
10271SOL    HW231713   3.993   3.625   1.809
10272SOL     OW31714   0.469   0.812   4.357
10272SOL    HW131715   0.472   0.874   4.435
10272SOL    HW231716   0.375   0.778   4.345
10273SOL     OW31717   3.660   5.652   4.410
10273SOL    HW131718   3.613   5.595   4.477
10273SOL    HW231719   3.597   5.679   4.338
10274SOL     OW31720   1.023   4.769   5.779
10274SOL    HW131721   0.926   4.794   5.777
10274SOL    HW231722   1.036   4.685   5.726
10275SOL     OW31723   0.934   6.470   2.774
10275SOL    HW131724   0.938   6.500   2.679
10275SOL    HW231725   0.843   6.434   2.794
10276SOL     OW31726   6.880   5.513   4.998
10276SOL    HW131727   6.855   5.495   5.093
10276SOL    HW231728   6.946   5.588   4.995
10277SOL     OW31729   3.086   6.749   4.278
10277SOL    HW131730   3.143   6.667   4.281
10277SOL    HW231731   3.000   6.728   4.232
10278SOL     OW31732   6.104   0.395   6.137
10278SOL    HW131733   6.106   0.300   6.170
10278SOL    HW231734   6.027   0.443   6.178
10279SOL     OW31735   2.787   0.113   4.505
10279SOL    HW131736   2.864   0.134   4.444
10279SOL    HW231737   2.713   0.072   4.452
10280SOL     OW31738   1.809   3.902   0.423
10280SOL    HW131739   1.715   3.893   0.391
10280SOL    HW231740   1.814   3.880   0.520
10281SOL     OW31741   4.597   1.074   2.875
10281SOL    HW131742   4.678   1.049   2.822
10281SOL    HW231743   4.618   1.068   2.973
10282SOL     OW31744   0.920   1.688   3.732
10282SOL    HW131745   0.909   1.771   3.676
10282SOL    HW231746   1.017   1.667   3.742
10283SOL     OW31747   1.471   3.601   1.099
10283SOL    HW131748   1.456   3.563   1.007
10283SOL    HW231749   1.498   3.527   1.161
10284SOL     OW31750   5.476   3.681   5.406
10284SOL    HW131751   5.513   3.633   5.327
10284SOL    HW231752   5.465   3.778   5.385
10285SOL     OW31753   4.900   1.053   0.839
10285SOL    HW131754   4.968   1.074   0.909
10285SOL    HW231755   4.921   0.965   0.797
10286SOL     OW31756   4.102   0.641   2.957
10286SOL    HW131757   4.063   0.648   2.866
10286SOL    HW231758   4.078   0.553   2.997
10287SOL     OW31759   1.789   6.814   1.557
10287SOL    HW131760   1.708   6.755   1.563
10287SOL    HW231761   1.761   6.910   1.562
10288SOL     OW31762   5.753   5.784   3.191
10288SOL    HW131763   5.839   5.779   3.139
10288SOL    HW231764   5.774   5.794   3.288
10289SOL     OW31765   2.955   1.445   1.311
10289SOL    HW131766   3.032   1.474   1.255
10289SOL    HW231767   2.873   1.440   1.254
10290SOL     OW31768   4.009   3.397   2.986
10290SOL    HW131769   3.911   3.406   3.008
10290SOL    HW231770   4.054   3.342   3.057
10291SOL     OW31771   3.538   0.642   4.553
10291SOL    HW131772   3.482   0.559   4.547
10291SOL    HW231773   3.519   0.700   4.474
10292SOL     OW31774   0.477   1.583   4.438
10292SOL    HW131775   0.421   1.548   4.363
10292SOL    HW231776   0.432   1.562   4.525
10293SOL     OW31777   2.490   6.154   3.247
10293SOL    HW131778   2.575   6.102   3.255
10293SOL    HW231779   2.433   6.137   3.328
10294SOL     OW31780   4.819   1.295   2.780
10294SOL    HW131781   4.800   1.225   2.711
10294SOL    HW231782   4.849   1.251   2.865
10295SOL     OW31783   0.127   5.193   5.630
10295SOL    HW131784   0.226   5.206   5.621
10295SOL    HW231785   0.080   5.267   5.582
10296SOL     OW31786   6.663   3.645   6.899
10296SOL    HW131787   6.574   3.613   6.866
10296SOL    HW231788   6.703   3.575   6.958
10297SOL     OW31789   0.997   5.497   4.616
10297SOL    HW131790   0.943   5.551   4.552
10297SOL    HW231791   0.962   5.510   4.709
10298SOL     OW31792   5.338   3.949   3.886
10298SOL    HW131793   5.305   3.871   3.938
10298SOL    HW231794   5.296   3.950   3.795
10299SOL     OW31795   4.337   4.614   3.504
10299SOL    HW131796   4.312   4.656   3.417
10299SOL    HW231797   4.256   4.607   3.562
10300SOL     OW31798   0.820   3.891   2.432
10300SOL    HW131799   0.793   3.957   2.361
10300SOL    HW231800   0.879   3.822   2.391
10301SOL     OW31801   5.711   1.506   2.972
10301SOL    HW131802   5.663   1.539   3.053
10301SOL    HW231803   5.717   1.580   2.905
10302SOL     OW31804   1.420   5.797   2.934
10302SOL    HW131805   1.427   5.711   2.984
10302SOL    HW231806   1.341   5.849   2.968
10303SOL     OW31807   4.155   3.587   1.240
10303SOL    HW131808   4.149   3.542   1.329
10303SOL    HW231809   4.134   3.684   1.250
10304SOL     OW31810   0.032   6.544   2.834
10304SOL    HW131811   0.003   6.511   2.924
10304SOL    HW231812   0.119   6.594   2.843
10305SOL     OW31813   1.734   6.125   6.650
10305SOL    HW131814   1.676   6.129   6.732
10305SOL    HW231815   1.829   6.141   6.676
10306SOL     OW31816   4.221   5.415   0.472
10306SOL    HW131817   4.277   5.336   0.450
10306SOL    HW231818   4.146   5.422   0.407
10307SOL     OW31819   1.547   1.071   6.433
10307SOL    HW131820   1.580   0.989   6.387
10307SOL    HW231821   1.615   1.143   6.425
10308SOL     OW31822   3.438   5.744   3.794
10308SOL    HW131823   3.485   5.685   3.728
10308SOL    HW231824   3.467   5.839   3.781
10309SOL     OW31825   6.735   6.302   2.841
10309SOL    HW131826   6.818   6.278   2.891
10309SOL    HW231827   6.756   6.372   2.773
10310SOL     OW31828   3.399   3.759   2.600
10310SOL    HW131829   3.305   3.744   2.630
10310SOL    HW231830   3.441   3.831   2.655
10311SOL     OW31831   0.483   5.157   0.404
10311SOL    HW131832   0.457   5.251   0.380
10311SOL    HW231833   0.580   5.143   0.385
10312SOL     OW31834   3.035   4.278   0.504
10312SOL    HW131835   3.048   4.307   0.599
10312SOL    HW231836   2.988   4.350   0.453
10313SOL     OW31837   4.547   0.397   2.500
10313SOL    HW131838   4.635   0.349   2.500
10313SOL    HW231839   4.477   0.339   2.543
10314SOL     OW31840   6.331   6.659   0.774
10314SOL    HW131841   6.310   6.739   0.717
10314SOL    HW231842   6.246   6.615   0.801
10315SOL     OW31843   6.153   6.024   4.624
10315SOL    HW131844   6.108   6.113   4.620
10315SOL    HW231845   6.153   5.982   4.534
10316SOL     OW31846   0.379   3.744   4.266
10316SOL    HW131847   0.348   3.705   4.179
10316SOL    HW231848   0.434   3.676   4.315
10317SOL     OW31849   4.428   5.442   6.196
10317SOL    HW131850   4.334   5.466   6.177
10317SOL    HW231851   4.489   5.491   6.135
10318SOL     OW31852   5.952   5.313   1.769
10318SOL    HW131853   5.953   5.257   1.852
10318SOL    HW231854   5.941   5.409   1.794
10319SOL     OW31855   6.515   5.650   3.626
10319SOL    HW131856   6.442   5.716   3.605
10319SOL    HW231857   6.586   5.695   3.680
10320SOL     OW31858   6.956   6.065   1.128
10320SOL    HW131859   6.947   6.044   1.225
10320SOL    HW231860   6.879   6.123   1.099
10321SOL     OW31861   4.706   5.522   4.378
10321SOL    HW131862   4.693   5.423   4.381
10321SOL    HW231863   4.738   5.554   4.467
10322SOL     OW31864   6.271   4.110   0.467
10322SOL    HW131865   6.275   4.167   0.549
10322SOL    HW231866   6.341   4.138   0.402
10323SOL     OW31867   5.365   3.278   5.904
10323SOL    HW131868   5.336   3.371   5.881
10323SOL    HW231869   5.286   3.224   5.931
10324SOL     OW31870   3.093   3.462   3.724
10324SOL    HW131871   3.157   3.440   3.797
10324SOL    HW231872   3.120   3.415   3.640
10325SOL     OW31873   0.625   2.741   2.787
10325SOL    HW131874   0.567   2.670   2.748
10325SOL    HW231875   0.567   2.811   2.830
10326SOL     OW31876   5.324   2.732   0.436
10326SOL    HW131877   5.282   2.650   0.395
10326SOL    HW231878   5.344   2.714   0.532
10327SOL     OW31879   0.479   0.444   2.694
10327SOL    HW131880   0.387   0.472   2.719
10327SOL    HW231881   0.538   0.449   2.775
10328SOL     OW31882   6.056   3.375   2.252
10328SOL    HW131883   6.006   3.421   2.325
10328SOL    HW231884   6.034   3.278   2.251
10329SOL     OW31885   3.086   6.856   2.996
10329SOL    HW131886   3.007   6.838   2.937
10329SOL    HW231887   3.055   6.868   3.090
10330SOL     OW31888   4.276   5.062   2.274
10330SOL    HW131889   4.311   5.136   2.331
10330SOL    HW231890   4.333   4.981   2.286
10331SOL     OW31891   5.548   1.055   3.614
10331SOL    HW131892   5.524   0.990   3.542
10331SOL    HW231893   5.625   1.020   3.667
10332SOL     OW31894   0.000   2.044   6.553
10332SOL    HW131895   0.021   1.947   6.537
10332SOL    HW231896   6.965   2.078   6.479
10333SOL     OW31897   5.810   5.479   4.242
10333SOL    HW131898   5.842   5.469   4.148
10333SOL    HW231899   5.739   5.550   4.245
10334SOL     OW31900   1.989   4.535   4.186
10334SOL    HW131901   2.078   4.508   4.149
10334SOL    HW231902   1.926   4.459   4.178
10335SOL     OW31903   1.843   5.233   1.146
10335SOL    HW131904   1.782   5.225   1.067
10335SOL    HW231905   1.791   5.216   1.230
10336SOL     OW31906   4.095   6.595   2.077
10336SOL    HW131907   4.066   6.684   2.041
10336SOL    HW231908   4.168   6.559   2.019
10337SOL     OW31909   0.770   5.217   4.855
10337SOL    HW131910   0.689   5.244   4.907
10337SOL    HW231911   0.792   5.121   4.874
10338SOL     OW31912   2.689   6.302   2.934
10338SOL    HW131913   2.789   6.300   2.932
10338SOL    HW231914   2.654   6.303   2.840
10339SOL     OW31915   2.223   6.227   1.606
10339SOL    HW131916   2.222   6.324   1.586
10339SOL    HW231917   2.194   6.175   1.526
10340SOL     OW31918   1.834   6.554   0.406
10340SOL    HW131919   1.843   6.556   0.506
10340SOL    HW231920   1.911   6.602   0.364
10341SOL     OW31921   2.152   1.587   2.348
10341SOL    HW131922   2.200   1.499   2.351
10341SOL    HW231923   2.168   1.635   2.434
10342SOL     OW31924   1.924   0.578   5.356
10342SOL    HW131925   2.007   0.552   5.307
10342SOL    HW231926   1.939   0.566   5.455
10343SOL     OW31927   2.838   3.502   5.961
10343SOL    HW131928   2.830   3.589   6.010
10343SOL    HW231929   2.870   3.518   5.868
10344SOL     OW31930   3.884   3.571   4.911
10344SOL    HW131931   3.925   3.492   4.866
10344SOL    HW231932   3.788   3.552   4.932
10345SOL     OW31933   2.327   1.761   6.526
10345SOL    HW131934   2.327   1.801   6.618
10345SOL    HW231935   2.233   1.741   6.498
10346SOL     OW31936   5.217   6.839   0.349
10346SOL    HW131937   5.177   6.780   0.279
10346SOL    HW231938   5.144   6.877   0.406
10347SOL     OW31939   5.504   1.579   1.716
10347SOL    HW131940   5.457   1.547   1.799
10347SOL    HW231941   5.518   1.678   1.723
10348SOL     OW31942   6.517   0.199   5.886
10348SOL    HW131943   6.499   0.280   5.943
10348SOL    HW231944   6.482   0.215   5.794
10349SOL     OW31945   6.597   1.689   1.370
10349SOL    HW131946   6.582   1.593   1.396
10349SOL    HW231947   6.661   1.692   1.294
10350SOL     OW31948   2.743   5.017   4.233
10350SOL    HW131949   2.677   5.056   4.298
10350SOL    HW231950   2.797   4.947   4.280
10351SOL     OW31951   5.624   5.193   5.110
10351SOL    HW131952   5.700   5.225   5.167
10351SOL    HW231953   5.559   5.143   5.167
10352SOL     OW31954   6.047   2.358   0.361
10352SOL    HW131955   6.061   2.405   0.449
10352SOL    HW231956   6.080   2.264   0.369
10353SOL     OW31957   0.115   2.285   3.164
10353SOL    HW131958   0.177   2.340   3.219
10353SOL    HW231959   0.077   2.211   3.220
10354SOL     OW31960   0.743   3.292   0.354
10354SOL    HW131961   0.711   3.284   0.449
10354SOL    HW231962   0.782   3.382   0.340
10355SOL     OW31963   1.254   0.403   0.863
10355SOL    HW131964   1.187   0.449   0.922
10355SOL    HW231965   1.282   0.466   0.791
10356SOL     OW31966   6.911   4.183   6.710
10356SOL    HW131967   6.957   4.104   6.670
10356SOL    HW231968   6.825   4.153   6.753
10357SOL     OW31969   1.103   3.055   6.035
10357SOL    HW131970   1.155   3.081   5.954
10357SOL    HW231971   1.166   3.024   6.107
10358SOL     OW31972   0.606   2.320   2.888
10358SOL    HW131973   0.563   2.397   2.841
10358SOL    HW231974   0.597   2.238   2.833
10359SOL     OW31975   5.631   1.740   2.322
10359SOL    HW131976   5.612   1.728   2.419
10359SOL    HW231977   5.624   1.837   2.299
10360SOL     OW31978   5.943   4.730   2.398
10360SOL    HW131979   5.918   4.650   2.345
10360SOL    HW231980   5.937   4.708   2.496
10361SOL     OW31981   0.625   1.805   1.108
10361SOL    HW131982   0.535   1.786   1.147
10361SOL    HW231983   0.646   1.902   1.119
10362SOL     OW31984   1.269   4.802   2.649
10362SOL    HW131985   1.327   4.880   2.621
10362SOL    HW231986   1.291   4.723   2.592
10363SOL     OW31987   4.932   4.172   0.701
10363SOL    HW131988   5.009   4.144   0.643
10363SOL    HW231989   4.936   4.123   0.788
10364SOL     OW31990   5.954   4.475   2.278
10364SOL    HW131991   6.017   4.427   2.339
10364SOL    HW231992   5.865   4.430   2.279
10365SOL     OW31993   5.669   5.823   0.298
10365SOL    HW131994   5.615   5.777   0.227
10365SOL    HW231995   5.694   5.914   0.266
10366SOL     OW31996   3.106   6.496   3.175
10366SOL    HW131997   3.188   6.545   3.147
10366SOL    HW231998   3.126   6.443   3.258
10367SOL     OW31999   6.428   2.445   0.868
10367SOL    HW132000   6.483   2.399   0.799
10367SOL    HW232001   6.331   2.433   0.846
10368SOL     OW32002   1.975   6.267   2.050
10368SOL    HW132003   1.942   6.179   2.085
10368SOL    HW232004   1.991   6.260   1.951
10369SOL     OW32005   3.333   6.827   6.269
10369SOL    HW132006   3.257   6.773   6.230
10369SOL    HW232007   3.362   6.785   6.355
10370SOL     OW32008   0.593   1.254   4.429
10370SOL    HW132009   0.661   1.277   4.498
10370SOL    HW232010   0.502   1.265   4.467
10371SOL     OW32011   2.969   5.957   3.441
10371SOL    HW132012   2.961   5.857   3.440
10371SOL    HW232013   3.063   5.983   3.459
10372SOL     OW32014   2.628   6.984   1.393
10372SOL    HW132015   2.594   0.009   1.312
10372SOL    HW232016   2.637   0.026   1.469
10373SOL     OW32017   0.231   1.802   5.377
10373SOL    HW132018   0.187   1.887   5.406
10373SOL    HW232019   0.274   1.758   5.456
10374SOL     OW32020   2.906   6.839   4.832
10374SOL    HW132021   2.970   6.791   4.892
10374SOL    HW232022   2.899   6.791   4.745
10375SOL     OW32023   3.653   3.130   0.307
10375SOL    HW132024   3.569   3.098   0.350
10375SOL    HW232025   3.730   3.116   0.368
10376SOL     OW32026   2.307   5.632   2.917
10376SOL    HW132027   2.237   5.622   2.846
10376SOL    HW232028   2.348   5.723   2.911
10377SOL     OW32029   1.159   0.991   2.419
10377SOL    HW132030   1.103   0.917   2.380
10377SOL    HW232031   1.129   1.010   2.512
10378SOL     OW32032   6.901   4.994   5.524
10378SOL    HW132033   6.870   4.923   5.461
10378SOL    HW232034   6.950   5.065   5.472
10379SOL     OW32035   2.401   6.655   4.532
10379SOL    HW132036   2.319   6.634   4.479
10379SOL    HW232037   2.414   6.585   4.603
10380SOL     OW32038   1.452   2.506   4.573
10380SOL    HW132039   1.477   2.533   4.666
10380SOL    HW232040   1.520   2.540   4.508
10381SOL     OW32041   4.431   4.338   1.599
10381SOL    HW132042   4.530   4.351   1.596
10381SOL    HW232043   4.405   4.302   1.688
10382SOL     OW32044   3.177   4.612   1.455
10382SOL    HW132045   3.227   4.527   1.472
10382SOL    HW232046   3.085   4.592   1.422
10383SOL     OW32047   2.161   4.345   0.189
10383SOL    HW132048   2.189   4.268   0.247
10383SOL    HW232049   2.117   4.310   0.106
10384SOL     OW32050   5.762   6.578   1.365
10384SOL    HW132051   5.711   6.614   1.444
10384SOL    HW232052   5.828   6.646   1.334
10385SOL     OW32053   3.787   4.731   6.643
10385SOL    HW132054   3.849   4.678   6.584
10385SOL    HW232055   3.695   4.694   6.635
10386SOL     OW32056   6.889   0.835   6.185
10386SOL    HW132057   6.937   0.762   6.136
10386SOL    HW232058   6.881   0.810   6.281
10387SOL     OW32059   4.904   3.122   2.987
10387SOL    HW132060   4.985   3.152   2.938
10387SOL    HW232061   4.871   3.036   2.950
10388SOL     OW32062   2.866   0.355   5.549
10388SOL    HW132063   2.785   0.354   5.490
10388SOL    HW232064   2.926   0.431   5.522
10389SOL     OW32065   0.547   3.417   0.140
10389SOL    HW132066   0.595   3.369   0.066
10389SOL    HW232067   0.600   3.411   0.224
10390SOL     OW32068   2.500   2.382   0.982
10390SOL    HW132069   2.511   2.284   0.964
10390SOL    HW232070   2.454   2.395   1.070
10391SOL     OW32071   0.431   6.822   3.528
10391SOL    HW132072   0.505   6.882   3.560
10391SOL    HW232073   0.428   6.826   3.428
10392SOL     OW32074   6.540   5.157   4.911
10392SOL    HW132075   6.614   5.191   4.853
10392SOL    HW232076   6.466   5.224   4.912
10393SOL     OW32077   2.196   3.854   4.078
10393SOL    HW132078   2.240   3.795   4.145
10393SOL    HW232079   2.157   3.798   4.005
10394SOL     OW32080   3.323   5.935   4.304
10394SOL    HW132081   3.355   6.030   4.295
10394SOL    HW232082   3.233   5.926   4.261
10395SOL     OW32083   6.768   6.272   1.376
10395SOL    HW132084   6.746   6.244   1.283
10395SOL    HW232085   6.698   6.335   1.410
10396SOL     OW32086   2.891   2.244   4.152
10396SOL    HW132087   2.976   2.270   4.108
10396SOL    HW232088   2.815   2.257   4.088
10397SOL     OW32089   3.166   2.120   2.446
10397SOL    HW132090   3.217   2.118   2.360
10397SOL    HW232091   3.205   2.053   2.510
10398SOL     OW32092   0.187   3.437   1.559
10398SOL    HW132093   0.272   3.388   1.540
10398SOL    HW232094   0.129   3.436   1.478
10399SOL     OW32095   6.257   2.863   2.738
10399SOL    HW132096   6.353   2.867   2.766
10399SOL    HW232097   6.202   2.923   2.796
10400SOL     OW32098   4.165   6.996   0.556
10400SOL    HW132099   4.198   0.063   0.528
10400SOL    HW232100   4.215   6.966   0.638
10401SOL     OW32101   6.874   0.484   3.709
10401SOL    HW132102   6.857   0.479   3.611
10401SOL    HW232103   6.856   0.577   3.742
10402SOL     OW32104   6.274   3.030   4.906
10402SOL    HW132105   6.249   2.993   4.817
10402SOL    HW232106   6.369   3.062   4.904
10403SOL     OW32107   3.245   0.900   3.425
10403SOL    HW132108   3.335   0.858   3.433
10403SOL    HW232109   3.245   0.964   3.349
10404SOL     OW32110   5.678   0.239   5.301
10404SOL    HW132111   5.770   0.232   5.339
10404SOL    HW232112   5.667   0.328   5.256
10405SOL     OW32113   1.010   1.774   5.766
10405SOL    HW132114   0.965   1.768   5.677
10405SOL    HW232115   0.953   1.730   5.836
10406SOL     OW32116   2.985   4.885   2.231
10406SOL    HW132117   3.002   4.864   2.135
10406SOL    HW232118   2.930   4.812   2.272
10407SOL     OW32119   3.120   5.733   5.472
10407SOL    HW132120   3.217   5.730   5.448
10407SOL    HW232121   3.110   5.736   5.571
10408SOL     OW32122   4.683   1.452   0.626
10408SOL    HW132123   4.676   1.485   0.532
10408SOL    HW232124   4.672   1.352   0.627
10409SOL     OW32125   0.166   4.599   0.847
10409SOL    HW132126   0.120   4.673   0.797
10409SOL    HW232127   0.105   4.564   0.918
10410SOL     OW32128   5.599   1.165   6.891
10410SOL    HW132129   5.535   1.173   6.815
10410SOL    HW232130   5.692   1.156   6.855
10411SOL     OW32131   3.193   6.380   2.936
10411SOL    HW132132   3.158   6.428   3.016
10411SOL    HW232133   3.238   6.446   2.875
10412SOL     OW32134   6.321   0.656   0.650
10412SOL    HW132135   6.337   0.573   0.596
10412SOL    HW232136   6.248   0.638   0.717
10413SOL     OW32137   6.819   2.043   1.361
10413SOL    HW132138   6.767   1.989   1.295
10413SOL    HW232139   6.835   2.134   1.324
10414SOL     OW32140   4.548   4.203   5.600
10414SOL    HW132141   4.495   4.287   5.589
10414SOL    HW232142   4.615   4.214   5.673
10415SOL     OW32143   0.315   4.682   5.605
10415SOL    HW132144   0.365   4.726   5.680
10415SOL    HW232145   0.237   4.739   5.579
10416SOL     OW32146   6.702   1.056   3.292
10416SOL    HW132147   6.724   0.997   3.370
10416SOL    HW232148   6.782   1.062   3.232
10417SOL     OW32149   3.940   5.253   4.388
10417SOL    HW132150   3.879   5.223   4.462
10417SOL    HW232151   3.886   5.267   4.305
10418SOL     OW32152   6.818   4.824   5.920
10418SOL    HW132153   6.880   4.763   5.871
10418SOL    HW232154   6.843   4.919   5.901
10419SOL     OW32155   1.310   0.097   6.715
10419SOL    HW132156   1.238   0.153   6.755
10419SOL    HW232157   1.283   0.000   6.717
10420SOL     OW32158   6.487   3.116   2.298
10420SOL    HW132159   6.439   3.094   2.383
10420SOL    HW232160   6.554   3.188   2.316
10421SOL     OW32161   0.361   1.908   3.448
10421SOL    HW132162   0.291   1.891   3.379
10421SOL    HW232163   0.327   1.880   3.538
10422SOL     OW32164   6.313   2.464   5.865
10422SOL    HW132165   6.372   2.537   5.900
10422SOL    HW232166   6.360   2.416   5.791
10423SOL     OW32167   4.970   5.091   4.652
10423SOL    HW132168   4.873   5.067   4.656
10423SOL    HW232169   5.022   5.013   4.617
10424SOL     OW32170   5.412   3.152   0.657
10424SOL    HW132171   5.508   3.175   0.675
10424SOL    HW232172   5.377   3.093   0.729
10425SOL     OW32173   2.079   6.787   2.145
10425SOL    HW132174   2.023   6.869   2.134
10425SOL    HW232175   2.101   6.774   2.242
10426SOL     OW32176   6.286   3.851   0.464
10426SOL    HW132177   6.327   3.942   0.472
10426SOL    HW232178   6.269   3.830   0.368
10427SOL     OW32179   4.059   1.547   0.083
10427SOL    HW132180   4.029   1.452   0.090
10427SOL    HW232181   4.016   1.590   0.004
10428SOL     OW32182   3.032   2.066   5.144
10428SOL    HW132183   3.083   2.145   5.110
10428SOL    HW232184   3.043   1.990   5.080
10429SOL     OW32185   0.383   5.457   1.279
10429SOL    HW132186   0.398   5.488   1.185
10429SOL    HW232187   0.413   5.528   1.342
10430SOL     OW32188   4.230   0.104   3.828
10430SOL    HW132189   4.255   0.015   3.866
10430SOL    HW232190   4.167   0.091   3.752
10431SOL     OW32191   3.209   6.833   5.282
10431SOL    HW132192   3.224   6.924   5.321
10431SOL    HW232193   3.117   6.802   5.304
10432SOL     OW32194   6.367   0.780   4.152
10432SOL    HW132195   6.316   0.768   4.068
10432SOL    HW232196   6.450   0.725   4.149
10433SOL     OW32197   1.649   6.006   1.822
10433SOL    HW132198   1.694   6.077   1.768
10433SOL    HW232199   1.554   6.034   1.841
10434SOL     OW32200   3.606   6.441   2.870
10434SOL    HW132201   3.523   6.491   2.895
10434SOL    HW232202   3.628   6.460   2.774
10435SOL     OW32203   6.665   0.628   5.003
10435SOL    HW132204   6.722   0.700   4.963
10435SOL    HW232205   6.663   0.550   4.942
10436SOL     OW32206   0.562   5.473   5.127
10436SOL    HW132207   0.559   5.387   5.075
10436SOL    HW232208   0.605   5.456   5.215
10437SOL     OW32209   6.159   4.842   5.202
10437SOL    HW132210   6.110   4.929   5.209
10437SOL    HW232211   6.112   4.773   5.257
10438SOL     OW32212   5.447   6.681   0.082
10438SOL    HW132213   5.533   6.634   0.066
10438SOL    HW232214   5.465   6.776   0.106
10439SOL     OW32215   3.798   1.546   6.288
10439SOL    HW132216   3.699   1.530   6.282
10439SOL    HW232217   3.838   1.545   6.197
10440SOL     OW32218   0.994   5.884   0.376
10440SOL    HW132219   0.917   5.901   0.315
10440SOL    HW232220   0.972   5.916   0.468
10441SOL     OW32221   5.524   1.818   6.881
10441SOL    HW132222   5.443   1.872   6.858
10441SOL    HW232223   5.563   1.852   6.967
10442SOL     OW32224   2.765   5.827   5.463
10442SOL    HW132225   2.783   5.729   5.453
10442SOL    HW232226   2.702   5.841   5.539
10443SOL     OW32227   5.263   3.535   4.638
10443SOL    HW132228   5.336   3.534   4.569
10443SOL    HW232229   5.292   3.482   4.717
10444SOL     OW32230   4.326   5.719   4.687
10444SOL    HW132231   4.287   5.659   4.756
10444SOL    HW232232   4.268   5.800   4.677
10445SOL     OW32233   0.811   4.971   4.061
10445SOL    HW132234   0.736   4.979   4.126
10445SOL    HW232235   0.850   4.879   4.066
10446SOL     OW32236   1.147   3.773   5.772
10446SOL    HW132237   1.061   3.810   5.808
10446SOL    HW232238   1.131   3.684   5.731
10447SOL     OW32239   0.389   1.506   1.629
10447SOL    HW132240   0.316   1.533   1.565
10447SOL    HW232241   0.353   1.506   1.722
10448SOL     OW32242   4.176   2.831   1.456
10448SOL    HW132243   4.145   2.736   1.446
10448SOL    HW232244   4.192   2.870   1.365
10449SOL     OW32245   2.710   5.313   4.538
10449SOL    HW132246   2.772   5.367   4.482
10449SOL    HW232247   2.634   5.280   4.483
10450SOL     OW32248   0.724   2.748   6.803
10450SOL    HW132249   0.628   2.778   6.810
10450SOL    HW232250   0.773   2.807   6.739
10451SOL     OW32251   2.749   5.253   2.696
10451SOL    HW132252   2.847   5.269   2.710
10451SOL    HW232253   2.734   5.211   2.607
10452SOL     OW32254   6.431   3.254   3.407
10452SOL    HW132255   6.388   3.165   3.396
10452SOL    HW232256   6.399   3.316   3.336
10453SOL     OW32257   5.395   6.209   1.840
10453SOL    HW132258   5.421   6.304   1.859
10453SOL    HW232259   5.295   6.201   1.840
10454SOL     OW32260   5.252   2.767   1.617
10454SOL    HW132261   5.326   2.757   1.551
10454SOL    HW232262   5.269   2.847   1.675
10455SOL     OW32263   0.484   4.946   3.177
10455SOL    HW132264   0.498   4.886   3.098
10455SOL    HW232265   0.572   4.969   3.217
10456SOL     OW32266   2.963   6.433   1.562
10456SOL    HW132267   2.876   6.482   1.567
10456SOL    HW232268   2.981   6.389   1.651
10457SOL     OW32269   3.466   2.899   4.044
10457SOL    HW132270   3.474   2.929   4.139
10457SOL    HW232271   3.374   2.922   4.010
10458SOL     OW32272   0.110   6.846   0.108
10458SOL    HW132273   0.070   6.851   0.199
10458SOL    HW232274   0.108   6.752   0.075
10459SOL     OW32275   5.333   5.437   2.763
10459SOL    HW132276   5.380   5.521   2.790
10459SOL    HW232277   5.362   5.410   2.671
10460SOL     OW32278   1.866   5.610   1.243
10460SOL    HW132279   1.814   5.638   1.324
10460SOL    HW232280   1.803   5.576   1.174
10461SOL     OW32281   1.055   6.246   5.392
10461SOL    HW132282   1.152   6.220   5.383
10461SOL    HW232283   1.024   6.288   5.307
10462SOL     OW32284   5.999   0.884   1.896
10462SOL    HW132285   5.966   0.925   1.811
10462SOL    HW232286   5.925   0.883   1.964
10463SOL     OW32287   3.516   3.978   5.859
10463SOL    HW132288   3.579   4.030   5.917
10463SOL    HW232289   3.433   4.032   5.844
10464SOL     OW32290   4.555   0.588   0.749
10464SOL    HW132291   4.641   0.624   0.786
10464SOL    HW232292   4.500   0.551   0.824
10465SOL     OW32293   6.981   0.063   6.429
10465SOL    HW132294   0.034   0.056   6.365
10465SOL    HW232295   6.913   0.127   6.394
10466SOL     OW32296   4.902   5.797   5.059
10466SOL    HW132297   4.867   5.704   5.072
10466SOL    HW232298   4.940   5.805   4.967
10467SOL     OW32299   2.005   1.873   5.277
10467SOL    HW132300   2.086   1.909   5.324
10467SOL    HW232301   1.965   1.800   5.331
10468SOL     OW32302   3.688   6.049   4.369
10468SOL    HW132303   3.766   6.029   4.428
10468SOL    HW232304   3.616   6.094   4.422
10469SOL     OW32305   2.859   3.910   1.372
10469SOL    HW132306   2.924   3.960   1.429
10469SOL    HW232307   2.895   3.904   1.279
10470SOL     OW32308   2.434   2.196   3.367
10470SOL    HW132309   2.400   2.109   3.331
10470SOL    HW232310   2.440   2.263   3.293
10471SOL     OW32311   2.028   3.687   1.388
10471SOL    HW132312   1.989   3.660   1.300
10471SOL    HW232313   2.089   3.616   1.421
10472SOL     OW32314   3.870   6.914   1.762
10472SOL    HW132315   3.775   6.916   1.793
10472SOL    HW232316   3.872   6.917   1.662
10473SOL     OW32317   5.395   6.840   0.800
10473SOL    HW132318   5.429   6.928   0.765
10473SOL    HW232319   5.395   6.773   0.725
10474SOL     OW32320   4.571   0.565   4.555
10474SOL    HW132321   4.630   0.539   4.632
10474SOL    HW232322   4.558   0.665   4.555
10475SOL     OW32323   4.452   5.826   1.221
10475SOL    HW132324   4.397   5.803   1.141
10475SOL    HW232325   4.412   5.905   1.268
10476SOL     OW32326   6.657   5.608   6.996
10476SOL    HW132327   6.599   5.546   6.943
10476SOL    HW232328   6.606   5.641   0.052
10477SOL     OW32329   5.762   3.320   5.173
10477SOL    HW132330   5.713   3.272   5.101
10477SOL    HW232331   5.758   3.266   5.258
10478SOL     OW32332   1.047   6.635   6.611
10478SOL    HW132333   0.954   6.608   6.635
10478SOL    HW232334   1.044   6.700   6.535
10479SOL     OW32335   1.385   2.284   2.009
10479SOL    HW132336   1.357   2.256   1.917
10479SOL    HW232337   1.347   2.220   2.076
10480SOL     OW32338   5.026   6.478   1.587
10480SOL    HW132339   4.971   6.433   1.517
10480SOL    HW232340   5.116   6.433   1.593
10481SOL     OW32341   2.228   1.238   4.762
10481SOL    HW132342   2.250   1.230   4.859
10481SOL    HW232343   2.143   1.290   4.751
10482SOL     OW32344   0.691   6.251   4.904
10482SOL    HW132345   0.599   6.258   4.865
10482SOL    HW232346   0.749   6.323   4.864
10483SOL     OW32347   6.199   5.501   0.836
10483SOL    HW132348   6.288   5.548   0.833
10483SOL    HW232349   6.128   5.562   0.802
10484SOL     OW32350   0.138   0.647   1.116
10484SOL    HW132351   0.162   0.673   1.210
10484SOL    HW232352   0.044   0.674   1.097
10485SOL     OW32353   3.291   4.042   3.115
10485SOL    HW132354   3.283   4.050   3.215
10485SOL    HW232355   3.202   4.022   3.075
10486SOL     OW32356   6.771   0.146   5.809
10486SOL    HW132357   6.842   0.173   5.874
10486SOL    HW232358   6.685   0.130   5.857
10487SOL     OW32359   4.710   1.539   1.581
10487SOL    HW132360   4.703   1.452   1.630
10487SOL    HW232361   4.618   1.576   1.566
10488SOL     OW32362   0.861   2.452   4.948
10488SOL    HW132363   0.819   2.417   5.031
10488SOL    HW232364   0.922   2.528   4.970
10489SOL     OW32365   6.346   5.563   3.835
10489SOL    HW132366   6.388   5.632   3.893
10489SOL    HW232367   6.403   5.548   3.754
10490SOL     OW32368   5.833   0.450   0.793
10490SOL    HW132369   5.807   0.463   0.888
10490SOL    HW232370   5.839   0.352   0.773
10491SOL     OW32371   1.522   3.101   6.283
10491SOL    HW132372   1.491   3.059   6.369
10491SOL    HW232373   1.447   3.156   6.245
10492SOL     OW32374   4.763   0.075   0.319
10492SOL    HW132375   4.840   0.092   0.380
10492SOL    HW232376   4.702   0.155   0.320
10493SOL     OW32377   4.162   5.332   1.167
10493SOL    HW132378   4.070   5.293   1.159
10493SOL    HW232379   4.179   5.394   1.091
10494SOL     OW32380   0.827   4.473   5.982
10494SOL    HW132381   0.874   4.416   5.914
10494SOL    HW232382   0.889   4.545   6.013
10495SOL     OW32383   6.747   6.105   6.538
10495SOL    HW132384   6.784   6.040   6.472
10495SOL    HW232385   6.695   6.056   6.608
10496SOL     OW32386   0.053   3.832   5.652
10496SOL    HW132387   0.002   3.747   5.667
10496SOL    HW232388   0.142   3.811   5.611
10497SOL     OW32389   2.526   6.908   2.270
10497SOL    HW132390   2.557   6.926   2.177
10497SOL    HW232391   2.605   6.884   2.327
10498SOL     OW32392   4.860   5.481   0.764
10498SOL    HW132393   4.915   5.423   0.704
10498SOL    HW232394   4.900   5.573   0.767
10499SOL     OW32395   6.037   5.868   1.852
10499SOL    HW132396   5.965   5.896   1.916
10499SOL    HW232397   6.081   5.950   1.815
10500SOL     OW32398   5.354   4.478   4.904
10500SOL    HW132399   5.393   4.525   4.824
10500SOL    HW232400   5.283   4.536   4.945
10501SOL     OW32401   2.294   5.707   2.308
10501SOL    HW132402   2.208   5.671   2.272
10501SOL    HW232403   2.275   5.770   2.384
10502SOL     OW32404   2.891   3.353   2.735
10502SOL    HW132405   2.815   3.297   2.769
10502SOL    HW232406   2.907   3.332   2.638
10503SOL     OW32407   6.627   3.732   6.267
10503SOL    HW132408   6.640   3.668   6.191
10503SOL    HW232409   6.710   3.736   6.322
10504SOL     OW32410   2.169   3.577   6.119
10504SOL    HW132411   2.195   3.526   6.201
10504SOL    HW232412   2.250   3.616   6.076
10505SOL     OW32413   5.642   6.466   2.195
10505SOL    HW132414   5.674   6.458   2.100
10505SOL    HW232415   5.676   6.551   2.235
10506SOL     OW32416   0.751   3.073   6.828
10506SOL    HW132417   0.660   3.077   6.786
10506SOL    HW232418   0.809   3.012   6.774
10507SOL     OW32419   2.423   4.903   0.232
10507SOL    HW132420   2.491   4.915   0.160
10507SOL    HW232421   2.451   4.954   0.314
10508SOL     OW32422   1.041   5.506   5.406
10508SOL    HW132423   1.139   5.487   5.410
10508SOL    HW232424   1.022   5.591   5.455
10509SOL     OW32425   5.157   3.500   4.348
10509SOL    HW132426   5.217   3.561   4.399
10509SOL    HW232427   5.062   3.514   4.378
10510SOL     OW32428   4.852   6.257   5.573
10510SOL    HW132429   4.914   6.183   5.598
10510SOL    HW232430   4.900   6.344   5.577
10511SOL     OW32431   2.781   1.267   1.729
10511SOL    HW132432   2.829   1.259   1.642
10511SOL    HW232433   2.844   1.248   1.804
10512SOL     OW32434   4.014   0.471   5.914
10512SOL    HW132435   4.058   0.381   5.906
10512SOL    HW232436   4.073   0.532   5.966
10513SOL     OW32437   5.360   2.671   2.523
10513SOL    HW132438   5.308   2.747   2.563
10513SOL    HW232439   5.434   2.645   2.585
10514SOL     OW32440   1.152   2.405   1.445
10514SOL    HW132441   1.119   2.311   1.441
10514SOL    HW232442   1.237   2.408   1.497
10515SOL     OW32443   2.044   2.799   4.820
10515SOL    HW132444   2.012   2.759   4.906
10515SOL    HW232445   1.965   2.822   4.763
10516SOL     OW32446   3.389   2.626   0.209
10516SOL    HW132447   3.393   2.723   0.185
10516SOL    HW232448   3.480   2.595   0.237
10517SOL     OW32449   1.499   2.919   3.463
10517SOL    HW132450   1.404   2.939   3.439
10517SOL    HW232451   1.532   2.986   3.529
10518SOL     OW32452   0.879   5.257   2.414
10518SOL    HW132453   0.904   5.272   2.509
10518SOL    HW232454   0.902   5.339   2.361
10519SOL     OW32455   2.135   6.090   1.388
10519SOL    HW132456   2.038   6.096   1.365
10519SOL    HW232457   2.168   5.998   1.371
10520SOL     OW32458   6.568   1.886   6.122
10520SOL    HW132459   6.616   1.799   6.116
10520SOL    HW232460   6.606   1.941   6.197
10521SOL     OW32461   5.854   3.197   1.804
10521SOL    HW132462   5.814   3.231   1.889
10521SOL    HW232463   5.883   3.274   1.747
10522SOL     OW32464   5.779   2.259   3.095
10522SOL    HW132465   5.814   2.352   3.091
10522SOL    HW232466   5.798   2.212   3.009
10523SOL     OW32467   0.828   4.181   3.814
10523SOL    HW132468   0.821   4.227   3.902
10523SOL    HW232469   0.845   4.250   3.742
10524SOL     OW32470   6.745   5.184   3.683
10524SOL    HW132471   6.736   5.122   3.761
10524SOL    HW232472   6.837   5.224   3.682
10525SOL     OW32473   4.346   0.900   4.790
10525SOL    HW132474   4.257   0.860   4.813
10525SOL    HW232475   4.334   0.994   4.759
10526SOL     OW32476   0.741   5.557   0.159
10526SOL    HW132477   0.824   5.610   0.173
10526SOL    HW232478   0.723   5.501   0.240
10527SOL     OW32479   0.711   1.667   5.137
10527SOL    HW132480   0.781   1.736   5.155
10527SOL    HW232481   0.751   1.593   5.082
10528SOL     OW32482   0.830   4.941   6.727
10528SOL    HW132483   0.864   5.021   6.777
10528SOL    HW232484   0.825   4.863   6.788
10529SOL     OW32485   1.697   6.297   5.930
10529SOL    HW132486   1.750   6.343   5.858
10529SOL    HW232487   1.737   6.317   6.019
10530SOL     OW32488   0.911   6.695   6.198
10530SOL    HW132489   0.886   6.599   6.210
10530SOL    HW232490   0.923   6.715   6.101
10531SOL     OW32491   2.944   2.602   5.351
10531SOL    HW132492   3.017   2.558   5.298
10531SOL    HW232493   2.870   2.536   5.366
10532SOL     OW32494   5.809   6.602   6.165
10532SOL    HW132495   5.756   6.603   6.250
10532SOL    HW232496   5.791   6.685   6.113
10533SOL     OW32497   3.756   5.525   4.044
10533SOL    HW132498   3.658   5.518   4.064
10533SOL    HW232499   3.790   5.612   4.081
10534SOL     OW32500   0.251   5.535   3.037
10534SOL    HW132501   0.270   5.437   3.028
10534SOL    HW232502   0.330   5.581   3.077
10535SOL     OW32503   2.898   1.249   2.295
10535SOL    HW132504   2.816   1.300   2.270
10535SOL    HW232505   2.979   1.308   2.286
10536SOL     OW32506   4.948   0.999   4.318
10536SOL    HW132507   5.027   0.955   4.275
10536SOL    HW232508   4.871   0.936   4.317
10537SOL     OW32509   4.604   6.901   2.976
10537SOL    HW132510   4.518   6.906   2.926
10537SOL    HW232511   4.586   6.875   3.070
10538SOL     OW32512   6.265   3.546   2.588
10538SOL    HW132513   6.169   3.558   2.565
10538SOL    HW232514   6.305   3.474   2.531
10539SOL     OW32515   5.870   6.068   2.496
10539SOL    HW132516   5.859   5.976   2.532
10539SOL    HW232517   5.810   6.131   2.545
10540SOL     OW32518   2.670   4.165   6.440
10540SOL    HW132519   2.643   4.069   6.440
10540SOL    HW232520   2.769   4.172   6.447
10541SOL     OW32521   3.015   3.132   5.119
10541SOL    HW132522   3.020   3.032   5.125
10541SOL    HW232523   3.100   3.168   5.082
10542SOL     OW32524   6.449   0.260   4.676
10542SOL    HW132525   6.475   0.164   4.692
10542SOL    HW232526   6.349   0.267   4.675
10543SOL     OW32527   6.860   3.071   5.615
10543SOL    HW132528   6.937   3.117   5.659
10543SOL    HW232529   6.787   3.058   5.681
10544SOL     OW32530   0.950   0.987   3.820
10544SOL    HW132531   0.925   0.894   3.849
10544SOL    HW232532   0.991   0.983   3.729
10545SOL     OW32533   1.802   2.189   2.829
10545SOL    HW132534   1.807   2.216   2.926
10545SOL    HW232535   1.891   2.204   2.786
10546SOL     OW32536   3.231   6.499   0.994
10546SOL    HW132537   3.283   6.547   1.065
10546SOL    HW232538   3.247   6.401   1.002
10547SOL     OW32539   4.533   0.121   4.906
10547SOL    HW132540   4.497   0.119   5.000
10547SOL    HW232541   4.507   0.037   4.859
10548SOL     OW32542   0.767   4.860   4.600
10548SOL    HW132543   0.710   4.818   4.671
10548SOL    HW232544   0.864   4.851   4.625
10549SOL     OW32545   0.415   1.391   0.488
10549SOL    HW132546   0.473   1.417   0.411
10549SOL    HW232547   0.378   1.300   0.472
10550SOL     OW32548   3.683   5.938   3.289
10550SOL    HW132549   3.628   5.866   3.247
10550SOL    HW232550   3.676   6.022   3.235
10551SOL     OW32551   3.147   1.888   5.811
10551SOL    HW132552   3.130   1.790   5.816
10551SOL    HW232553   3.241   1.904   5.780
10552SOL     OW32554   3.584   1.027   4.485
10552SOL    HW132555   3.526   0.945   4.485
10552SOL    HW232556   3.532   1.105   4.519
10553SOL     OW32557   0.539   5.333   0.740
10553SOL    HW132558   0.456   5.277   0.735
10553SOL    HW232559   0.524   5.407   0.807
10554SOL     OW32560   6.313   5.149   2.658
10554SOL    HW132561   6.323   5.143   2.757
10554SOL    HW232562   6.347   5.065   2.616
10555SOL     OW32563   3.297   2.190   0.648
10555SOL    HW132564   3.290   2.264   0.714
10555SOL    HW232565   3.310   2.103   0.695
10556SOL     OW32566   1.839   1.154   2.972
10556SOL    HW132567   1.896   1.138   2.891
10556SOL    HW232568   1.807   1.249   2.972
10557SOL     OW32569   1.925   3.881   4.158
10557SOL    HW132570   1.902   3.819   4.083
10557SOL    HW232571   2.022   3.873   4.180
10558SOL     OW32572   3.233   5.180   5.408
10558SOL    HW132573   3.229   5.130   5.322
10558SOL    HW232574   3.146   5.169   5.456
10559SOL     OW32575   3.628   0.104   0.182
10559SOL    HW132576   3.568   0.075   0.256
10559SOL    HW232577   3.695   0.032   0.163
10560SOL     OW32578   4.329   6.397   1.605
10560SOL    HW132579   4.264   6.472   1.589
10560SOL    HW232580   4.411   6.433   1.649
10561SOL     OW32581   5.695   4.353   1.282
10561SOL    HW132582   5.761   4.382   1.352
10561SOL    HW232583   5.610   4.325   1.326
10562SOL     OW32584   2.989   6.892   1.660
10562SOL    HW132585   2.922   6.843   1.605
10562SOL    HW232586   2.998   6.986   1.627
10563SOL     OW32587   0.479   0.038   0.714
10563SOL    HW132588   0.438   0.078   0.632
10563SOL    HW232589   0.491   6.963   0.701
10564SOL     OW32590   6.496   5.567   4.410
10564SOL    HW132591   6.588   5.570   4.370
10564SOL    HW232592   6.453   5.480   4.388
10565SOL     OW32593   6.630   6.800   5.157
10565SOL    HW132594   6.695   6.838   5.091
10565SOL    HW232595   6.673   6.728   5.210
10566SOL     OW32596   2.589   2.400   0.050
10566SOL    HW132597   2.573   2.379   0.146
10566SOL    HW232598   2.508   2.442   0.010
10567SOL     OW32599   1.561   2.507   6.102
10567SOL    HW132600   1.592   2.536   6.192
10567SOL    HW232601   1.632   2.453   6.058
10568SOL     OW32602   5.410   3.000   6.276
10568SOL    HW132603   5.502   2.974   6.245
10568SOL    HW232604   5.404   3.100   6.281
10569SOL     OW32605   5.254   0.197   1.902
10569SOL    HW132606   5.187   0.155   1.963
10569SOL    HW232607   5.234   0.295   1.893
10570SOL     OW32608   0.358   4.878   3.806
10570SOL    HW132609   0.286   4.929   3.758
10570SOL    HW232610   0.447   4.906   3.770
10571SOL     OW32611   6.848   4.618   6.475
10571SOL    HW132612   6.760   4.663   6.461
10571SOL    HW232613   6.835   4.519   6.478
10572SOL     OW32614   6.751   4.424   1.440
10572SOL    HW132615   6.751   4.479   1.524
10572SOL    HW232616   6.680   4.354   1.445
10573SOL     OW32617   5.730   0.560   3.587
10573SOL    HW132618   5.678   0.615   3.652
10573SOL    HW232619   5.711   0.463   3.602
10574SOL     OW32620   0.012   0.942   3.312
10574SOL    HW132621   6.986   0.974   3.231
10574SOL    HW232622   0.056   0.854   3.292
10575SOL     OW32623   5.945   0.829   2.669
10575SOL    HW132624   6.002   0.854   2.747
10575SOL    HW232625   5.850   0.823   2.698
10576SOL     OW32626   2.444   4.955   3.422
10576SOL    HW132627   2.387   5.006   3.357
10576SOL    HW232628   2.518   5.014   3.455
10577SOL     OW32629   3.818   5.857   0.606
10577SOL    HW132630   3.835   5.955   0.620
10577SOL    HW232631   3.848   5.807   0.688
10578SOL     OW32632   6.445   1.962   3.781
10578SOL    HW132633   6.348   1.946   3.760
10578SOL    HW232634   6.486   1.877   3.814
10579SOL     OW32635   2.738   3.293   1.030
10579SOL    HW132636   2.745   3.235   1.111
10579SOL    HW232637   2.816   3.277   0.970
10580SOL     OW32638   6.395   6.933   6.243
10580SOL    HW132639   6.407   6.850   6.297
10580SOL    HW232640   6.453   6.929   6.161
10581SOL     OW32641   5.677   6.810   3.531
10581SOL    HW132642   5.648   6.902   3.556
10581SOL    HW232643   5.609   6.743   3.563
10582SOL     OW32644   5.353   4.548   6.529
10582SOL    HW132645   5.419   4.477   6.507
10582SOL    HW232646   5.399   4.637   6.534
10583SOL     OW32647   3.007   6.811   3.755
10583SOL    HW132648   2.971   6.722   3.784
10583SOL    HW232649   3.017   6.870   3.834
10584SOL     OW32650   6.645   0.451   5.410
10584SOL    HW132651   6.697   0.533   5.388
10584SOL    HW232652   6.708   0.377   5.434
10585SOL     OW32653   0.534   1.894   5.976
10585SOL    HW132654   0.439   1.871   5.953
10585SOL    HW232655   0.559   1.850   6.062
10586SOL     OW32656   4.851   4.444   5.533
10586SOL    HW132657   4.850   4.403   5.624
10586SOL    HW232658   4.858   4.373   5.463
10587SOL     OW32659   0.746   5.873   5.506
10587SOL    HW132660   0.671   5.828   5.557
10587SOL    HW232661   0.831   5.823   5.523
10588SOL     OW32662   1.132   3.268   4.135
10588SOL    HW132663   1.138   3.168   4.139
10588SOL    HW232664   1.114   3.305   4.226
10589SOL     OW32665   5.158   6.201   4.573
10589SOL    HW132666   5.258   6.198   4.563
10589SOL    HW232667   5.122   6.108   4.567
10590SOL     OW32668   0.686   6.111   1.685
10590SOL    HW132669   0.629   6.030   1.671
10590SOL    HW232670   0.775   6.096   1.643
10591SOL     OW32671   1.077   1.361   1.426
10591SOL    HW132672   1.089   1.264   1.404
10591SOL    HW232673   1.095   1.376   1.523
10592SOL     OW32674   5.926   2.280   5.059
10592SOL    HW132675   5.970   2.295   4.970
10592SOL    HW232676   5.863   2.356   5.078
10593SOL     OW32677   2.588   6.446   1.388
10593SOL    HW132678   2.497   6.466   1.351
10593SOL    HW232679   2.657   6.465   1.319
10594SOL     OW32680   3.979   0.806   3.129
10594SOL    HW132681   3.992   0.734   3.061
10594SOL    HW232682   3.889   0.848   3.116
10595SOL     OW32683   6.145   0.748   0.857
10595SOL    HW132684   6.063   0.799   0.831
10595SOL    HW232685   6.171   0.774   0.950
10596SOL     OW32686   4.751   1.914   6.630
10596SOL    HW132687   4.773   1.816   6.629
10596SOL    HW232688   4.806   1.961   6.561
10597SOL     OW32689   2.438   0.496   6.114
10597SOL    HW132690   2.512   0.474   6.050
10597SOL    HW232691   2.474   0.549   6.190
10598SOL     OW32692   2.807   1.663   6.053
10598SOL    HW132693   2.786   1.743   6.109
10598SOL    HW232694   2.776   1.679   5.959
10599SOL     OW32695   6.684   4.286   6.066
10599SOL    HW132696   6.638   4.287   5.977
10599SOL    HW232697   6.711   4.379   6.092
10600SOL     OW32698   2.657   1.633   1.893
10600SOL    HW132699   2.640   1.574   1.814
10600SOL    HW232700   2.605   1.718   1.884
10601SOL     OW32701   0.244   6.739   6.824
10601SOL    HW132702   0.168   6.688   6.865
10601SOL    HW232703   0.207   6.803   6.756
10602SOL     OW32704   0.253   0.078   0.076
10602SOL    HW132705   0.185   0.007   0.096
10602SOL    HW232706   0.221   0.135   0.000
10603SOL     OW32707   4.287   6.804   2.073
10603SOL    HW132708   4.222   6.797   1.997
10603SOL    HW232709   4.374   6.763   2.046
10604SOL     OW32710   0.106   6.821   4.750
10604SOL    HW132711   0.094   6.866   4.661
10604SOL    HW232712   0.098   6.722   4.739
10605SOL     OW32713   2.628   0.617   0.782
10605SOL    HW132714   2.562   0.594   0.710
10605SOL    HW232715   2.720   0.624   0.742
10606SOL     OW32716   6.037   0.732   1.606
10606SOL    HW132717   5.957   0.751   1.662
10606SOL    HW232718   6.073   0.641   1.629
10607SOL     OW32719   4.190   4.665   6.474
10607SOL    HW132720   4.247   4.647   6.394
10607SOL    HW232721   4.241   4.721   6.539
10608SOL     OW32722   6.291   2.703   3.363
10608SOL    HW132723   6.345   2.775   3.318
10608SOL    HW232724   6.321   2.693   3.458
10609SOL     OW32725   3.578   0.436   0.251
10609SOL    HW132726   3.505   0.393   0.304
10609SOL    HW232727   3.660   0.379   0.255
10610SOL     OW32728   0.234   1.547   4.579
10610SOL    HW132729   0.237   1.636   4.624
10610SOL    HW232730   0.212   1.559   4.482
10611SOL     OW32731   2.916   5.659   5.100
10611SOL    HW132732   2.833   5.701   5.062
10611SOL    HW232733   2.892   5.575   5.148
10612SOL     OW32734   5.355   1.238   3.698
10612SOL    HW132735   5.326   1.209   3.789
10612SOL    HW232736   5.414   1.169   3.657
10613SOL     OW32737   6.489   6.057   4.411
10613SOL    HW132738   6.476   5.966   4.450
10613SOL    HW232739   6.582   6.065   4.374
10614SOL     OW32740   5.465   0.447   6.304
10614SOL    HW132741   5.469   0.453   6.204
10614SOL    HW232742   5.385   0.392   6.330
10615SOL     OW32743   2.728   2.347   6.286
10615SOL    HW132744   2.665   2.323   6.360
10615SOL    HW232745   2.684   2.329   6.198
10616SOL     OW32746   3.417   5.844   6.450
10616SOL    HW132747   3.502   5.844   6.504
10616SOL    HW232748   3.379   5.937   6.449
10617SOL     OW32749   2.746   3.404   1.871
10617SOL    HW132750   2.792   3.443   1.792
10617SOL    HW232751   2.803   3.416   1.953
10618SOL     OW32752   0.166   5.595   5.366
10618SOL    HW132753   0.241   5.534   5.388
10618SOL    HW232754   0.191   5.689   5.391
10619SOL     OW32755   0.476   1.810   2.935
10619SOL    HW132756   0.470   1.711   2.951
10619SOL    HW232757   0.384   1.847   2.924
10620SOL     OW32758   2.312   6.987   5.788
10620SOL    HW132759   2.316   6.906   5.729
10620SOL    HW232760   2.295   0.045   5.731
10621SOL     OW32761   1.138   3.846   2.869
10621SOL    HW132762   1.218   3.869   2.815
10621SOL    HW232763   1.074   3.793   2.813
10622SOL     OW32764   4.516   2.950   1.028
10622SOL    HW132765   4.616   2.940   1.034
10622SOL    HW232766   4.494   3.027   0.968
10623SOL     OW32767   6.039   6.174   5.852
10623SOL    HW132768   6.061   6.087   5.807
10623SOL    HW232769   6.013   6.158   5.947
10624SOL     OW32770   0.842   2.774   5.124
10624SOL    HW132771   0.906   2.700   5.106
10624SOL    HW232772   0.870   2.856   5.076
10625SOL     OW32773   7.008   3.927   0.067
10625SOL    HW132774   0.055   3.899   0.132
10625SOL    HW232775   0.007   4.018   0.031
10626SOL     OW32776   3.841   2.953   1.856
10626SOL    HW132777   3.876   2.872   1.810
10626SOL    HW232778   3.744   2.940   1.877
10627SOL     OW32779   5.598   6.982   5.932
10627SOL    HW132780   5.531   0.024   5.967
10627SOL    HW232781   5.560   6.936   5.851
10628SOL     OW32782   4.160   0.615   0.310
10628SOL    HW132783   4.110   0.539   0.268
10628SOL    HW232784   4.124   0.632   0.402
10629SOL     OW32785   3.714   5.344   5.213
10629SOL    HW132786   3.673   5.273   5.271
10629SOL    HW232787   3.657   5.358   5.132
10630SOL     OW32788   4.650   0.630   2.651
10630SOL    HW132789   4.586   0.556   2.630
10630SOL    HW232790   4.641   0.657   2.747
10631SOL     OW32791   4.847   5.270   6.676
10631SOL    HW132792   4.876   5.363   6.655
10631SOL    HW232793   4.788   5.236   6.603
10632SOL     OW32794   4.941   5.914   3.110
10632SOL    HW132795   4.990   5.875   3.032
10632SOL    HW232796   4.938   6.014   3.101
10633SOL     OW32797   2.061   2.772   1.740
10633SOL    HW132798   1.987   2.835   1.764
10633SOL    HW232799   2.107   2.742   1.824
10634SOL     OW32800   1.421   5.060   6.532
10634SOL    HW132801   1.454   5.086   6.441
10634SOL    HW232802   1.499   5.028   6.587
10635SOL     OW32803   2.267   3.260   0.384
10635SOL    HW132804   2.187   3.215   0.423
10635SOL    HW232805   2.349   3.208   0.408
10636SOL     OW32806   6.606   2.609   0.054
10636SOL    HW132807   6.590   2.653   6.989
10636SOL    HW232808   6.642   2.677   0.118
10637SOL     OW32809   2.787   6.324   6.504
10637SOL    HW132810   2.836   6.311   6.418
10637SOL    HW232811   2.853   6.346   6.576
10638SOL     OW32812   6.595   5.693   1.908
10638SOL    HW132813   6.686   5.734   1.894
10638SOL    HW232814   6.531   5.732   1.842
10639SOL     OW32815   2.347   3.725   1.752
10639SOL    HW132816   2.336   3.634   1.792
10639SOL    HW232817   2.442   3.741   1.728
10640SOL     OW32818   3.720   0.610   3.496
10640SOL    HW132819   3.780   0.559   3.558
10640SOL    HW232820   3.730   0.573   3.403
10641SOL     OW32821   1.311   0.613   3.421
10641SOL    HW132822   1.234   0.665   3.384
10641SOL    HW232823   1.278   0.546   3.487
10642SOL     OW32824   6.430   2.529   0.268
10642SOL    HW132825   6.433   2.431   0.287
10642SOL    HW232826   6.504   2.553   0.204
10643SOL     OW32827   1.968   5.474   5.088
10643SOL    HW132828   1.992   5.487   5.185
10643SOL    HW232829   1.925   5.557   5.054
10644SOL     OW32830   6.346   2.749   2.102
10644SOL    HW132831   6.423   2.769   2.163
10644SOL    HW232832   6.339   2.820   2.032
10645SOL     OW32833   2.047   3.012   3.457
10645SOL    HW132834   2.113   2.965   3.517
10645SOL    HW232835   2.003   3.086   3.508
10646SOL     OW32836   5.233   1.357   4.495
10646SOL    HW132837   5.237   1.311   4.584
10646SOL    HW232838   5.257   1.292   4.423
10647SOL     OW32839   4.309   5.406   5.383
10647SOL    HW132840   4.282   5.393   5.288
10647SOL    HW232841   4.246   5.470   5.427
10648SOL     OW32842   6.280   5.271   6.033
10648SOL    HW132843   6.355   5.304   5.976
10648SOL    HW232844   6.236   5.348   6.079
10649SOL     OW32845   0.294   3.188   3.729
10649SOL    HW132846   0.318   3.211   3.635
10649SOL    HW232847   0.270   3.092   3.735
10650SOL     OW32848   0.003   0.210   4.009
10650SOL    HW132849   0.062   0.152   4.065
10650SOL    HW232850   6.931   0.193   4.032
10651SOL     OW32851   5.468   6.825   6.121
10651SOL    HW132852   5.537   6.889   6.087
10651SOL    HW232853   5.484   6.735   6.081
10652SOL     OW32854   1.367   6.486   6.202
10652SOL    HW132855   1.309   6.552   6.153
10652SOL    HW232856   1.453   6.530   6.228
10653SOL     OW32857   3.872   6.078   4.570
10653SOL    HW132858   3.876   6.036   4.660
10653SOL    HW232859   3.915   6.168   4.572
10654SOL     OW32860   5.327   1.588   4.070
10654SOL    HW132861   5.257   1.550   4.009
10654SOL    HW232862   5.283   1.633   4.147
10655SOL     OW32863   1.852   4.631   1.529
10655SOL    HW132864   1.756   4.659   1.517
10655SOL    HW232865   1.858   4.565   1.603
10656SOL     OW32866   6.197   1.343   2.294
10656SOL    HW132867   6.167   1.304   2.207
10656SOL    HW232868   6.208   1.271   2.362
10657SOL     OW32869   5.945   0.704   4.503
10657SOL    HW132870   6.031   0.679   4.459
10657SOL    HW232871   5.962   0.727   4.599
10658SOL     OW32872   5.702   3.963   5.252
10658SOL    HW132873   5.688   3.945   5.155
10658SOL    HW232874   5.740   3.882   5.297
10659SOL     OW32875   1.063   4.773   0.817
10659SOL    HW132876   1.115   4.728   0.889
10659SOL    HW232877   1.126   4.808   0.747
10660SOL     OW32878   6.173   3.570   5.685
10660SOL    HW132879   6.103   3.513   5.641
10660SOL    HW232880   6.129   3.637   5.745
10661SOL     OW32881   1.548   4.723   0.329
10661SOL    HW132882   1.473   4.730   0.263
10661SOL    HW232883   1.525   4.655   0.399
10662SOL     OW32884   3.127   1.402   2.274
10662SOL    HW132885   3.217   1.434   2.302
10662SOL    HW232886   3.097   1.452   2.193
10663SOL     OW32887   1.295   1.420   3.752
10663SOL    HW132888   1.332   1.340   3.799
10663SOL    HW232889   1.285   1.400   3.654
10664SOL     OW32890   0.693   5.308   4.569
10664SOL    HW132891   0.618   5.301   4.635
10664SOL    HW232892   0.775   5.267   4.609
10665SOL     OW32893   2.029   2.824   6.952
10665SOL    HW132894   1.976   2.815   0.013
10665SOL    HW232895   2.120   2.859   6.973
10666SOL     OW32896   4.092   3.448   2.220
10666SOL    HW132897   4.079   3.535   2.172
10666SOL    HW232898   4.148   3.387   2.163
10667SOL     OW32899   4.898   1.206   3.206
10667SOL    HW132900   4.955   1.249   3.275
10667SOL    HW232901   4.956   1.170   3.133
10668SOL     OW32902   3.483   1.973   5.463
10668SOL    HW132903   3.526   2.052   5.507
10668SOL    HW232904   3.469   1.991   5.366
10669SOL     OW32905   5.829   0.738   0.742
10669SOL    HW132906   5.797   0.644   0.732
10669SOL    HW232907   5.757   0.794   0.782
10670SOL     OW32908   5.419   4.149   4.574
10670SOL    HW132909   5.476   4.157   4.656
10670SOL    HW232910   5.363   4.232   4.565
10671SOL     OW32911   0.872   1.552   4.302
10671SOL    HW132912   0.946   1.619   4.301
10671SOL    HW232913   0.858   1.515   4.210
10672SOL     OW32914   6.353   4.289   1.606
10672SOL    HW132915   6.376   4.256   1.697
10672SOL    HW232916   6.275   4.352   1.612
10673SOL     OW32917   1.897   0.040   0.570
10673SOL    HW132918   1.884   0.064   0.473
10673SOL    HW232919   1.989   0.066   0.598
10674SOL     OW32920   4.053   3.317   4.194
10674SOL    HW132921   4.117   3.369   4.138
10674SOL    HW232922   3.986   3.271   4.135
10675SOL     OW32923   3.044   1.165   6.530
10675SOL    HW132924   3.119   1.119   6.578
10675SOL    HW232925   3.082   1.236   6.470
10676SOL     OW32926   0.052   5.689   4.984
10676SOL    HW132927   0.048   5.769   4.925
10676SOL    HW232928   0.107   5.708   5.065
10677SOL     OW32929   1.333   1.050   1.134
10677SOL    HW132930   1.317   1.077   1.039
10677SOL    HW232931   1.387   1.121   1.181
10678SOL     OW32932   4.129   4.749   3.672
10678SOL    HW132933   4.148   4.717   3.765
10678SOL    HW232934   4.056   4.817   3.674
10679SOL     OW32935   4.041   5.008   6.866
10679SOL    HW132936   4.101   5.068   6.920
10679SOL    HW232937   4.081   4.917   6.862
10680SOL     OW32938   3.682   1.539   4.022
10680SOL    HW132939   3.589   1.502   4.021
10680SOL    HW232940   3.683   1.626   4.070
10681SOL     OW32941   0.125   3.511   0.063
10681SOL    HW132942   0.056   3.580   0.043
10681SOL    HW232943   0.091   3.450   0.134
10682SOL     OW32944   0.135   3.104   5.001
10682SOL    HW132945   0.060   3.039   4.992
10682SOL    HW232946   0.155   3.119   5.098
10683SOL     OW32947   4.543   0.890   3.497
10683SOL    HW132948   4.527   0.843   3.584
10683SOL    HW232949   4.455   0.909   3.453
10684SOL     OW32950   4.370   5.237   1.625
10684SOL    HW132951   4.415   5.318   1.587
10684SOL    HW232952   4.300   5.205   1.561
10685SOL     OW32953   0.081   5.660   0.832
10685SOL    HW132954   0.057   5.702   0.920
10685SOL    HW232955   0.160   5.600   0.845
10686SOL     OW32956   2.428   4.280   6.440
10686SOL    HW132957   2.523   4.256   6.418
10686SOL    HW232958   2.366   4.216   6.396
10687SOL     OW32959   6.125   4.787   3.415
10687SOL    HW132960   6.063   4.860   3.388
10687SOL    HW232961   6.200   4.781   3.349
10688SOL     OW32962   5.739   1.983   2.528
10688SOL    HW132963   5.719   2.009   2.434
10688SOL    HW232964   5.733   2.064   2.587
10689SOL     OW32965   6.950   6.769   1.114
10689SOL    HW132966   6.893   6.804   1.187
10689SOL    HW232967   6.954   6.669   1.119
10690SOL     OW32968   0.101   5.011   3.647
10690SOL    HW132969   0.076   5.095   3.696
10690SOL    HW232970   0.059   5.012   3.556
10691SOL     OW32971   1.929   1.470   1.809
10691SOL    HW132972   1.880   1.544   1.856
10691SOL    HW232973   2.016   1.504   1.776
10692SOL     OW32974   2.860   0.491   4.423
10692SOL    HW132975   2.923   0.426   4.466
10692SOL    HW232976   2.766   0.465   4.445
10693SOL     OW32977   0.657   6.234   1.377
10693SOL    HW132978   0.646   6.255   1.280
10693SOL    HW232979   0.618   6.309   1.432
10694SOL     OW32980   5.163   7.003   6.730
10694SOL    HW132981   5.113   0.013   6.649
10694SOL    HW232982   5.116   0.012   6.812
10695SOL     OW32983   1.089   2.413   1.167
10695SOL    HW132984   1.157   2.461   1.111
10695SOL    HW232985   1.120   2.409   1.262
10696SOL     OW32986   6.314   3.668   4.919
10696SOL    HW132987   6.405   3.660   4.879
10696SOL    HW232988   6.263   3.741   4.873
10697SOL     OW32989   6.984   6.859   5.787
10697SOL    HW132990   6.898   6.879   5.739
10697SOL    HW232991   6.973   6.879   5.884
10698SOL     OW32992   4.744   4.022   0.044
10698SOL    HW132993   4.732   4.073   0.129
10698SOL    HW232994   4.840   4.025   0.016
10699SOL     OW32995   3.591   4.828   0.788
10699SOL    HW132996   3.498   4.805   0.816
10699SOL    HW232997   3.639   4.744   0.762
10700SOL     OW32998   5.458   0.026   0.637
10700SOL    HW132999   5.410   0.097   0.586
10700SOL    HW233000   5.551   0.017   0.603
10701SOL     OW33001   3.341   0.317   6.191
10701SOL    HW133002   3.253   0.315   6.240
10701SOL    HW233003   3.373   0.223   6.178
10702SOL     OW33004   5.091   3.585   2.538
10702SOL    HW133005   5.189   3.599   2.531
10702SOL    HW233006   5.043   3.670   2.512
10703SOL     OW33007   1.944   2.602   5.365
10703SOL    HW133008   2.043   2.586   5.374
10703SOL    HW233009   1.894   2.523   5.399
10704SOL     OW33010   6.782   4.697   2.814
10704SOL    HW133011   6.816   4.619   2.761
10704SOL    HW233012   6.777   4.777   2.754
10705SOL     OW33013   5.680   5.541   1.606
10705SOL    HW133014   5.662   5.461   1.663
10705SOL    HW233015   5.741   5.517   1.531
10706SOL     OW33016   4.019   0.074   1.895
10706SOL    HW133017   4.115   0.051   1.877
10706SOL    HW233018   3.960   0.012   1.844
10707SOL     OW33019   0.637   6.576   4.162
10707SOL    HW133020   0.549   6.595   4.118
10707SOL    HW233021   0.662   6.654   4.219
10708SOL     OW33022   4.388   1.169   1.457
10708SOL    HW133023   4.303   1.123   1.430
10708SOL    HW233024   4.408   1.242   1.392
10709SOL     OW33025   5.436   4.806   4.970
10709SOL    HW133026   5.475   4.719   5.000
10709SOL    HW233027   5.509   4.871   4.954
10710SOL     OW33028   6.087   1.147   3.885
10710SOL    HW133029   6.160   1.142   3.953
10710SOL    HW233030   6.011   1.088   3.912
10711SOL     OW33031   2.151   6.713   4.169
10711SOL    HW133032   2.230   6.680   4.118
10711SOL    HW233033   2.166   6.699   4.267
10712SOL     OW33034   3.067   0.025   2.672
10712SOL    HW133035   3.060   0.107   2.615
10712SOL    HW233036   3.134   0.040   2.744
10713SOL     OW33037   0.656   2.623   0.943
10713SOL    HW133038   0.679   2.533   0.906
10713SOL    HW233039   0.633   2.685   0.868
10714SOL     OW33040   4.463   3.210   5.434
10714SOL    HW133041   4.550   3.213   5.384
10714SOL    HW233042   4.421   3.300   5.431
10715SOL     OW33043   4.530   0.135   2.040
10715SOL    HW133044   4.563   0.047   2.076
10715SOL    HW233045   4.588   0.209   2.074
10716SOL     OW33046   6.149   2.869   3.187
10716SOL    HW133047   6.049   2.866   3.184
10716SOL    HW233048   6.183   2.804   3.255
10717SOL     OW33049   1.933   3.109   1.147
10717SOL    HW133050   1.930   3.041   1.074
10717SOL    HW233051   1.924   3.064   1.236
10718SOL     OW33052   1.217   3.521   0.067
10718SOL    HW133053   1.286   3.449   0.069
10718SOL    HW233054   1.216   3.564   7.000
10719SOL     OW33055   6.720   5.477   2.931
10719SOL    HW133056   6.670   5.392   2.918
10719SOL    HW233057   6.776   5.470   3.014
10720SOL     OW33058   6.290   4.941   4.816
10720SOL    HW133059   6.250   5.008   4.754
10720SOL    HW233060   6.318   4.987   4.900
10721SOL     OW33061   5.200   3.638   5.405
10721SOL    HW133062   5.181   3.642   5.503
10721SOL    HW233063   5.298   3.627   5.390
10722SOL     OW33064   0.456   5.182   1.113
10722SOL    HW133065   0.483   5.091   1.082
10722SOL    HW233066   0.457   5.184   1.213
10723SOL     OW33067   0.180   2.526   6.105
10723SOL    HW133068   0.241   2.515   6.026
10723SOL    HW233069   0.224   2.488   6.186
10724SOL     OW33070   6.161   6.973   6.127
10724SOL    HW133071   6.116   6.883   6.123
10724SOL    HW233072   6.252   6.963   6.167
10725SOL     OW33073   1.840   6.224   5.050
10725SOL    HW133074   1.788   6.147   5.087
10725SOL    HW233075   1.779   6.301   5.034
10726SOL     OW33076   6.071   0.908   4.107
10726SOL    HW133077   6.028   0.935   4.193
10726SOL    HW233078   6.157   0.959   4.096
10727SOL     OW33079   0.682   5.212   5.664
10727SOL    HW133080   0.698   5.202   5.763
10727SOL    HW233081   0.756   5.266   5.624
10728SOL     OW33082   1.727   4.968   6.436
10728SOL    HW133083   1.691   4.892   6.382
10728SOL    HW233084   1.784   5.026   6.378
10729SOL     OW33085   5.506   1.340   3.307
10729SOL    HW133086   5.424   1.369   3.358
10729SOL    HW233087   5.588   1.371   3.356
10730SOL     OW33088   2.142   0.673   1.062
10730SOL    HW133089   2.119   0.707   0.971
10730SOL    HW233090   2.062   0.628   1.102
10731SOL     OW33091   3.405   1.457   0.952
10731SOL    HW133092   3.486   1.423   0.905
10731SOL    HW233093   3.430   1.494   1.041
10732SOL     OW33094   0.291   4.738   5.315
10732SOL    HW133095   0.283   4.804   5.390
10732SOL    HW233096   0.274   4.785   5.228
10733SOL     OW33097   6.940   1.750   6.650
10733SOL    HW133098   6.888   1.767   6.566
10733SOL    HW233099   6.889   1.786   6.728
10734SOL     OW33100   0.899   0.823   0.134
10734SOL    HW133101   0.894   0.727   0.109
10734SOL    HW233102   0.879   0.833   0.232
10735SOL     OW33103   0.162   2.828   2.356
10735SOL    HW133104   0.143   2.921   2.388
10735SOL    HW233105   0.227   2.831   2.280
10736SOL     OW33106   1.092   0.225   3.717
10736SOL    HW133107   1.076   0.257   3.811
10736SOL    HW233108   1.150   0.144   3.719
10737SOL     OW33109   1.000   1.781   6.950
10737SOL    HW133110   0.917   1.735   6.916
10737SOL    HW233111   1.021   1.749   0.019
10738SOL     OW33112   2.402   6.951   2.947
10738SOL    HW133113   2.342   6.999   3.011
10738SOL    HW233114   2.468   7.016   2.909
10739SOL     OW33115   1.831   1.176   1.176
10739SOL    HW133116   1.779   1.106   1.226
10739SOL    HW233117   1.777   1.206   1.097
10740SOL     OW33118   0.554   5.208   5.061
10740SOL    HW133119   0.584   5.128   5.114
10740SOL    HW233120   0.465   5.190   5.020
10741SOL     OW33121   4.458   0.910   1.239
10741SOL    HW133122   4.511   0.915   1.323
10741SOL    HW233123   4.519   0.912   1.160
10742SOL     OW33124   5.462   6.980   1.218
10742SOL    HW133125   5.502   6.891   1.196
10742SOL    HW233126   5.486   7.006   1.311
10743SOL     OW33127   1.597   2.196   5.440
10743SOL    HW133128   1.661   2.123   5.418
10743SOL    HW233129   1.608   2.271   5.375
10744SOL     OW33130   3.129   1.291   0.985
10744SOL    HW133131   3.194   1.364   1.007
10744SOL    HW233132   3.176   1.203   0.986
10745SOL     OW33133   6.713   5.523   6.005
10745SOL    HW133134   6.734   5.546   5.910
10745SOL    HW233135   6.638   5.581   6.038
10746SOL     OW33136   2.387   4.381   1.211
10746SOL    HW133137   2.428   4.290   1.208
10746SOL    HW233138   2.459   4.451   1.210
10747SOL     OW33139   4.108   1.369   4.760
10747SOL    HW133140   4.109   1.395   4.856
10747SOL    HW233141   4.105   1.451   4.703
10748SOL     OW33142   5.547   1.061   0.116
10748SOL    HW133143   5.576   1.101   0.029
10748SOL    HW233144   5.502   1.131   0.171
10749SOL     OW33145   6.900   5.388   3.497
10749SOL    HW133146   6.960   5.358   3.423
10749SOL    HW233147   6.952   5.393   3.582
10750SOL     OW33148   4.805   6.250   4.316
10750SOL    HW133149   4.805   6.150   4.311
10750SOL    HW233150   4.812   6.278   4.412
10751SOL     OW33151   2.138   4.602   4.731
10751SOL    HW133152   2.040   4.596   4.718
10751SOL    HW233153   2.163   4.697   4.751
10752SOL     OW33154   6.340   4.857   5.461
10752SOL    HW133155   6.387   4.769   5.465
10752SOL    HW233156   6.242   4.841   5.447
10753SOL     OW33157   5.809   4.579   4.618
10753SOL    HW133158   5.774   4.521   4.544
10753SOL    HW233159   5.788   4.674   4.598
10754SOL     OW33160   0.477   0.082   3.193
10754SOL    HW133161   0.439   0.120   3.109
10754SOL    HW233162   0.577   0.080   3.186
10755SOL     OW33163   6.950   0.522   0.797
10755SOL    HW133164   6.995   0.516   0.708
10755SOL    HW233165   6.851   0.518   0.785
10756SOL     OW33166   6.400   5.120   6.815
10756SOL    HW133167   6.350   5.046   6.771
10756SOL    HW233168   6.335   5.186   6.853
10757SOL     OW33169   1.772   2.556   0.253
10757SOL    HW133170   1.817   2.506   0.179
10757SOL    HW233171   1.789   2.508   0.340
10758SOL     OW33172   0.840   5.771   4.864
10758SOL    HW133173   0.844   5.671   4.862
10758SOL    HW233174   0.933   5.807   4.862
10759SOL     OW33175   1.717   3.342   1.951
10759SOL    HW133176   1.754   3.311   2.038
10759SOL    HW233177   1.785   3.397   1.902
10760SOL     OW33178   5.176   0.342   2.244
10760SOL    HW133179   5.152   0.439   2.240
10760SOL    HW233180   5.269   0.332   2.279
10761SOL     OW33181   0.368   6.091   5.978
10761SOL    HW133182   0.320   6.009   6.009
10761SOL    HW233183   0.426   6.069   5.900
10762SOL     OW33184   3.091   1.899   4.408
10762SOL    HW133185   3.098   1.809   4.449
10762SOL    HW233186   3.110   1.969   4.477
10763SOL     OW33187   4.504   6.561   2.863
10763SOL    HW133188   4.456   6.648   2.874
10763SOL    HW233189   4.440   6.486   2.880
10764SOL     OW33190   5.393   2.216   5.826
10764SOL    HW133191   5.473   2.166   5.794
10764SOL    HW233192   5.418   2.311   5.845
10765SOL     OW33193   5.243   2.422   0.777
10765SOL    HW133194   5.189   2.469   0.847
10765SOL    HW233195   5.246   2.324   0.798
10766SOL     OW33196   4.202   5.005   0.729
10766SOL    HW133197   4.247   5.090   0.757
10766SOL    HW233198   4.239   4.928   0.782
10767SOL     OW33199   1.934   0.302   1.032
10767SOL    HW133200   2.027   0.265   1.029
10767SOL    HW233201   1.933   0.385   1.086
10768SOL     OW33202   5.127   5.191   1.311
10768SOL    HW133203   5.120   5.100   1.272
10768SOL    HW233204   5.215   5.231   1.287
10769SOL     OW33205   2.223   4.046   5.319
10769SOL    HW133206   2.281   4.019   5.242
10769SOL    HW233207   2.255   4.000   5.402
10770SOL     OW33208   5.233   6.468   4.230
10770SOL    HW133209   5.138   6.456   4.199
10770SOL    HW233210   5.234   6.474   4.330
10771SOL     OW33211   5.195   0.237   3.374
10771SOL    HW133212   5.129   0.194   3.435
10771SOL    HW233213   5.287   0.206   3.397
10772SOL     OW33214   6.362   0.292   4.065
10772SOL    HW133215   6.440   0.338   4.025
10772SOL    HW233216   6.380   0.193   4.069
10773SOL     OW33217   5.903   5.289   6.241
10773SOL    HW133218   5.865   5.222   6.177
10773SOL    HW233219   5.853   5.287   6.327
10774SOL     OW33220   2.380   1.684   5.908
10774SOL    HW133221   2.424   1.610   5.856
10774SOL    HW233222   2.387   1.664   6.006
10775SOL     OW33223   0.248   4.284   2.413
10775SOL    HW133224   0.235   4.248   2.506
10775SOL    HW233225   0.209   4.376   2.407
10776SOL     OW33226   0.495   0.338   6.284
10776SOL    HW133227   0.491   0.435   6.308
10776SOL    HW233228   0.547   0.326   6.200
10777SOL     OW33229   3.951   5.394   2.049
10777SOL    HW133230   4.011   5.416   2.126
10777SOL    HW233231   3.921   5.299   2.057
10778SOL     OW33232   4.611   0.360   3.847
10778SOL    HW133233   4.644   0.281   3.795
10778SOL    HW233234   4.513   0.352   3.864
10779SOL     OW33235   5.894   2.828   3.171
10779SOL    HW133236   5.884   2.749   3.110
10779SOL    HW233237   5.806   2.847   3.215
10780SOL     OW33238   1.513   0.396   4.015
10780SOL    HW133239   1.492   0.491   4.039
10780SOL    HW233240   1.504   0.384   3.916
10781SOL     OW33241   4.625   1.384   4.340
10781SOL    HW133242   4.713   1.337   4.332
10781SOL    HW233243   4.557   1.335   4.285
10782SOL     OW33244   6.839   0.420   2.910
10782SOL    HW133245   6.790   0.333   2.900
10782SOL    HW233246   6.882   0.443   2.822
10783SOL     OW33247   0.730   1.998   2.409
10783SOL    HW133248   0.784   1.936   2.352
10783SOL    HW233249   0.791   2.061   2.457
10784SOL     OW33250   4.304   0.145   4.249
10784SOL    HW133251   4.266   0.116   4.337
10784SOL    HW233252   4.401   0.120   4.246
10785SOL     OW33253   0.229   4.413   0.166
10785SOL    HW133254   0.241   4.345   0.239
10785SOL    HW233255   0.201   4.500   0.206
10786SOL     OW33256   6.249   4.686   3.206
10786SOL    HW133257   6.302   4.731   3.134
10786SOL    HW233258   6.261   4.587   3.199
10787SOL     OW33259   1.845   1.430   6.067
10787SOL    HW133260   1.931   1.441   6.018
10787SOL    HW233261   1.823   1.515   6.116
10788SOL     OW33262   1.150   4.317   0.456
10788SOL    HW133263   1.080   4.330   0.386
10788SOL    HW233264   1.169   4.219   0.467
10789SOL     OW33265   6.419   3.521   6.839
10789SOL    HW133266   6.356   3.524   6.917
10789SOL    HW233267   6.368   3.538   6.755
10790SOL     OW33268   1.080   0.124   2.217
10790SOL    HW133269   0.998   0.067   2.219
10790SOL    HW233270   1.158   0.071   2.250
10791SOL     OW33271   0.202   5.811   1.620
10791SOL    HW133272   0.234   5.736   1.678
10791SOL    HW233273   0.253   5.894   1.642
10792SOL     OW33274   3.174   2.954   4.952
10792SOL    HW133275   3.084   2.912   4.946
10792SOL    HW233276   3.202   2.986   4.862
10793SOL     OW33277   6.021   3.529   6.114
10793SOL    HW133278   5.958   3.453   6.128
10793SOL    HW233279   6.089   3.530   6.188
10794SOL     OW33280   4.005   3.464   4.426
10794SOL    HW133281   3.979   3.436   4.333
10794SOL    HW233282   4.099   3.434   4.444
10795SOL     OW33283   6.689   5.132   2.729
10795SOL    HW133284   6.723   5.038   2.735
10795SOL    HW233285   6.661   5.163   2.820
10796SOL     OW33286   6.765   6.950   5.658
10796SOL    HW133287   6.675   6.905   5.655
10796SOL    HW233288   6.759   0.009   5.716
10797SOL     OW33289   2.708   2.301   1.456
10797SOL    HW133290   2.663   2.240   1.390
10797SOL    HW233291   2.746   2.246   1.530
10798SOL     OW33292   2.895   0.800   0.520
10798SOL    HW133293   2.916   0.827   0.614
10798SOL    HW233294   2.798   0.818   0.501
10799SOL     OW33295   4.262   1.208   2.392
10799SOL    HW133296   4.220   1.254   2.470
10799SOL    HW233297   4.245   1.261   2.309
10800SOL     OW33298   0.810   6.585   5.287
10800SOL    HW133299   0.838   6.508   5.230
10800SOL    HW233300   0.879   6.600   5.359
10801SOL     OW33301   1.165   6.922   6.976
10801SOL    HW133302   1.150   6.845   0.015
10801SOL    HW233303   1.192   6.887   6.886
10802SOL     OW33304   0.272   0.277   1.860
10802SOL    HW133305   0.227   0.247   1.944
10802SOL    HW233306   0.325   0.201   1.822
10803SOL     OW33307   1.435   5.795   5.461
10803SOL    HW133308   1.446   5.697   5.443
10803SOL    HW233309   1.381   5.836   5.388
10804SOL     OW33310   6.002   3.458   2.887
10804SOL    HW133311   6.021   3.361   2.872
10804SOL    HW233312   6.018   3.509   2.803
10805SOL     OW33313   4.944   0.643   5.289
10805SOL    HW133314   5.022   0.628   5.228
10805SOL    HW233315   4.930   0.741   5.301
10806SOL     OW33316   3.676   4.150   6.005
10806SOL    HW133317   3.621   4.190   6.079
10806SOL    HW233318   3.769   4.134   6.038
10807SOL     OW33319   1.502   6.281   3.546
10807SOL    HW133320   1.416   6.308   3.588
10807SOL    HW233321   1.486   6.255   3.451
10808SOL     OW33322   0.483   2.780   5.779
10808SOL    HW133323   0.559   2.728   5.818
10808SOL    HW233324   0.513   2.826   5.695
10809SOL     OW33325   2.292   4.381   3.890
10809SOL    HW133326   2.309   4.447   3.962
10809SOL    HW233327   2.289   4.289   3.930
10810SOL     OW33328   0.147   0.418   4.158
10810SOL    HW133329   0.093   0.386   4.236
10810SOL    HW233330   0.116   0.372   4.075
10811SOL     OW33331   4.789   4.745   5.226
10811SOL    HW133332   4.812   4.837   5.258
10811SOL    HW233333   4.693   4.742   5.199
10812SOL     OW33334   0.187   3.805   0.239
10812SOL    HW133335   0.247   3.885   0.247
10812SOL    HW233336   0.241   3.726   0.212
10813SOL     OW33337   0.815   3.410   6.226
10813SOL    HW133338   0.786   3.353   6.303
10813SOL    HW233339   0.865   3.354   6.160
10814SOL     OW33340   2.162   0.012   6.830
10814SOL    HW133341   2.221   0.049   6.758
10814SOL    HW233342   2.083   0.071   6.842
10815SOL     OW33343   4.985   3.051   3.243
10815SOL    HW133344   4.934   3.082   3.162
10815SOL    HW233345   5.049   3.123   3.272
10816SOL     OW33346   3.043   3.146   2.873
10816SOL    HW133347   3.080   3.096   2.794
10816SOL    HW233348   2.993   3.227   2.841
10817SOL     OW33349   3.726   0.476   3.906
10817SOL    HW133350   3.661   0.443   3.838
10817SOL    HW233351   3.746   0.572   3.890
10818SOL     OW33352   4.914   4.371   5.791
10818SOL    HW133353   4.926   4.412   5.881
10818SOL    HW233354   4.846   4.298   5.796
10819SOL     OW33355   5.913   5.400   6.777
10819SOL    HW133356   5.844   5.452   6.828
10819SOL    HW233357   5.897   5.302   6.791
10820SOL     OW33358   0.170   5.086   4.372
10820SOL    HW133359   0.221   5.002   4.355
10820SOL    HW233360   0.135   5.085   4.465
10821SOL     OW33361   4.204   6.864   3.093
10821SOL    HW133362   4.264   6.934   3.054
10821SOL    HW233363   4.125   6.850   3.033
10822SOL     OW33364   6.202   1.865   2.236
10822SOL    HW133365   6.135   1.843   2.307
10822SOL    HW233366   6.235   1.958   2.247
10823SOL     OW33367   0.621   0.324   2.509
10823SOL    HW133368   0.572   0.327   2.596
10823SOL    HW233369   0.555   0.326   2.434
10824SOL     OW33370   0.232   0.830   2.257
10824SOL    HW133371   0.136   0.857   2.250
10824SOL    HW233372   0.282   0.861   2.177
10825SOL     OW33373   1.929   1.986   0.660
10825SOL    HW133374   1.906   1.988   0.757
10825SOL    HW233375   1.959   1.894   0.635
10826SOL     OW33376   1.021   1.464   2.648
10826SOL    HW133377   1.089   1.397   2.617
10826SOL    HW233378   0.947   1.469   2.581
10827SOL     OW33379   0.266   3.296   4.863
10827SOL    HW133380   0.205   3.227   4.900
10827SOL    HW233381   0.243   3.315   4.768
10828SOL     OW33382   1.596   4.315   0.584
10828SOL    HW133383   1.623   4.411   0.578
10828SOL    HW233384   1.573   4.293   0.679
10829SOL     OW33385   4.605   2.840   0.328
10829SOL    HW133386   4.658   2.911   0.281
10829SOL    HW233387   4.666   2.788   0.388
10830SOL     OW33388   4.452   1.766   3.328
10830SOL    HW133389   4.391   1.726   3.260
10830SOL    HW233390   4.438   1.865   3.332
10831SOL     OW33391   2.805   6.144   2.224
10831SOL    HW133392   2.826   6.130   2.128
10831SOL    HW233393   2.710   6.117   2.242
10832SOL     OW33394   6.497   3.964   6.509
10832SOL    HW133395   6.503   3.908   6.426
10832SOL    HW233396   6.573   3.942   6.570
10833SOL     OW33397   0.734   2.092   0.182
10833SOL    HW133398   0.804   2.021   0.173
10833SOL    HW233399   0.719   2.135   0.093
10834SOL     OW33400   6.433   1.735   0.012
10834SOL    HW133401   6.533   1.736   0.014
10834SOL    HW233402   6.400   1.646   0.045
10835SOL     OW33403   5.342   3.768   0.165
10835SOL    HW133404   5.244   3.749   0.170
10835SOL    HW233405   5.382   3.712   0.093
10836SOL     OW33406   0.353   1.206   2.760
10836SOL    HW133407   0.258   1.190   2.733
10836SOL    HW233408   0.358   1.287   2.819
10837SOL     OW33409   6.696   4.763   1.911
10837SOL    HW133410   6.795   4.775   1.906
10837SOL    HW233411   6.674   4.666   1.923
10838SOL     OW33412   6.105   6.496   3.789
10838SOL    HW133413   6.086   6.532   3.880
10838SOL    HW233414   6.069   6.558   3.720
10839SOL     OW33415   4.380   3.530   1.112
10839SOL    HW133416   4.304   3.552   1.174
10839SOL    HW233417   4.362   3.442   1.068
10840SOL     OW33418   3.541   6.429   2.203
10840SOL    HW133419   3.443   6.418   2.215
10840SOL    HW233420   3.563   6.526   2.196
10841SOL     OW33421   6.338   5.016   5.091
10841SOL    HW133422   6.417   5.033   5.150
10841SOL    HW233423   6.285   4.939   5.127
10842SOL     OW33424   5.106   2.312   1.094
10842SOL    HW133425   5.017   2.279   1.127
10842SOL    HW233426   5.144   2.246   1.029
10843SOL     OW33427   1.476   1.236   1.311
10843SOL    HW133428   1.574   1.222   1.294
10843SOL    HW233429   1.462   1.263   1.406
10844SOL     OW33430   6.780   4.796   3.547
10844SOL    HW133431   6.862   4.744   3.524
10844SOL    HW233432   6.749   4.771   3.639
10845SOL     OW33433   4.116   6.025   5.455
10845SOL    HW133434   4.146   5.937   5.418
10845SOL    HW233435   4.186   6.094   5.437
10846SOL     OW33436   5.445   0.665   6.993
10846SOL    HW133437   5.409   0.701   6.907
10846SOL    HW233438   5.498   0.582   6.975
10847SOL     OW33439   3.059   2.118   0.221
10847SOL    HW133440   3.123   2.134   0.146
10847SOL    HW233441   3.072   2.188   0.291
10848SOL     OW33442   0.547   4.238   1.184
10848SOL    HW133443   0.586   4.173   1.119
10848SOL    HW233444   0.458   4.268   1.152
10849SOL     OW33445   2.612   4.593   4.049
10849SOL    HW133446   2.586   4.580   3.953
10849SOL    HW233447   2.533   4.573   4.108
10850SOL     OW33448   3.791   6.416   6.592
10850SOL    HW133449   3.704   6.456   6.621
10850SOL    HW233450   3.794   6.319   6.617
10851SOL     OW33451   3.286   4.062   1.050
10851SOL    HW133452   3.370   4.028   1.009
10851SOL    HW233453   3.208   4.008   1.016
10852SOL     OW33454   1.510   1.316   6.793
10852SOL    HW133455   1.526   1.360   6.704
10852SOL    HW233456   1.497   1.217   6.779
10853SOL     OW33457   2.457   3.071   5.845
10853SOL    HW133458   2.398   3.150   5.828
10853SOL    HW233459   2.551   3.102   5.857
10854SOL     OW33460   4.411   5.512   5.105
10854SOL    HW133461   4.486   5.460   5.065
10854SOL    HW233462   4.348   5.541   5.033
10855SOL     OW33463   3.479   1.055   0.217
10855SOL    HW133464   3.418   1.033   0.292
10855SOL    HW233465   3.533   1.137   0.240
10856SOL     OW33466   5.929   1.297   0.338
10856SOL    HW133467   5.859   1.286   0.409
10856SOL    HW233468   6.019   1.309   0.382
10857SOL     OW33469   0.735   2.625   2.332
10857SOL    HW133470   0.677   2.702   2.359
10857SOL    HW233471   0.679   2.555   2.288
10858SOL     OW33472   0.948   6.965   0.368
10858SOL    HW133473   0.975   6.917   0.285
10858SOL    HW233474   0.936   6.899   0.442
10859SOL     OW33475   0.709   4.697   4.384
10859SOL    HW133476   0.718   4.778   4.442
10859SOL    HW233477   0.798   4.653   4.375
10860SOL     OW33478   0.401   3.059   4.306
10860SOL    HW133479   0.424   3.145   4.352
10860SOL    HW233480   0.301   3.048   4.305
10861SOL     OW33481   3.446   3.587   3.328
10861SOL    HW133482   3.525   3.565   3.272
10861SOL    HW233483   3.398   3.503   3.352
10862SOL     OW33484   1.084   0.946   5.398
10862SOL    HW133485   1.080   1.025   5.459
10862SOL    HW233486   1.003   0.890   5.411
10863SOL     OW33487   2.198   0.399   4.711
10863SOL    HW133488   2.297   0.393   4.700
10863SOL    HW233489   2.163   0.313   4.748
10864SOL     OW33490   3.324   5.811   0.527
10864SOL    HW133491   3.420   5.840   0.522
10864SOL    HW233492   3.301   5.757   0.446
10865SOL     OW33493   6.527   1.375   0.729
10865SOL    HW133494   6.462   1.317   0.680
10865SOL    HW233495   6.480   1.421   0.805
10866SOL     OW33496   5.100   4.552   0.981
10866SOL    HW133497   5.056   4.628   0.933
10866SOL    HW233498   5.198   4.570   0.990
10867SOL     OW33499   3.152   4.468   1.060
10867SOL    HW133500   3.190   4.499   1.147
10867SOL    HW233501   3.053   4.478   1.062
10868SOL     OW33502   4.754   1.769   3.809
10868SOL    HW133503   4.726   1.722   3.892
10868SOL    HW233504   4.782   1.703   3.740
10869NA      NA33505   6.683   3.180   5.449
10870NA      NA33506   4.574   4.416   5.047
10871NA      NA33507   1.298   2.798   1.697
10872NA      NA33508   5.095   3.817   5.250
10873NA      NA33509   4.232   2.293   5.198
10874NA      NA33510   3.599   4.876   1.759
10875NA      NA33511   6.636   5.077   6.764
10876NA      NA33512   3.091   3.529   4.878
10877NA      NA33513   4.515   6.040   0.018
10878NA      NA33514   4.220   6.471   5.022
10879NA      NA33515   6.328   5.355   2.488
10880NA      NA33516   2.097   0.180   3.722
10881NA      NA33517   3.923   5.631   1.947
10882NA      NA33518   3.743   3.739   2.257
   7.02296   7.02296   7.02296
