Generated by trjconv : CNT in water t= 374.00000
33518
    1C        C    1   2.840   2.768   4.744
    1C        C    2   2.892   2.720   4.866
    1C        C    3   2.838   2.775   4.983
    1C        C    4   2.849   2.776   4.258
    1C        C    5   2.902   2.729   4.381
    1C        C    6   2.844   2.773   4.502
    1C        C    7   3.012   2.643   4.623
    1C        C    8   2.894   2.721   4.623
    1C        C    9   3.072   2.600   4.744
    1C        C   10   3.005   2.636   4.863
    1C        C   11   3.174   2.488   4.974
    1C        C   12   3.053   2.560   4.971
    1C        C   13   2.846   2.770   3.770
    1C        C   14   2.899   2.722   3.892
    1C        C   15   2.851   2.777   4.013
    1C        C   16   3.015   2.645   4.135
    1C        C   17   2.902   2.730   4.136
    1C        C   18   3.077   2.613   4.258
    1C        C   19   3.019   2.650   4.381
    1C        C   20   3.209   2.556   4.502
    1C        C   21   3.078   2.610   4.503
    1C        C   22   3.275   2.530   4.624
    1C        C   23   3.203   2.546   4.744
    1C        C   24   3.406   2.484   4.864
    1C        C   25   3.264   2.499   4.864
    1C        C   26   3.486   2.477   4.979
    1C        C   27   2.851   2.768   3.279
    1C        C   28   2.904   2.724   3.402
    1C        C   29   2.856   2.775   3.524
    1C        C   30   3.016   2.643   3.647
    1C        C   31   2.903   2.727   3.648
    1C        C   32   3.078   2.609   3.770
    1C        C   33   3.017   2.644   3.892
    1C        C   34   3.208   2.553   4.014
    1C        C   35   3.078   2.607   4.014
    1C        C   36   3.275   2.532   4.137
    1C        C   37   3.208   2.559   4.258
    1C        C   38   3.415   2.508   4.381
    1C        C   39   3.276   2.535   4.379
    1C        C   40   3.485   2.496   4.503
    1C        C   41   3.413   2.500   4.624
    1C        C   42   3.626   2.479   4.741
    1C        C   43   3.484   2.482   4.745
    1C        C   44   3.702   2.482   4.860
    1C        C   45   3.625   2.475   4.977
    1C        C   46   2.841   2.752   2.791
    1C        C   47   2.894   2.708   2.914
    1C        C   48   2.844   2.761   3.035
    1C        C   49   3.019   2.638   3.159
    1C        C   50   2.903   2.720   3.157
    1C        C   51   3.080   2.602   3.281
    1C        C   52   3.017   2.639   3.402
    1C        C   53   3.205   2.544   3.525
    1C        C   54   3.076   2.603   3.526
    1C        C   55   3.273   2.526   3.647
    1C        C   56   3.207   2.552   3.769
    1C        C   57   3.413   2.504   3.892
    1C        C   58   3.274   2.527   3.891
    1C        C   59   3.482   2.498   4.015
    1C        C   60   3.413   2.504   4.138
    1C        C   61   3.627   2.500   4.258
    1C        C   62   3.486   2.497   4.259
    1C        C   63   3.698   2.515   4.379
    1C        C   64   3.626   2.504   4.500
    1C        C   65   3.834   2.540   4.622
    1C        C   66   3.698   2.503   4.622
    1C        C   67   3.904   2.558   4.743
    1C        C   68   3.839   2.517   4.861
    1C        C   69   4.046   2.589   4.978
    1C        C   70   3.920   2.528   4.975
    1C        C   71   2.824   2.734   2.307
    1C        C   72   2.880   2.687   2.428
    1C        C   73   2.829   2.743   2.547
    1C        C   74   3.011   2.630   2.669
    1C        C   75   2.891   2.705   2.668
    1C        C   76   3.076   2.597   2.790
    1C        C   77   3.014   2.632   2.912
    1C        C   78   3.208   2.551   3.037
    1C        C   79   3.079   2.607   3.035
    1C        C   80   3.277   2.532   3.159
    1C        C   81   3.210   2.549   3.282
    1C        C   82   3.414   2.494   3.404
    1C        C   83   3.276   2.524   3.405
    1C        C   84   3.485   2.486   3.526
    1C        C   85   3.412   2.499   3.646
    1C        C   86   3.624   2.493   3.769
    1C        C   87   3.482   2.497   3.769
    1C        C   88   3.694   2.506   3.891
    1C        C   89   3.623   2.503   4.014
    1C        C   90   3.832   2.545   4.134
    1C        C   91   3.695   2.511   4.135
    1C        C   92   3.901   2.569   4.255
    1C        C   93   3.837   2.542   4.378
    1C        C   94   4.026   2.634   4.498
    1C        C   95   3.903   2.565   4.501
    1C        C   96   4.086   2.672   4.620
    1C        C   97   4.029   2.627   4.741
    1C        C   98   4.191   2.764   4.860
    1C        C   99   4.097   2.656   4.862
    1C        C  100   4.204   2.844   4.975
    1C        C  101   2.822   2.725   2.068
    1C        C  102   2.987   2.589   2.191
    1C        C  103   2.871   2.673   2.188
    1C        C  104   3.061   2.566   2.310
    1C        C  105   3.001   2.614   2.429
    1C        C  106   3.200   2.528   2.550
    1C        C  107   3.071   2.586   2.549
    1C        C  108   3.267   2.505   2.672
    1C        C  109   3.204   2.537   2.794
    1C        C  110   3.411   2.488   2.912
    1C        C  111   3.273   2.519   2.916
    1C        C  112   3.482   2.485   3.035
    1C        C  113   3.415   2.502   3.158
    1C        C  114   3.624   2.487   3.281
    1C        C  115   3.483   2.488   3.281
    1C        C  116   3.695   2.501   3.402
    1C        C  117   3.626   2.490   3.525
    1C        C  118   3.829   2.548   3.646
    1C        C  119   3.695   2.504   3.648
    1C        C  120   3.896   2.572   3.769
    1C        C  121   3.827   2.552   3.891
    1C        C  122   4.025   2.633   4.010
    1C        C  123   3.899   2.570   4.011
    1C        C  124   4.084   2.670   4.133
    1C        C  125   4.026   2.635   4.256
    1C        C  126   4.200   2.759   4.377
    1C        C  127   4.090   2.671   4.377
    1C        C  128   4.245   2.817   4.497
    1C        C  129   4.192   2.766   4.618
    1C        C  130   4.319   2.938   4.739
    1C        C  131   4.243   2.818   4.739
    1C        C  132   4.347   3.008   4.859
    1C        C  133   4.278   2.961   4.972
    1C        C  134   3.166   2.469   2.076
    1C        C  135   3.030   2.503   2.085
    1C        C  136   3.254   2.474   2.185
    1C        C  137   3.191   2.509   2.306
    1C        C  138   3.402   2.471   2.428
    1C        C  139   3.263   2.498   2.427
    1C        C  140   3.479   2.475   2.546
    1C        C  141   3.407   2.484   2.667
    1C        C  142   3.620   2.492   2.791
    1C        C  143   3.479   2.482   2.789
    1C        C  144   3.691   2.499   2.912
    1C        C  145   3.623   2.486   3.035
    1C        C  146   3.828   2.536   3.155
    1C        C  147   3.693   2.497   3.158
    1C        C  148   3.896   2.565   3.276
    1C        C  149   3.831   2.542   3.399
    1C        C  150   4.023   2.627   3.520
    1C        C  151   3.894   2.568   3.522
    1C        C  152   4.083   2.664   3.643
    1C        C  153   4.023   2.633   3.767
    1C        C  154   4.189   2.768   3.887
    1C        C  155   4.081   2.678   3.888
    1C        C  156   4.237   2.816   4.011
    1C        C  157   4.194   2.760   4.133
    1C        C  158   4.332   2.922   4.252
    1C        C  159   4.247   2.810   4.253
    1C        C  160   4.371   2.985   4.373
    1C        C  161   4.329   2.931   4.496
    1C        C  162   4.441   3.112   4.611
    1C        C  163   4.368   2.990   4.618
    1C        C  164   4.464   3.182   4.731
    1C        C  165   4.427   3.124   4.855
    1C        C  166   4.505   3.323   4.970
    1C        C  167   4.473   3.188   4.970
    1C        C  168   3.473   2.428   2.072
    1C        C  169   3.394   2.458   2.185
    1C        C  170   3.611   2.465   2.306
    1C        C  171   3.469   2.462   2.304
    1C        C  172   3.691   2.478   2.422
    1C        C  173   3.620   2.483   2.544
    1C        C  174   3.824   2.536   2.665
    1C        C  175   3.687   2.500   2.667
    1C        C  176   3.892   2.560   2.787
    1C        C  177   3.828   2.536   2.910
    1C        C  178   4.021   2.621   3.029
    1C        C  179   3.896   2.556   3.033
    1C        C  180   4.081   2.661   3.151
    1C        C  181   4.023   2.627   3.275
    1C        C  182   4.193   2.751   3.397
    1C        C  183   4.083   2.662   3.398
    1C        C  184   4.243   2.802   3.519
    1C        C  185   4.189   2.756   3.641
    1C        C  186   4.333   2.915   3.762
    1C        C  187   4.241   2.808   3.762
    1C        C  188   4.369   2.976   3.884
    1C        C  189   4.329   2.924   4.009
    1C        C  190   4.445   3.104   4.125
    1C        C  191   4.373   2.982   4.130
    1C        C  192   4.464   3.172   4.247
    1C        C  193   4.435   3.111   4.371
    1C        C  194   4.508   3.314   4.491
    1C        C  195   4.468   3.179   4.490
    1C        C  196   4.524   3.387   4.612
    1C        C  197   4.508   3.317   4.734
    1C        C  198   4.556   3.535   4.846
    1C        C  199   4.528   3.394   4.852
    1C        C  200   4.582   3.618   4.959
    1C        C  201   3.611   2.410   2.076
    1C        C  202   3.823   2.508   2.179
    1C        C  203   3.686   2.466   2.184
    1C        C  204   3.892   2.540   2.299
    1C        C  205   3.826   2.518   2.422
    1C        C  206   4.016   2.620   2.542
    1C        C  207   3.891   2.553   2.542
    1C        C  208   4.076   2.663   2.662
    1C        C  209   4.017   2.626   2.785
    1C        C  210   4.193   2.745   2.905
    1C        C  211   4.081   2.659   2.906
    1C        C  212   4.241   2.798   3.027
    1C        C  213   4.188   2.753   3.150
    1C        C  214   4.329   2.909   3.272
    1C        C  215   4.238   2.801   3.273
    1C        C  216   4.364   2.971   3.394
    1C        C  217   4.331   2.913   3.518
    1C        C  218   4.437   3.098   3.638
    1C        C  219   4.375   2.971   3.639
    1C        C  220   4.461   3.167   3.759
    1C        C  221   4.439   3.099   3.881
    1C        C  222   4.498   3.305   4.004
    1C        C  223   4.467   3.167   4.001
    1C        C  224   4.519   3.377   4.124
    1C        C  225   4.504   3.308   4.246
    1C        C  226   4.517   3.522   4.363
    1C        C  227   4.513   3.381   4.367
    1C        C  228   4.518   3.597   4.483
    1C        C  229   4.531   3.528   4.606
    1C        C  230   4.506   3.742   4.724
    1C        C  231   4.542   3.605   4.724
    1C        C  232   4.489   3.819   4.841
    1C        C  233   4.539   3.752   4.953
    1C        C  234   4.015   2.610   2.062
    1C        C  235   3.892   2.545   2.063
    1C        C  236   4.079   2.650   2.180
    1C        C  237   4.018   2.607   2.300
    1C        C  238   4.195   2.732   2.419
    1C        C  239   4.081   2.647   2.419
    1C        C  240   4.252   2.781   2.538
    1C        C  241   4.195   2.739   2.660
    1C        C  242   4.331   2.903   2.782
    1C        C  243   4.242   2.793   2.782
    1C        C  244   4.373   2.961   2.903
    1C        C  245   4.333   2.906   3.027
    1C        C  246   4.435   3.090   3.150
    1C        C  247   4.375   2.962   3.150
    1C        C  248   4.453   3.160   3.271
    1C        C  249   4.426   3.098   3.395
    1C        C  250   4.487   3.303   3.515
    1C        C  251   4.461   3.164   3.515
    1C        C  252   4.503   3.374   3.637
    1C        C  253   4.498   3.303   3.759
    1C        C  254   4.521   3.514   3.876
    1C        C  255   4.512   3.373   3.881
    1C        C  256   4.520   3.587   3.997
    1C        C  257   4.523   3.518   4.121
    1C        C  258   4.483   3.730   4.239
    1C        C  259   4.511   3.592   4.241
    1C        C  260   4.465   3.802   4.360
    1C        C  261   4.486   3.734   4.482
    1C        C  262   4.427   3.941   4.599
    1C        C  263   4.474   3.807   4.602
    1C        C  264   4.405   4.013   4.718
    1C        C  265   4.436   3.950   4.841
    1C        C  266   4.325   4.135   4.954
    1C        C  267   4.394   4.014   4.958
    1C        C  268   4.259   2.778   2.063
    1C        C  269   4.190   2.737   2.178
    1C        C  270   4.340   2.892   2.298
    1C        C  271   4.249   2.782   2.298
    1C        C  272   4.379   2.954   2.419
    1C        C  273   4.339   2.893   2.539
    1C        C  274   4.447   3.080   2.661
    1C        C  275   4.372   2.960   2.659
    1C        C  276   4.478   3.145   2.782
    1C        C  277   4.444   3.083   2.904
    1C        C  278   4.504   3.287   3.024
    1C        C  279   4.469   3.150   3.026
    1C        C  280   4.509   3.360   3.144
    1C        C  281   4.498   3.294   3.269
    1C        C  282   4.515   3.507   3.387
    1C        C  283   4.509   3.366   3.390
    1C        C  284   4.516   3.580   3.508
    1C        C  285   4.513   3.514   3.633
    1C        C  286   4.492   3.725   3.750
    1C        C  287   4.520   3.586   3.755
    1C        C  288   4.472   3.792   3.872
    1C        C  289   4.491   3.725   3.995
    1C        C  290   4.424   3.930   4.114
    1C        C  291   4.473   3.798   4.115
    1C        C  292   4.390   3.996   4.234
    1C        C  293   4.415   3.934   4.358
    1C        C  294   4.324   4.128   4.475
    1C        C  295   4.396   4.006   4.478
    1C        C  296   4.289   4.194   4.595
    1C        C  297   4.327   4.132   4.716
    1C        C  298   4.200   4.313   4.838
    1C        C  299   4.288   4.199   4.835
    1C        C  300   4.171   4.400   4.948
    1C        C  301   4.347   2.885   2.061
    1C        C  302   4.472   3.066   2.176
    1C        C  303   4.392   2.947   2.178
    1C        C  304   4.484   3.141   2.296
    1C        C  305   4.445   3.079   2.417
    1C        C  306   4.505   3.282   2.538
    1C        C  307   4.474   3.145   2.538
    1C        C  308   4.512   3.355   2.659
    1C        C  309   4.508   3.283   2.781
    1C        C  310   4.530   3.497   2.897
    1C        C  311   4.523   3.356   2.902
    1C        C  312   4.520   3.569   3.018
    1C        C  313   4.518   3.501   3.143
    1C        C  314   4.484   3.713   3.261
    1C        C  315   4.508   3.574   3.263
    1C        C  316   4.473   3.784   3.383
    1C        C  317   4.491   3.719   3.507
    1C        C  318   4.419   3.922   3.624
    1C        C  319   4.472   3.791   3.627
    1C        C  320   4.392   3.987   3.747
    1C        C  321   4.421   3.924   3.869
    1C        C  322   4.318   4.112   3.987
    1C        C  323   4.392   3.991   3.990
    1C        C  324   4.279   4.172   4.108
    1C        C  325   4.319   4.118   4.233
    1C        C  326   4.190   4.291   4.352
    1C        C  327   4.283   4.184   4.352
    1C        C  328   4.141   4.345   4.473
    1C        C  329   4.198   4.301   4.595
    1C        C  330   4.028   4.437   4.713
    1C        C  331   4.145   4.355   4.714
    1C        C  332   3.970   4.487   4.831
    1C        C  333   4.052   4.473   4.944
    1C        C  334   4.554   3.267   2.060
    1C        C  335   4.535   3.128   2.064
    1C        C  336   4.547   3.349   2.173
    1C        C  337   4.518   3.279   2.292
    1C        C  338   4.528   3.491   2.409
    1C        C  339   4.520   3.350   2.414
    1C        C  340   4.523   3.564   2.530
    1C        C  341   4.523   3.495   2.653
    1C        C  342   4.499   3.706   2.774
    1C        C  343   4.526   3.567   2.775
    1C        C  344   4.475   3.777   2.894
    1C        C  345   4.491   3.707   3.015
    1C        C  346   4.426   3.912   3.134
    1C        C  347   4.471   3.778   3.136
    1C        C  348   4.390   3.976   3.255
    1C        C  349   4.425   3.917   3.378
    1C        C  350   4.316   4.101   3.502
    1C        C  351   4.390   3.981   3.499
    1C        C  352   4.271   4.162   3.621
    1C        C  353   4.316   4.107   3.743
    1C        C  354   4.177   4.269   3.863
    1C        C  355   4.273   4.165   3.864
    1C        C  356   4.121   4.313   3.985
    1C        C  357   4.176   4.269   4.108
    1C        C  358   4.014   4.405   4.226
    1C        C  359   4.131   4.326   4.229
    1C        C  360   3.957   4.450   4.347
    1C        C  361   4.022   4.421   4.468
    1C        C  362   3.829   4.509   4.592
    1C        C  363   3.962   4.460   4.590
    1C        C  364   3.760   4.538   4.712
    1C        C  365   3.836   4.533   4.830
    1C        C  366   3.627   4.583   4.945
    1C        C  367   3.766   4.570   4.946
    1C        C  368   4.515   3.560   2.050
    1C        C  369   4.531   3.490   2.170
    1C        C  370   4.506   3.705   2.286
    1C        C  371   4.526   3.565   2.289
    1C        C  372   4.482   3.773   2.408
    1C        C  373   4.497   3.702   2.529
    1C        C  374   4.419   3.900   2.645
    1C        C  375   4.478   3.772   2.651
    1C        C  376   4.387   3.967   2.766
    1C        C  377   4.426   3.909   2.889
    1C        C  378   4.318   4.090   3.009
    1C        C  379   4.398   3.974   3.011
    1C        C  380   4.272   4.148   3.129
    1C        C  381   4.311   4.093   3.253
    1C        C  382   4.172   4.250   3.375
    1C        C  383   4.272   4.149   3.377
    1C        C  384   4.116   4.302   3.494
    1C        C  385   4.173   4.264   3.617
    1C        C  386   4.010   4.395   3.739
    1C        C  387   4.127   4.316   3.740
    1C        C  388   3.948   4.433   3.860
    1C        C  389   4.008   4.398   3.983
    1C        C  390   3.815   4.487   4.105
    1C        C  391   3.945   4.432   4.105
    1C        C  392   3.753   4.517   4.228
    1C        C  393   3.825   4.501   4.348
    1C        C  394   3.619   4.546   4.471
    1C        C  395   3.759   4.525   4.471
    1C        C  396   3.548   4.557   4.592
    1C        C  397   3.620   4.560   4.713
    1C        C  398   3.406   4.549   4.834
    1C        C  399   3.545   4.569   4.833
    1C        C  400   3.337   4.510   4.950
    1C        C  401   4.507   3.699   2.049
    1C        C  402   4.451   3.911   2.166
    1C        C  403   4.498   3.778   2.165
    1C        C  404   4.405   3.972   2.284
    1C        C  405   4.434   3.905   2.405
    1C        C  406   4.320   4.090   2.524
    1C        C  407   4.394   3.970   2.525
    1C        C  408   4.272   4.145   2.645
    1C        C  409   4.309   4.084   2.767
    1C        C  410   4.170   4.246   2.887
    1C        C  411   4.270   4.146   2.888
    1C        C  412   4.117   4.291   3.010
    1C        C  413   4.171   4.247   3.133
    1C        C  414   4.003   4.380   3.251
    1C        C  415   4.116   4.295   3.254
    1C        C  416   3.941   4.419   3.372
    1C        C  417   4.000   4.383   3.495
    1C        C  418   3.813   4.479   3.616
    1C        C  419   3.941   4.420   3.618
    1C        C  420   3.748   4.506   3.738
    1C        C  421   3.816   4.484   3.860
    1C        C  422   3.609   4.534   3.983
    1C        C  423   3.748   4.506   3.982
    1C        C  424   3.540   4.534   4.106
    1C        C  425   3.612   4.533   4.227
    1C        C  426   3.404   4.545   4.355
    1C        C  427   3.545   4.547   4.351
    1C        C  428   3.330   4.540   4.476
    1C        C  429   3.407   4.548   4.594
    1C        C  430   3.193   4.514   4.716
    1C        C  431   3.332   4.545   4.714
    1C        C  432   3.122   4.495   4.838
    1C        C  433   3.199   4.498   4.955
    1C        C  434   4.376   4.115   2.049
    1C        C  435   4.443   3.991   2.052
    1C        C  436   4.297   4.157   2.160
    1C        C  437   4.334   4.096   2.283
    1C        C  438   4.180   4.249   2.400
    1C        C  439   4.280   4.149   2.402
    1C        C  440   4.124   4.296   2.521
    1C        C  441   4.171   4.244   2.644
    1C        C  442   4.003   4.375   2.763
    1C        C  443   4.117   4.292   2.765
    1C        C  444   3.940   4.408   2.885
    1C        C  445   4.002   4.373   3.008
    1C        C  446   3.814   4.475   3.129
    1C        C  447   3.940   4.412   3.129
    1C        C  448   3.746   4.501   3.250
    1C        C  449   3.811   4.475   3.372
    1C        C  450   3.606   4.528   3.497
    1C        C  451   3.744   4.501   3.494
    1C        C  452   3.538   4.539   3.621
    1C        C  453   3.611   4.541   3.742
    1C        C  454   3.396   4.541   3.863
    1C        C  455   3.537   4.545   3.862
    1C        C  456   3.331   4.527   3.987
    1C        C  457   3.399   4.538   4.111
    1C        C  458   3.195   4.502   4.232
    1C        C  459   3.331   4.538   4.235
    1C        C  460   3.126   4.482   4.353
    1C        C  461   3.192   4.509   4.475
    1C        C  462   2.995   4.428   4.600
    1C        C  463   3.124   4.486   4.596
    1C        C  464   2.929   4.398   4.721
    1C        C  465   2.992   4.436   4.843
    1C        C  466   2.801   4.333   4.957
    1C        C  467   2.905   4.427   4.956
    1C        C  468   4.124   4.288   2.039
    1C        C  469   4.190   4.252   2.157
    1C        C  470   4.000   4.361   2.276
    1C        C  471   4.122   4.288   2.277
    1C        C  472   3.936   4.396   2.397
    1C        C  473   4.003   4.368   2.518
    1C        C  474   3.811   4.461   2.641
    1C        C  475   3.942   4.408   2.639
    1C        C  476   3.745   4.492   2.762
    1C        C  477   3.811   4.464   2.885
    1C        C  478   3.607   4.523   3.007
    1C        C  479   3.745   4.493   3.006
    1C        C  480   3.536   4.534   3.129
    1C        C  481   3.608   4.532   3.250
    1C        C  482   3.397   4.537   3.377
    1C        C  483   3.538   4.534   3.373
    1C        C  484   3.324   4.531   3.498
    1C        C  485   3.397   4.539   3.618
    1C        C  486   3.189   4.499   3.742
    1C        C  487   3.326   4.535   3.740
    1C        C  488   3.125   4.473   3.865
    1C        C  489   3.194   4.492   3.988
    1C        C  490   2.999   4.415   4.112
    1C        C  491   3.127   4.475   4.111
    1C        C  492   2.942   4.378   4.236
    1C        C  493   2.996   4.426   4.358
    1C        C  494   2.825   4.300   4.479
    1C        C  495   2.932   4.392   4.479
    1C        C  496   2.773   4.252   4.602
    1C        C  497   2.814   4.314   4.722
    1C        C  498   2.667   4.159   4.843
    1C        C  499   2.752   4.271   4.841
    1C        C  500   2.598   4.112   4.956
    1C        C  501   4.006   4.361   2.039
    1C        C  502   3.812   4.463   2.154
    1C        C  503   3.940   4.402   2.156
    1C        C  504   3.743   4.485   2.275
    1C        C  505   3.808   4.457   2.397
    1C        C  506   3.603   4.507   2.519
    1C        C  507   3.742   4.481   2.520
    1C        C  508   3.533   4.519   2.641
    1C        C  509   3.607   4.519   2.762
    1C        C  510   3.397   4.527   2.887
    1C        C  511   3.538   4.532   2.884
    1C        C  512   3.324   4.515   3.008
    1C        C  513   3.395   4.529   3.129
    1C        C  514   3.191   4.491   3.256
    1C        C  515   3.328   4.525   3.254
    1C        C  516   3.122   4.466   3.377
    1C        C  517   3.186   4.498   3.498
    1C        C  518   2.996   4.409   3.623
    1C        C  519   3.120   4.477   3.621
    1C        C  520   2.938   4.372   3.746
    1C        C  521   3.000   4.407   3.868
    1C        C  522   2.833   4.280   3.993
    1C        C  523   2.940   4.372   3.991
    1C        C  524   2.780   4.237   4.117
    1C        C  525   2.832   4.290   4.237
    1C        C  526   2.697   4.128   4.363
    1C        C  527   2.776   4.246   4.359
    1C        C  528   2.652   4.072   4.484
    1C        C  529   2.684   4.142   4.602
    1C        C  530   2.586   3.955   4.732
    1C        C  531   2.638   4.088   4.724
    1C        C  532   2.539   3.897   4.852
    1C        C  533   2.532   3.989   4.962
    1C        C  534   3.616   4.556   2.038
    1C        C  535   3.745   4.502   2.037
    1C        C  536   3.534   4.533   2.153
    1C        C  537   3.604   4.515   2.275
    1C        C  538   3.391   4.523   2.400
    1C        C  539   3.532   4.518   2.397
    1C        C  540   3.321   4.515   2.522
    1C        C  541   3.392   4.520   2.645
    1C        C  542   3.185   4.481   2.766
    1C        C  543   3.322   4.517   2.767
    1C        C  544   3.119   4.460   2.889
    1C        C  545   3.187   4.481   3.010
    1C        C  546   2.999   4.396   3.134
    1C        C  547   3.124   4.461   3.135
    1C        C  548   2.937   4.363   3.257
    1C        C  549   2.994   4.405   3.379
    1C        C  550   2.833   4.270   3.502
    1C        C  551   2.937   4.366   3.502
    1C        C  552   2.782   4.225   3.626
    1C        C  553   2.830   4.281   3.746
    1C        C  554   2.705   4.114   3.874
    1C        C  555   2.788   4.228   3.870
    1C        C  556   2.660   4.059   3.997
    1C        C  557   2.698   4.122   4.118
    1C        C  558   2.597   3.939   4.247
    1C        C  559   2.661   4.065   4.242
    1C        C  560   2.567   3.875   4.369
    1C        C  561   2.591   3.945   4.490
    1C        C  562   2.522   3.747   4.613
    1C        C  563   2.562   3.882   4.613
    1C        C  564   2.518   3.675   4.735
    1C        C  565   2.517   3.755   4.852
    1C        C  566   2.526   3.542   4.976
    1C        C  567   2.522   3.681   4.971
    1C        C  568   3.324   4.481   2.038
    1C        C  569   3.393   4.516   2.155
    1C        C  570   3.185   4.477   2.279
    1C        C  571   3.321   4.517   2.278
    1C        C  572   3.116   4.453   2.401
    1C        C  573   3.185   4.477   2.521
    1C        C  574   2.992   4.394   2.644
    1C        C  575   3.118   4.458   2.644
    1C        C  576   2.934   4.355   2.767
    1C        C  577   2.994   4.394   2.889
    1C        C  578   2.826   4.271   3.014
    1C        C  579   2.938   4.357   3.013
    1C        C  580   2.776   4.219   3.136
    1C        C  581   2.831   4.270   3.256
    1C        C  582   2.700   4.105   3.384
    1C        C  583   2.786   4.218   3.379
    1C        C  584   2.659   4.051   3.508
    1C        C  585   2.698   4.111   3.630
    1C        C  586   2.595   3.929   3.754
    1C        C  587   2.662   4.053   3.754
    1C        C  588   2.574   3.866   3.879
    1C        C  589   2.597   3.933   4.001
    1C        C  590   2.527   3.738   4.128
    1C        C  591   2.568   3.873   4.126
    1C        C  592   2.516   3.667   4.249
    1C        C  593   2.529   3.739   4.370
    1C        C  594   2.508   3.531   4.494
    1C        C  595   2.512   3.672   4.494
    1C        C  596   2.512   3.461   4.616
    1C        C  597   2.515   3.533   4.738
    1C        C  598   2.532   3.322   4.859
    1C        C  599   2.525   3.463   4.860
    1C        C  600   2.530   3.244   4.976
    1C        C  601   3.193   4.438   2.041
    1C        C  602   2.985   4.387   2.160
    1C        C  603   3.117   4.443   2.159
    1C        C  604   2.923   4.354   2.283
    1C        C  605   2.992   4.385   2.402
    1C        C  606   2.817   4.268   2.528
    1C        C  607   2.928   4.355   2.524
    1C        C  608   2.772   4.213   2.650
    1C        C  609   2.821   4.270   2.770
    1C        C  610   2.692   4.104   2.893
    1C        C  611   2.779   4.215   2.893
    1C        C  612   2.650   4.049   3.016
    1C        C  613   2.693   4.105   3.139
    1C        C  614   2.591   3.922   3.262
    1C        C  615   2.658   4.047   3.263
    1C        C  616   2.560   3.863   3.387
    1C        C  617   2.591   3.927   3.509
    1C        C  618   2.523   3.730   3.635
    1C        C  619   2.564   3.865   3.632
    1C        C  620   2.510   3.664   3.760
    1C        C  621   2.530   3.731   3.882
    1C        C  622   2.497   3.526   4.010
    1C        C  623   2.515   3.666   4.006
    1C        C  624   2.496   3.454   4.132
    1C        C  625   2.504   3.526   4.253
    1C        C  626   2.525   3.314   4.378
    1C        C  627   2.510   3.455   4.375
    1C        C  628   2.548   3.246   4.499
    1C        C  629   2.532   3.321   4.617
    1C        C  630   2.590   3.114   4.740
    1C        C  631   2.548   3.250   4.738
    1C        C  632   2.612   3.046   4.863
    1C        C  633   2.557   3.107   4.981
    1C        C  634   2.781   4.308   2.053
    1C        C  635   2.893   4.391   2.050
    1C        C  636   2.750   4.228   2.164
    1C        C  637   2.807   4.271   2.285
    1C        C  638   2.675   4.107   2.407
    1C        C  639   2.761   4.219   2.408
    1C        C  640   2.641   4.043   2.529
    1C        C  641   2.686   4.101   2.650
    1C        C  642   2.585   3.918   2.774
    1C        C  643   2.647   4.045   2.773
    1C        C  644   2.566   3.851   2.897
    1C        C  645   2.593   3.920   3.018
    1C        C  646   2.524   3.721   3.146
    1C        C  647   2.565   3.856   3.141
    1C        C  648   2.504   3.657   3.271
    1C        C  649   2.521   3.728   3.392
    1C        C  650   2.507   3.517   3.518
    1C        C  651   2.508   3.658   3.514
    1C        C  652   2.511   3.451   3.643
    1C        C  653   2.504   3.522   3.764
    1C        C  654   2.528   3.315   3.889
    1C        C  655   2.503   3.455   3.888
    1C        C  656   2.543   3.247   4.012
    1C        C  657   2.521   3.315   4.134
    1C        C  658   2.595   3.116   4.253
    1C        C  659   2.535   3.244   4.256
    1C        C  660   2.618   3.047   4.375
    1C        C  661   2.579   3.108   4.496
    1C        C  662   2.704   2.936   4.620
    1C        C  663   2.617   3.048   4.619
    1C        C  664   2.745   2.874   4.740
    1C        C  665   2.687   2.924   4.860
    1C        C  666   2.736   2.869   4.979
    1C        C  667   2.691   4.015   2.055
    1C        C  668   2.688   4.101   2.165
    1C        C  669   2.590   3.911   2.288
    1C        C  670   2.643   4.043   2.286
    1C        C  671   2.562   3.843   2.409
    1C        C  672   2.582   3.915   2.529
    1C        C  673   2.517   3.716   2.656
    1C        C  674   2.555   3.852   2.653
    1C        C  675   2.505   3.647   2.779
    1C        C  676   2.523   3.716   2.900
    1C        C  677   2.499   3.509   3.028
    1C        C  678   2.514   3.650   3.025
    1C        C  679   2.501   3.442   3.152
    1C        C  680   2.494   3.516   3.273
    1C        C  681   2.533   3.308   3.399
    1C        C  682   2.505   3.447   3.396
    1C        C  683   2.551   3.241   3.522
    1C        C  684   2.530   3.310   3.644
    1C        C  685   2.606   3.117   3.770
    1C        C  686   2.546   3.245   3.768
    1C        C  687   2.636   3.053   3.892
    1C        C  688   2.596   3.116   4.011
    1C        C  689   2.708   2.934   4.135
    1C        C  690   2.631   3.052   4.132
    1C        C  691   2.753   2.880   4.258
    1C        C  692   2.702   2.934   4.378
    1C        C  693   2.754   2.882   4.500
    1C        C  694   2.630   3.889   2.055
    1C        C  695   2.524   3.702   2.174
    1C        C  696   2.574   3.834   2.171
    1C        C  697   2.497   3.636   2.295
    1C        C  698   2.523   3.707   2.414
    1C        C  699   2.487   3.501   2.538
    1C        C  700   2.503   3.641   2.537
    1C        C  701   2.497   3.435   2.663
    1C        C  702   2.492   3.507   2.784
    1C        C  703   2.521   3.297   2.908
    1C        C  704   2.501   3.437   2.907
    1C        C  705   2.543   3.233   3.032
    1C        C  706   2.530   3.304   3.153
    1C        C  707   2.602   3.107   3.277
    1C        C  708   2.550   3.239   3.277
    1C        C  709   2.630   3.044   3.400
    1C        C  710   2.606   3.111   3.522
    1C        C  711   2.715   2.936   3.644
    1C        C  712   2.637   3.054   3.647
    1C        C  713   2.759   2.881   3.766
    1C        C  714   2.717   2.937   3.889
    1C        C  715   2.753   2.880   4.013
    1C        C  716   2.443   3.497   2.061
    1C        C  717   2.488   3.630   2.059
    1C        C  718   2.461   3.419   2.179
    1C        C  719   2.478   3.495   2.298
    1C        C  720   2.516   3.286   2.422
    1C        C  721   2.484   3.424   2.420
    1C        C  722   2.533   3.222   2.546
    1C        C  723   2.518   3.295   2.666
    1C        C  724   2.595   3.096   2.787
    1C        C  725   2.538   3.226   2.788
    1C        C  726   2.627   3.037   2.911
    1C        C  727   2.591   3.099   3.033
    1C        C  728   2.712   2.928   3.155
    1C        C  729   2.626   3.040   3.156
    1C        C  730   2.758   2.875   3.278
    1C        C  731   2.713   2.929   3.400
    1C        C  732   2.759   2.878   3.523
    1C        C  733   2.485   3.192   2.072
    1C        C  734   2.486   3.278   2.183
    1C        C  735   2.580   3.081   2.302
    1C        C  736   2.524   3.211   2.302
    1C        C  737   2.610   3.019   2.425
    1C        C  738   2.586   3.091   2.545
    1C        C  739   2.704   2.913   2.668
    1C        C  740   2.626   3.030   2.666
    1C        C  741   2.747   2.858   2.791
    1C        C  742   2.702   2.918   2.911
    1C        C  743   2.751   2.867   3.034
    1C        C  744   2.546   3.067   2.068
    1C        C  745   2.687   2.896   2.181
    1C        C  746   2.614   3.017   2.181
    1C        C  747   2.729   2.840   2.304
    1C        C  748   2.685   2.900   2.425
    1C        C  749   2.739   2.851   2.546
    1C        C  750   2.735   2.834   2.066
    1C        C  751   3.662   2.287   2.010
    1C        O  752   3.647   2.173   2.062
    1C        O  753   3.747   2.288   1.899
    1C        C  754   4.635   3.057   1.980
    1C        O  755   4.594   3.006   1.873
    1C        O  756   4.774   3.052   1.999
    1C        C  757   4.452   4.208   1.963
    1C        O  758   4.558   4.272   1.991
    1C        O  759   4.437   4.226   1.825
    1C        C  760   3.584   4.664   1.943
    1C        O  761   3.551   4.779   1.984
    1C        O  762   3.550   4.638   1.810
    1C        C  763   2.855   4.516   1.980
    1C        O  764   2.930   4.561   1.890
    1C        O  765   2.780   4.617   2.041
    1C        C  766   2.322   3.487   1.975
    1C        O  767   2.322   3.415   1.872
    1C        O  768   2.197   3.511   2.035
    1C        C  769   4.694   3.581   5.048
    1C        O  770   4.677   3.608   5.170
    1C        O  771   4.829   3.596   5.012
    1C        C  772   4.282   4.475   5.011
    1C        O  773   4.271   4.501   5.134
    1C        O  774   4.375   4.565   4.958
    1C        C  775   4.124   2.560   5.100
    1C        O  776   4.175   2.448   5.126
    1C        O  777   4.129   2.632   5.221
    1C        C  778   2.878   4.550   5.034
    1C        O  779   2.803   4.646   5.003
    1C        O  780   2.912   4.560   5.170
    1C        C  781   2.473   3.029   5.074
    1C        O  782   2.425   2.921   5.032
    1C        O  783   2.493   3.030   5.212
    1C        C  784   2.426   3.989   5.065
    1C        O  785   2.310   4.027   5.034
    1C        O  786   2.458   3.989   5.202
    1C        C  787   2.937   2.399   2.037
    1C        O  788   2.841   2.417   1.957
    1C        O  789   2.970   2.264   2.040
    1C        C  790   3.169   2.356   5.040
    1C        O  791   3.128   2.251   4.983
    1C        O  792   3.151   2.348   5.179
    1C        H  793   4.282   3.024   5.059
    1C        H  794   4.141   2.831   5.060
    1C        H  795   4.516   3.123   5.043
    1C        H  796   4.508   3.380   5.061
    1C        H  797   4.559   3.812   5.039
    1C        H  798   4.429   3.979   5.053
    1C        H  799   4.284   4.172   5.045
    1C        H  800   4.040   4.545   5.022
    1C        H  801   3.801   4.538   5.041
    1C        H  802   3.580   4.590   5.041
    1C        H  803   3.395   4.457   5.023
    1C        H  804   3.150   4.530   5.045
    1C        H  805   3.896   2.459   5.053
    1C        H  806   3.662   2.400   5.044
    1C        H  807   2.982   2.527   5.044
    1C        H  808   3.436   2.501   5.070
    1C        H  809   2.892   2.762   5.075
    1C        H  810   2.674   2.879   5.065
    1C        H  811   2.547   3.287   5.072
    1C        H  812   2.463   3.509   5.056
    1C        H  813   2.528   3.733   5.065
    1C        H  814   2.578   4.183   5.033
    1C        H  815   2.755   4.312   5.051
    1C        H  816   2.719   2.878   1.969
    1C        H  817   2.855   2.682   1.975
    1C        H  818   3.205   2.454   1.977
    1C        H  819   3.423   2.433   1.978
    1C        H  820   3.869   2.480   1.981
    1C        H  821   4.080   2.573   1.986
    1C        H  822   4.248   2.734   1.966
    1C        H  823   4.413   2.893   1.976
    1C        H  824   4.566   3.309   1.962
    1C        H  825   4.446   3.515   1.982
    1C        H  826   4.526   3.740   1.952
    1C        H  827   3.799   4.511   1.945
    1C        H  828   3.953   4.355   1.946
    1C        H  829   4.169   4.264   1.944
    1C        H  830   4.494   3.963   1.962
    1C        H  831   2.602   3.850   1.959
    1C        H  832   2.721   4.049   1.958
    1C        H  833   2.718   4.307   1.966
    1C        H  834   3.361   4.508   1.942
    1C        H  835   3.174   4.357   1.973
    1C        H  836   2.525   3.004   1.984
    1C        H  837   2.407   3.215   2.003
    1C        H  838   2.465   3.684   1.970
    2V3OU   H29  839   2.802   3.550   3.967
    2V3OU   C27  840   2.788   3.502   4.067
    2V3OU   H27  841   2.731   3.571   4.135
    2V3OU   H28  842   2.738   3.403   4.055
    2V3OU   O11  843   2.917   3.473   4.122
    2V3OU   C15  844   2.929   3.395   4.235
    2V3OU   C13  845   3.057   3.367   4.288
    2V3OU   C14  846   3.080   3.262   4.377
    2V3OU   C16  847   2.976   3.184   4.427
    2V3OU    H6  848   2.992   3.099   4.495
    2V3OU   C12  849   3.212   3.230   4.437
    2V3OU    O2  850   3.239   3.125   4.498
    2V3OU   C10  851   3.322   3.309   4.380
    2V3OU    C8  852   3.454   3.273   4.401
    2V3OU   O10  853   3.491   3.154   4.457
    2V3OU   H26  854   3.408   3.113   4.487
    2V3OU    C6  855   3.565   3.348   4.351
    2V3OU    C5  856   3.536   3.468   4.287
    2V3OU    C4  857   3.702   3.290   4.364
    2V3OU    H4  858   3.720   3.225   4.455
    2V3OU    H5  859   3.713   3.221   4.276
    2V3OU    C2  860   3.814   3.394   4.357
    2V3OU    O6  861   3.806   3.474   4.475
    2V3OU   H21  862   3.762   3.554   4.442
    2V3OU    C3  863   3.784   3.493   4.244
    2V3OU    H2  864   3.859   3.576   4.257
    2V3OU    H3  865   3.785   3.445   4.143
    2V3OU   C25  866   3.951   3.326   4.353
    2V3OU    O7  867   4.000   3.293   4.245
    2V3OU   C26  868   4.025   3.293   4.481
    2V3OU   H22  869   4.065   3.382   4.536
    2V3OU   H23  870   4.112   3.226   4.459
    2V3OU    O8  871   3.955   3.206   4.568
    2V3OU   H24  872   3.918   3.269   4.632
    2V3OU    C1  873   3.649   3.562   4.256
    2V3OU    H1  874   3.627   3.614   4.158
    2V3OU    O3  875   3.657   3.652   4.368
    2V3OU   C19  876   3.621   3.790   4.355
    2V3OU    H9  877   3.521   3.795   4.301
    2V3OU    O4  878   3.711   3.851   4.265
    2V3OU   C20  879   3.842   3.868   4.317
    2V3OU   H10  880   3.885   3.764   4.326
    2V3OU   C24  881   3.608   3.854   4.493
    2V3OU   H16  882   3.537   3.791   4.554
    2V3OU   H17  883   3.560   3.951   4.465
    2V3OU   C23  884   3.749   3.875   4.548
    2V3OU   H15  885   3.793   3.771   4.565
    2V3OU    N1  886   3.735   3.955   4.668
    2V3OU   H19  887   3.800   3.920   4.735
    2V3OU   H20  888   3.641   3.938   4.697
    2V3OU   C21  889   3.848   3.945   4.449
    2V3OU   H11  890   3.952   3.922   4.488
    2V3OU    O5  891   3.828   4.086   4.448
    2V3OU   H18  892   3.787   4.099   4.535
    2V3OU   C22  893   3.914   3.947   4.209
    2V3OU   H12  894   3.858   4.042   4.190
    2V3OU   H13  895   3.908   3.891   4.112
    2V3OU   H14  896   4.023   3.954   4.234
    2V3OU   C11  897   3.159   3.472   4.275
    2V3OU    O1  898   3.121   3.588   4.247
    2V3OU    C9  899   3.297   3.428   4.307
    2V3OU    C7  900   3.401   3.507   4.260
    2V3OU    O9  901   3.386   3.616   4.176
    2V3OU   H25  902   3.290   3.626   4.185
    2V3OU   C17  903   2.826   3.318   4.293
    2V3OU    H7  904   2.732   3.355   4.253
    2V3OU   C18  905   2.848   3.216   4.385
    2V3OU    H8  906   2.784   3.172   4.463
    3SOL     OW  907   3.013   4.329   5.269
    3SOL    HW1  908   3.003   4.428   5.259
    3SOL    HW2  909   2.965   4.283   5.194
    4SOL     OW  910   6.801   0.315   0.468
    4SOL    HW1  911   6.748   0.271   0.540
    4SOL    HW2  912   6.889   0.345   0.506
    5SOL     OW  913   5.194   0.976   2.171
    5SOL    HW1  914   5.150   0.974   2.082
    5SOL    HW2  915   5.124   0.980   2.243
    6SOL     OW  916   5.657   1.783   3.220
    6SOL    HW1  917   5.735   1.740   3.265
    6SOL    HW2  918   5.684   1.875   3.189
    7SOL     OW  919   0.984   4.417   5.127
    7SOL    HW1  920   1.008   4.366   5.043
    7SOL    HW2  921   1.064   4.467   5.159
    8SOL     OW  922   2.675   2.413   5.633
    8SOL    HW1  923   2.657   2.509   5.610
    8SOL    HW2  924   2.737   2.408   5.710
    9SOL     OW  925   6.956   1.541   5.962
    9SOL    HW1  926   6.937   1.636   5.985
    9SOL    HW2  927   0.035   1.524   5.964
   10SOL     OW  928   4.152   5.022   3.576
   10SOL    HW1  929   4.072   4.990   3.627
   10SOL    HW2  930   4.228   4.958   3.589
   11SOL     OW  931   1.779   0.321   0.116
   11SOL    HW1  932   1.727   0.387   0.170
   11SOL    HW2  933   1.854   0.284   0.171
   12SOL     OW  934   2.737   4.623   3.356
   12SOL    HW1  935   2.763   4.579   3.442
   12SOL    HW2  936   2.666   4.569   3.311
   13SOL     OW  937   3.736   6.117   2.838
   13SOL    HW1  938   3.799   6.194   2.829
   13SOL    HW2  939   3.738   6.083   2.932
   14SOL     OW  940   4.573   4.810   5.807
   14SOL    HW1  941   4.582   4.866   5.889
   14SOL    HW2  942   4.477   4.789   5.790
   15SOL     OW  943   0.109   5.924   6.299
   15SOL    HW1  944   0.188   5.984   6.285
   15SOL    HW2  945   0.119   5.875   6.386
   16SOL     OW  946   5.749   2.688   6.100
   16SOL    HW1  947   5.771   2.744   6.181
   16SOL    HW2  948   5.833   2.665   6.051
   17SOL     OW  949   6.385   0.114   5.930
   17SOL    HW1  950   6.398   0.019   5.958
   17SOL    HW2  951   6.437   0.175   5.990
   18SOL     OW  952   3.063   1.254   5.250
   18SOL    HW1  953   3.095   1.180   5.191
   18SOL    HW2  954   3.037   1.332   5.194
   19SOL     OW  955   1.031   2.202   2.783
   19SOL    HW1  956   0.947   2.173   2.737
   19SOL    HW2  957   1.108   2.189   2.721
   20SOL     OW  958   6.003   1.822   5.836
   20SOL    HW1  959   5.925   1.805   5.776
   20SOL    HW2  960   6.057   1.898   5.801
   21SOL     OW  961   3.483   6.292   3.054
   21SOL    HW1  962   3.498   6.319   2.959
   21SOL    HW2  963   3.545   6.343   3.113
   22SOL     OW  964   1.528   5.902   5.401
   22SOL    HW1  965   1.442   5.953   5.394
   22SOL    HW2  966   1.604   5.962   5.375
   23SOL     OW  967   4.914   5.053   2.245
   23SOL    HW1  968   4.910   4.953   2.247
   23SOL    HW2  969   4.918   5.088   2.339
   24SOL     OW  970   3.675   0.375   1.477
   24SOL    HW1  971   3.741   0.349   1.547
   24SOL    HW2  972   3.583   0.375   1.516
   25SOL     OW  973   3.205   6.966   3.749
   25SOL    HW1  974   3.242   6.940   3.839
   25SOL    HW2  975   3.113   7.004   3.760
   26SOL     OW  976   1.519   2.094   6.686
   26SOL    HW1  977   1.436   2.040   6.698
   26SOL    HW2  978   1.598   2.032   6.680
   27SOL     OW  979   0.448   1.228   2.670
   27SOL    HW1  980   0.440   1.157   2.600
   27SOL    HW2  981   0.481   1.187   2.755
   28SOL     OW  982   1.524   0.848   4.453
   28SOL    HW1  983   1.590   0.815   4.520
   28SOL    HW2  984   1.447   0.892   4.501
   29SOL     OW  985   6.438   1.064   0.764
   29SOL    HW1  986   6.441   1.137   0.833
   29SOL    HW2  987   6.348   1.063   0.721
   30SOL     OW  988   3.567   0.283   4.820
   30SOL    HW1  989   3.482   0.332   4.800
   30SOL    HW2  990   3.603   0.245   4.735
   31SOL     OW  991   0.167   2.229   5.219
   31SOL    HW1  992   0.258   2.219   5.258
   31SOL    HW2  993   0.162   2.178   5.133
   32SOL     OW  994   1.610   2.002   1.546
   32SOL    HW1  995   1.522   2.043   1.518
   32SOL    HW2  996   1.680   2.024   1.478
   33SOL     OW  997   0.430   3.674   5.355
   33SOL    HW1  998   0.383   3.762   5.358
   33SOL    HW2  999   0.489   3.665   5.435
   34SOL     OW 1000   1.339   5.052   5.063
   34SOL    HW1 1001   1.252   5.007   5.040
   34SOL    HW2 1002   1.414   5.005   5.016
   35SOL     OW 1003   3.567   2.352   6.073
   35SOL    HW1 1004   3.563   2.407   6.157
   35SOL    HW2 1005   3.652   2.299   6.072
   36SOL     OW 1006   5.287   1.291   4.172
   36SOL    HW1 1007   5.253   1.346   4.249
   36SOL    HW2 1008   5.384   1.271   4.186
   37SOL     OW 1009   2.388   1.367   2.955
   37SOL    HW1 1010   2.353   1.363   3.049
   37SOL    HW2 1011   2.312   1.367   2.891
   38SOL     OW 1012   2.062   5.119   2.051
   38SOL    HW1 1013   2.055   5.112   2.150
   38SOL    HW2 1014   2.127   5.191   2.027
   39SOL     OW 1015   6.372   4.532   6.830
   39SOL    HW1 1016   6.346   4.440   6.801
   39SOL    HW2 1017   6.321   4.600   6.777
   40SOL     OW 1018   3.555   0.494   5.897
   40SOL    HW1 1019   3.586   0.585   5.922
   40SOL    HW2 1020   3.458   0.495   5.876
   41SOL     OW 1021   5.585   3.811   2.381
   41SOL    HW1 1022   5.638   3.776   2.304
   41SOL    HW2 1023   5.631   3.890   2.421
   42SOL     OW 1024   2.973   5.997   4.944
   42SOL    HW1 1025   2.974   6.076   4.883
   42SOL    HW2 1026   2.878   5.977   4.971
   43SOL     OW 1027   4.051   6.505   4.633
   43SOL    HW1 1028   4.068   6.489   4.536
   43SOL    HW2 1029   3.953   6.516   4.648
   44SOL     OW 1030   6.122   3.243   5.109
   44SOL    HW1 1031   6.144   3.220   5.204
   44SOL    HW2 1032   6.197   3.215   5.050
   45SOL     OW 1033   4.590   5.665   1.271
   45SOL    HW1 1034   4.492   5.686   1.272
   45SOL    HW2 1035   4.632   5.701   1.354
   46SOL     OW 1036   0.783   3.217   4.212
   46SOL    HW1 1037   0.766   3.312   4.241
   46SOL    HW2 1038   0.838   3.217   4.129
   47SOL     OW 1039   5.223   3.763   2.126
   47SOL    HW1 1040   5.206   3.801   2.036
   47SOL    HW2 1041   5.296   3.695   2.120
   48SOL     OW 1042   0.524   3.124   6.619
   48SOL    HW1 1043   0.586   3.050   6.648
   48SOL    HW2 1044   0.510   3.187   6.695
   49SOL     OW 1045   5.028   2.544   0.567
   49SOL    HW1 1046   5.089   2.490   0.509
   49SOL    HW2 1047   4.949   2.574   0.513
   50SOL     OW 1048   6.337   1.962   5.709
   50SOL    HW1 1049   6.258   2.018   5.733
   50SOL    HW2 1050   6.412   1.982   5.771
   51SOL     OW 1051   2.430   4.858   2.381
   51SOL    HW1 1052   2.504   4.921   2.357
   51SOL    HW2 1053   2.458   4.799   2.456
   52SOL     OW 1054   5.374   3.026   1.422
   52SOL    HW1 1055   5.423   3.038   1.336
   52SOL    HW2 1056   5.417   2.953   1.475
   53SOL     OW 1057   5.196   0.098   3.438
   53SOL    HW1 1058   5.235   0.094   3.530
   53SOL    HW2 1059   5.099   0.075   3.442
   54SOL     OW 1060   5.516   6.245   0.445
   54SOL    HW1 1061   5.582   6.319   0.431
   54SOL    HW2 1062   5.463   6.263   0.527
   55SOL     OW 1063   2.445   2.682   6.491
   55SOL    HW1 1064   2.417   2.764   6.540
   55SOL    HW2 1065   2.381   2.664   6.415
   56SOL     OW 1066   1.253   1.859   0.589
   56SOL    HW1 1067   1.157   1.878   0.569
   56SOL    HW2 1068   1.311   1.923   0.537
   57SOL     OW 1069   3.364   0.536   6.614
   57SOL    HW1 1070   3.342   0.439   6.609
   57SOL    HW2 1071   3.377   0.563   6.709
   58SOL     OW 1072   0.629   0.876   6.379
   58SOL    HW1 1073   0.693   0.852   6.452
   58SOL    HW2 1074   0.584   0.793   6.346
   59SOL     OW 1075   6.345   3.726   6.430
   59SOL    HW1 1076   6.377   3.635   6.455
   59SOL    HW2 1077   6.262   3.719   6.374
   60SOL     OW 1078   6.027   0.767   3.690
   60SOL    HW1 1079   6.045   0.705   3.614
   60SOL    HW2 1080   6.015   0.714   3.774
   61SOL     OW 1081   0.816   1.219   4.260
   61SOL    HW1 1082   0.769   1.297   4.217
   61SOL    HW2 1083   0.808   1.226   4.359
   62SOL     OW 1084   1.022   1.538   1.808
   62SOL    HW1 1085   0.987   1.601   1.738
   62SOL    HW2 1086   1.036   1.448   1.768
   63SOL     OW 1087   3.992   6.855   4.275
   63SOL    HW1 1088   3.979   6.908   4.359
   63SOL    HW2 1089   4.082   6.809   4.279
   64SOL     OW 1090   1.169   3.533   6.715
   64SOL    HW1 1091   1.190   3.540   6.617
   64SOL    HW2 1092   1.132   3.442   6.734
   65SOL     OW 1093   0.422   0.387   5.253
   65SOL    HW1 1094   0.369   0.320   5.201
   65SOL    HW2 1095   0.515   0.392   5.216
   66SOL     OW 1096   3.488   6.996   2.786
   66SOL    HW1 1097   3.526   0.069   2.787
   66SOL    HW2 1098   3.388   7.001   2.778
   67SOL     OW 1099   0.126   2.409   0.320
   67SOL    HW1 1100   0.202   2.358   0.280
   67SOL    HW2 1101   0.042   2.386   0.272
   68SOL     OW 1102   0.194   1.550   5.681
   68SOL    HW1 1103   0.198   1.535   5.780
   68SOL    HW2 1104   0.277   1.515   5.638
   69SOL     OW 1105   1.167   4.960   6.193
   69SOL    HW1 1106   1.180   5.058   6.182
   69SOL    HW2 1107   1.198   4.912   6.111
   70SOL     OW 1108   5.287   3.923   5.086
   70SOL    HW1 1109   5.234   3.999   5.126
   70SOL    HW2 1110   5.330   3.871   5.159
   71SOL     OW 1111   4.764   1.961   4.553
   71SOL    HW1 1112   4.859   1.948   4.583
   71SOL    HW2 1113   4.763   1.998   4.461
   72SOL     OW 1114   0.442   0.774   2.781
   72SOL    HW1 1115   0.421   0.759   2.878
   72SOL    HW2 1116   0.535   0.742   2.761
   73SOL     OW 1117   2.745   0.815   0.212
   73SOL    HW1 1118   2.766   0.717   0.215
   73SOL    HW2 1119   2.801   0.859   0.142
   74SOL     OW 1120   2.265   1.661   6.151
   74SOL    HW1 1121   2.274   1.728   6.224
   74SOL    HW2 1122   2.178   1.613   6.159
   75SOL     OW 1123   4.686   1.381   1.143
   75SOL    HW1 1124   4.706   1.365   1.047
   75SOL    HW2 1125   4.698   1.297   1.195
   76SOL     OW 1126   2.524   4.500   5.956
   76SOL    HW1 1127   2.527   4.480   6.054
   76SOL    HW2 1128   2.617   4.512   5.921
   77SOL     OW 1129   1.809   5.414   4.342
   77SOL    HW1 1130   1.861   5.494   4.372
   77SOL    HW2 1131   1.741   5.391   4.412
   78SOL     OW 1132   4.342   1.752   1.190
   78SOL    HW1 1133   4.321   1.846   1.215
   78SOL    HW2 1134   4.279   1.690   1.236
   79SOL     OW 1135   2.473   5.237   1.593
   79SOL    HW1 1136   2.407   5.187   1.649
   79SOL    HW2 1137   2.547   5.176   1.566
   80SOL     OW 1138   4.685   2.288   5.081
   80SOL    HW1 1139   4.664   2.238   5.165
   80SOL    HW2 1140   4.602   2.329   5.045
   81SOL     OW 1141   1.727   0.257   0.890
   81SOL    HW1 1142   1.791   0.293   0.958
   81SOL    HW2 1143   1.648   0.318   0.883
   82SOL     OW 1144   0.529   6.074   2.502
   82SOL    HW1 1145   0.514   6.059   2.405
   82SOL    HW2 1146   0.627   6.073   2.521
   83SOL     OW 1147   6.576   2.097   5.575
   83SOL    HW1 1148   6.581   2.047   5.662
   83SOL    HW2 1149   6.667   2.129   5.549
   84SOL     OW 1150   5.902   2.887   3.729
   84SOL    HW1 1151   5.944   2.881   3.820
   84SOL    HW2 1152   5.972   2.870   3.659
   85SOL     OW 1153   1.859   0.110   3.917
   85SOL    HW1 1154   1.766   0.144   3.925
   85SOL    HW2 1155   1.906   0.156   3.841
   86SOL     OW 1156   5.678   1.371   6.768
   86SOL    HW1 1157   5.654   1.314   6.846
   86SOL    HW2 1158   5.662   1.467   6.790
   87SOL     OW 1159   4.345   4.355   6.916
   87SOL    HW1 1160   4.252   4.369   6.881
   87SOL    HW2 1161   4.412   4.379   6.846
   88SOL     OW 1162   2.964   2.287   5.521
   88SOL    HW1 1163   2.898   2.299   5.596
   88SOL    HW2 1164   2.936   2.343   5.443
   89SOL     OW 1165   2.800   3.267   1.881
   89SOL    HW1 1166   2.722   3.220   1.840
   89SOL    HW2 1167   2.795   3.364   1.861
   90SOL     OW 1168   4.661   4.279   3.345
   90SOL    HW1 1169   4.685   4.289   3.441
   90SOL    HW2 1170   4.699   4.194   3.309
   91SOL     OW 1171   6.502   5.916   5.835
   91SOL    HW1 1172   6.564   5.994   5.849
   91SOL    HW2 1173   6.408   5.948   5.830
   92SOL     OW 1174   4.872   4.089   0.544
   92SOL    HW1 1175   4.885   3.998   0.584
   92SOL    HW2 1176   4.920   4.156   0.599
   93SOL     OW 1177   2.978   3.125   0.859
   93SOL    HW1 1178   2.938   3.162   0.775
   93SOL    HW2 1179   2.921   3.051   0.894
   94SOL     OW 1180   2.647   0.252   6.403
   94SOL    HW1 1181   2.693   0.331   6.362
   94SOL    HW2 1182   2.552   0.275   6.421
   95SOL     OW 1183   0.728   0.592   4.521
   95SOL    HW1 1184   0.644   0.599   4.574
   95SOL    HW2 1185   0.799   0.649   4.563
   96SOL     OW 1186   4.825   5.252   0.015
   96SOL    HW1 1187   4.897   5.237   0.083
   96SOL    HW2 1188   4.814   5.350   7.019
   97SOL     OW 1189   1.985   4.735   5.361
   97SOL    HW1 1190   1.994   4.641   5.394
   97SOL    HW2 1191   1.938   4.790   5.430
   98SOL     OW 1192   0.670   2.558   2.084
   98SOL    HW1 1193   0.749   2.591   2.135
   98SOL    HW2 1194   0.696   2.477   2.030
   99SOL     OW 1195   3.869   3.545   3.216
   99SOL    HW1 1196   3.895   3.638   3.190
   99SOL    HW2 1197   3.830   3.498   3.137
  100SOL     OW 1198   0.136   6.748   3.815
  100SOL    HW1 1199   0.098   6.695   3.891
  100SOL    HW2 1200   0.088   6.724   3.730
  101SOL     OW 1201   0.413   4.935   2.443
  101SOL    HW1 1202   0.348   4.931   2.519
  101SOL    HW2 1203   0.371   4.894   2.362
  102SOL     OW 1204   2.694   6.319   2.090
  102SOL    HW1 1205   2.773   6.278   2.044
  102SOL    HW2 1206   2.622   6.250   2.100
  103SOL     OW 1207   2.429   1.079   2.447
  103SOL    HW1 1208   2.465   1.137   2.373
  103SOL    HW2 1209   2.378   1.136   2.511
  104SOL     OW 1210   0.766   4.680   2.392
  104SOL    HW1 1211   0.840   4.743   2.413
  104SOL    HW2 1212   0.687   4.699   2.451
  105SOL     OW 1213   5.778   1.616   6.835
  105SOL    HW1 1214   5.802   1.610   6.738
  105SOL    HW2 1215   5.850   1.574   6.890
  106SOL     OW 1216   4.920   4.955   1.566
  106SOL    HW1 1217   4.975   5.039   1.564
  106SOL    HW2 1218   4.951   4.897   1.641
  107SOL     OW 1219   6.642   0.810   0.072
  107SOL    HW1 1220   6.731   0.819   0.027
  107SOL    HW2 1221   6.603   0.720   0.051
  108SOL     OW 1222   2.751   0.500   4.819
  108SOL    HW1 1223   2.823   0.440   4.785
  108SOL    HW2 1224   2.664   0.474   4.780
  109SOL     OW 1225   3.557   0.748   2.571
  109SOL    HW1 1226   3.460   0.765   2.590
  109SOL    HW2 1227   3.570   0.738   2.472
  110SOL     OW 1228   2.399   4.670   5.246
  110SOL    HW1 1229   2.367   4.593   5.301
  110SOL    HW2 1230   2.336   4.747   5.258
  111SOL     OW 1231   6.761   1.620   2.511
  111SOL    HW1 1232   6.728   1.713   2.528
  111SOL    HW2 1233   6.854   1.610   2.546
  112SOL     OW 1234   4.262   6.383   6.641
  112SOL    HW1 1235   4.233   6.401   6.735
  112SOL    HW2 1236   4.194   6.326   6.595
  113SOL     OW 1237   6.246   5.509   2.846
  113SOL    HW1 1238   6.319   5.467   2.901
  113SOL    HW2 1239   6.281   5.525   2.754
  114SOL     OW 1240   1.484   4.680   3.361
  114SOL    HW1 1241   1.389   4.707   3.343
  114SOL    HW2 1242   1.542   4.762   3.362
  115SOL     OW 1243   5.980   1.119   3.539
  115SOL    HW1 1244   5.930   1.159   3.616
  115SOL    HW2 1245   5.928   1.133   3.455
  116SOL     OW 1246   0.631   6.061   1.427
  116SOL    HW1 1247   0.628   5.981   1.486
  116SOL    HW2 1248   0.666   6.139   1.479
  117SOL     OW 1249   3.156   1.617   6.845
  117SOL    HW1 1250   3.182   1.711   6.823
  117SOL    HW2 1251   3.056   1.609   6.845
  118SOL     OW 1252   1.323   1.419   3.331
  118SOL    HW1 1253   1.320   1.331   3.285
  118SOL    HW2 1254   1.265   1.416   3.413
  119SOL     OW 1255   6.914   0.175   0.205
  119SOL    HW1 1256   6.853   0.246   0.240
  119SOL    HW2 1257   6.983   0.153   0.274
  120SOL     OW 1258   4.748   0.844   5.205
  120SOL    HW1 1259   4.759   0.772   5.135
  120SOL    HW2 1260   4.819   0.912   5.193
  121SOL     OW 1261   1.482   3.609   0.010
  121SOL    HW1 1262   1.464   3.661   0.094
  121SOL    HW2 1263   1.480   3.670   6.951
  122SOL     OW 1264   0.986   4.571   0.035
  122SOL    HW1 1265   0.895   4.611   0.047
  122SOL    HW2 1266   1.042   4.632   6.998
  123SOL     OW 1267   1.276   0.760   1.870
  123SOL    HW1 1268   1.335   0.679   1.866
  123SOL    HW2 1269   1.183   0.735   1.845
  124SOL     OW 1270   2.990   2.774   0.654
  124SOL    HW1 1271   3.022   2.703   0.592
  124SOL    HW2 1272   3.048   2.855   0.646
  125SOL     OW 1273   3.440   2.780   6.868
  125SOL    HW1 1274   3.537   2.767   6.888
  125SOL    HW2 1275   3.429   2.813   6.774
  126SOL     OW 1276   3.190   3.053   2.841
  126SOL    HW1 1277   3.215   3.088   2.751
  126SOL    HW2 1278   3.103   3.094   2.870
  127SOL     OW 1279   6.830   6.016   5.595
  127SOL    HW1 1280   6.776   5.932   5.593
  127SOL    HW2 1281   6.773   6.091   5.628
  128SOL     OW 1282   4.925   3.573   1.966
  128SOL    HW1 1283   4.830   3.589   1.940
  128SOL    HW2 1284   4.946   3.476   1.957
  129SOL     OW 1285   2.027   5.454   0.789
  129SOL    HW1 1286   2.070   5.422   0.873
  129SOL    HW2 1287   2.058   5.399   0.712
  130SOL     OW 1288   5.846   1.838   4.365
  130SOL    HW1 1289   5.890   1.800   4.284
  130SOL    HW2 1290   5.914   1.847   4.438
  131SOL     OW 1291   6.463   1.266   4.336
  131SOL    HW1 1292   6.498   1.197   4.399
  131SOL    HW2 1293   6.402   1.223   4.270
  132SOL     OW 1294   3.328   3.882   1.655
  132SOL    HW1 1295   3.358   3.867   1.561
  132SOL    HW2 1296   3.242   3.933   1.655
  133SOL     OW 1297   5.351   0.434   4.410
  133SOL    HW1 1298   5.289   0.376   4.463
  133SOL    HW2 1299   5.328   0.428   4.313
  134SOL     OW 1300   6.215   0.550   2.203
  134SOL    HW1 1301   6.261   0.529   2.290
  134SOL    HW2 1302   6.208   0.649   2.192
  135SOL     OW 1303   4.980   3.239   4.537
  135SOL    HW1 1304   4.961   3.336   4.526
  135SOL    HW2 1305   4.982   3.216   4.635
  136SOL     OW 1306   2.405   5.820   4.949
  136SOL    HW1 1307   2.350   5.886   4.898
  136SOL    HW2 1308   2.466   5.868   5.012
  137SOL     OW 1309   3.844   1.527   4.578
  137SOL    HW1 1310   3.878   1.609   4.533
  137SOL    HW2 1311   3.838   1.544   4.677
  138SOL     OW 1312   0.796   5.254   3.844
  138SOL    HW1 1313   0.781   5.235   3.747
  138SOL    HW2 1314   0.865   5.326   3.854
  139SOL     OW 1315   2.124   5.542   6.699
  139SOL    HW1 1316   2.097   5.467   6.639
  139SOL    HW2 1317   2.139   5.624   6.644
  140SOL     OW 1318   2.395   0.479   3.180
  140SOL    HW1 1319   2.393   0.387   3.220
  140SOL    HW2 1320   2.490   0.506   3.165
  141SOL     OW 1321   6.372   3.562   0.191
  141SOL    HW1 1322   6.348   3.588   0.285
  141SOL    HW2 1323   6.452   3.614   0.162
  142SOL     OW 1324   1.102   4.286   1.798
  142SOL    HW1 1325   1.189   4.249   1.833
  142SOL    HW2 1326   1.098   4.273   1.699
  143SOL     OW 1327   5.842   6.550   1.667
  143SOL    HW1 1328   5.896   6.631   1.690
  143SOL    HW2 1329   5.901   6.469   1.667
  144SOL     OW 1330   3.016   4.793   3.895
  144SOL    HW1 1331   3.063   4.839   3.820
  144SOL    HW2 1332   2.996   4.859   3.967
  145SOL     OW 1333   6.796   4.591   2.865
  145SOL    HW1 1334   6.738   4.644   2.927
  145SOL    HW2 1335   6.813   4.644   2.782
  146SOL     OW 1336   6.160   1.600   6.251
  146SOL    HW1 1337   6.224   1.655   6.304
  146SOL    HW2 1338   6.068   1.611   6.289
  147SOL     OW 1339   5.308   1.499   5.186
  147SOL    HW1 1340   5.337   1.522   5.093
  147SOL    HW2 1341   5.386   1.464   5.238
  148SOL     OW 1342   1.099   4.604   1.413
  148SOL    HW1 1343   1.109   4.507   1.435
  148SOL    HW2 1344   1.165   4.658   1.466
  149SOL     OW 1345   2.453   1.988   5.037
  149SOL    HW1 1346   2.449   1.898   5.079
  149SOL    HW2 1347   2.510   2.048   5.092
  150SOL     OW 1348   3.823   1.745   5.337
  150SOL    HW1 1349   3.729   1.776   5.349
  150SOL    HW2 1350   3.876   1.768   5.418
  151SOL     OW 1351   3.870   1.718   0.670
  151SOL    HW1 1352   3.789   1.763   0.632
  151SOL    HW2 1353   3.933   1.788   0.704
  152SOL     OW 1354   0.680   1.608   0.005
  152SOL    HW1 1355   0.746   1.626   0.078
  152SOL    HW2 1356   0.718   1.639   6.937
  153SOL     OW 1357   3.015   1.031   3.345
  153SOL    HW1 1358   3.100   1.083   3.338
  153SOL    HW2 1359   2.938   1.089   3.316
  154SOL     OW 1360   6.707   1.911   1.089
  154SOL    HW1 1361   6.649   1.972   1.034
  154SOL    HW2 1362   6.658   1.886   1.173
  155SOL     OW 1363   0.442   6.964   1.825
  155SOL    HW1 1364   0.405   6.871   1.827
  155SOL    HW2 1365   0.460   6.990   1.730
  156SOL     OW 1366   4.740   0.767   0.359
  156SOL    HW1 1367   4.691   0.848   0.326
  156SOL    HW2 1368   4.714   0.688   0.303
  157SOL     OW 1369   5.283   3.491   0.435
  157SOL    HW1 1370   5.296   3.585   0.404
  157SOL    HW2 1371   5.366   3.461   0.483
  158SOL     OW 1372   1.455   2.765   2.342
  158SOL    HW1 1373   1.518   2.755   2.419
  158SOL    HW2 1374   1.455   2.859   2.310
  159SOL     OW 1375   4.617   4.980   0.932
  159SOL    HW1 1376   4.657   4.954   0.844
  159SOL    HW2 1377   4.534   4.927   0.948
  160SOL     OW 1378   5.738   0.506   0.726
  160SOL    HW1 1379   5.760   0.596   0.688
  160SOL    HW2 1380   5.667   0.463   0.670
  161SOL     OW 1381   0.954   6.644   0.787
  161SOL    HW1 1382   0.987   6.561   0.832
  161SOL    HW2 1383   0.943   6.627   0.689
  162SOL     OW 1384   2.073   5.983   0.235
  162SOL    HW1 1385   1.986   6.032   0.223
  162SOL    HW2 1386   2.065   5.892   0.195
  163SOL     OW 1387   6.627   4.756   3.016
  163SOL    HW1 1388   6.600   4.774   2.921
  163SOL    HW2 1389   6.553   4.785   3.077
  164SOL     OW 1390   1.678   1.696   2.945
  164SOL    HW1 1391   1.603   1.720   3.007
  164SOL    HW2 1392   1.647   1.707   2.850
  165SOL     OW 1393   0.309   5.549   2.518
  165SOL    HW1 1394   0.393   5.559   2.465
  165SOL    HW2 1395   0.289   5.452   2.531
  166SOL     OW 1396   6.144   3.688   1.424
  166SOL    HW1 1397   6.055   3.697   1.470
  166SOL    HW2 1398   6.133   3.637   1.339
  167SOL     OW 1399   5.029   1.821   6.984
  167SOL    HW1 1400   5.077   1.746   0.011
  167SOL    HW2 1401   5.081   1.848   6.903
  168SOL     OW 1402   4.002   3.233   1.881
  168SOL    HW1 1403   4.043   3.230   1.972
  168SOL    HW2 1404   4.060   3.287   1.820
  169SOL     OW 1405   6.106   3.193   0.485
  169SOL    HW1 1406   6.037   3.250   0.439
  169SOL    HW2 1407   6.197   3.219   0.452
  170SOL     OW 1408   1.412   5.431   2.626
  170SOL    HW1 1409   1.329   5.380   2.645
  170SOL    HW2 1410   1.485   5.402   2.688
  171SOL     OW 1411   1.871   3.194   0.238
  171SOL    HW1 1412   1.811   3.273   0.226
  171SOL    HW2 1413   1.924   3.205   0.323
  172SOL     OW 1414   5.689   1.942   1.564
  172SOL    HW1 1415   5.690   1.939   1.663
  172SOL    HW2 1416   5.594   1.947   1.532
  173SOL     OW 1417   5.835   0.929   5.546
  173SOL    HW1 1418   5.803   0.896   5.635
  173SOL    HW2 1419   5.935   0.939   5.548
  174SOL     OW 1420   5.445   5.409   5.293
  174SOL    HW1 1421   5.513   5.475   5.262
  174SOL    HW2 1422   5.491   5.331   5.335
  175SOL     OW 1423   1.925   1.144   0.843
  175SOL    HW1 1424   1.864   1.095   0.781
  175SOL    HW2 1425   1.936   1.091   0.927
  176SOL     OW 1426   4.545   4.755   2.772
  176SOL    HW1 1427   4.475   4.693   2.807
  176SOL    HW2 1428   4.621   4.760   2.837
  177SOL     OW 1429   5.043   1.980   4.640
  177SOL    HW1 1430   5.133   1.952   4.607
  177SOL    HW2 1431   5.044   2.077   4.662
  178SOL     OW 1432   2.480   5.410   5.134
  178SOL    HW1 1433   2.383   5.385   5.125
  178SOL    HW2 1434   2.503   5.421   5.230
  179SOL     OW 1435   4.168   5.587   6.962
  179SOL    HW1 1436   4.199   5.600   0.037
  179SOL    HW2 1437   4.115   5.667   6.933
  180SOL     OW 1438   3.843   6.600   1.272
  180SOL    HW1 1439   3.858   6.537   1.348
  180SOL    HW2 1440   3.823   6.547   1.189
  181SOL     OW 1441   2.908   2.651   5.364
  181SOL    HW1 1442   2.822   2.657   5.415
  181SOL    HW2 1443   2.933   2.555   5.351
  182SOL     OW 1444   5.225   3.789   7.010
  182SOL    HW1 1445   5.133   3.796   6.971
  182SOL    HW2 1446   5.284   3.858   6.969
  183SOL     OW 1447   3.901   2.052   4.277
  183SOL    HW1 1448   3.823   2.056   4.340
  183SOL    HW2 1449   3.872   2.076   4.185
  184SOL     OW 1450   1.131   5.839   3.614
  184SOL    HW1 1451   1.104   5.744   3.627
  184SOL    HW2 1452   1.051   5.892   3.583
  185SOL     OW 1453   0.477   1.644   4.300
  185SOL    HW1 1454   0.420   1.638   4.218
  185SOL    HW2 1455   0.485   1.740   4.328
  186SOL     OW 1456   5.735   6.014   4.578
  186SOL    HW1 1457   5.748   6.053   4.487
  186SOL    HW2 1458   5.721   5.915   4.570
  187SOL     OW 1459   4.337   5.540   2.538
  187SOL    HW1 1460   4.246   5.508   2.564
  187SOL    HW2 1461   4.404   5.468   2.557
  188SOL     OW 1462   2.091   2.221   2.907
  188SOL    HW1 1463   2.144   2.281   2.847
  188SOL    HW2 1464   2.032   2.162   2.853
  189SOL     OW 1465   5.949   5.318   6.861
  189SOL    HW1 1466   6.038   5.359   6.842
  189SOL    HW2 1467   5.906   5.291   6.775
  190SOL     OW 1468   6.161   5.532   6.872
  190SOL    HW1 1469   6.237   5.538   6.936
  190SOL    HW2 1470   6.195   5.541   6.779
  191SOL     OW 1471   6.901   1.054   5.741
  191SOL    HW1 1472   6.849   1.052   5.655
  191SOL    HW2 1473   6.997   1.075   5.721
  192SOL     OW 1474   0.425   4.425   1.660
  192SOL    HW1 1475   0.409   4.515   1.701
  192SOL    HW2 1476   0.392   4.425   1.566
  193SOL     OW 1477   3.715   4.446   6.199
  193SOL    HW1 1478   3.787   4.477   6.261
  193SOL    HW2 1479   3.693   4.520   6.135
  194SOL     OW 1480   4.245   6.735   1.896
  194SOL    HW1 1481   4.291   6.713   1.982
  194SOL    HW2 1482   4.160   6.682   1.890
  195SOL     OW 1483   2.898   0.591   2.486
  195SOL    HW1 1484   2.982   0.536   2.488
  195SOL    HW2 1485   2.921   0.688   2.492
  196SOL     OW 1486   2.352   1.007   6.679
  196SOL    HW1 1487   2.295   1.022   6.598
  196SOL    HW2 1488   2.340   0.913   6.711
  197SOL     OW 1489   2.051   6.156   6.453
  197SOL    HW1 1490   2.000   6.147   6.539
  197SOL    HW2 1491   2.135   6.102   6.458
  198SOL     OW 1492   4.256   5.933   1.035
  198SOL    HW1 1493   4.201   5.908   0.955
  198SOL    HW2 1494   4.289   6.027   1.025
  199SOL     OW 1495   6.111   1.116   2.342
  199SOL    HW1 1496   6.070   1.164   2.419
  199SOL    HW2 1497   6.151   1.182   2.278
  200SOL     OW 1498   1.082   2.861   1.990
  200SOL    HW1 1499   1.165   2.829   1.943
  200SOL    HW2 1500   1.024   2.782   2.012
  201SOL     OW 1501   2.693   0.703   6.565
  201SOL    HW1 1502   2.681   0.743   6.474
  201SOL    HW2 1503   2.749   0.764   6.620
  202SOL     OW 1504   5.064   6.760   4.346
  202SOL    HW1 1505   5.036   6.742   4.440
  202SOL    HW2 1506   5.105   6.851   4.340
  203SOL     OW 1507   5.517   2.909   6.129
  203SOL    HW1 1508   5.547   2.815   6.111
  203SOL    HW2 1509   5.524   2.927   6.227
  204SOL     OW 1510   0.563   0.049   0.190
  204SOL    HW1 1511   0.578   6.974   0.219
  204SOL    HW2 1512   0.465   0.064   0.176
  205SOL     OW 1513   0.607   1.513   0.905
  205SOL    HW1 1514   0.651   1.561   0.980
  205SOL    HW2 1515   0.518   1.556   0.886
  206SOL     OW 1516   1.045   4.304   1.102
  206SOL    HW1 1517   1.091   4.390   1.123
  206SOL    HW2 1518   1.069   4.275   1.009
  207SOL     OW 1519   4.239   0.249   5.354
  207SOL    HW1 1520   4.142   0.246   5.329
  207SOL    HW2 1521   4.265   0.342   5.379
  208SOL     OW 1522   5.283   4.452   6.142
  208SOL    HW1 1523   5.245   4.509   6.215
  208SOL    HW2 1524   5.342   4.509   6.083
  209SOL     OW 1525   0.492   5.915   5.733
  209SOL    HW1 1526   0.438   5.833   5.715
  209SOL    HW2 1527   0.447   5.969   5.805
  210SOL     OW 1528   4.201   2.151   1.918
  210SOL    HW1 1529   4.139   2.137   1.841
  210SOL    HW2 1530   4.230   2.247   1.920
  211SOL     OW 1531   0.865   1.146   2.500
  211SOL    HW1 1532   0.887   1.138   2.598
  211SOL    HW2 1533   0.949   1.138   2.447
  212SOL     OW 1534   1.457   4.848   2.969
  212SOL    HW1 1535   1.366   4.846   2.927
  212SOL    HW2 1536   1.510   4.770   2.936
  213SOL     OW 1537   4.831   1.390   6.751
  213SOL    HW1 1538   4.801   1.354   6.663
  213SOL    HW2 1539   4.924   1.359   6.770
  214SOL     OW 1540   1.310   6.419   3.691
  214SOL    HW1 1541   1.389   6.397   3.748
  214SOL    HW2 1542   1.302   6.352   3.617
  215SOL     OW 1543   3.644   3.236   1.647
  215SOL    HW1 1544   3.681   3.291   1.722
  215SOL    HW2 1545   3.581   3.168   1.684
  216SOL     OW 1546   1.466   6.964   4.902
  216SOL    HW1 1547   1.407   0.017   4.937
  216SOL    HW2 1548   1.518   6.998   4.824
  217SOL     OW 1549   1.847   2.715   4.132
  217SOL    HW1 1550   1.843   2.622   4.097
  217SOL    HW2 1551   1.940   2.734   4.165
  218SOL     OW 1552   1.675   2.522   4.312
  218SOL    HW1 1553   1.706   2.570   4.230
  218SOL    HW2 1554   1.754   2.498   4.368
  219SOL     OW 1555   3.802   3.747   6.757
  219SOL    HW1 1556   3.863   3.748   6.677
  219SOL    HW2 1557   3.733   3.818   6.746
  220SOL     OW 1558   2.317   6.128   0.172
  220SOL    HW1 1559   2.224   6.103   0.201
  220SOL    HW2 1560   2.320   6.132   0.072
  221SOL     OW 1561   5.519   3.761   3.808
  221SOL    HW1 1562   5.592   3.716   3.758
  221SOL    HW2 1563   5.470   3.694   3.864
  222SOL     OW 1564   1.238   5.524   5.221
  222SOL    HW1 1565   1.324   5.542   5.269
  222SOL    HW2 1566   1.257   5.467   5.140
  223SOL     OW 1567   0.429   3.758   1.535
  223SOL    HW1 1568   0.372   3.818   1.590
  223SOL    HW2 1569   0.406   3.663   1.553
  224SOL     OW 1570   2.657   2.293   3.024
  224SOL    HW1 1571   2.745   2.245   3.026
  224SOL    HW2 1572   2.592   2.242   2.967
  225SOL     OW 1573   5.767   0.908   0.325
  225SOL    HW1 1574   5.838   0.837   0.325
  225SOL    HW2 1575   5.703   0.890   0.400
  226SOL     OW 1576   0.581   0.642   0.564
  226SOL    HW1 1577   0.592   0.606   0.471
  226SOL    HW2 1578   0.485   0.659   0.583
  227SOL     OW 1579   1.360   3.845   3.223
  227SOL    HW1 1580   1.403   3.759   3.251
  227SOL    HW2 1581   1.431   3.912   3.202
  228SOL     OW 1582   3.991   0.165   4.704
  228SOL    HW1 1583   4.016   0.191   4.797
  228SOL    HW2 1584   4.070   0.174   4.644
  229SOL     OW 1585   5.954   5.929   1.520
  229SOL    HW1 1586   5.876   5.867   1.518
  229SOL    HW2 1587   6.030   5.889   1.468
  230SOL     OW 1588   1.919   4.072   4.070
  230SOL    HW1 1589   1.847   4.071   4.001
  230SOL    HW2 1590   1.996   4.016   4.038
  231SOL     OW 1591   6.246   3.334   6.489
  231SOL    HW1 1592   6.236   3.238   6.514
  231SOL    HW2 1593   6.282   3.340   6.395
  232SOL     OW 1594   1.265   3.048   6.509
  232SOL    HW1 1595   1.296   3.067   6.416
  232SOL    HW2 1596   1.311   3.109   6.574
  233SOL     OW 1597   2.290   0.736   4.873
  233SOL    HW1 1598   2.267   0.687   4.957
  233SOL    HW2 1599   2.329   0.825   4.897
  234SOL     OW 1600   2.423   4.950   6.675
  234SOL    HW1 1601   2.450   4.984   6.585
  234SOL    HW2 1602   2.435   4.850   6.678
  235SOL     OW 1603   3.698   3.500   3.446
  235SOL    HW1 1604   3.770   3.501   3.377
  235SOL    HW2 1605   3.661   3.593   3.456
  236SOL     OW 1606   6.708   3.232   6.770
  236SOL    HW1 1607   6.753   3.185   6.694
  236SOL    HW2 1608   6.775   3.251   6.842
  237SOL     OW 1609   0.019   6.299   0.953
  237SOL    HW1 1610   6.970   6.314   1.024
  237SOL    HW2 1611   0.107   6.335   0.985
  238SOL     OW 1612   5.684   3.785   1.509
  238SOL    HW1 1613   5.689   3.771   1.410
  238SOL    HW2 1614   5.615   3.725   1.548
  239SOL     OW 1615   6.789   5.677   0.061
  239SOL    HW1 1616   6.826   5.626   0.139
  239SOL    HW2 1617   6.701   5.637   0.034
  240SOL     OW 1618   0.801   3.505   6.275
  240SOL    HW1 1619   0.762   3.417   6.304
  240SOL    HW2 1620   0.898   3.492   6.253
  241SOL     OW 1621   0.719   1.259   3.555
  241SOL    HW1 1622   0.664   1.294   3.480
  241SOL    HW2 1623   0.787   1.195   3.520
  242SOL     OW 1624   1.440   3.253   5.297
  242SOL    HW1 1625   1.421   3.155   5.293
  242SOL    HW2 1626   1.518   3.275   5.238
  243SOL     OW 1627   4.867   0.676   6.011
  243SOL    HW1 1628   4.962   0.686   5.982
  243SOL    HW2 1629   4.810   0.742   5.963
  244SOL     OW 1630   4.555   2.086   4.713
  244SOL    HW1 1631   4.480   2.050   4.769
  244SOL    HW2 1632   4.595   2.012   4.659
  245SOL     OW 1633   6.698   2.518   4.426
  245SOL    HW1 1634   6.672   2.615   4.433
  245SOL    HW2 1635   6.788   2.512   4.383
  246SOL     OW 1636   5.183   3.824   4.188
  246SOL    HW1 1637   5.282   3.835   4.181
  246SOL    HW2 1638   5.147   3.790   4.101
  247SOL     OW 1639   2.660   1.354   3.001
  247SOL    HW1 1640   2.567   1.355   2.964
  247SOL    HW2 1641   2.679   1.440   3.049
  248SOL     OW 1642   4.999   2.246   4.741
  248SOL    HW1 1643   4.900   2.242   4.727
  248SOL    HW2 1644   5.044   2.262   4.654
  249SOL     OW 1645   3.167   6.565   5.105
  249SOL    HW1 1646   3.253   6.515   5.109
  249SOL    HW2 1647   3.097   6.514   5.155
  250SOL     OW 1648   5.905   1.698   5.555
  250SOL    HW1 1649   5.826   1.743   5.513
  250SOL    HW2 1650   5.986   1.754   5.542
  251SOL     OW 1651   4.555   2.895   6.205
  251SOL    HW1 1652   4.455   2.890   6.198
  251SOL    HW2 1653   4.591   2.803   6.219
  252SOL     OW 1654   0.217   1.097   5.283
  252SOL    HW1 1655   0.147   1.169   5.288
  252SOL    HW2 1656   0.181   1.015   5.327
  253SOL     OW 1657   1.396   2.982   1.487
  253SOL    HW1 1658   1.356   3.065   1.525
  253SOL    HW2 1659   1.467   3.006   1.421
  254SOL     OW 1660   6.662   3.038   4.687
  254SOL    HW1 1661   6.689   3.131   4.664
  254SOL    HW2 1662   6.743   2.979   4.688
  255SOL     OW 1663   3.223   2.122   3.374
  255SOL    HW1 1664   3.321   2.132   3.363
  255SOL    HW2 1665   3.201   2.112   3.471
  256SOL     OW 1666   6.416   5.561   6.540
  256SOL    HW1 1667   6.468   5.618   6.603
  256SOL    HW2 1668   6.322   5.594   6.533
  257SOL     OW 1669   2.843   5.713   6.335
  257SOL    HW1 1670   2.935   5.750   6.321
  257SOL    HW2 1671   2.847   5.638   6.400
  258SOL     OW 1672   4.921   4.556   5.062
  258SOL    HW1 1673   4.883   4.511   4.982
  258SOL    HW2 1674   4.946   4.650   5.039
  259SOL     OW 1675   1.599   2.946   2.705
  259SOL    HW1 1676   1.681   2.962   2.760
  259SOL    HW2 1677   1.527   2.909   2.762
  260SOL     OW 1678   4.960   0.835   6.302
  260SOL    HW1 1679   5.028   0.829   6.375
  260SOL    HW2 1680   4.947   0.744   6.262
  261SOL     OW 1681   0.238   3.907   1.706
  261SOL    HW1 1682   0.247   3.868   1.797
  261SOL    HW2 1683   0.293   3.991   1.700
  262SOL     OW 1684   1.407   3.037   2.318
  262SOL    HW1 1685   1.488   3.039   2.376
  262SOL    HW2 1686   1.358   3.125   2.326
  263SOL     OW 1687   0.634   2.508   4.629
  263SOL    HW1 1688   0.645   2.459   4.543
  263SOL    HW2 1689   0.687   2.593   4.627
  264SOL     OW 1690   0.933   3.328   5.516
  264SOL    HW1 1691   0.916   3.415   5.561
  264SOL    HW2 1692   0.870   3.317   5.439
  265SOL     OW 1693   4.685   4.294   4.478
  265SOL    HW1 1694   4.716   4.217   4.424
  265SOL    HW2 1695   4.753   4.368   4.474
  266SOL     OW 1696   3.838   1.986   0.211
  266SOL    HW1 1697   3.929   1.993   0.252
  266SOL    HW2 1698   3.845   1.993   0.112
  267SOL     OW 1699   1.855   2.374   6.657
  267SOL    HW1 1700   1.856   2.469   6.624
  267SOL    HW2 1701   1.791   2.366   6.733
  268SOL     OW 1702   4.342   4.631   4.556
  268SOL    HW1 1703   4.372   4.600   4.646
  268SOL    HW2 1704   4.294   4.719   4.566
  269SOL     OW 1705   1.403   1.559   6.621
  269SOL    HW1 1706   1.381   1.463   6.604
  269SOL    HW2 1707   1.466   1.592   6.551
  270SOL     OW 1708   5.357   1.177   2.477
  270SOL    HW1 1709   5.379   1.130   2.392
  270SOL    HW2 1710   5.413   1.260   2.485
  271SOL     OW 1711   1.850   1.092   1.124
  271SOL    HW1 1712   1.785   1.120   1.195
  271SOL    HW2 1713   1.931   1.151   1.128
  272SOL     OW 1714   4.025   5.081   4.626
  272SOL    HW1 1715   3.999   5.010   4.560
  272SOL    HW2 1716   4.062   5.159   4.576
  273SOL     OW 1717   1.152   5.710   4.693
  273SOL    HW1 1718   1.180   5.806   4.693
  273SOL    HW2 1719   1.195   5.663   4.770
  274SOL     OW 1720   5.826   2.588   3.453
  274SOL    HW1 1721   5.782   2.499   3.439
  274SOL    HW2 1722   5.896   2.580   3.524
  275SOL     OW 1723   0.349   6.087   5.886
  275SOL    HW1 1724   0.255   6.106   5.912
  275SOL    HW2 1725   0.391   6.169   5.847
  276SOL     OW 1726   7.014   5.614   3.587
  276SOL    HW1 1727   0.033   5.591   3.498
  276SOL    HW2 1728   0.039   5.696   3.623
  277SOL     OW 1729   3.433   1.099   5.191
  277SOL    HW1 1730   3.528   1.126   5.206
  277SOL    HW2 1731   3.420   1.005   5.222
  278SOL     OW 1732   5.531   4.564   2.308
  278SOL    HW1 1733   5.594   4.537   2.381
  278SOL    HW2 1734   5.575   4.551   2.219
  279SOL     OW 1735   0.176   2.870   3.411
  279SOL    HW1 1736   0.139   2.926   3.486
  279SOL    HW2 1737   0.102   2.824   3.364
  280SOL     OW 1738   4.742   6.496   4.028
  280SOL    HW1 1739   4.668   6.451   3.978
  280SOL    HW2 1740   4.824   6.439   4.024
  281SOL     OW 1741   4.205   5.599   3.937
  281SOL    HW1 1742   4.127   5.579   3.996
  281SOL    HW2 1743   4.290   5.575   3.984
  282SOL     OW 1744   4.510   1.718   5.618
  282SOL    HW1 1745   4.478   1.779   5.691
  282SOL    HW2 1746   4.457   1.735   5.535
  283SOL     OW 1747   6.411   0.480   4.639
  283SOL    HW1 1748   6.482   0.429   4.688
  283SOL    HW2 1749   6.371   0.549   4.700
  284SOL     OW 1750   0.518   4.899   4.829
  284SOL    HW1 1751   0.586   4.972   4.830
  284SOL    HW2 1752   0.489   4.880   4.735
  285SOL     OW 1753   5.084   0.013   0.136
  285SOL    HW1 1754   5.152   0.003   0.063
  285SOL    HW2 1755   5.097   0.100   0.183
  286SOL     OW 1756   3.447   5.519   4.847
  286SOL    HW1 1757   3.406   5.506   4.756
  286SOL    HW2 1758   3.512   5.595   4.843
  287SOL     OW 1759   1.284   5.851   6.227
  287SOL    HW1 1760   1.254   5.936   6.183
  287SOL    HW2 1761   1.216   5.780   6.212
  288SOL     OW 1762   3.860   0.397   1.201
  288SOL    HW1 1763   3.886   0.493   1.195
  288SOL    HW2 1764   3.934   0.345   1.243
  289SOL     OW 1765   0.950   5.544   5.671
  289SOL    HW1 1766   0.930   5.467   5.732
  289SOL    HW2 1767   0.907   5.627   5.705
  290SOL     OW 1768   4.507   0.733   3.049
  290SOL    HW1 1769   4.590   0.682   3.073
  290SOL    HW2 1770   4.516   0.827   3.081
  291SOL     OW 1771   4.246   0.701   4.232
  291SOL    HW1 1772   4.342   0.683   4.254
  291SOL    HW2 1773   4.215   0.636   4.163
  292SOL     OW 1774   3.784   0.007   3.870
  292SOL    HW1 1775   3.861   6.971   3.838
  292SOL    HW2 1776   3.711   0.005   3.801
  293SOL     OW 1777   4.796   6.283   2.429
  293SOL    HW1 1778   4.737   6.210   2.462
  293SOL    HW2 1779   4.740   6.361   2.400
  294SOL     OW 1780   5.877   0.007   5.678
  294SOL    HW1 1781   5.956   0.035   5.733
  294SOL    HW2 1782   5.793   0.044   5.719
  295SOL     OW 1783   1.182   2.387   4.999
  295SOL    HW1 1784   1.202   2.290   4.984
  295SOL    HW2 1785   1.149   2.400   5.092
  296SOL     OW 1786   6.465   1.489   0.942
  296SOL    HW1 1787   6.477   1.390   0.952
  296SOL    HW2 1788   6.483   1.534   1.029
  297SOL     OW 1789   5.113   5.274   3.850
  297SOL    HW1 1790   5.125   5.351   3.913
  297SOL    HW2 1791   5.016   5.251   3.845
  298SOL     OW 1792   4.265   0.541   0.672
  298SOL    HW1 1793   4.355   0.558   0.712
  298SOL    HW2 1794   4.274   0.480   0.594
  299SOL     OW 1795   3.258   1.829   0.059
  299SOL    HW1 1796   3.276   1.927   0.051
  299SOL    HW2 1797   3.166   1.810   0.024
  300SOL     OW 1798   3.725   1.110   2.134
  300SOL    HW1 1799   3.646   1.171   2.121
  300SOL    HW2 1800   3.693   1.016   2.137
  301SOL     OW 1801   5.244   6.133   1.792
  301SOL    HW1 1802   5.229   6.206   1.858
  301SOL    HW2 1803   5.226   6.044   1.835
  302SOL     OW 1804   6.928   6.432   1.640
  302SOL    HW1 1805   6.937   6.509   1.703
  302SOL    HW2 1806   7.008   6.429   1.580
  303SOL     OW 1807   5.831   5.888   2.475
  303SOL    HW1 1808   5.837   5.806   2.419
  303SOL    HW2 1809   5.831   5.969   2.416
  304SOL     OW 1810   1.263   0.023   5.452
  304SOL    HW1 1811   1.346   6.999   5.415
  304SOL    HW2 1812   1.204   0.051   5.376
  305SOL     OW 1813   0.894   2.934   1.721
  305SOL    HW1 1814   0.844   2.875   1.785
  305SOL    HW2 1815   0.992   2.915   1.728
  306SOL     OW 1816   6.994   0.960   2.459
  306SOL    HW1 1817   0.010   0.909   2.537
  306SOL    HW2 1818   6.896   0.976   2.473
  307SOL     OW 1819   3.690   3.341   0.678
  307SOL    HW1 1820   3.658   3.394   0.599
  307SOL    HW2 1821   3.749   3.267   0.646
  308SOL     OW 1822   5.602   1.962   4.377
  308SOL    HW1 1823   5.573   1.895   4.309
  308SOL    HW2 1824   5.697   1.944   4.402
  309SOL     OW 1825   0.212   6.923   6.863
  309SOL    HW1 1826   0.135   6.948   6.921
  309SOL    HW2 1827   0.244   7.004   6.813
  310SOL     OW 1828   5.794   6.178   4.289
  310SOL    HW1 1829   5.717   6.232   4.254
  310SOL    HW2 1830   5.841   6.229   4.361
  311SOL     OW 1831   2.656   4.964   2.677
  311SOL    HW1 1832   2.631   4.868   2.692
  311SOL    HW2 1833   2.695   5.001   2.761
  312SOL     OW 1834   4.521   2.528   3.643
  312SOL    HW1 1835   4.529   2.528   3.543
  312SOL    HW2 1836   4.434   2.485   3.669
  313SOL     OW 1837   3.507   3.589   2.771
  313SOL    HW1 1838   3.517   3.683   2.739
  313SOL    HW2 1839   3.445   3.539   2.710
  314SOL     OW 1840   2.093   5.895   5.183
  314SOL    HW1 1841   2.104   5.828   5.109
  314SOL    HW2 1842   1.995   5.913   5.196
  315SOL     OW 1843   6.524   1.472   3.447
  315SOL    HW1 1844   6.558   1.558   3.408
  315SOL    HW2 1845   6.520   1.403   3.375
  316SOL     OW 1846   4.271   2.018   5.613
  316SOL    HW1 1847   4.186   2.045   5.567
  316SOL    HW2 1848   4.348   2.034   5.552
  317SOL     OW 1849   1.923   1.615   2.042
  317SOL    HW1 1850   1.963   1.530   2.010
  317SOL    HW2 1851   1.867   1.656   1.970
  318SOL     OW 1852   6.768   0.405   6.378
  318SOL    HW1 1853   6.753   0.503   6.388
  318SOL    HW2 1854   6.837   0.388   6.308
  319SOL     OW 1855   0.540   2.206   3.053
  319SOL    HW1 1856   0.584   2.175   3.137
  319SOL    HW2 1857   0.555   2.138   2.981
  320SOL     OW 1858   5.867   2.263   6.757
  320SOL    HW1 1859   5.789   2.325   6.749
  320SOL    HW2 1860   5.925   2.272   6.677
  321SOL     OW 1861   3.523   3.242   0.221
  321SOL    HW1 1862   3.446   3.200   0.268
  321SOL    HW2 1863   3.597   3.175   0.213
  322SOL     OW 1864   3.479   3.316   6.022
  322SOL    HW1 1865   3.484   3.286   6.117
  322SOL    HW2 1866   3.566   3.296   5.976
  323SOL     OW 1867   0.572   2.886   3.647
  323SOL    HW1 1868   0.510   2.895   3.724
  323SOL    HW2 1869   0.531   2.926   3.565
  324SOL     OW 1870   2.514   6.776   3.485
  324SOL    HW1 1871   2.582   6.763   3.412
  324SOL    HW2 1872   2.431   6.726   3.463
  325SOL     OW 1873   1.511   3.602   2.673
  325SOL    HW1 1874   1.516   3.646   2.763
  325SOL    HW2 1875   1.547   3.665   2.604
  326SOL     OW 1876   1.710   4.360   6.549
  326SOL    HW1 1877   1.734   4.427   6.479
  326SOL    HW2 1878   1.628   4.310   6.522
  327SOL     OW 1879   2.488   4.647   2.547
  327SOL    HW1 1880   2.395   4.612   2.536
  327SOL    HW2 1881   2.524   4.619   2.636
  328SOL     OW 1882   1.535   3.946   1.805
  328SOL    HW1 1883   1.607   4.009   1.836
  328SOL    HW2 1884   1.535   3.942   1.706
  329SOL     OW 1885   2.885   3.822   0.775
  329SOL    HW1 1886   2.795   3.798   0.740
  329SOL    HW2 1887   2.940   3.739   0.786
  330SOL     OW 1888   3.999   5.864   6.911
  330SOL    HW1 1889   4.079   5.919   6.885
  330SOL    HW2 1890   3.946   5.842   6.829
  331SOL     OW 1891   5.422   4.975   0.905
  331SOL    HW1 1892   5.404   5.040   0.830
  331SOL    HW2 1893   5.488   4.907   0.874
  332SOL     OW 1894   5.458   1.527   4.007
  332SOL    HW1 1895   5.496   1.552   3.918
  332SOL    HW2 1896   5.362   1.556   4.012
  333SOL     OW 1897   4.438   0.951   5.194
  333SOL    HW1 1898   4.430   0.857   5.227
  333SOL    HW2 1899   4.420   1.015   5.268
  334SOL     OW 1900   3.423   2.679   1.820
  334SOL    HW1 1901   3.338   2.640   1.783
  334SOL    HW2 1902   3.501   2.623   1.792
  335SOL     OW 1903   4.272   0.366   6.513
  335SOL    HW1 1904   4.272   0.441   6.578
  335SOL    HW2 1905   4.367   0.344   6.487
  336SOL     OW 1906   3.052   1.349   2.936
  336SOL    HW1 1907   3.126   1.299   2.891
  336SOL    HW2 1908   3.044   1.440   2.894
  337SOL     OW 1909   1.877   2.257   6.066
  337SOL    HW1 1910   1.790   2.233   6.108
  337SOL    HW2 1911   1.944   2.277   6.138
  338SOL     OW 1912   4.021   3.267   0.744
  338SOL    HW1 1913   4.018   3.175   0.706
  338SOL    HW2 1914   4.102   3.315   0.711
  339SOL     OW 1915   4.366   4.777   4.318
  339SOL    HW1 1916   4.268   4.795   4.311
  339SOL    HW2 1917   4.384   4.711   4.391
  340SOL     OW 1918   5.460   3.122   5.114
  340SOL    HW1 1919   5.519   3.200   5.090
  340SOL    HW2 1920   5.374   3.156   5.152
  341SOL     OW 1921   5.963   5.841   4.762
  341SOL    HW1 1922   5.975   5.848   4.663
  341SOL    HW2 1923   5.866   5.834   4.784
  342SOL     OW 1924   4.502   3.553   0.859
  342SOL    HW1 1925   4.572   3.588   0.920
  342SOL    HW2 1926   4.434   3.501   0.911
  343SOL     OW 1927   0.207   6.309   2.701
  343SOL    HW1 1928   0.274   6.234   2.702
  343SOL    HW2 1929   0.207   6.353   2.612
  344SOL     OW 1930   0.981   1.845   2.034
  344SOL    HW1 1931   0.941   1.847   1.942
  344SOL    HW2 1932   0.911   1.868   2.102
  345SOL     OW 1933   6.693   2.137   4.134
  345SOL    HW1 1934   6.630   2.119   4.058
  345SOL    HW2 1935   6.715   2.050   4.180
  346SOL     OW 1936   1.761   6.992   2.725
  346SOL    HW1 1937   1.792   6.968   2.633
  346SOL    HW2 1938   1.674   0.022   2.719
  347SOL     OW 1939   2.769   5.856   6.761
  347SOL    HW1 1940   2.719   5.909   6.829
  347SOL    HW2 1941   2.755   5.897   6.670
  348SOL     OW 1942   4.112   5.199   2.418
  348SOL    HW1 1943   4.193   5.164   2.466
  348SOL    HW2 1944   4.081   5.131   2.353
  349SOL     OW 1945   6.587   4.120   2.504
  349SOL    HW1 1946   6.628   4.154   2.589
  349SOL    HW2 1947   6.488   4.137   2.507
  350SOL     OW 1948   3.301   2.917   0.409
  350SOL    HW1 1949   3.313   3.001   0.357
  350SOL    HW2 1950   3.272   2.843   0.348
  351SOL     OW 1951   3.218   3.609   0.385
  351SOL    HW1 1952   3.285   3.675   0.420
  351SOL    HW2 1953   3.165   3.572   0.462
  352SOL     OW 1954   4.428   6.291   3.457
  352SOL    HW1 1955   4.526   6.271   3.462
  352SOL    HW2 1956   4.376   6.218   3.502
  353SOL     OW 1957   3.235   0.268   5.855
  353SOL    HW1 1958   3.257   0.365   5.843
  353SOL    HW2 1959   3.261   0.239   5.947
  354SOL     OW 1960   5.184   2.418   0.343
  354SOL    HW1 1961   5.249   2.345   0.324
  354SOL    HW2 1962   5.190   2.488   0.272
  355SOL     OW 1963   2.011   3.193   2.433
  355SOL    HW1 1964   2.021   3.262   2.506
  355SOL    HW2 1965   2.046   3.105   2.465
  356SOL     OW 1966   2.331   0.545   4.655
  356SOL    HW1 1967   2.306   0.591   4.740
  356SOL    HW2 1968   2.252   0.543   4.593
  357SOL     OW 1969   0.426   5.774   4.225
  357SOL    HW1 1970   0.331   5.775   4.258
  357SOL    HW2 1971   0.473   5.857   4.257
  358SOL     OW 1972   4.289   6.580   1.092
  358SOL    HW1 1973   4.354   6.563   1.166
  358SOL    HW2 1974   4.198   6.596   1.130
  359SOL     OW 1975   3.406   0.714   1.522
  359SOL    HW1 1976   3.406   0.632   1.466
  359SOL    HW2 1977   3.413   0.795   1.463
  360SOL     OW 1978   1.440   4.178   4.511
  360SOL    HW1 1979   1.390   4.259   4.480
  360SOL    HW2 1980   1.514   4.206   4.573
  361SOL     OW 1981   6.029   6.477   2.733
  361SOL    HW1 1982   6.010   6.469   2.635
  361SOL    HW2 1983   6.119   6.518   2.746
  362SOL     OW 1984   3.564   4.194   0.413
  362SOL    HW1 1985   3.520   4.268   0.464
  362SOL    HW2 1986   3.579   4.116   0.473
  363SOL     OW 1987   5.757   4.676   3.121
  363SOL    HW1 1988   5.773   4.725   3.035
  363SOL    HW2 1989   5.771   4.578   3.106
  364SOL     OW 1990   0.301   4.818   6.353
  364SOL    HW1 1991   0.390   4.774   6.354
  364SOL    HW2 1992   0.250   4.793   6.435
  365SOL     OW 1993   3.802   0.849   1.050
  365SOL    HW1 1994   3.713   0.838   1.095
  365SOL    HW2 1995   3.824   0.946   1.042
  366SOL     OW 1996   5.845   2.799   6.874
  366SOL    HW1 1997   5.752   2.775   6.846
  366SOL    HW2 1998   5.857   2.782   6.972
  367SOL     OW 1999   5.993   2.488   5.974
  367SOL    HW1 2000   5.952   2.421   5.912
  367SOL    HW2 2001   6.074   2.529   5.930
  368SOL     OW 2002   6.540   2.554   5.941
  368SOL    HW1 2003   6.469   2.623   5.923
  368SOL    HW2 2004   6.630   2.597   5.937
  369SOL     OW 2005   5.981   4.342   2.861
  369SOL    HW1 2006   5.917   4.278   2.819
  369SOL    HW2 2007   6.068   4.296   2.878
  370SOL     OW 2008   1.135   1.762   4.231
  370SOL    HW1 2009   1.180   1.842   4.270
  370SOL    HW2 2010   1.039   1.761   4.258
  371SOL     OW 2011   1.773   4.523   6.770
  371SOL    HW1 2012   1.769   4.490   6.675
  371SOL    HW2 2013   1.864   4.507   6.807
  372SOL     OW 2014   1.931   6.850   5.526
  372SOL    HW1 2015   1.928   6.938   5.573
  372SOL    HW2 2016   1.853   6.795   5.553
  373SOL     OW 2017   5.225   6.876   5.626
  373SOL    HW1 2018   5.275   6.958   5.597
  373SOL    HW2 2019   5.287   6.798   5.631
  374SOL     OW 2020   2.506   2.147   2.798
  374SOL    HW1 2021   2.595   2.121   2.759
  374SOL    HW2 2022   2.449   2.066   2.807
  375SOL     OW 2023   0.962   4.719   4.958
  375SOL    HW1 2024   0.922   4.758   5.041
  375SOL    HW2 2025   0.905   4.645   4.925
  376SOL     OW 2026   1.687   1.701   5.499
  376SOL    HW1 2027   1.677   1.775   5.432
  376SOL    HW2 2028   1.704   1.740   5.589
  377SOL     OW 2029   2.018   2.473   0.006
  377SOL    HW1 2030   2.102   2.486   0.057
  377SOL    HW2 2031   1.941   2.462   0.069
  378SOL     OW 2032   3.995   1.394   6.130
  378SOL    HW1 2033   4.026   1.307   6.091
  378SOL    HW2 2034   4.058   1.422   6.203
  379SOL     OW 2035   4.736   2.912   0.174
  379SOL    HW1 2036   4.679   2.925   0.255
  379SOL    HW2 2037   4.718   2.985   0.108
  380SOL     OW 2038   2.799   1.558   1.028
  380SOL    HW1 2039   2.745   1.494   0.972
  380SOL    HW2 2040   2.801   1.647   0.983
  381SOL     OW 2041   1.547   3.872   3.953
  381SOL    HW1 2042   1.602   3.895   4.033
  381SOL    HW2 2043   1.607   3.844   3.878
  382SOL     OW 2044   5.721   0.362   6.871
  382SOL    HW1 2045   5.716   0.368   6.971
  382SOL    HW2 2046   5.741   0.452   6.833
  383SOL     OW 2047   4.502   2.787   0.999
  383SOL    HW1 2048   4.403   2.777   0.984
  383SOL    HW2 2049   4.520   2.793   1.097
  384SOL     OW 2050   0.378   4.882   4.068
  384SOL    HW1 2051   0.465   4.844   4.098
  384SOL    HW2 2052   0.391   4.976   4.037
  385SOL     OW 2053   3.535   6.088   6.144
  385SOL    HW1 2054   3.568   6.059   6.055
  385SOL    HW2 2055   3.510   6.185   6.140
  386SOL     OW 2056   3.696   0.052   4.382
  386SOL    HW1 2057   3.793   0.057   4.358
  386SOL    HW2 2058   3.673   0.128   4.444
  387SOL     OW 2059   1.241   5.798   2.223
  387SOL    HW1 2060   1.155   5.795   2.172
  387SOL    HW2 2061   1.230   5.748   2.309
  388SOL     OW 2062   2.127   1.858   6.348
  388SOL    HW1 2063   2.062   1.904   6.288
  388SOL    HW2 2064   2.169   1.924   6.410
  389SOL     OW 2065   3.639   3.254   2.371
  389SOL    HW1 2066   3.660   3.203   2.455
  389SOL    HW2 2067   3.638   3.191   2.293
  390SOL     OW 2068   3.572   0.806   3.557
  390SOL    HW1 2069   3.595   0.763   3.469
  390SOL    HW2 2070   3.646   0.789   3.622
  391SOL     OW 2071   2.019   2.766   6.451
  391SOL    HW1 2072   1.971   2.699   6.509
  391SOL    HW2 2073   1.953   2.831   6.413
  392SOL     OW 2074   1.745   4.074   0.496
  392SOL    HW1 2075   1.812   4.104   0.428
  392SOL    HW2 2076   1.756   3.976   0.513
  393SOL     OW 2077   6.889   4.578   5.312
  393SOL    HW1 2078   6.939   4.661   5.288
  393SOL    HW2 2079   6.952   4.501   5.317
  394SOL     OW 2080   0.190   0.587   6.980
  394SOL    HW1 2081   0.176   0.683   7.002
  394SOL    HW2 2082   0.102   0.543   6.962
  395SOL     OW 2083   5.310   3.816   3.121
  395SOL    HW1 2084   5.348   3.750   3.055
  395SOL    HW2 2085   5.268   3.766   3.196
  396SOL     OW 2086   3.990   3.813   2.202
  396SOL    HW1 2087   4.056   3.778   2.136
  396SOL    HW2 2088   3.996   3.913   2.206
  397SOL     OW 2089   4.019   2.529   5.673
  397SOL    HW1 2090   4.112   2.509   5.644
  397SOL    HW2 2091   3.956   2.509   5.598
  398SOL     OW 2092   0.454   6.076   2.241
  398SOL    HW1 2093   0.377   6.025   2.203
  398SOL    HW2 2094   0.479   6.150   2.179
  399SOL     OW 2095   4.651   6.235   2.831
  399SOL    HW1 2096   4.727   6.298   2.815
  399SOL    HW2 2097   4.611   6.254   2.920
  400SOL     OW 2098   6.243   0.015   5.250
  400SOL    HW1 2099   6.325   6.985   5.219
  400SOL    HW2 2100   6.267   0.081   5.320
  401SOL     OW 2101   4.512   0.937   5.681
  401SOL    HW1 2102   4.469   1.025   5.695
  401SOL    HW2 2103   4.584   0.945   5.612
  402SOL     OW 2104   5.950   6.522   3.219
  402SOL    HW1 2105   5.988   6.601   3.173
  402SOL    HW2 2106   5.880   6.479   3.161
  403SOL     OW 2107   3.778   2.348   5.335
  403SOL    HW1 2108   3.702   2.408   5.310
  403SOL    HW2 2109   3.764   2.258   5.294
  404SOL     OW 2110   1.797   6.097   3.986
  404SOL    HW1 2111   1.764   6.024   4.046
  404SOL    HW2 2112   1.846   6.058   3.909
  405SOL     OW 2113   1.617   3.445   1.803
  405SOL    HW1 2114   1.712   3.465   1.826
  405SOL    HW2 2115   1.577   3.389   1.875
  406SOL     OW 2116   0.717   3.641   3.377
  406SOL    HW1 2117   0.702   3.723   3.323
  406SOL    HW2 2118   0.630   3.595   3.394
  407SOL     OW 2119   1.876   0.484   3.914
  407SOL    HW1 2120   1.973   0.470   3.935
  407SOL    HW2 2121   1.867   0.506   3.817
  408SOL     OW 2122   1.191   1.517   3.031
  408SOL    HW1 2123   1.209   1.423   3.001
  408SOL    HW2 2124   1.276   1.569   3.026
  409SOL     OW 2125   6.069   2.879   1.613
  409SOL    HW1 2126   6.155   2.853   1.658
  409SOL    HW2 2127   5.992   2.858   1.675
  410SOL     OW 2128   2.175   0.360   6.920
  410SOL    HW1 2129   2.139   0.279   6.965
  410SOL    HW2 2130   2.251   0.335   6.860
  411SOL     OW 2131   5.846   6.783   6.804
  411SOL    HW1 2132   5.815   6.738   6.721
  411SOL    HW2 2133   5.939   6.754   6.825
  412SOL     OW 2134   4.887   6.748   3.980
  412SOL    HW1 2135   4.856   6.687   4.053
  412SOL    HW2 2136   4.873   6.704   3.891
  413SOL     OW 2137   5.415   4.610   1.641
  413SOL    HW1 2138   5.398   4.551   1.562
  413SOL    HW2 2139   5.418   4.705   1.612
  414SOL     OW 2140   3.790   5.240   4.205
  414SOL    HW1 2141   3.763   5.171   4.272
  414SOL    HW2 2142   3.744   5.221   4.118
  415SOL     OW 2143   0.840   6.088   6.848
  415SOL    HW1 2144   0.856   6.029   6.927
  415SOL    HW2 2145   0.855   6.183   6.874
  416SOL     OW 2146   5.236   5.134   4.809
  416SOL    HW1 2147   5.246   5.201   4.882
  416SOL    HW2 2148   5.207   5.046   4.848
  417SOL     OW 2149   2.426   5.572   0.831
  417SOL    HW1 2150   2.497   5.629   0.873
  417SOL    HW2 2151   2.361   5.542   0.901
  418SOL     OW 2152   4.339   6.137   1.662
  418SOL    HW1 2153   4.312   6.043   1.640
  418SOL    HW2 2154   4.284   6.201   1.607
  419SOL     OW 2155   1.735   0.420   1.543
  419SOL    HW1 2156   1.739   0.399   1.640
  419SOL    HW2 2157   1.683   0.505   1.529
  420SOL     OW 2158   6.333   2.943   1.174
  420SOL    HW1 2159   6.304   2.990   1.257
  420SOL    HW2 2160   6.275   2.863   1.159
  421SOL     OW 2161   6.795   4.417   5.821
  421SOL    HW1 2162   6.703   4.440   5.854
  421SOL    HW2 2163   6.832   4.493   5.769
  422SOL     OW 2164   5.828   4.605   0.342
  422SOL    HW1 2165   5.894   4.642   0.409
  422SOL    HW2 2166   5.873   4.534   0.288
  423SOL     OW 2167   0.736   2.919   0.204
  423SOL    HW1 2168   0.725   2.995   0.140
  423SOL    HW2 2169   0.741   2.833   0.154
  424SOL     OW 2170   2.933   3.488   1.303
  424SOL    HW1 2171   2.960   3.476   1.399
  424SOL    HW2 2172   2.881   3.572   1.293
  425SOL     OW 2173   6.465   0.951   2.312
  425SOL    HW1 2174   6.447   1.013   2.388
  425SOL    HW2 2175   6.557   0.968   2.277
  426SOL     OW 2176   5.000   2.538   4.225
  426SOL    HW1 2177   5.039   2.456   4.183
  426SOL    HW2 2178   5.006   2.615   4.161
  427SOL     OW 2179   5.451   4.897   2.704
  427SOL    HW1 2180   5.424   4.808   2.666
  427SOL    HW2 2181   5.491   4.954   2.632
  428SOL     OW 2182   4.446   0.136   4.747
  428SOL    HW1 2183   4.494   0.059   4.706
  428SOL    HW2 2184   4.504   0.178   4.816
  429SOL     OW 2185   2.430   4.055   1.254
  429SOL    HW1 2186   2.443   4.150   1.225
  429SOL    HW2 2187   2.458   3.994   1.180
  430SOL     OW 2188   0.339   0.211   3.987
  430SOL    HW1 2189   0.379   0.269   4.059
  430SOL    HW2 2190   0.371   0.117   3.999
  431SOL     OW 2191   3.417   0.291   0.641
  431SOL    HW1 2192   3.357   0.326   0.713
  431SOL    HW2 2193   3.496   0.245   0.682
  432SOL     OW 2194   6.156   1.990   2.080
  432SOL    HW1 2195   6.069   2.015   2.039
  432SOL    HW2 2196   6.166   2.036   2.168
  433SOL     OW 2197   3.393   6.289   4.973
  433SOL    HW1 2198   3.346   6.231   4.906
  433SOL    HW2 2199   3.465   6.341   4.927
  434SOL     OW 2200   3.845   5.511   1.994
  434SOL    HW1 2201   3.888   5.481   2.079
  434SOL    HW2 2202   3.869   5.448   1.920
  435SOL     OW 2203   3.973   2.010   5.271
  435SOL    HW1 2204   3.877   2.021   5.247
  435SOL    HW2 2205   3.988   2.041   5.365
  436SOL     OW 2206   2.943   5.886   0.912
  436SOL    HW1 2207   2.991   5.800   0.925
  436SOL    HW2 2208   2.949   5.941   0.995
  437SOL     OW 2209   0.926   6.776   6.915
  437SOL    HW1 2210   1.020   6.768   6.882
  437SOL    HW2 2211   0.865   6.796   6.839
  438SOL     OW 2212   2.206   3.024   2.215
  438SOL    HW1 2213   2.255   3.105   2.247
  438SOL    HW2 2214   2.212   2.952   2.283
  439SOL     OW 2215   6.032   4.709   3.245
  439SOL    HW1 2216   5.937   4.701   3.213
  439SOL    HW2 2217   6.037   4.685   3.342
  440SOL     OW 2218   1.309   1.383   5.159
  440SOL    HW1 2219   1.283   1.467   5.207
  440SOL    HW2 2220   1.393   1.398   5.108
  441SOL     OW 2221   1.092   2.452   3.922
  441SOL    HW1 2222   1.175   2.426   3.873
  441SOL    HW2 2223   1.046   2.526   3.873
  442SOL     OW 2224   2.716   5.085   6.853
  442SOL    HW1 2225   2.794   5.037   6.892
  442SOL    HW2 2226   2.693   5.163   6.911
  443SOL     OW 2227   0.573   4.133   4.315
  443SOL    HW1 2228   0.479   4.163   4.299
  443SOL    HW2 2229   0.631   4.212   4.333
  444SOL     OW 2230   5.161   2.026   5.906
  444SOL    HW1 2231   5.083   2.081   5.876
  444SOL    HW2 2232   5.207   2.070   5.982
  445SOL     OW 2233   1.494   5.652   3.377
  445SOL    HW1 2234   1.502   5.669   3.475
  445SOL    HW2 2235   1.407   5.688   3.344
  446SOL     OW 2236   3.804   4.854   4.092
  446SOL    HW1 2237   3.846   4.764   4.092
  446SOL    HW2 2238   3.826   4.902   4.007
  447SOL     OW 2239   0.769   2.696   0.060
  447SOL    HW1 2240   0.859   2.702   0.016
  447SOL    HW2 2241   0.697   2.696   7.010
  448SOL     OW 2242   2.958   0.721   4.407
  448SOL    HW1 2243   2.960   0.810   4.452
  448SOL    HW2 2244   2.865   0.700   4.378
  449SOL     OW 2245   4.513   0.577   4.772
  449SOL    HW1 2246   4.526   0.672   4.802
  449SOL    HW2 2247   4.422   0.566   4.733
  450SOL     OW 2248   1.453   5.787   3.988
  450SOL    HW1 2249   1.491   5.701   4.021
  450SOL    HW2 2250   1.508   5.822   3.913
  451SOL     OW 2251   2.076   1.975   3.615
  451SOL    HW1 2252   2.167   1.976   3.573
  451SOL    HW2 2253   2.069   1.897   3.677
  452SOL     OW 2254   6.401   6.346   1.620
  452SOL    HW1 2255   6.377   6.279   1.690
  452SOL    HW2 2256   6.499   6.366   1.625
  453SOL     OW 2257   3.463   0.523   4.667
  453SOL    HW1 2258   3.535   0.537   4.734
  453SOL    HW2 2259   3.500   0.533   4.574
  454SOL     OW 2260   6.845   4.684   6.028
  454SOL    HW1 2261   6.924   4.711   6.083
  454SOL    HW2 2262   6.877   4.640   5.944
  455SOL     OW 2263   6.508   2.426   2.914
  455SOL    HW1 2264   6.450   2.374   2.977
  455SOL    HW2 2265   6.497   2.524   2.931
  456SOL     OW 2266   5.518   5.812   4.616
  456SOL    HW1 2267   5.530   5.868   4.698
  456SOL    HW2 2268   5.522   5.715   4.641
  457SOL     OW 2269   2.110   3.611   3.821
  457SOL    HW1 2270   2.062   3.555   3.753
  457SOL    HW2 2271   2.097   3.708   3.799
  458SOL     OW 2272   4.140   5.269   3.947
  458SOL    HW1 2273   4.104   5.219   4.026
  458SOL    HW2 2274   4.219   5.220   3.910
  459SOL     OW 2275   1.915   6.780   4.689
  459SOL    HW1 2276   1.945   6.772   4.784
  459SOL    HW2 2277   1.855   6.704   4.666
  460SOL     OW 2278   1.643   0.190   3.587
  460SOL    HW1 2279   1.671   0.269   3.532
  460SOL    HW2 2280   1.556   0.209   3.632
  461SOL     OW 2281   6.017   6.799   5.623
  461SOL    HW1 2282   6.054   6.841   5.540
  461SOL    HW2 2283   5.934   6.848   5.651
  462SOL     OW 2284   3.749   2.733   6.343
  462SOL    HW1 2285   3.651   2.724   6.363
  462SOL    HW2 2286   3.779   2.655   6.289
  463SOL     OW 2287   6.474   5.197   3.456
  463SOL    HW1 2288   6.572   5.175   3.463
  463SOL    HW2 2289   6.454   5.274   3.516
  464SOL     OW 2290   2.558   2.758   6.158
  464SOL    HW1 2291   2.559   2.681   6.095
  464SOL    HW2 2292   2.581   2.727   6.250
  465SOL     OW 2293   0.945   2.596   4.627
  465SOL    HW1 2294   0.998   2.516   4.655
  465SOL    HW2 2295   0.951   2.666   4.697
  466SOL     OW 2296   1.564   5.336   2.838
  466SOL    HW1 2297   1.664   5.334   2.837
  466SOL    HW2 2298   1.530   5.259   2.892
  467SOL     OW 2299   1.473   1.296   0.246
  467SOL    HW1 2300   1.459   1.316   0.342
  467SOL    HW2 2301   1.485   1.197   0.234
  468SOL     OW 2302   3.399   6.288   6.981
  468SOL    HW1 2303   3.365   6.378   6.953
  468SOL    HW2 2304   3.449   6.297   0.048
  469SOL     OW 2305   3.078   4.637   0.226
  469SOL    HW1 2306   3.026   4.688   0.294
  469SOL    HW2 2307   3.082   4.690   0.141
  470SOL     OW 2308   4.456   0.228   2.346
  470SOL    HW1 2309   4.420   0.201   2.435
  470SOL    HW2 2310   4.386   0.277   2.295
  471SOL     OW 2311   1.934   2.253   3.858
  471SOL    HW1 2312   2.005   2.214   3.916
  471SOL    HW2 2313   1.972   2.273   3.768
  472SOL     OW 2314   4.961   3.748   6.423
  472SOL    HW1 2315   4.906   3.700   6.492
  472SOL    HW2 2316   5.056   3.753   6.453
  473SOL     OW 2317   1.024   3.225   2.332
  473SOL    HW1 2318   1.035   3.175   2.246
  473SOL    HW2 2319   0.954   3.181   2.388
  474SOL     OW 2320   5.129   5.231   4.348
  474SOL    HW1 2321   5.048   5.181   4.379
  474SOL    HW2 2322   5.120   5.250   4.250
  475SOL     OW 2323   5.684   0.652   6.607
  475SOL    HW1 2324   5.701   0.747   6.581
  475SOL    HW2 2325   5.671   0.646   6.706
  476SOL     OW 2326   6.650   4.009   3.113
  476SOL    HW1 2327   6.553   4.003   3.136
  476SOL    HW2 2328   6.679   4.105   3.116
  477SOL     OW 2329   1.375   4.496   4.205
  477SOL    HW1 2330   1.357   4.516   4.302
  477SOL    HW2 2331   1.474   4.491   4.191
  478SOL     OW 2332   3.180   0.078   2.098
  478SOL    HW1 2333   3.252   0.048   2.160
  478SOL    HW2 2334   3.167   0.010   2.025
  479SOL     OW 2335   4.253   2.111   6.554
  479SOL    HW1 2336   4.179   2.164   6.596
  479SOL    HW2 2337   4.255   2.128   6.455
  480SOL     OW 2338   2.065   1.281   0.186
  480SOL    HW1 2339   1.998   1.352   0.164
  480SOL    HW2 2340   2.051   1.202   0.127
  481SOL     OW 2341   1.519   0.430   0.788
  481SOL    HW1 2342   1.560   0.378   0.713
  481SOL    HW2 2343   1.421   0.412   0.792
  482SOL     OW 2344   4.500   4.759   3.395
  482SOL    HW1 2345   4.542   4.817   3.325
  482SOL    HW2 2346   4.456   4.817   3.463
  483SOL     OW 2347   6.846   1.550   1.988
  483SOL    HW1 2348   6.770   1.486   1.976
  483SOL    HW2 2349   6.828   1.607   2.068
  484SOL     OW 2350   1.207   2.965   4.921
  484SOL    HW1 2351   1.231   2.898   4.851
  484SOL    HW2 2352   1.215   2.923   5.012
  485SOL     OW 2353   3.851   5.451   2.702
  485SOL    HW1 2354   3.867   5.354   2.722
  485SOL    HW2 2355   3.936   5.502   2.714
  486SOL     OW 2356   6.748   2.188   0.845
  486SOL    HW1 2357   6.671   2.159   0.901
  486SOL    HW2 2358   6.747   2.140   0.757
  487SOL     OW 2359   1.137   1.964   1.380
  487SOL    HW1 2360   1.193   1.908   1.319
  487SOL    HW2 2361   1.047   1.921   1.390
  488SOL     OW 2362   0.419   1.820   2.080
  488SOL    HW1 2363   0.433   1.721   2.081
  488SOL    HW2 2364   0.460   1.858   1.997
  489SOL     OW 2365   3.019   6.347   6.410
  489SOL    HW1 2366   2.927   6.370   6.379
  489SOL    HW2 2367   3.073   6.312   6.334
  490SOL     OW 2368   6.865   5.809   3.370
  490SOL    HW1 2369   6.770   5.838   3.380
  490SOL    HW2 2370   6.901   5.843   3.283
  491SOL     OW 2371   0.270   3.097   2.509
  491SOL    HW1 2372   0.176   3.091   2.477
  491SOL    HW2 2373   0.272   3.085   2.608
  492SOL     OW 2374   2.516   0.368   5.513
  492SOL    HW1 2375   2.547   0.341   5.422
  492SOL    HW2 2376   2.484   0.463   5.512
  493SOL     OW 2377   5.189   6.456   5.599
  493SOL    HW1 2378   5.242   6.540   5.586
  493SOL    HW2 2379   5.095   6.472   5.570
  494SOL     OW 2380   6.732   1.088   6.677
  494SOL    HW1 2381   6.808   1.033   6.640
  494SOL    HW2 2382   6.695   1.146   6.605
  495SOL     OW 2383   5.289   5.766   3.798
  495SOL    HW1 2384   5.232   5.696   3.754
  495SOL    HW2 2385   5.274   5.854   3.754
  496SOL     OW 2386   5.395   3.338   2.034
  496SOL    HW1 2387   5.298   3.315   2.035
  496SOL    HW2 2388   5.406   3.438   2.040
  497SOL     OW 2389   3.378   1.041   4.550
  497SOL    HW1 2390   3.389   0.963   4.611
  497SOL    HW2 2391   3.364   1.124   4.604
  498SOL     OW 2392   2.043   3.938   1.626
  498SOL    HW1 2393   1.971   4.002   1.599
  498SOL    HW2 2394   2.088   3.901   1.544
  499SOL     OW 2395   2.956   0.261   4.109
  499SOL    HW1 2396   2.955   0.324   4.032
  499SOL    HW2 2397   3.038   0.276   4.164
  500SOL     OW 2398   0.777   3.728   3.952
  500SOL    HW1 2399   0.735   3.729   4.042
  500SOL    HW2 2400   0.724   3.787   3.890
  501SOL     OW 2401   2.606   6.199   0.162
  501SOL    HW1 2402   2.519   6.162   0.195
  501SOL    HW2 2403   2.595   6.296   0.139
  502SOL     OW 2404   6.669   3.922   0.012
  502SOL    HW1 2405   6.638   3.963   6.946
  502SOL    HW2 2406   6.622   3.836   0.028
  503SOL     OW 2407   6.085   5.749   6.138
  503SOL    HW1 2408   6.154   5.819   6.157
  503SOL    HW2 2409   5.994   5.784   6.160
  504SOL     OW 2410   2.013   5.545   2.918
  504SOL    HW1 2411   2.021   5.617   2.850
  504SOL    HW2 2412   2.086   5.477   2.905
  505SOL     OW 2413   3.610   6.390   4.851
  505SOL    HW1 2414   3.690   6.343   4.812
  505SOL    HW2 2415   3.562   6.439   4.779
  506SOL     OW 2416   1.604   5.316   5.072
  506SOL    HW1 2417   1.567   5.257   5.144
  506SOL    HW2 2418   1.656   5.260   5.007
  507SOL     OW 2419   3.758   0.182   3.073
  507SOL    HW1 2420   3.840   0.207   3.022
  507SOL    HW2 2421   3.747   0.082   3.072
  508SOL     OW 2422   6.700   3.955   2.290
  508SOL    HW1 2423   6.631   4.027   2.303
  508SOL    HW2 2424   6.697   3.893   2.368
  509SOL     OW 2425   3.559   1.133   1.736
  509SOL    HW1 2426   3.627   1.064   1.761
  509SOL    HW2 2427   3.578   1.218   1.786
  510SOL     OW 2428   6.315   5.017   0.222
  510SOL    HW1 2429   6.334   4.929   0.180
  510SOL    HW2 2430   6.219   5.042   0.206
  511SOL     OW 2431   0.664   1.373   5.953
  511SOL    HW1 2432   0.662   1.274   5.970
  511SOL    HW2 2433   0.626   1.421   6.032
  512SOL     OW 2434   6.937   2.888   6.853
  512SOL    HW1 2435   6.975   2.891   6.945
  512SOL    HW2 2436   6.837   2.893   6.858
  513SOL     OW 2437   6.310   6.178   2.979
  513SOL    HW1 2438   6.384   6.230   3.022
  513SOL    HW2 2439   6.241   6.242   2.945
  514SOL     OW 2440   6.708   2.652   4.121
  514SOL    HW1 2441   6.757   2.727   4.165
  514SOL    HW2 2442   6.750   2.565   4.147
  515SOL     OW 2443   1.756   0.757   6.425
  515SOL    HW1 2444   1.762   0.855   6.409
  515SOL    HW2 2445   1.733   0.710   6.340
  516SOL     OW 2446   2.666   4.710   1.665
  516SOL    HW1 2447   2.584   4.653   1.652
  516SOL    HW2 2448   2.697   4.700   1.759
  517SOL     OW 2449   4.777   5.466   2.394
  517SOL    HW1 2450   4.757   5.401   2.321
  517SOL    HW2 2451   4.786   5.417   2.481
  518SOL     OW 2452   2.012   1.996   2.715
  518SOL    HW1 2453   2.081   1.934   2.678
  518SOL    HW2 2454   2.010   2.080   2.661
  519SOL     OW 2455   0.960   0.775   4.322
  519SOL    HW1 2456   0.904   0.704   4.279
  519SOL    HW2 2457   1.039   0.796   4.265
  520SOL     OW 2458   6.182   4.732   0.197
  520SOL    HW1 2459   6.137   4.783   0.270
  520SOL    HW2 2460   6.252   4.673   0.236
  521SOL     OW 2461   6.946   3.747   6.068
  521SOL    HW1 2462   6.974   3.711   5.980
  521SOL    HW2 2463   6.956   3.677   6.138
  522SOL     OW 2464   3.499   3.521   5.201
  522SOL    HW1 2465   3.596   3.524   5.225
  522SOL    HW2 2466   3.471   3.610   5.165
  523SOL     OW 2467   0.921   4.844   1.295
  523SOL    HW1 2468   1.018   4.847   1.320
  523SOL    HW2 2469   0.874   4.775   1.350
  524SOL     OW 2470   0.658   1.604   0.630
  524SOL    HW1 2471   0.617   1.545   0.700
  524SOL    HW2 2472   0.632   1.571   0.539
  525SOL     OW 2473   1.746   3.557   6.524
  525SOL    HW1 2474   1.795   3.519   6.445
  525SOL    HW2 2475   1.660   3.597   6.495
  526SOL     OW 2476   4.327   6.354   4.276
  526SOL    HW1 2477   4.351   6.260   4.253
  526SOL    HW2 2478   4.401   6.415   4.249
  527SOL     OW 2479   6.939   3.286   6.917
  527SOL    HW1 2480   6.922   3.311   7.013
  527SOL    HW2 2481   0.015   3.304   6.894
  528SOL     OW 2482   1.221   1.450   3.567
  528SOL    HW1 2483   1.249   1.357   3.591
  528SOL    HW2 2484   1.256   1.514   3.634
  529SOL     OW 2485   0.968   6.643   4.346
  529SOL    HW1 2486   0.932   6.560   4.389
  529SOL    HW2 2487   1.064   6.655   4.371
  530SOL     OW 2488   2.966   3.169   4.822
  530SOL    HW1 2489   3.051   3.124   4.794
  530SOL    HW2 2490   2.891   3.103   4.817
  531SOL     OW 2491   0.326   0.151   2.837
  531SOL    HW1 2492   0.320   0.245   2.871
  531SOL    HW2 2493   0.277   0.144   2.750
  532SOL     OW 2494   1.289   2.422   6.983
  532SOL    HW1 2495   1.364   2.376   0.009
  532SOL    HW2 2496   1.204   2.404   0.012
  533SOL     OW 2497   4.862   6.887   3.666
  533SOL    HW1 2498   4.960   6.903   3.678
  533SOL    HW2 2499   4.847   6.789   3.648
  534SOL     OW 2500   4.854   5.859   3.122
  534SOL    HW1 2501   4.800   5.788   3.076
  534SOL    HW2 2502   4.948   5.857   3.088
  535SOL     OW 2503   0.740   3.823   4.466
  535SOL    HW1 2504   0.773   3.768   4.543
  535SOL    HW2 2505   0.658   3.873   4.494
  536SOL     OW 2506   0.203   4.877   1.858
  536SOL    HW1 2507   0.136   4.870   1.785
  536SOL    HW2 2508   0.161   4.853   1.945
  537SOL     OW 2509   1.769   6.580   3.751
  537SOL    HW1 2510   1.822   6.501   3.782
  537SOL    HW2 2511   1.816   6.664   3.779
  538SOL     OW 2512   1.223   3.969   2.523
  538SOL    HW1 2513   1.238   4.064   2.495
  538SOL    HW2 2514   1.208   3.912   2.443
  539SOL     OW 2515   0.919   6.423   0.232
  539SOL    HW1 2516   1.006   6.398   0.189
  539SOL    HW2 2517   0.902   6.363   0.311
  540SOL     OW 2518   0.625   0.869   2.331
  540SOL    HW1 2519   0.577   0.832   2.252
  540SOL    HW2 2520   0.615   0.968   2.332
  541SOL     OW 2521   3.671   6.252   4.285
  541SOL    HW1 2522   3.701   6.186   4.354
  541SOL    HW2 2523   3.663   6.342   4.327
  542SOL     OW 2524   6.465   0.116   0.124
  542SOL    HW1 2525   6.517   0.150   0.202
  542SOL    HW2 2526   6.409   0.038   0.152
  543SOL     OW 2527   1.648   4.468   5.617
  543SOL    HW1 2528   1.676   4.491   5.524
  543SOL    HW2 2529   1.719   4.497   5.682
  544SOL     OW 2530   1.976   3.983   1.117
  544SOL    HW1 2531   1.905   3.912   1.116
  544SOL    HW2 2532   1.948   4.057   1.178
  545SOL     OW 2533   3.024   0.186   3.130
  545SOL    HW1 2534   3.046   0.090   3.112
  545SOL    HW2 2535   3.043   0.207   3.226
  546SOL     OW 2536   1.498   2.866   0.431
  546SOL    HW1 2537   1.542   2.906   0.511
  546SOL    HW2 2538   1.508   2.767   0.433
  547SOL     OW 2539   2.836   1.389   7.018
  547SOL    HW1 2540   2.892   1.324   6.966
  547SOL    HW2 2541   2.771   1.339   0.055
  548SOL     OW 2542   3.741   3.040   2.191
  548SOL    HW1 2543   3.839   3.029   2.206
  548SOL    HW2 2544   3.691   2.997   2.265
  549SOL     OW 2545   4.706   3.281   1.111
  549SOL    HW1 2546   4.716   3.292   1.210
  549SOL    HW2 2547   4.665   3.191   1.092
  550SOL     OW 2548   6.077   4.618   3.500
  550SOL    HW1 2549   6.152   4.558   3.526
  550SOL    HW2 2550   6.021   4.640   3.580
  551SOL     OW 2551   1.040   0.957   1.519
  551SOL    HW1 2552   0.941   0.956   1.536
  551SOL    HW2 2553   1.065   0.879   1.462
  552SOL     OW 2554   4.334   4.948   0.386
  552SOL    HW1 2555   4.395   4.989   0.319
  552SOL    HW2 2556   4.332   5.005   0.468
  553SOL     OW 2557   2.288   6.607   1.888
  553SOL    HW1 2558   2.296   6.527   1.828
  553SOL    HW2 2559   2.210   6.662   1.859
  554SOL     OW 2560   5.842   6.135   5.629
  554SOL    HW1 2561   5.888   6.088   5.554
  554SOL    HW2 2562   5.869   6.094   5.716
  555SOL     OW 2563   2.241   5.372   2.829
  555SOL    HW1 2564   2.280   5.399   2.741
  555SOL    HW2 2565   2.299   5.303   2.872
  556SOL     OW 2566   5.672   2.442   3.700
  556SOL    HW1 2567   5.754   2.452   3.756
  556SOL    HW2 2568   5.607   2.514   3.724
  557SOL     OW 2569   0.265   4.919   0.158
  557SOL    HW1 2570   0.241   4.851   0.227
  557SOL    HW2 2571   0.260   4.878   0.067
  558SOL     OW 2572   3.059   4.011   4.812
  558SOL    HW1 2573   3.109   3.992   4.896
  558SOL    HW2 2574   2.980   4.068   4.833
  559SOL     OW 2575   6.321   5.886   6.170
  559SOL    HW1 2576   6.354   5.869   6.077
  559SOL    HW2 2577   6.374   5.831   6.235
  560SOL     OW 2578   4.123   6.037   0.194
  560SOL    HW1 2579   4.028   6.015   0.171
  560SOL    HW2 2580   4.150   6.122   0.148
  561SOL     OW 2581   5.996   0.777   0.296
  561SOL    HW1 2582   6.013   0.812   0.388
  561SOL    HW2 2583   6.071   0.802   0.236
  562SOL     OW 2584   4.488   1.048   6.042
  562SOL    HW1 2585   4.493   1.034   5.943
  562SOL    HW2 2586   4.405   1.005   6.077
  563SOL     OW 2587   2.289   6.900   3.145
  563SOL    HW1 2588   2.258   6.974   3.086
  563SOL    HW2 2589   2.306   6.818   3.091
  564SOL     OW 2590   2.731   1.705   6.276
  564SOL    HW1 2591   2.703   1.726   6.370
  564SOL    HW2 2592   2.804   1.637   6.277
  565SOL     OW 2593   3.841   3.697   5.449
  565SOL    HW1 2594   3.889   3.664   5.367
  565SOL    HW2 2595   3.866   3.793   5.465
  566SOL     OW 2596   6.275   4.093   4.110
  566SOL    HW1 2597   6.215   4.151   4.165
  566SOL    HW2 2598   6.224   4.060   4.030
  567SOL     OW 2599   3.729   4.079   2.959
  567SOL    HW1 2600   3.810   4.134   2.940
  567SOL    HW2 2601   3.661   4.094   2.886
  568SOL     OW 2602   3.402   2.422   7.016
  568SOL    HW1 2603   3.371   2.503   6.967
  568SOL    HW2 2604   3.336   2.401   0.070
  569SOL     OW 2605   1.386   3.584   0.512
  569SOL    HW1 2606   1.305   3.534   0.482
  569SOL    HW2 2607   1.419   3.643   0.438
  570SOL     OW 2608   2.191   6.768   6.489
  570SOL    HW1 2609   2.289   6.748   6.501
  570SOL    HW2 2610   2.147   6.774   6.578
  571SOL     OW 2611   3.283   6.956   3.112
  571SOL    HW1 2612   3.357   6.931   3.049
  571SOL    HW2 2613   3.314   0.010   3.172
  572SOL     OW 2614   2.137   4.596   5.704
  572SOL    HW1 2615   2.151   4.598   5.605
  572SOL    HW2 2616   2.088   4.679   5.732
  573SOL     OW 2617   4.358   1.447   5.290
  573SOL    HW1 2618   4.448   1.487   5.304
  573SOL    HW2 2619   4.312   1.437   5.378
  574SOL     OW 2620   2.641   2.157   3.496
  574SOL    HW1 2621   2.729   2.149   3.541
  574SOL    HW2 2622   2.626   2.079   3.436
  575SOL     OW 2623   6.630   3.417   6.298
  575SOL    HW1 2624   6.662   3.339   6.244
  575SOL    HW2 2625   6.539   3.398   6.334
  576SOL     OW 2626   1.061   2.281   1.760
  576SOL    HW1 2627   1.136   2.235   1.808
  576SOL    HW2 2628   1.006   2.213   1.711
  577SOL     OW 2629   1.796   1.193   3.212
  577SOL    HW1 2630   1.843   1.281   3.221
  577SOL    HW2 2631   1.799   1.163   3.116
  578SOL     OW 2632   6.538   4.244   3.452
  578SOL    HW1 2633   6.542   4.147   3.475
  578SOL    HW2 2634   6.526   4.297   3.536
  579SOL     OW 2635   2.738   2.654   0.638
  579SOL    HW1 2636   2.831   2.689   0.649
  579SOL    HW2 2637   2.687   2.714   0.576
  580SOL     OW 2638   0.486   4.616   6.797
  580SOL    HW1 2639   0.546   4.545   6.834
  580SOL    HW2 2640   0.542   4.689   6.756
  581SOL     OW 2641   3.328   3.492   2.584
  581SOL    HW1 2642   3.235   3.481   2.619
  581SOL    HW2 2643   3.345   3.424   2.513
  582SOL     OW 2644   5.642   5.264   2.700
  582SOL    HW1 2645   5.634   5.176   2.653
  582SOL    HW2 2646   5.738   5.282   2.722
  583SOL     OW 2647   2.189   5.448   6.373
  583SOL    HW1 2648   2.121   5.395   6.424
  583SOL    HW2 2649   2.268   5.465   6.433
  584SOL     OW 2650   1.218   4.892   5.939
  584SOL    HW1 2651   1.244   4.830   5.864
  584SOL    HW2 2652   1.175   4.973   5.900
  585SOL     OW 2653   6.289   2.977   6.104
  585SOL    HW1 2654   6.270   3.056   6.047
  585SOL    HW2 2655   6.204   2.929   6.125
  586SOL     OW 2656   3.131   0.771   6.299
  586SOL    HW1 2657   3.144   0.786   6.397
  586SOL    HW2 2658   3.156   0.677   6.276
  587SOL     OW 2659   2.734   2.378   5.075
  587SOL    HW1 2660   2.785   2.337   5.000
  587SOL    HW2 2661   2.664   2.439   5.039
  588SOL     OW 2662   2.371   5.231   0.599
  588SOL    HW1 2663   2.394   5.226   0.502
  588SOL    HW2 2664   2.446   5.275   0.649
  589SOL     OW 2665   3.938   5.298   1.831
  589SOL    HW1 2666   3.888   5.314   1.745
  589SOL    HW2 2667   4.035   5.289   1.811
  590SOL     OW 2668   5.469   3.117   1.170
  590SOL    HW1 2669   5.515   3.190   1.120
  590SOL    HW2 2670   5.370   3.130   1.164
  591SOL     OW 2671   4.217   6.254   3.856
  591SOL    HW1 2672   4.131   6.304   3.865
  591SOL    HW2 2673   4.226   6.190   3.932
  592SOL     OW 2674   4.252   6.996   1.157
  592SOL    HW1 2675   4.298   6.984   1.069
  592SOL    HW2 2676   4.302   6.945   1.227
  593SOL     OW 2677   4.618   2.155   3.370
  593SOL    HW1 2678   4.663   2.066   3.371
  593SOL    HW2 2679   4.629   2.200   3.459
  594SOL     OW 2680   4.710   2.257   6.072
  594SOL    HW1 2681   4.613   2.267   6.095
  594SOL    HW2 2682   4.750   2.348   6.062
  595SOL     OW 2683   5.352   6.677   3.806
  595SOL    HW1 2684   5.415   6.684   3.883
  595SOL    HW2 2685   5.399   6.699   3.721
  596SOL     OW 2686   1.041   3.625   1.887
  596SOL    HW1 2687   1.103   3.703   1.897
  596SOL    HW2 2688   1.040   3.572   1.972
  597SOL     OW 2689   4.888   0.134   5.525
  597SOL    HW1 2690   4.827   0.102   5.452
  597SOL    HW2 2691   4.856   0.222   5.559
  598SOL     OW 2692   3.459   4.246   6.641
  598SOL    HW1 2693   3.526   4.320   6.631
  598SOL    HW2 2694   3.429   4.217   6.551
  599SOL     OW 2695   1.404   6.642   2.980
  599SOL    HW1 2696   1.473   6.693   3.032
  599SOL    HW2 2697   1.441   6.619   2.889
  600SOL     OW 2698   1.222   1.079   1.188
  600SOL    HW1 2699   1.314   1.117   1.194
  600SOL    HW2 2700   1.187   1.062   1.280
  601SOL     OW 2701   3.081   6.246   4.326
  601SOL    HW1 2702   3.028   6.277   4.247
  601SOL    HW2 2703   3.153   6.184   4.296
  602SOL     OW 2704   0.957   2.320   6.956
  602SOL    HW1 2705   0.992   2.241   6.905
  602SOL    HW2 2706   0.928   2.290   0.027
  603SOL     OW 2707   4.201   2.067   3.771
  603SOL    HW1 2708   4.268   1.997   3.744
  603SOL    HW2 2709   4.175   2.053   3.867
  604SOL     OW 2710   0.430   3.854   1.275
  604SOL    HW1 2711   0.428   3.805   1.362
  604SOL    HW2 2712   0.481   3.802   1.207
  605SOL     OW 2713   6.589   5.173   2.810
  605SOL    HW1 2714   6.648   5.251   2.830
  605SOL    HW2 2715   6.495   5.205   2.797
  606SOL     OW 2716   5.156   0.363   5.394
  606SOL    HW1 2717   5.172   0.311   5.478
  606SOL    HW2 2718   5.087   0.434   5.410
  607SOL     OW 2719   5.600   0.691   5.446
  607SOL    HW1 2720   5.666   0.756   5.485
  607SOL    HW2 2721   5.530   0.742   5.395
  608SOL     OW 2722   3.989   6.390   0.275
  608SOL    HW1 2723   4.063   6.402   0.209
  608SOL    HW2 2724   3.904   6.426   0.237
  609SOL     OW 2725   3.325   3.534   3.883
  609SOL    HW1 2726   3.342   3.449   3.834
  609SOL    HW2 2727   3.230   3.535   3.915
  610SOL     OW 2728   5.424   2.113   2.825
  610SOL    HW1 2729   5.406   2.018   2.851
  610SOL    HW2 2730   5.380   2.174   2.891
  611SOL     OW 2731   1.018   0.493   6.372
  611SOL    HW1 2732   1.063   0.567   6.423
  611SOL    HW2 2733   1.073   0.410   6.380
  612SOL     OW 2734   3.925   5.542   5.560
  612SOL    HW1 2735   3.953   5.579   5.472
  612SOL    HW2 2736   3.987   5.469   5.588
  613SOL     OW 2737   4.747   6.922   4.901
  613SOL    HW1 2738   4.702   6.874   4.976
  613SOL    HW2 2739   4.824   6.866   4.867
  614SOL     OW 2740   6.014   4.427   1.151
  614SOL    HW1 2741   5.959   4.345   1.141
  614SOL    HW2 2742   6.078   4.434   1.073
  615SOL     OW 2743   0.704   1.524   1.432
  615SOL    HW1 2744   0.663   1.554   1.346
  615SOL    HW2 2745   0.639   1.535   1.507
  616SOL     OW 2746   6.029   1.625   3.127
  616SOL    HW1 2747   6.087   1.706   3.138
  616SOL    HW2 2748   6.012   1.609   3.030
  617SOL     OW 2749   0.196   3.788   6.942
  617SOL    HW1 2750   0.113   3.827   6.901
  617SOL    HW2 2751   0.178   3.765   0.018
  618SOL     OW 2752   6.546   3.397   0.770
  618SOL    HW1 2753   6.593   3.325   0.721
  618SOL    HW2 2754   6.477   3.357   0.830
  619SOL     OW 2755   3.973   0.281   6.589
  619SOL    HW1 2756   3.943   0.225   6.512
  619SOL    HW2 2757   4.040   0.230   6.643
  620SOL     OW 2758   5.823   2.785   0.868
  620SOL    HW1 2759   5.906   2.817   0.914
  620SOL    HW2 2760   5.745   2.792   0.931
  621SOL     OW 2761   1.724   0.286   5.194
  621SOL    HW1 2762   1.660   0.297   5.270
  621SOL    HW2 2763   1.787   0.364   5.191
  622SOL     OW 2764   0.443   1.764   5.181
  622SOL    HW1 2765   0.345   1.781   5.187
  622SOL    HW2 2766   0.467   1.738   5.087
  623SOL     OW 2767   0.668   6.917   5.066
  623SOL    HW1 2768   0.627   6.826   5.057
  623SOL    HW2 2769   0.722   6.938   4.985
  624SOL     OW 2770   6.464   1.026   0.056
  624SOL    HW1 2771   6.501   1.085   7.003
  624SOL    HW2 2772   6.509   0.937   0.052
  625SOL     OW 2773   1.694   1.941   0.706
  625SOL    HW1 2774   1.726   2.034   0.725
  625SOL    HW2 2775   1.705   1.922   0.608
  626SOL     OW 2776   0.914   5.685   2.547
  626SOL    HW1 2777   0.833   5.627   2.555
  626SOL    HW2 2778   0.985   5.636   2.497
  627SOL     OW 2779   6.341   6.467   0.489
  627SOL    HW1 2780   6.438   6.490   0.481
  627SOL    HW2 2781   6.319   6.392   0.427
  628SOL     OW 2782   5.801   3.703   5.256
  628SOL    HW1 2783   5.821   3.612   5.220
  628SOL    HW2 2784   5.783   3.698   5.354
  629SOL     OW 2785   0.845   1.225   6.725
  629SOL    HW1 2786   0.753   1.205   6.691
  629SOL    HW2 2787   0.878   1.309   6.684
  630SOL     OW 2788   0.206   2.091   0.697
  630SOL    HW1 2789   0.134   2.157   0.680
  630SOL    HW2 2790   0.182   2.033   0.774
  631SOL     OW 2791   3.700   1.318   4.528
  631SOL    HW1 2792   3.746   1.404   4.546
  631SOL    HW2 2793   3.725   1.285   4.437
  632SOL     OW 2794   4.523   2.797   0.584
  632SOL    HW1 2795   4.594   2.810   0.653
  632SOL    HW2 2796   4.437   2.836   0.618
  633SOL     OW 2797   3.063   4.520   6.826
  633SOL    HW1 2798   2.985   4.469   6.861
  633SOL    HW2 2799   3.139   4.458   6.809
  634SOL     OW 2800   3.808   3.379   2.999
  634SOL    HW1 2801   3.744   3.303   2.985
  634SOL    HW2 2802   3.899   3.343   3.017
  635SOL     OW 2803   4.464   6.787   0.359
  635SOL    HW1 2804   4.563   6.778   0.345
  635SOL    HW2 2805   4.441   6.762   0.453
  636SOL     OW 2806   2.970   6.992   5.890
  636SOL    HW1 2807   2.994   0.048   5.829
  636SOL    HW2 2808   3.051   6.936   5.907
  637SOL     OW 2809   6.221   2.567   2.205
  637SOL    HW1 2810   6.248   2.478   2.168
  637SOL    HW2 2811   6.214   2.634   2.131
  638SOL     OW 2812   5.660   4.026   3.828
  638SOL    HW1 2813   5.633   3.930   3.838
  638SOL    HW2 2814   5.711   4.056   3.908
  639SOL     OW 2815   5.279   4.523   3.780
  639SOL    HW1 2816   5.186   4.554   3.765
  639SOL    HW2 2817   5.314   4.480   3.697
  640SOL     OW 2818   6.766   4.855   3.600
  640SOL    HW1 2819   6.820   4.802   3.665
  640SOL    HW2 2820   6.698   4.796   3.558
  641SOL     OW 2821   0.821   4.538   4.795
  641SOL    HW1 2822   0.806   4.609   4.726
  641SOL    HW2 2823   0.887   4.471   4.760
  642SOL     OW 2824   1.396   2.850   4.739
  642SOL    HW1 2825   1.389   2.804   4.650
  642SOL    HW2 2826   1.427   2.944   4.727
  643SOL     OW 2827   6.319   0.427   6.191
  643SOL    HW1 2828   6.243   0.444   6.128
  643SOL    HW2 2829   6.376   0.354   6.154
  644SOL     OW 2830   1.941   0.557   4.368
  644SOL    HW1 2831   1.941   0.605   4.456
  644SOL    HW2 2832   1.864   0.493   4.366
  645SOL     OW 2833   3.222   5.325   4.240
  645SOL    HW1 2834   3.240   5.404   4.299
  645SOL    HW2 2835   3.245   5.348   4.145
  646SOL     OW 2836   3.823   0.502   4.624
  646SOL    HW1 2837   3.897   0.520   4.559
  646SOL    HW2 2838   3.862   0.491   4.716
  647SOL     OW 2839   5.568   1.875   4.791
  647SOL    HW1 2840   5.476   1.903   4.818
  647SOL    HW2 2841   5.604   1.938   4.722
  648SOL     OW 2842   6.696   3.669   3.634
  648SOL    HW1 2843   6.794   3.673   3.648
  648SOL    HW2 2844   6.670   3.730   3.559
  649SOL     OW 2845   2.016   3.621   0.592
  649SOL    HW1 2846   2.048   3.613   0.686
  649SOL    HW2 2847   1.938   3.684   0.589
  650SOL     OW 2848   6.435   5.396   0.653
  650SOL    HW1 2849   6.337   5.401   0.634
  650SOL    HW2 2850   6.463   5.300   0.662
  651SOL     OW 2851   1.895   0.532   5.215
  651SOL    HW1 2852   1.953   0.602   5.257
  651SOL    HW2 2853   1.799   0.558   5.224
  652SOL     OW 2854   4.299   6.566   2.397
  652SOL    HW1 2855   4.377   6.588   2.339
  652SOL    HW2 2856   4.270   6.472   2.379
  653SOL     OW 2857   0.622   6.336   0.598
  653SOL    HW1 2858   0.550   6.267   0.591
  653SOL    HW2 2859   0.664   6.331   0.688
  654SOL     OW 2860   0.133   6.552   6.224
  654SOL    HW1 2861   0.067   6.601   6.167
  654SOL    HW2 2862   0.155   6.464   6.181
  655SOL     OW 2863   6.607   5.423   1.894
  655SOL    HW1 2864   6.625   5.339   1.843
  655SOL    HW2 2865   6.657   5.421   1.980
  656SOL     OW 2866   1.830   6.136   0.129
  656SOL    HW1 2867   1.891   6.162   0.054
  656SOL    HW2 2868   1.773   6.214   0.155
  657SOL     OW 2869   3.354   4.087   0.969
  657SOL    HW1 2870   3.413   4.118   1.044
  657SOL    HW2 2871   3.296   4.012   1.002
  658SOL     OW 2872   1.205   3.818   5.253
  658SOL    HW1 2873   1.115   3.843   5.217
  658SOL    HW2 2874   1.194   3.744   5.320
  659SOL     OW 2875   2.689   5.932   4.723
  659SOL    HW1 2876   2.659   6.019   4.683
  659SOL    HW2 2877   2.721   5.871   4.650
  660SOL     OW 2878   4.455   4.674   2.504
  660SOL    HW1 2879   4.511   4.706   2.580
  660SOL    HW2 2880   4.462   4.739   2.428
  661SOL     OW 2881   4.907   4.031   4.708
  661SOL    HW1 2882   4.983   4.088   4.677
  661SOL    HW2 2883   4.821   4.065   4.669
  662SOL     OW 2884   4.366   1.148   5.769
  662SOL    HW1 2885   4.297   1.119   5.703
  662SOL    HW2 2886   4.402   1.238   5.744
  663SOL     OW 2887   0.253   4.609   6.955
  663SOL    HW1 2888   0.272   4.563   0.022
  663SOL    HW2 2889   0.338   4.622   6.905
  664SOL     OW 2890   1.516   5.759   6.660
  664SOL    HW1 2891   1.510   5.683   6.597
  664SOL    HW2 2892   1.443   5.825   6.640
  665SOL     OW 2893   4.132   5.411   0.893
  665SOL    HW1 2894   4.139   5.351   0.973
  665SOL    HW2 2895   4.221   5.452   0.874
  666SOL     OW 2896   4.352   2.719   1.247
  666SOL    HW1 2897   4.297   2.688   1.169
  666SOL    HW2 2898   4.298   2.713   1.331
  667SOL     OW 2899   0.369   4.014   3.385
  667SOL    HW1 2900   0.347   3.920   3.409
  667SOL    HW2 2901   0.284   4.063   3.362
  668SOL     OW 2902   4.959   5.612   0.203
  668SOL    HW1 2903   4.892   5.614   0.129
  668SOL    HW2 2904   5.045   5.650   0.172
  669SOL     OW 2905   2.743   6.034   2.940
  669SOL    HW1 2906   2.721   6.131   2.928
  669SOL    HW2 2907   2.826   6.025   2.995
  670SOL     OW 2908   3.233   3.754   2.094
  670SOL    HW1 2909   3.203   3.765   1.999
  670SOL    HW2 2910   3.265   3.661   2.108
  671SOL     OW 2911   2.475   6.257   6.587
  671SOL    HW1 2912   2.565   6.292   6.612
  671SOL    HW2 2913   2.475   6.157   6.596
  672SOL     OW 2914   0.690   4.384   2.374
  672SOL    HW1 2915   0.730   4.475   2.361
  672SOL    HW2 2916   0.733   4.320   2.311
  673SOL     OW 2917   4.542   0.213   1.014
  673SOL    HW1 2918   4.590   0.140   0.965
  673SOL    HW2 2919   4.467   0.247   0.957
  674SOL     OW 2920   6.745   3.072   4.202
  674SOL    HW1 2921   6.718   3.095   4.109
  674SOL    HW2 2922   6.663   3.053   4.257
  675SOL     OW 2923   0.657   1.536   5.093
  675SOL    HW1 2924   0.631   1.477   5.018
  675SOL    HW2 2925   0.619   1.628   5.079
  676SOL     OW 2926   2.917   5.011   3.546
  676SOL    HW1 2927   2.951   4.952   3.472
  676SOL    HW2 2928   2.891   5.100   3.509
  677SOL     OW 2929   5.908   1.226   6.464
  677SOL    HW1 2930   5.936   1.179   6.548
  677SOL    HW2 2931   5.986   1.234   6.402
  678SOL     OW 2932   1.855   1.499   5.124
  678SOL    HW1 2933   1.825   1.505   5.029
  678SOL    HW2 2934   1.942   1.449   5.128
  679SOL     OW 2935   4.701   0.966   4.625
  679SOL    HW1 2936   4.713   0.989   4.721
  679SOL    HW2 2937   4.605   0.976   4.600
  680SOL     OW 2938   5.889   5.045   5.977
  680SOL    HW1 2939   5.850   4.966   5.928
  680SOL    HW2 2940   5.875   5.033   6.075
  681SOL     OW 2941   6.148   0.025   0.861
  681SOL    HW1 2942   6.122   0.075   0.778
  681SOL    HW2 2943   6.094   0.058   0.938
  682SOL     OW 2944   1.406   6.723   6.547
  682SOL    HW1 2945   1.402   6.651   6.616
  682SOL    HW2 2946   1.499   6.760   6.543
  683SOL     OW 2947   3.098   0.936   6.061
  683SOL    HW1 2948   3.080   0.865   6.129
  683SOL    HW2 2949   3.175   0.992   6.090
  684SOL     OW 2950   6.289   1.339   6.191
  684SOL    HW1 2951   6.254   1.432   6.199
  684SOL    HW2 2952   6.276   1.292   6.279
  685SOL     OW 2953   4.951   6.781   5.410
  685SOL    HW1 2954   4.943   6.828   5.498
  685SOL    HW2 2955   5.029   6.819   5.359
  686SOL     OW 2956   5.354   2.867   2.853
  686SOL    HW1 2957   5.446   2.877   2.891
  686SOL    HW2 2958   5.286   2.878   2.926
  687SOL     OW 2959   6.880   3.003   5.532
  687SOL    HW1 2960   6.883   3.044   5.623
  687SOL    HW2 2961   6.886   3.075   5.463
  688SOL     OW 2962   1.499   4.166   0.389
  688SOL    HW1 2963   1.584   4.123   0.418
  688SOL    HW2 2964   1.488   4.253   0.437
  689SOL     OW 2965   0.926   4.518   5.491
  689SOL    HW1 2966   0.942   4.469   5.576
  689SOL    HW2 2967   1.009   4.568   5.465
  690SOL     OW 2968   0.106   3.561   3.300
  690SOL    HW1 2969   0.022   3.527   3.258
  690SOL    HW2 2970   0.163   3.483   3.329
  691SOL     OW 2971   2.131   1.632   6.520
  691SOL    HW1 2972   2.130   1.688   6.437
  691SOL    HW2 2973   2.172   1.543   6.500
  692SOL     OW 2974   3.342   6.206   3.908
  692SOL    HW1 2975   3.368   6.143   3.981
  692SOL    HW2 2976   3.377   6.297   3.929
  693SOL     OW 2977   6.430   1.250   3.294
  693SOL    HW1 2978   6.453   1.233   3.390
  693SOL    HW2 2979   6.347   1.201   3.270
  694SOL     OW 2980   3.172   5.545   2.165
  694SOL    HW1 2981   3.257   5.520   2.210
  694SOL    HW2 2982   3.189   5.562   2.068
  695SOL     OW 2983   4.832   4.779   5.690
  695SOL    HW1 2984   4.806   4.797   5.595
  695SOL    HW2 2985   4.750   4.776   5.747
  696SOL     OW 2986   3.326   5.238   1.645
  696SOL    HW1 2987   3.422   5.265   1.640
  696SOL    HW2 2988   3.312   5.183   1.727
  697SOL     OW 2989   1.460   2.693   5.545
  697SOL    HW1 2990   1.447   2.602   5.586
  697SOL    HW2 2991   1.434   2.690   5.449
  698SOL     OW 2992   5.928   0.569   5.584
  698SOL    HW1 2993   5.963   0.615   5.502
  698SOL    HW2 2994   5.836   0.603   5.604
  699SOL     OW 2995   0.295   4.263   0.230
  699SOL    HW1 2996   0.340   4.216   0.306
  699SOL    HW2 2997   0.313   4.214   0.145
  700SOL     OW 2998   3.154   1.795   4.056
  700SOL    HW1 2999   3.233   1.771   4.001
  700SOL    HW2 3000   3.109   1.875   4.016
  701SOL     OW 3001   0.354   4.035   5.920
  701SOL    HW1 3002   0.377   4.117   5.973
  701SOL    HW2 3003   0.256   4.019   5.925
  702SOL     OW 3004   5.688   6.124   6.049
  702SOL    HW1 3005   5.770   6.105   6.102
  702SOL    HW2 3006   5.660   6.219   6.063
  703SOL     OW 3007   4.306   3.594   6.356
  703SOL    HW1 3008   4.379   3.530   6.382
  703SOL    HW2 3009   4.308   3.674   6.416
  704SOL     OW 3010   1.835   1.398   6.289
  704SOL    HW1 3011   1.758   1.427   6.232
  704SOL    HW2 3012   1.805   1.393   6.385
  705SOL     OW 3013   5.132   6.885   3.752
  705SOL    HW1 3014   5.155   6.807   3.694
  705SOL    HW2 3015   5.166   6.869   3.844
  706SOL     OW 3016   3.933   2.166   3.416
  706SOL    HW1 3017   3.909   2.071   3.433
  706SOL    HW2 3018   3.960   2.210   3.502
  707SOL     OW 3019   4.357   0.386   2.698
  707SOL    HW1 3020   4.287   0.339   2.752
  707SOL    HW2 3021   4.336   0.483   2.691
  708SOL     OW 3022   4.359   0.434   1.203
  708SOL    HW1 3023   4.397   0.348   1.235
  708SOL    HW2 3024   4.331   0.424   1.107
  709SOL     OW 3025   1.412   5.650   0.396
  709SOL    HW1 3026   1.346   5.642   0.321
  709SOL    HW2 3027   1.379   5.596   0.474
  710SOL     OW 3028   3.930   3.356   2.648
  710SOL    HW1 3029   3.994   3.405   2.590
  710SOL    HW2 3030   3.864   3.420   2.688
  711SOL     OW 3031   1.265   1.914   6.257
  711SOL    HW1 3032   1.305   1.978   6.321
  711SOL    HW2 3033   1.326   1.835   6.247
  712SOL     OW 3034   2.618   4.365   0.480
  712SOL    HW1 3035   2.667   4.364   0.567
  712SOL    HW2 3036   2.544   4.433   0.485
  713SOL     OW 3037   3.168   3.595   0.135
  713SOL    HW1 3038   3.087   3.641   0.099
  713SOL    HW2 3039   3.181   3.621   0.231
  714SOL     OW 3040   0.117   4.838   4.944
  714SOL    HW1 3041   0.127   4.796   4.854
  714SOL    HW2 3042   0.179   4.794   5.008
  715SOL     OW 3043   5.043   6.278   0.861
  715SOL    HW1 3044   4.969   6.308   0.921
  715SOL    HW2 3045   5.082   6.193   0.897
  716SOL     OW 3046   0.664   6.535   0.846
  716SOL    HW1 3047   0.635   6.483   0.926
  716SOL    HW2 3048   0.752   6.501   0.814
  717SOL     OW 3049   5.836   5.220   6.435
  717SOL    HW1 3050   5.902   5.288   6.405
  717SOL    HW2 3051   5.744   5.256   6.425
  718SOL     OW 3052   4.537   2.234   5.717
  718SOL    HW1 3053   4.494   2.273   5.798
  718SOL    HW2 3054   4.597   2.158   5.743
  719SOL     OW 3055   5.902   2.658   1.152
  719SOL    HW1 3056   5.826   2.650   1.216
  719SOL    HW2 3057   5.895   2.586   1.083
  720SOL     OW 3058   3.452   0.944   6.160
  720SOL    HW1 3059   3.491   0.889   6.086
  720SOL    HW2 3060   3.391   1.013   6.121
  721SOL     OW 3061   1.585   0.036   4.330
  721SOL    HW1 3062   1.598   6.979   4.267
  721SOL    HW2 3063   1.669   0.048   4.385
  722SOL     OW 3064   3.361   0.007   5.370
  722SOL    HW1 3065   3.421   0.057   5.308
  722SOL    HW2 3066   3.285   0.066   5.398
  723SOL     OW 3067   2.003   3.180   3.039
  723SOL    HW1 3068   2.020   3.265   2.990
  723SOL    HW2 3069   2.080   3.118   3.026
  724SOL     OW 3070   1.059   1.092   4.552
  724SOL    HW1 3071   0.967   1.066   4.583
  724SOL    HW2 3072   1.056   1.112   4.453
  725SOL     OW 3073   3.088   5.150   1.543
  725SOL    HW1 3074   2.999   5.175   1.581
  725SOL    HW2 3075   3.157   5.216   1.573
  726SOL     OW 3076   3.976   4.171   0.885
  726SOL    HW1 3077   3.889   4.164   0.933
  726SOL    HW2 3078   4.043   4.217   0.943
  727SOL     OW 3079   4.951   5.708   5.539
  727SOL    HW1 3080   4.977   5.802   5.563
  727SOL    HW2 3081   5.006   5.677   5.462
  728SOL     OW 3082   0.849   3.841   5.473
  728SOL    HW1 3083   0.927   3.871   5.528
  728SOL    HW2 3084   0.768   3.834   5.530
  729SOL     OW 3085   2.141   0.728   0.530
  729SOL    HW1 3086   2.113   0.660   0.597
  729SOL    HW2 3087   2.218   0.781   0.565
  730SOL     OW 3088   5.555   0.280   3.576
  730SOL    HW1 3089   5.558   0.269   3.476
  730SOL    HW2 3090   5.481   0.344   3.600
  731SOL     OW 3091   6.329   3.666   5.785
  731SOL    HW1 3092   6.320   3.671   5.884
  731SOL    HW2 3093   6.259   3.604   5.748
  732SOL     OW 3094   0.335   4.026   1.018
  732SOL    HW1 3095   0.350   3.933   1.052
  732SOL    HW2 3096   0.416   4.057   0.969
  733SOL     OW 3097   5.982   4.314   5.025
  733SOL    HW1 3098   5.997   4.332   4.928
  733SOL    HW2 3099   6.015   4.392   5.078
  734SOL     OW 3100   6.361   4.523   2.629
  734SOL    HW1 3101   6.454   4.529   2.591
  734SOL    HW2 3102   6.335   4.612   2.668
  735SOL     OW 3103   3.377   3.011   0.882
  735SOL    HW1 3104   3.309   2.967   0.941
  735SOL    HW2 3105   3.469   2.992   0.917
  736SOL     OW 3106   6.514   5.766   2.814
  736SOL    HW1 3107   6.475   5.675   2.798
  736SOL    HW2 3108   6.545   5.804   2.726
  737SOL     OW 3109   4.364   2.784   0.029
  737SOL    HW1 3110   4.302   2.708   0.051
  737SOL    HW2 3111   4.350   2.812   6.953
  738SOL     OW 3112   2.234   4.480   2.522
  738SOL    HW1 3113   2.176   4.480   2.441
  738SOL    HW2 3114   2.324   4.442   2.498
  739SOL     OW 3115   4.407   6.270   5.408
  739SOL    HW1 3116   4.433   6.183   5.450
  739SOL    HW2 3117   4.490   6.325   5.393
  740SOL     OW 3118   5.218   6.771   0.847
  740SOL    HW1 3119   5.194   6.687   0.896
  740SOL    HW2 3120   5.144   6.795   0.785
  741SOL     OW 3121   2.018   6.611   3.024
  741SOL    HW1 3122   1.979   6.684   3.080
  741SOL    HW2 3123   2.048   6.650   2.936
  742SOL     OW 3124   2.157   6.738   1.598
  742SOL    HW1 3125   2.120   6.773   1.684
  742SOL    HW2 3126   2.116   6.787   1.521
  743SOL     OW 3127   1.533   3.830   4.305
  743SOL    HW1 3128   1.449   3.804   4.256
  743SOL    HW2 3129   1.541   3.929   4.305
  744SOL     OW 3130   5.991   0.320   6.181
  744SOL    HW1 3131   6.058   0.357   6.116
  744SOL    HW2 3132   5.991   0.220   6.175
  745SOL     OW 3133   0.696   5.108   4.739
  745SOL    HW1 3134   0.728   5.130   4.647
  745SOL    HW2 3135   0.688   5.192   4.792
  746SOL     OW 3136   0.948   5.999   5.910
  746SOL    HW1 3137   0.999   5.950   5.840
  746SOL    HW2 3138   0.875   6.053   5.867
  747SOL     OW 3139   4.636   4.897   5.068
  747SOL    HW1 3140   4.734   4.877   5.068
  747SOL    HW2 3141   4.615   4.954   5.147
  748SOL     OW 3142   3.596   5.627   2.928
  748SOL    HW1 3143   3.583   5.619   3.027
  748SOL    HW2 3144   3.621   5.722   2.905
  749SOL     OW 3145   6.591   3.454   4.799
  749SOL    HW1 3146   6.507   3.451   4.853
  749SOL    HW2 3147   6.643   3.535   4.823
  750SOL     OW 3148   1.874   3.652   0.943
  750SOL    HW1 3149   1.780   3.641   0.909
  750SOL    HW2 3150   1.922   3.718   0.886
  751SOL     OW 3151   4.102   1.757   6.324
  751SOL    HW1 3152   4.141   1.773   6.415
  751SOL    HW2 3153   4.022   1.816   6.311
  752SOL     OW 3154   4.221   2.429   1.827
  752SOL    HW1 3155   4.137   2.470   1.862
  752SOL    HW2 3156   4.203   2.385   1.739
  753SOL     OW 3157   2.106   2.979   4.294
  753SOL    HW1 3158   2.094   2.931   4.381
  753SOL    HW2 3159   2.139   3.072   4.312
  754SOL     OW 3160   5.792   3.113   6.772
  754SOL    HW1 3161   5.828   3.085   6.683
  754SOL    HW2 3162   5.838   3.196   6.802
  755SOL     OW 3163   1.524   5.677   6.223
  755SOL    HW1 3164   1.443   5.731   6.203
  755SOL    HW2 3165   1.605   5.736   6.227
  756SOL     OW 3166   3.978   6.827   1.555
  756SOL    HW1 3167   3.954   6.736   1.587
  756SOL    HW2 3168   4.076   6.841   1.564
  757SOL     OW 3169   0.294   6.555   2.987
  757SOL    HW1 3170   0.314   6.565   3.085
  757SOL    HW2 3171   0.351   6.483   2.949
  758SOL     OW 3172   4.237   0.896   1.755
  758SOL    HW1 3173   4.157   0.956   1.758
  758SOL    HW2 3174   4.314   0.946   1.713
  759SOL     OW 3175   0.442   0.851   0.779
  759SOL    HW1 3176   0.458   0.763   0.736
  759SOL    HW2 3177   0.521   0.877   0.834
  760SOL     OW 3178   4.600   0.797   6.206
  760SOL    HW1 3179   4.607   0.854   6.124
  760SOL    HW2 3180   4.552   0.712   6.183
  761SOL     OW 3181   5.627   3.759   5.842
  761SOL    HW1 3182   5.714   3.736   5.887
  761SOL    HW2 3183   5.554   3.706   5.884
  762SOL     OW 3184   2.259   6.673   4.407
  762SOL    HW1 3185   2.190   6.716   4.465
  762SOL    HW2 3186   2.326   6.626   4.464
  763SOL     OW 3187   3.979   4.848   6.522
  763SOL    HW1 3188   4.016   4.928   6.474
  763SOL    HW2 3189   4.033   4.831   6.604
  764SOL     OW 3190   4.501   0.858   3.678
  764SOL    HW1 3191   4.572   0.925   3.703
  764SOL    HW2 3192   4.464   0.881   3.588
  765SOL     OW 3193   1.456   6.555   1.216
  765SOL    HW1 3194   1.542   6.513   1.185
  765SOL    HW2 3195   1.396   6.569   1.138
  766SOL     OW 3196   0.706   2.272   0.695
  766SOL    HW1 3197   0.653   2.208   0.639
  766SOL    HW2 3198   0.644   2.336   0.740
  767SOL     OW 3199   6.288   5.744   2.439
  767SOL    HW1 3200   6.319   5.811   2.372
  767SOL    HW2 3201   6.231   5.789   2.508
  768SOL     OW 3202   2.981   6.653   2.251
  768SOL    HW1 3203   2.963   6.558   2.278
  768SOL    HW2 3204   2.905   6.686   2.195
  769SOL     OW 3205   3.164   0.292   4.281
  769SOL    HW1 3206   3.128   0.354   4.352
  769SOL    HW2 3207   3.257   0.318   4.258
  770SOL     OW 3208   1.596   4.601   2.930
  770SOL    HW1 3209   1.652   4.542   2.987
  770SOL    HW2 3210   1.632   4.602   2.837
  771SOL     OW 3211   2.034   5.586   2.518
  771SOL    HW1 3212   2.052   5.613   2.423
  771SOL    HW2 3213   2.102   5.519   2.547
  772SOL     OW 3214   6.998   5.347   0.538
  772SOL    HW1 3215   7.012   5.444   0.558
  772SOL    HW2 3216   0.047   5.293   0.587
  773SOL     OW 3217   0.121   4.121   3.361
  773SOL    HW1 3218   0.078   4.211   3.370
  773SOL    HW2 3219   0.057   4.051   3.393
  774SOL     OW 3220   1.478   0.884   2.599
  774SOL    HW1 3221   1.498   0.941   2.520
  774SOL    HW2 3222   1.483   0.939   2.682
  775SOL     OW 3223   0.502   1.663   3.303
  775SOL    HW1 3224   0.406   1.673   3.278
  775SOL    HW2 3225   0.522   1.721   3.382
  776SOL     OW 3226   6.519   1.026   5.556
  776SOL    HW1 3227   6.491   1.120   5.540
  776SOL    HW2 3228   6.546   1.015   5.652
  777SOL     OW 3229   3.182   6.245   1.083
  777SOL    HW1 3230   3.268   6.296   1.080
  777SOL    HW2 3231   3.157   6.217   0.990
  778SOL     OW 3232   3.693   1.153   3.009
  778SOL    HW1 3233   3.608   1.189   2.970
  778SOL    HW2 3234   3.771   1.193   2.960
  779SOL     OW 3235   0.828   2.106   2.649
  779SOL    HW1 3236   0.896   2.045   2.608
  779SOL    HW2 3237   0.788   2.164   2.579
  780SOL     OW 3238   6.557   3.926   4.142
  780SOL    HW1 3239   6.464   3.961   4.153
  780SOL    HW2 3240   6.570   3.846   4.200
  781SOL     OW 3241   5.202   2.093   6.588
  781SOL    HW1 3242   5.129   2.087   6.519
  781SOL    HW2 3243   5.287   2.058   6.549
  782SOL     OW 3244   0.467   3.502   0.226
  782SOL    HW1 3245   0.566   3.490   0.224
  782SOL    HW2 3246   0.429   3.452   0.304
  783SOL     OW 3247   3.815   4.806   1.018
  783SOL    HW1 3248   3.906   4.822   0.980
  783SOL    HW2 3249   3.790   4.710   1.005
  784SOL     OW 3250   5.164   6.747   6.502
  784SOL    HW1 3251   5.161   6.843   6.529
  784SOL    HW2 3252   5.124   6.690   6.574
  785SOL     OW 3253   6.685   2.263   3.526
  785SOL    HW1 3254   6.726   2.315   3.601
  785SOL    HW2 3255   6.751   2.255   3.451
  786SOL     OW 3256   1.643   1.384   1.262
  786SOL    HW1 3257   1.691   1.365   1.348
  786SOL    HW2 3258   1.697   1.450   1.209
  787SOL     OW 3259   3.156   1.424   6.377
  787SOL    HW1 3260   3.228   1.457   6.315
  787SOL    HW2 3261   3.184   1.442   6.472
  788SOL     OW 3262   2.665   2.123   4.818
  788SOL    HW1 3263   2.669   2.088   4.912
  788SOL    HW2 3264   2.738   2.191   4.805
  789SOL     OW 3265   4.995   4.049   0.914
  789SOL    HW1 3266   4.902   4.085   0.912
  789SOL    HW2 3267   5.001   3.968   0.856
  790SOL     OW 3268   2.756   1.168   4.006
  790SOL    HW1 3269   2.763   1.258   3.963
  790SOL    HW2 3270   2.710   1.178   4.095
  791SOL     OW 3271   3.485   6.693   3.268
  791SOL    HW1 3272   3.401   6.705   3.321
  791SOL    HW2 3273   3.487   6.758   3.192
  792SOL     OW 3274   0.458   0.314   1.742
  792SOL    HW1 3275   0.402   0.368   1.804
  792SOL    HW2 3276   0.402   0.282   1.665
  793SOL     OW 3277   4.639   6.087   2.561
  793SOL    HW1 3278   4.563   6.084   2.496
  793SOL    HW2 3279   4.613   6.143   2.640
  794SOL     OW 3280   3.070   3.437   4.784
  794SOL    HW1 3281   3.139   3.438   4.857
  794SOL    HW2 3282   3.018   3.352   4.787
  795SOL     OW 3283   3.625   5.732   4.839
  795SOL    HW1 3284   3.536   5.764   4.872
  795SOL    HW2 3285   3.698   5.782   4.887
  796SOL     OW 3286   1.170   2.381   6.320
  796SOL    HW1 3287   1.225   2.464   6.314
  796SOL    HW2 3288   1.177   2.343   6.412
  797SOL     OW 3289   4.955   2.337   2.550
  797SOL    HW1 3290   5.035   2.394   2.530
  797SOL    HW2 3291   4.873   2.383   2.515
  798SOL     OW 3292   5.273   6.761   1.402
  798SOL    HW1 3293   5.204   6.832   1.417
  798SOL    HW2 3294   5.331   6.787   1.325
  799SOL     OW 3295   6.025   1.440   4.194
  799SOL    HW1 3296   6.116   1.458   4.230
  799SOL    HW2 3297   5.983   1.525   4.163
  800SOL     OW 3298   5.478   1.468   2.210
  800SOL    HW1 3299   5.529   1.455   2.295
  800SOL    HW2 3300   5.464   1.566   2.194
  801SOL     OW 3301   1.824   3.135   3.514
  801SOL    HW1 3302   1.735   3.167   3.545
  801SOL    HW2 3303   1.833   3.150   3.415
  802SOL     OW 3304   4.133   0.218   0.415
  802SOL    HW1 3305   4.041   0.237   0.450
  802SOL    HW2 3306   4.188   0.302   0.418
  803SOL     OW 3307   0.587   5.322   4.920
  803SOL    HW1 3308   0.543   5.338   5.008
  803SOL    HW2 3309   0.520   5.330   4.847
  804SOL     OW 3310   6.187   5.932   6.723
  804SOL    HW1 3311   6.207   5.987   6.642
  804SOL    HW2 3312   6.088   5.928   6.737
  805SOL     OW 3313   3.377   2.028   5.449
  805SOL    HW1 3314   3.412   2.095   5.515
  805SOL    HW2 3315   3.288   2.059   5.416
  806SOL     OW 3316   4.458   1.011   4.517
  806SOL    HW1 3317   4.384   0.944   4.524
  806SOL    HW2 3318   4.431   1.085   4.457
  807SOL     OW 3319   0.406   1.790   4.037
  807SOL    HW1 3320   0.464   1.861   4.076
  807SOL    HW2 3321   0.323   1.832   4.000
  808SOL     OW 3322   4.603   3.808   6.192
  808SOL    HW1 3323   4.576   3.721   6.151
  808SOL    HW2 3324   4.593   3.803   6.291
  809SOL     OW 3325   0.816   4.657   1.531
  809SOL    HW1 3326   0.734   4.603   1.548
  809SOL    HW2 3327   0.889   4.597   1.500
  810SOL     OW 3328   3.685   2.526   1.069
  810SOL    HW1 3329   3.752   2.469   1.021
  810SOL    HW2 3330   3.665   2.486   1.158
  811SOL     OW 3331   4.163   5.812   4.196
  811SOL    HW1 3332   4.245   5.816   4.253
  811SOL    HW2 3333   4.100   5.744   4.233
  812SOL     OW 3334   0.986   1.377   2.081
  812SOL    HW1 3335   0.991   1.457   2.022
  812SOL    HW2 3336   0.891   1.364   2.111
  813SOL     OW 3337   3.806   4.958   4.799
  813SOL    HW1 3338   3.809   4.954   4.899
  813SOL    HW2 3339   3.897   4.978   4.763
  814SOL     OW 3340   5.437   6.204   3.607
  814SOL    HW1 3341   5.450   6.268   3.682
  814SOL    HW2 3342   5.525   6.177   3.569
  815SOL     OW 3343   6.959   3.108   2.796
  815SOL    HW1 3344   6.956   3.164   2.713
  815SOL    HW2 3345   6.970   3.012   2.772
  816SOL     OW 3346   6.750   6.654   0.443
  816SOL    HW1 3347   6.844   6.630   0.468
  816SOL    HW2 3348   6.746   6.675   0.346
  817SOL     OW 3349   2.244   3.890   1.826
  817SOL    HW1 3350   2.324   3.849   1.782
  817SOL    HW2 3351   2.166   3.887   1.763
  818SOL     OW 3352   6.322   3.123   1.637
  818SOL    HW1 3353   6.247   3.074   1.683
  818SOL    HW2 3354   6.381   3.165   1.706
  819SOL     OW 3355   5.702   3.266   3.377
  819SOL    HW1 3356   5.798   3.255   3.403
  819SOL    HW2 3357   5.690   3.353   3.330
  820SOL     OW 3358   2.321   2.658   6.828
  820SOL    HW1 3359   2.353   2.653   6.923
  820SOL    HW2 3360   2.386   2.710   6.773
  821SOL     OW 3361   2.418   4.552   0.537
  821SOL    HW1 3362   2.345   4.504   0.586
  821SOL    HW2 3363   2.389   4.647   0.520
  822SOL     OW 3364   0.767   4.713   4.556
  822SOL    HW1 3365   0.710   4.648   4.506
  822SOL    HW2 3366   0.818   4.770   4.491
  823SOL     OW 3367   4.921   4.270   0.070
  823SOL    HW1 3368   4.971   4.333   0.130
  823SOL    HW2 3369   4.845   4.318   0.027
  824SOL     OW 3370   5.377   0.789   5.284
  824SOL    HW1 3371   5.309   0.726   5.247
  824SOL    HW2 3372   5.373   0.876   5.234
  825SOL     OW 3373   1.368   3.836   1.566
  825SOL    HW1 3374   1.273   3.803   1.568
  825SOL    HW2 3375   1.430   3.758   1.554
  826SOL     OW 3376   5.733   3.286   0.296
  826SOL    HW1 3377   5.667   3.338   0.241
  826SOL    HW2 3378   5.731   3.190   0.268
  827SOL     OW 3379   3.396   5.848   6.163
  827SOL    HW1 3380   3.297   5.859   6.154
  827SOL    HW2 3381   3.440   5.938   6.157
  828SOL     OW 3382   6.078   0.132   5.835
  828SOL    HW1 3383   6.178   0.130   5.841
  828SOL    HW2 3384   6.048   0.222   5.804
  829SOL     OW 3385   2.993   3.795   3.804
  829SOL    HW1 3386   2.939   3.829   3.881
  829SOL    HW2 3387   2.967   3.700   3.785
  830SOL     OW 3388   5.121   5.049   6.482
  830SOL    HW1 3389   5.118   5.145   6.453
  830SOL    HW2 3390   5.171   5.041   6.568
  831SOL     OW 3391   6.513   0.822   5.190
  831SOL    HW1 3392   6.421   0.840   5.223
  831SOL    HW2 3393   6.530   0.723   5.192
  832SOL     OW 3394   2.134   0.632   1.108
  832SOL    HW1 3395   2.092   0.697   1.172
  832SOL    HW2 3396   2.063   0.588   1.053
  833SOL     OW 3397   0.218   4.781   5.905
  833SOL    HW1 3398   0.300   4.756   5.853
  833SOL    HW2 3399   0.241   4.854   5.969
  834SOL     OW 3400   3.115   3.661   1.171
  834SOL    HW1 3401   3.209   3.633   1.152
  834SOL    HW2 3402   3.059   3.580   1.188
  835SOL     OW 3403   3.641   6.680   3.952
  835SOL    HW1 3404   3.666   6.764   4.000
  835SOL    HW2 3405   3.718   6.616   3.955
  836SOL     OW 3406   3.429   6.881   0.010
  836SOL    HW1 3407   3.525   6.867   7.005
  836SOL    HW2 3408   3.423   6.952   0.080
  837SOL     OW 3409   5.262   6.597   0.002
  837SOL    HW1 3410   5.286   6.592   6.924
  837SOL    HW2 3411   5.257   6.693   0.030
  838SOL     OW 3412   1.251   0.718   5.049
  838SOL    HW1 3413   1.243   0.780   4.972
  838SOL    HW2 3414   1.205   0.632   5.028
  839SOL     OW 3415   2.588   2.456   2.036
  839SOL    HW1 3416   2.574   2.551   2.009
  839SOL    HW2 3417   2.682   2.429   2.014
  840SOL     OW 3418   6.158   6.951   6.045
  840SOL    HW1 3419   6.102   6.924   6.124
  840SOL    HW2 3420   6.114   0.008   5.999
  841SOL     OW 3421   5.657   4.936   0.609
  841SOL    HW1 3422   5.671   4.907   0.514
  841SOL    HW2 3423   5.562   4.966   0.620
  842SOL     OW 3424   4.512   4.956   4.490
  842SOL    HW1 3425   4.482   4.897   4.415
  842SOL    HW2 3426   4.508   4.905   4.576
  843SOL     OW 3427   4.217   1.821   6.555
  843SOL    HW1 3428   4.244   1.917   6.563
  843SOL    HW2 3429   4.294   1.762   6.579
  844SOL     OW 3430   4.355   6.939   0.918
  844SOL    HW1 3431   4.351   7.000   0.839
  844SOL    HW2 3432   4.450   6.915   0.937
  845SOL     OW 3433   6.299   3.536   4.773
  845SOL    HW1 3434   6.212   3.505   4.811
  845SOL    HW2 3435   6.298   3.525   4.674
  846SOL     OW 3436   4.112   2.065   6.983
  846SOL    HW1 3437   4.013   2.072   6.987
  846SOL    HW2 3438   4.141   1.972   7.002
  847SOL     OW 3439   0.225   3.364   0.178
  847SOL    HW1 3440   0.266   3.338   0.265
  847SOL    HW2 3441   0.254   3.457   0.155
  848SOL     OW 3442   6.507   1.678   6.617
  848SOL    HW1 3443   6.591   1.713   6.576
  848SOL    HW2 3444   6.529   1.631   6.703
  849SOL     OW 3445   1.261   4.530   6.136
  849SOL    HW1 3446   1.237   4.475   6.216
  849SOL    HW2 3447   1.191   4.517   6.065
  850SOL     OW 3448   5.395   0.991   3.453
  850SOL    HW1 3449   5.448   1.074   3.437
  850SOL    HW2 3450   5.390   0.972   3.551
  851SOL     OW 3451   0.170   1.841   1.849
  851SOL    HW1 3452   0.078   1.809   1.828
  851SOL    HW2 3453   0.226   1.764   1.881
  852SOL     OW 3454   2.613   2.835   0.425
  852SOL    HW1 3455   2.559   2.778   0.363
  852SOL    HW2 3456   2.673   2.894   0.372
  853SOL     OW 3457   1.388   3.922   2.098
  853SOL    HW1 3458   1.449   3.852   2.061
  853SOL    HW2 3459   1.443   3.995   2.138
  854SOL     OW 3460   4.704   5.719   2.420
  854SOL    HW1 3461   4.700   5.619   2.420
  854SOL    HW2 3462   4.764   5.750   2.346
  855SOL     OW 3463   6.403   7.009   0.979
  855SOL    HW1 3464   6.320   6.996   0.923
  855SOL    HW2 3465   6.424   0.087   0.984
  856SOL     OW 3466   1.781   1.517   4.844
  856SOL    HW1 3467   1.795   1.497   4.747
  856SOL    HW2 3468   1.749   1.611   4.854
  857SOL     OW 3469   6.017   5.187   1.485
  857SOL    HW1 3470   5.954   5.121   1.527
  857SOL    HW2 3471   6.072   5.230   1.556
  858SOL     OW 3472   2.090   4.283   1.523
  858SOL    HW1 3473   2.075   4.188   1.552
  858SOL    HW2 3474   2.027   4.305   1.449
  859SOL     OW 3475   5.048   5.132   6.798
  859SOL    HW1 3476   5.143   5.106   6.786
  859SOL    HW2 3477   5.042   5.211   6.858
  860SOL     OW 3478   4.316   4.222   1.044
  860SOL    HW1 3479   4.347   4.287   1.113
  860SOL    HW2 3480   4.387   4.153   1.029
  861SOL     OW 3481   2.515   0.377   4.743
  861SOL    HW1 3482   2.458   0.435   4.685
  861SOL    HW2 3483   2.461   0.300   4.776
  862SOL     OW 3484   6.669   4.430   5.294
  862SOL    HW1 3485   6.652   4.403   5.200
  862SOL    HW2 3486   6.735   4.506   5.296
  863SOL     OW 3487   1.245   0.404   0.793
  863SOL    HW1 3488   1.232   0.364   0.884
  863SOL    HW2 3489   1.178   0.365   0.729
  864SOL     OW 3490   5.085   4.860   3.649
  864SOL    HW1 3491   5.094   4.943   3.594
  864SOL    HW2 3492   5.082   4.885   3.746
  865SOL     OW 3493   1.890   6.364   5.473
  865SOL    HW1 3494   1.867   6.303   5.549
  865SOL    HW2 3495   1.807   6.386   5.421
  866SOL     OW 3496   2.031   2.866   1.371
  866SOL    HW1 3497   2.007   2.953   1.328
  866SOL    HW2 3498   2.060   2.801   1.301
  867SOL     OW 3499   3.935   2.836   0.808
  867SOL    HW1 3500   3.888   2.755   0.774
  867SOL    HW2 3501   3.958   2.823   0.905
  868SOL     OW 3502   5.672   6.363   1.487
  868SOL    HW1 3503   5.662   6.372   1.388
  868SOL    HW2 3504   5.766   6.336   1.509
  869SOL     OW 3505   6.855   5.264   2.567
  869SOL    HW1 3506   6.798   5.346   2.572
  869SOL    HW2 3507   6.803   5.184   2.596
  870SOL     OW 3508   6.071   3.646   0.531
  870SOL    HW1 3509   6.023   3.589   0.464
  870SOL    HW2 3510   6.004   3.692   0.589
  871SOL     OW 3511   6.603   3.439   1.947
  871SOL    HW1 3512   6.608   3.503   1.870
  871SOL    HW2 3513   6.690   3.438   1.996
  872SOL     OW 3514   6.380   4.245   3.893
  872SOL    HW1 3515   6.343   4.199   3.974
  872SOL    HW2 3516   6.331   4.212   3.812
  873SOL     OW 3517   4.868   7.002   4.020
  873SOL    HW1 3518   4.878   0.036   3.935
  873SOL    HW2 3519   4.886   6.906   4.002
  874SOL     OW 3520   1.603   4.180   5.527
  874SOL    HW1 3521   1.577   4.270   5.563
  874SOL    HW2 3522   1.702   4.170   5.530
  875SOL     OW 3523   4.900   3.507   1.349
  875SOL    HW1 3524   4.812   3.553   1.342
  875SOL    HW2 3525   4.931   3.509   1.444
  876SOL     OW 3526   0.344   5.395   3.453
  876SOL    HW1 3527   0.260   5.351   3.483
  876SOL    HW2 3528   0.332   5.431   3.360
  877SOL     OW 3529   3.752   4.516   6.633
  877SOL    HW1 3530   3.699   4.565   6.564
  877SOL    HW2 3531   3.829   4.572   6.663
  878SOL     OW 3532   4.239   6.034   6.440
  878SOL    HW1 3533   4.313   5.991   6.491
  878SOL    HW2 3534   4.182   5.964   6.397
  879SOL     OW 3535   3.614   2.106   2.522
  879SOL    HW1 3536   3.571   2.108   2.432
  879SOL    HW2 3537   3.549   2.074   2.591
  880SOL     OW 3538   2.905   4.958   0.003
  880SOL    HW1 3539   2.960   5.031   0.044
  880SOL    HW2 3540   2.962   4.878   7.005
  881SOL     OW 3541   4.111   4.580   5.349
  881SOL    HW1 3542   4.140   4.542   5.261
  881SOL    HW2 3543   4.098   4.506   5.415
  882SOL     OW 3544   1.966   1.163   3.745
  882SOL    HW1 3545   1.928   1.231   3.808
  882SOL    HW2 3546   1.908   1.157   3.664
  883SOL     OW 3547   4.892   5.374   5.100
  883SOL    HW1 3548   4.867   5.323   5.182
  883SOL    HW2 3549   4.985   5.409   5.110
  884SOL     OW 3550   6.869   4.045   2.102
  884SOL    HW1 3551   6.831   4.045   2.195
  884SOL    HW2 3552   6.797   4.071   2.037
  885SOL     OW 3553   5.352   5.883   6.774
  885SOL    HW1 3554   5.254   5.864   6.773
  885SOL    HW2 3555   5.367   5.982   6.773
  886SOL     OW 3556   4.295   0.531   0.120
  886SOL    HW1 3557   4.272   0.576   0.034
  886SOL    HW2 3558   4.239   0.570   0.194
  887SOL     OW 3559   4.353   6.574   5.410
  887SOL    HW1 3560   4.391   6.587   5.502
  887SOL    HW2 3561   4.299   6.490   5.408
  888SOL     OW 3562   6.324   6.583   3.305
  888SOL    HW1 3563   6.420   6.566   3.329
  888SOL    HW2 3564   6.269   6.503   3.330
  889SOL     OW 3565   0.413   6.573   5.925
  889SOL    HW1 3566   0.341   6.512   5.892
  889SOL    HW2 3567   0.453   6.535   6.008
  890SOL     OW 3568   2.702   4.864   1.959
  890SOL    HW1 3569   2.722   4.773   1.995
  890SOL    HW2 3570   2.785   4.919   1.959
  891SOL     OW 3571   5.449   3.805   0.997
  891SOL    HW1 3572   5.527   3.748   1.022
  891SOL    HW2 3573   5.402   3.835   1.080
  892SOL     OW 3574   4.006   3.838   0.490
  892SOL    HW1 3575   3.921   3.787   0.506
  892SOL    HW2 3576   4.033   3.883   0.575
  893SOL     OW 3577   2.282   0.674   1.622
  893SOL    HW1 3578   2.214   0.742   1.647
  893SOL    HW2 3579   2.374   0.711   1.637
  894SOL     OW 3580   2.200   3.979   4.046
  894SOL    HW1 3581   2.188   3.883   4.072
  894SOL    HW2 3582   2.197   4.036   4.128
  895SOL     OW 3583   2.161   6.187   4.936
  895SOL    HW1 3584   2.063   6.199   4.922
  895SOL    HW2 3585   2.209   6.271   4.909
  896SOL     OW 3586   5.136   5.661   3.012
  896SOL    HW1 3587   5.153   5.758   3.029
  896SOL    HW2 3588   5.068   5.652   2.939
  897SOL     OW 3589   4.659   1.252   0.586
  897SOL    HW1 3590   4.679   1.336   0.535
  897SOL    HW2 3591   4.599   1.273   0.663
  898SOL     OW 3592   4.274   6.114   3.627
  898SOL    HW1 3593   4.244   6.180   3.697
  898SOL    HW2 3594   4.333   6.045   3.669
  899SOL     OW 3595   0.437   5.447   0.047
  899SOL    HW1 3596   0.337   5.449   0.046
  899SOL    HW2 3597   0.471   5.467   6.974
  900SOL     OW 3598   5.189   6.006   1.542
  900SOL    HW1 3599   5.262   6.014   1.609
  900SOL    HW2 3600   5.101   6.025   1.586
  901SOL     OW 3601   6.947   1.346   5.002
  901SOL    HW1 3602   6.887   1.322   5.078
  901SOL    HW2 3603   6.971   1.263   4.951
  902SOL     OW 3604   0.302   1.500   6.201
  902SOL    HW1 3605   0.211   1.524   6.234
  902SOL    HW2 3606   0.333   1.417   6.247
  903SOL     OW 3607   6.650   4.763   7.015
  903SOL    HW1 3608   6.559   4.797   0.018
  903SOL    HW2 3609   6.647   4.663   7.007
  904SOL     OW 3610   1.666   2.144   4.290
  904SOL    HW1 3611   1.597   2.176   4.225
  904SOL    HW2 3612   1.752   2.194   4.274
  905SOL     OW 3613   5.207   2.830   6.702
  905SOL    HW1 3614   5.259   2.915   6.716
  905SOL    HW2 3615   5.118   2.852   6.661
  906SOL     OW 3616   0.335   3.683   6.567
  906SOL    HW1 3617   0.348   3.657   6.663
  906SOL    HW2 3618   0.405   3.749   6.541
  907SOL     OW 3619   6.037   2.612   3.261
  907SOL    HW1 3620   5.968   2.590   3.330
  907SOL    HW2 3621   6.036   2.710   3.242
  908SOL     OW 3622   1.223   6.921   4.339
  908SOL    HW1 3623   1.189   6.999   4.392
  908SOL    HW2 3624   1.274   6.954   4.260
  909SOL     OW 3625   2.404   0.967   0.927
  909SOL    HW1 3626   2.468   1.043   0.916
  909SOL    HW2 3627   2.438   0.905   0.998
  910SOL     OW 3628   2.300   0.700   0.838
  910SOL    HW1 3629   2.330   0.676   0.930
  910SOL    HW2 3630   2.301   0.799   0.827
  911SOL     OW 3631   0.143   5.331   1.001
  911SOL    HW1 3632   0.191   5.408   1.041
  911SOL    HW2 3633   0.061   5.363   0.953
  912SOL     OW 3634   0.133   0.733   5.455
  912SOL    HW1 3635   0.100   0.655   5.401
  912SOL    HW2 3636   0.076   0.813   5.436
  913SOL     OW 3637   2.226   0.742   3.254
  913SOL    HW1 3638   2.304   0.771   3.199
  913SOL    HW2 3639   2.256   0.719   3.346
  914SOL     OW 3640   2.723   5.796   5.472
  914SOL    HW1 3641   2.624   5.784   5.479
  914SOL    HW2 3642   2.746   5.834   5.382
  915SOL     OW 3643   0.600   3.361   1.015
  915SOL    HW1 3644   0.662   3.339   1.091
  915SOL    HW2 3645   0.639   3.435   0.961
  916SOL     OW 3646   1.677   2.394   2.345
  916SOL    HW1 3647   1.584   2.402   2.312
  916SOL    HW2 3648   1.741   2.399   2.269
  917SOL     OW 3649   4.063   0.752   1.513
  917SOL    HW1 3650   3.982   0.693   1.505
  917SOL    HW2 3651   4.117   0.724   1.592
  918SOL     OW 3652   2.867   6.148   0.223
  918SOL    HW1 3653   2.915   6.234   0.242
  918SOL    HW2 3654   2.769   6.165   0.218
  919SOL     OW 3655   1.887   6.435   1.731
  919SOL    HW1 3656   1.823   6.402   1.801
  919SOL    HW2 3657   1.838   6.453   1.646
  920SOL     OW 3658   2.501   0.454   3.484
  920SOL    HW1 3659   2.572   0.438   3.416
  920SOL    HW2 3660   2.443   0.373   3.492
  921SOL     OW 3661   4.766   4.942   3.632
  921SOL    HW1 3662   4.805   5.014   3.574
  921SOL    HW2 3663   4.739   4.864   3.575
  922SOL     OW 3664   3.384   2.894   6.599
  922SOL    HW1 3665   3.444   2.974   6.590
  922SOL    HW2 3666   3.309   2.902   6.534
  923SOL     OW 3667   3.254   5.965   0.709
  923SOL    HW1 3668   3.209   5.883   0.673
  923SOL    HW2 3669   3.335   5.939   0.762
  924SOL     OW 3670   5.369   3.463   2.701
  924SOL    HW1 3671   5.411   3.520   2.630
  924SOL    HW2 3672   5.405   3.370   2.696
  925SOL     OW 3673   6.978   1.697   5.305
  925SOL    HW1 3674   6.987   1.674   5.402
  925SOL    HW2 3675   0.029   1.763   5.279
  926SOL     OW 3676   6.084   0.888   6.939
  926SOL    HW1 3677   6.035   0.975   6.952
  926SOL    HW2 3678   6.045   0.839   6.862
  927SOL     OW 3679   4.968   4.101   4.089
  927SOL    HW1 3680   5.023   4.171   4.042
  927SOL    HW2 3681   4.986   4.012   4.047
  928SOL     OW 3682   1.668   0.667   0.790
  928SOL    HW1 3683   1.626   0.576   0.791
  928SOL    HW2 3684   1.670   0.704   0.882
  929SOL     OW 3685   6.558   2.575   1.095
  929SOL    HW1 3686   6.633   2.536   1.149
  929SOL    HW2 3687   6.545   2.671   1.121
  930SOL     OW 3688   6.938   6.003   4.743
  930SOL    HW1 3689   0.005   5.955   4.728
  930SOL    HW2 3690   6.934   6.036   4.838
  931SOL     OW 3691   0.233   3.780   3.446
  931SOL    HW1 3692   0.147   3.825   3.471
  931SOL    HW2 3693   0.214   3.685   3.421
  932SOL     OW 3694   2.910   6.364   1.518
  932SOL    HW1 3695   2.948   6.456   1.522
  932SOL    HW2 3696   2.962   6.309   1.453
  933SOL     OW 3697   0.688   4.860   1.990
  933SOL    HW1 3698   0.656   4.945   1.949
  933SOL    HW2 3699   0.635   4.840   2.072
  934SOL     OW 3700   2.655   1.088   4.617
  934SOL    HW1 3701   2.732   1.081   4.680
  934SOL    HW2 3702   2.645   1.183   4.586
  935SOL     OW 3703   4.726   3.476   5.692
  935SOL    HW1 3704   4.763   3.518   5.775
  935SOL    HW2 3705   4.748   3.379   5.691
  936SOL     OW 3706   0.792   0.100   6.368
  936SOL    HW1 3707   0.881   0.082   6.411
  936SOL    HW2 3708   0.721   0.048   6.415
  937SOL     OW 3709   4.635   2.361   5.472
  937SOL    HW1 3710   4.674   2.280   5.428
  937SOL    HW2 3711   4.620   2.342   5.569
  938SOL     OW 3712   7.004   4.908   5.754
  938SOL    HW1 3713   6.907   4.887   5.755
  938SOL    HW2 3714   0.036   4.828   5.787
  939SOL     OW 3715   4.985   1.315   5.585
  939SOL    HW1 3716   4.967   1.400   5.535
  939SOL    HW2 3717   5.071   1.323   5.636
  940SOL     OW 3718   6.633   2.115   2.773
  940SOL    HW1 3719   6.662   2.071   2.858
  940SOL    HW2 3720   6.697   2.188   2.749
  941SOL     OW 3721   6.160   0.935   4.337
  941SOL    HW1 3722   6.127   0.966   4.426
  941SOL    HW2 3723   6.214   0.852   4.348
  942SOL     OW 3724   5.242   1.016   4.794
  942SOL    HW1 3725   5.148   1.039   4.771
  942SOL    HW2 3726   5.277   0.948   4.729
  943SOL     OW 3727   0.824   3.258   2.840
  943SOL    HW1 3728   0.762   3.193   2.884
  943SOL    HW2 3729   0.907   3.211   2.810
  944SOL     OW 3730   6.311   3.666   6.064
  944SOL    HW1 3731   6.365   3.596   6.109
  944SOL    HW2 3732   6.347   3.757   6.087
  945SOL     OW 3733   5.986   4.759   5.222
  945SOL    HW1 3734   5.911   4.796   5.276
  945SOL    HW2 3735   6.030   4.834   5.172
  946SOL     OW 3736   5.885   2.588   6.437
  946SOL    HW1 3737   5.852   2.680   6.414
  946SOL    HW2 3738   5.956   2.562   6.372
  947SOL     OW 3739   3.060   3.298   5.403
  947SOL    HW1 3740   3.037   3.252   5.317
  947SOL    HW2 3741   3.122   3.240   5.456
  948SOL     OW 3742   4.176   1.013   0.942
  948SOL    HW1 3743   4.123   0.935   0.909
  948SOL    HW2 3744   4.167   1.021   1.041
  949SOL     OW 3745   6.668   6.196   5.973
  949SOL    HW1 3746   6.676   6.284   6.019
  949SOL    HW2 3747   6.728   6.130   6.018
  950SOL     OW 3748   4.314   5.055   2.558
  950SOL    HW1 3749   4.373   4.988   2.512
  950SOL    HW2 3750   4.309   5.032   2.656
  951SOL     OW 3751   2.180   0.712   1.947
  951SOL    HW1 3752   2.144   0.729   1.855
  951SOL    HW2 3753   2.109   0.731   2.015
  952SOL     OW 3754   5.905   1.496   2.474
  952SOL    HW1 3755   5.966   1.568   2.441
  952SOL    HW2 3756   5.811   1.529   2.470
  953SOL     OW 3757   4.935   5.886   5.795
  953SOL    HW1 3758   4.988   5.946   5.854
  953SOL    HW2 3759   4.903   5.938   5.715
  954SOL     OW 3760   5.255   0.021   0.862
  954SOL    HW1 3761   5.252   6.941   0.870
  954SOL    HW2 3762   5.350   0.051   0.868
  955SOL     OW 3763   0.890   5.048   3.441
  955SOL    HW1 3764   0.955   4.987   3.395
  955SOL    HW2 3765   0.940   5.120   3.489
  956SOL     OW 3766   0.848   1.832   1.780
  956SOL    HW1 3767   0.856   1.775   1.698
  956SOL    HW2 3768   0.761   1.881   1.779
  957SOL     OW 3769   1.423   4.527   5.034
  957SOL    HW1 3770   1.512   4.509   4.993
  957SOL    HW2 3771   1.373   4.441   5.047
  958SOL     OW 3772   4.999   2.395   1.197
  958SOL    HW1 3773   4.921   2.369   1.254
  958SOL    HW2 3774   5.000   2.339   1.114
  959SOL     OW 3775   3.042   5.053   3.119
  959SOL    HW1 3776   2.975   4.982   3.098
  959SOL    HW2 3777   3.022   5.135   3.065
  960SOL     OW 3778   0.565   5.733   3.919
  960SOL    HW1 3779   0.525   5.641   3.918
  960SOL    HW2 3780   0.539   5.780   4.003
  961SOL     OW 3781   4.684   6.187   3.108
  961SOL    HW1 3782   4.720   6.254   3.172
  961SOL    HW2 3783   4.701   6.094   3.142
  962SOL     OW 3784   1.552   1.050   3.659
  962SOL    HW1 3785   1.611   1.066   3.580
  962SOL    HW2 3786   1.603   1.068   3.743
  963SOL     OW 3787   5.752   0.613   0.402
  963SOL    HW1 3788   5.851   0.628   0.394
  963SOL    HW2 3789   5.712   0.604   0.311
  964SOL     OW 3790   6.109   3.213   0.963
  964SOL    HW1 3791   6.050   3.140   0.930
  964SOL    HW2 3792   6.116   3.285   0.893
  965SOL     OW 3793   6.030   1.894   0.771
  965SOL    HW1 3794   5.953   1.832   0.756
  965SOL    HW2 3795   6.115   1.847   0.746
  966SOL     OW 3796   6.466   1.433   2.438
  966SOL    HW1 3797   6.521   1.485   2.502
  966SOL    HW2 3798   6.503   1.443   2.345
  967SOL     OW 3799   1.509   5.245   0.547
  967SOL    HW1 3800   1.594   5.251   0.599
  967SOL    HW2 3801   1.462   5.159   0.569
  968SOL     OW 3802   4.531   2.509   2.130
  968SOL    HW1 3803   4.608   2.445   2.133
  968SOL    HW2 3804   4.514   2.536   2.035
  969SOL     OW 3805   3.579   6.013   5.886
  969SOL    HW1 3806   3.529   6.065   5.818
  969SOL    HW2 3807   3.663   5.976   5.846
  970SOL     OW 3808   5.037   1.355   4.940
  970SOL    HW1 3809   5.040   1.285   5.011
  970SOL    HW2 3810   4.944   1.360   4.902
  971SOL     OW 3811   0.449   1.502   2.747
  971SOL    HW1 3812   0.381   1.504   2.820
  971SOL    HW2 3813   0.462   1.408   2.716
  972SOL     OW 3814   5.460   4.107   0.931
  972SOL    HW1 3815   5.549   4.068   0.911
  972SOL    HW2 3816   5.388   4.042   0.904
  973SOL     OW 3817   0.034   4.766   6.198
  973SOL    HW1 3818   0.088   4.695   6.244
  973SOL    HW2 3819   0.096   4.836   6.161
  974SOL     OW 3820   4.109   0.661   2.057
  974SOL    HW1 3821   4.132   0.629   2.150
  974SOL    HW2 3822   4.066   0.586   2.007
  975SOL     OW 3823   1.754   5.903   6.726
  975SOL    HW1 3824   1.721   5.937   6.814
  975SOL    HW2 3825   1.681   5.852   6.681
  976SOL     OW 3826   6.470   2.994   2.739
  976SOL    HW1 3827   6.463   3.094   2.739
  976SOL    HW2 3828   6.413   2.957   2.666
  977SOL     OW 3829   2.270   1.328   3.862
  977SOL    HW1 3830   2.221   1.312   3.947
  977SOL    HW2 3831   2.268   1.425   3.840
  978SOL     OW 3832   5.186   3.982   5.449
  978SOL    HW1 3833   5.196   4.042   5.370
  978SOL    HW2 3834   5.098   4.001   5.494
  979SOL     OW 3835   6.464   1.228   3.024
  979SOL    HW1 3836   6.546   1.175   3.002
  979SOL    HW2 3837   6.455   1.238   3.123
  980SOL     OW 3838   4.881   1.610   3.663
  980SOL    HW1 3839   4.957   1.648   3.717
  980SOL    HW2 3840   4.794   1.644   3.699
  981SOL     OW 3841   1.516   1.430   4.993
  981SOL    HW1 3842   1.504   1.365   4.918
  981SOL    HW2 3843   1.575   1.388   5.063
  982SOL     OW 3844   2.021   2.641   3.457
  982SOL    HW1 3845   1.945   2.611   3.514
  982SOL    HW2 3846   2.049   2.733   3.483
  983SOL     OW 3847   5.684   2.805   3.540
  983SOL    HW1 3848   5.741   2.838   3.616
  983SOL    HW2 3849   5.723   2.721   3.503
  984SOL     OW 3850   3.738   0.454   5.107
  984SOL    HW1 3851   3.751   0.486   5.201
  984SOL    HW2 3852   3.805   0.383   5.086
  985SOL     OW 3853   5.328   4.742   6.600
  985SOL    HW1 3854   5.350   4.834   6.632
  985SOL    HW2 3855   5.388   4.675   6.645
  986SOL     OW 3856   5.183   5.285   0.362
  986SOL    HW1 3857   5.224   5.368   0.399
  986SOL    HW2 3858   5.247   5.209   0.372
  987SOL     OW 3859   4.221   6.247   1.042
  987SOL    HW1 3860   4.295   6.208   1.097
  987SOL    HW2 3861   4.135   6.200   1.064
  988SOL     OW 3862   3.725   2.727   1.686
  988SOL    HW1 3863   3.669   2.775   1.619
  988SOL    HW2 3864   3.690   2.634   1.699
  989SOL     OW 3865   0.607   0.747   5.707
  989SOL    HW1 3866   0.604   0.821   5.775
  989SOL    HW2 3867   0.558   0.776   5.625
  990SOL     OW 3868   4.595   0.198   3.647
  990SOL    HW1 3869   4.639   0.254   3.577
  990SOL    HW2 3870   4.659   0.182   3.723
  991SOL     OW 3871   1.562   1.919   5.257
  991SOL    HW1 3872   1.502   1.842   5.237
  991SOL    HW2 3873   1.547   1.991   5.189
  992SOL     OW 3874   0.792   3.284   1.192
  992SOL    HW1 3875   0.794   3.294   1.292
  992SOL    HW2 3876   0.886   3.286   1.157
  993SOL     OW 3877   1.763   5.244   2.271
  993SOL    HW1 3878   1.693   5.276   2.336
  993SOL    HW2 3879   1.836   5.312   2.265
  994SOL     OW 3880   3.846   3.615   2.474
  994SOL    HW1 3881   3.807   3.602   2.565
  994SOL    HW2 3882   3.938   3.577   2.470
  995SOL     OW 3883   2.891   2.047   6.131
  995SOL    HW1 3884   2.857   1.957   6.105
  995SOL    HW2 3885   2.928   2.044   6.224
  996SOL     OW 3886   1.760   4.132   3.862
  996SOL    HW1 3887   1.793   4.225   3.846
  996SOL    HW2 3888   1.682   4.135   3.925
  997SOL     OW 3889   6.455   0.282   1.279
  997SOL    HW1 3890   6.391   0.357   1.262
  997SOL    HW2 3891   6.405   0.203   1.314
  998SOL     OW 3892   4.673   6.876   4.200
  998SOL    HW1 3893   4.710   6.784   4.217
  998SOL    HW2 3894   4.739   6.929   4.147
  999SOL     OW 3895   5.399   5.132   1.123
  999SOL    HW1 3896   5.412   5.067   1.049
  999SOL    HW2 3897   5.477   5.195   1.126
 1000SOL     OW 3898   1.180   0.579   2.417
 1000SOL    HW1 3899   1.161   0.657   2.477
 1000SOL    HW2 3900   1.185   0.495   2.472
 1001SOL     OW 3901   5.333   6.587   6.762
 1001SOL    HW1 3902   5.318   6.504   6.709
 1001SOL    HW2 3903   5.392   6.649   6.710
 1002SOL     OW 3904   5.778   1.901   6.612
 1002SOL    HW1 3905   5.710   1.827   6.613
 1002SOL    HW2 3906   5.779   1.947   6.700
 1003SOL     OW 3907   2.376   6.954   1.692
 1003SOL    HW1 3908   2.293   7.007   1.671
 1003SOL    HW2 3909   2.351   6.859   1.711
 1004SOL     OW 3910   6.744   0.421   0.998
 1004SOL    HW1 3911   6.763   0.410   1.096
 1004SOL    HW2 3912   6.666   0.483   0.986
 1005SOL     OW 3913   0.100   1.255   3.279
 1005SOL    HW1 3914   0.152   1.179   3.319
 1005SOL    HW2 3915   0.093   1.241   3.180
 1006SOL     OW 3916   1.787   6.352   1.471
 1006SOL    HW1 3917   1.691   6.353   1.499
 1006SOL    HW2 3918   1.805   6.272   1.415
 1007SOL     OW 3919   6.174   0.012   3.913
 1007SOL    HW1 3920   6.199   0.038   3.820
 1007SOL    HW2 3921   6.148   6.934   3.915
 1008SOL     OW 3922   1.817   2.961   4.520
 1008SOL    HW1 3923   1.733   2.950   4.572
 1008SOL    HW2 3924   1.804   2.925   4.428
 1009SOL     OW 3925   0.297   5.935   3.879
 1009SOL    HW1 3926   0.341   6.008   3.827
 1009SOL    HW2 3927   0.340   5.929   3.970
 1010SOL     OW 3928   3.750   2.100   6.474
 1010SOL    HW1 3929   3.714   2.192   6.463
 1010SOL    HW2 3930   3.753   2.077   6.572
 1011SOL     OW 3931   2.751   5.354   2.706
 1011SOL    HW1 3932   2.775   5.402   2.621
 1011SOL    HW2 3933   2.668   5.300   2.691
 1012SOL     OW 3934   6.599   6.042   0.123
 1012SOL    HW1 3935   6.630   6.009   0.034
 1012SOL    HW2 3936   6.624   6.139   0.133
 1013SOL     OW 3937   0.204   1.013   6.340
 1013SOL    HW1 3938   0.171   1.062   6.420
 1013SOL    HW2 3939   0.201   0.914   6.358
 1014SOL     OW 3940   5.028   5.426   6.842
 1014SOL    HW1 3941   5.102   5.445   6.906
 1014SOL    HW2 3942   4.987   5.512   6.811
 1015SOL     OW 3943   2.055   6.582   5.417
 1015SOL    HW1 3944   1.998   6.507   5.450
 1015SOL    HW2 3945   2.032   6.665   5.467
 1016SOL     OW 3946   2.387   3.349   0.520
 1016SOL    HW1 3947   2.375   3.332   0.422
 1016SOL    HW2 3948   2.329   3.426   0.547
 1017SOL     OW 3949   4.385   2.547   0.826
 1017SOL    HW1 3950   4.304   2.594   0.861
 1017SOL    HW2 3951   4.357   2.475   0.762
 1018SOL     OW 3952   1.804   3.665   3.986
 1018SOL    HW1 3953   1.900   3.661   3.959
 1018SOL    HW2 3954   1.752   3.597   3.934
 1019SOL     OW 3955   1.417   0.872   0.437
 1019SOL    HW1 3956   1.507   0.831   0.458
 1019SOL    HW2 3957   1.358   0.864   0.517
 1020SOL     OW 3958   1.462   6.977   1.053
 1020SOL    HW1 3959   1.368   6.945   1.042
 1020SOL    HW2 3960   1.482   6.990   1.150
 1021SOL     OW 3961   6.003   0.452   0.406
 1021SOL    HW1 3962   6.060   0.500   0.473
 1021SOL    HW2 3963   5.929   0.404   0.453
 1022SOL     OW 3964   3.955   4.239   6.133
 1022SOL    HW1 3965   3.955   4.326   6.084
 1022SOL    HW2 3966   3.935   4.255   6.230
 1023SOL     OW 3967   6.067   0.081   2.395
 1023SOL    HW1 3968   6.163   0.103   2.380
 1023SOL    HW2 3969   6.010   0.155   2.357
 1024SOL     OW 3970   6.130   2.963   3.940
 1024SOL    HW1 3971   6.178   2.965   4.028
 1024SOL    HW2 3972   6.089   3.053   3.922
 1025SOL     OW 3973   3.526   3.907   0.090
 1025SOL    HW1 3974   3.541   3.826   0.033
 1025SOL    HW2 3975   3.613   3.936   0.130
 1026SOL     OW 3976   1.607   1.857   0.972
 1026SOL    HW1 3977   1.630   1.841   0.876
 1026SOL    HW2 3978   1.632   1.950   0.997
 1027SOL     OW 3979   2.400   6.408   0.982
 1027SOL    HW1 3980   2.466   6.349   0.937
 1027SOL    HW2 3981   2.445   6.493   1.011
 1028SOL     OW 3982   3.681   5.665   0.323
 1028SOL    HW1 3983   3.599   5.720   0.314
 1028SOL    HW2 3984   3.762   5.722   0.308
 1029SOL     OW 3985   1.531   0.320   0.399
 1029SOL    HW1 3986   1.576   0.254   0.338
 1029SOL    HW2 3987   1.558   0.302   0.493
 1030SOL     OW 3988   3.351   2.850   2.026
 1030SOL    HW1 3989   3.299   2.919   1.975
 1030SOL    HW2 3990   3.398   2.789   1.963
 1031SOL     OW 3991   4.940   5.219   0.493
 1031SOL    HW1 3992   4.859   5.169   0.462
 1031SOL    HW2 3993   4.997   5.244   0.415
 1032SOL     OW 3994   1.783   1.778   4.626
 1032SOL    HW1 3995   1.772   1.793   4.724
 1032SOL    HW2 3996   1.755   1.685   4.603
 1033SOL     OW 3997   1.163   6.789   1.460
 1033SOL    HW1 3998   1.106   6.808   1.540
 1033SOL    HW2 3999   1.251   6.834   1.472
 1034SOL     OW 4000   1.500   6.084   4.977
 1034SOL    HW1 4001   1.436   6.007   4.976
 1034SOL    HW2 4002   1.450   6.169   4.992
 1035SOL     OW 4003   2.672   1.474   3.619
 1035SOL    HW1 4004   2.720   1.502   3.536
 1035SOL    HW2 4005   2.590   1.530   3.631
 1036SOL     OW 4006   3.047   0.220   1.271
 1036SOL    HW1 4007   2.966   0.262   1.312
 1036SOL    HW2 4008   3.098   0.170   1.341
 1037SOL     OW 4009   1.315   1.338   1.612
 1037SOL    HW1 4010   1.318   1.421   1.667
 1037SOL    HW2 4011   1.372   1.268   1.654
 1038SOL     OW 4012   1.071   0.965   5.438
 1038SOL    HW1 4013   0.987   0.923   5.402
 1038SOL    HW2 4014   1.148   0.942   5.379
 1039SOL     OW 4015   4.214   2.647   5.513
 1039SOL    HW1 4016   4.175   2.710   5.579
 1039SOL    HW2 4017   4.277   2.696   5.452
 1040SOL     OW 4018   5.156   2.844   2.671
 1040SOL    HW1 4019   5.120   2.933   2.643
 1040SOL    HW2 4020   5.236   2.857   2.730
 1041SOL     OW 4021   6.525   6.832   4.409
 1041SOL    HW1 4022   6.557   6.739   4.426
 1041SOL    HW2 4023   6.569   6.867   4.326
 1042SOL     OW 4024   3.161   4.961   2.117
 1042SOL    HW1 4025   3.085   4.927   2.062
 1042SOL    HW2 4026   3.127   4.995   2.204
 1043SOL     OW 4027   4.678   1.188   5.337
 1043SOL    HW1 4028   4.677   1.287   5.354
 1043SOL    HW2 4029   4.585   1.156   5.321
 1044SOL     OW 4030   4.027   2.989   1.705
 1044SOL    HW1 4031   3.928   3.003   1.700
 1044SOL    HW2 4032   4.066   3.051   1.773
 1045SOL     OW 4033   2.663   7.001   1.664
 1045SOL    HW1 4034   2.565   6.986   1.676
 1045SOL    HW2 4035   2.713   6.958   1.740
 1046SOL     OW 4036   1.926   0.075   0.199
 1046SOL    HW1 4037   1.998   0.136   0.166
 1046SOL    HW2 4038   1.947   7.000   0.172
 1047SOL     OW 4039   1.472   5.592   2.929
 1047SOL    HW1 4040   1.521   5.662   2.876
 1047SOL    HW2 4041   1.507   5.502   2.906
 1048SOL     OW 4042   4.693   5.726   5.637
 1048SOL    HW1 4043   4.705   5.777   5.723
 1048SOL    HW2 4044   4.782   5.693   5.606
 1049SOL     OW 4045   6.835   4.304   4.744
 1049SOL    HW1 4046   6.781   4.386   4.727
 1049SOL    HW2 4047   6.782   4.223   4.720
 1050SOL     OW 4048   3.024   5.380   0.741
 1050SOL    HW1 4049   3.099   5.427   0.788
 1050SOL    HW2 4050   3.045   5.373   0.644
 1051SOL     OW 4051   3.526   4.989   0.214
 1051SOL    HW1 4052   3.495   4.946   0.299
 1051SOL    HW2 4053   3.625   5.004   0.218
 1052SOL     OW 4054   4.454   0.332   4.087
 1052SOL    HW1 4055   4.517   0.289   4.022
 1052SOL    HW2 4056   4.425   0.421   4.050
 1053SOL     OW 4057   5.436   5.911   3.371
 1053SOL    HW1 4058   5.502   5.972   3.413
 1053SOL    HW2 4059   5.447   5.819   3.409
 1054SOL     OW 4060   2.830   4.564   5.570
 1054SOL    HW1 4061   2.765   4.527   5.504
 1054SOL    HW2 4062   2.794   4.551   5.663
 1055SOL     OW 4063   5.714   6.911   4.175
 1055SOL    HW1 4064   5.736   7.008   4.167
 1055SOL    HW2 4065   5.776   6.857   4.117
 1056SOL     OW 4066   1.758   6.036   5.342
 1056SOL    HW1 4067   1.771   6.011   5.246
 1056SOL    HW2 4068   1.841   6.011   5.394
 1057SOL     OW 4069   3.228   3.833   2.765
 1057SOL    HW1 4070   3.176   3.905   2.812
 1057SOL    HW2 4071   3.322   3.832   2.802
 1058SOL     OW 4072   4.991   1.705   2.198
 1058SOL    HW1 4073   4.891   1.709   2.200
 1058SOL    HW2 4074   5.027   1.737   2.286
 1059SOL     OW 4075   2.835   0.319   1.835
 1059SOL    HW1 4076   2.904   0.248   1.820
 1059SOL    HW2 4077   2.761   0.309   1.767
 1060SOL     OW 4078   0.233   3.175   4.645
 1060SOL    HW1 4079   0.304   3.231   4.689
 1060SOL    HW2 4080   0.167   3.234   4.599
 1061SOL     OW 4081   4.745   3.796   1.353
 1061SOL    HW1 4082   4.736   3.887   1.393
 1061SOL    HW2 4083   4.683   3.733   1.399
 1062SOL     OW 4084   6.424   5.149   6.103
 1062SOL    HW1 4085   6.361   5.205   6.158
 1062SOL    HW2 4086   6.457   5.073   6.158
 1063SOL     OW 4087   1.198   4.545   1.087
 1063SOL    HW1 4088   1.199   4.635   1.131
 1063SOL    HW2 4089   1.214   4.555   0.989
 1064SOL     OW 4090   0.922   4.186   2.420
 1064SOL    HW1 4091   0.971   4.273   2.422
 1064SOL    HW2 4092   0.876   4.176   2.332
 1065SOL     OW 4093   5.080   0.550   4.657
 1065SOL    HW1 4094   5.083   0.626   4.592
 1065SOL    HW2 4095   5.124   0.470   4.616
 1066SOL     OW 4096   5.567   0.619   4.350
 1066SOL    HW1 4097   5.570   0.715   4.377
 1066SOL    HW2 4098   5.482   0.577   4.382
 1067SOL     OW 4099   1.720   2.218   0.262
 1067SOL    HW1 4100   1.740   2.157   0.185
 1067SOL    HW2 4101   1.771   2.303   0.250
 1068SOL     OW 4102   5.613   4.503   2.052
 1068SOL    HW1 4103   5.614   4.416   2.002
 1068SOL    HW2 4104   5.568   4.573   1.996
 1069SOL     OW 4105   4.727   4.854   1.414
 1069SOL    HW1 4106   4.788   4.818   1.344
 1069SOL    HW2 4107   4.781   4.882   1.494
 1070SOL     OW 4108   1.077   1.169   0.334
 1070SOL    HW1 4109   1.156   1.192   0.390
 1070SOL    HW2 4110   1.096   1.190   0.239
 1071SOL     OW 4111   4.101   0.470   3.217
 1071SOL    HW1 4112   4.133   0.380   3.249
 1071SOL    HW2 4113   4.058   0.460   3.128
 1072SOL     OW 4114   1.614   5.974   1.453
 1072SOL    HW1 4115   1.592   5.883   1.417
 1072SOL    HW2 4116   1.686   6.015   1.397
 1073SOL     OW 4117   3.575   5.959   2.694
 1073SOL    HW1 4118   3.626   6.025   2.750
 1073SOL    HW2 4119   3.613   5.958   2.601
 1074SOL     OW 4120   1.709   5.148   1.814
 1074SOL    HW1 4121   1.635   5.143   1.746
 1074SOL    HW2 4122   1.681   5.207   1.890
 1075SOL     OW 4123   4.868   5.783   3.703
 1075SOL    HW1 4124   4.880   5.684   3.692
 1075SOL    HW2 4125   4.952   5.830   3.675
 1076SOL     OW 4126   0.523   4.526   4.857
 1076SOL    HW1 4127   0.532   4.435   4.897
 1076SOL    HW2 4128   0.611   4.555   4.820
 1077SOL     OW 4129   5.920   6.861   0.353
 1077SOL    HW1 4130   5.829   6.899   0.363
 1077SOL    HW2 4131   5.989   6.931   0.373
 1078SOL     OW 4132   2.045   0.707   2.643
 1078SOL    HW1 4133   2.097   0.791   2.627
 1078SOL    HW2 4134   2.107   0.629   2.650
 1079SOL     OW 4135   1.815   5.264   2.862
 1079SOL    HW1 4136   1.871   5.184   2.885
 1079SOL    HW2 4137   1.868   5.347   2.878
 1080SOL     OW 4138   1.748   4.372   3.547
 1080SOL    HW1 4139   1.676   4.345   3.483
 1080SOL    HW2 4140   1.830   4.397   3.496
 1081SOL     OW 4141   0.203   0.698   5.119
 1081SOL    HW1 4142   0.300   0.701   5.143
 1081SOL    HW2 4143   0.157   0.631   5.178
 1082SOL     OW 4144   1.656   0.221   5.838
 1082SOL    HW1 4145   1.700   0.162   5.770
 1082SOL    HW2 4146   1.674   0.186   5.929
 1083SOL     OW 4147   3.843   4.110   1.768
 1083SOL    HW1 4148   3.916   4.142   1.708
 1083SOL    HW2 4149   3.776   4.183   1.780
 1084SOL     OW 4150   6.696   5.817   1.154
 1084SOL    HW1 4151   6.772   5.874   1.124
 1084SOL    HW2 4152   6.730   5.743   1.212
 1085SOL     OW 4153   1.983   4.372   3.432
 1085SOL    HW1 4154   1.958   4.311   3.357
 1085SOL    HW2 4155   2.076   4.351   3.463
 1086SOL     OW 4156   6.589   5.727   3.226
 1086SOL    HW1 4157   6.525   5.794   3.188
 1086SOL    HW2 4158   6.539   5.644   3.251
 1087SOL     OW 4159   5.396   2.521   5.584
 1087SOL    HW1 4160   5.349   2.559   5.663
 1087SOL    HW2 4161   5.395   2.587   5.509
 1088SOL     OW 4162   6.298   4.998   3.618
 1088SOL    HW1 4163   6.359   5.051   3.559
 1088SOL    HW2 4164   6.292   5.042   3.708
 1089SOL     OW 4165   1.021   6.910   4.942
 1089SOL    HW1 4166   0.946   6.871   4.888
 1089SOL    HW2 4167   1.059   6.988   4.894
 1090SOL     OW 4168   2.976   1.104   3.697
 1090SOL    HW1 4169   2.944   1.184   3.747
 1090SOL    HW2 4170   2.948   1.111   3.602
 1091SOL     OW 4171   1.971   2.234   4.272
 1091SOL    HW1 4172   2.018   2.152   4.305
 1091SOL    HW2 4173   2.014   2.265   4.187
 1092SOL     OW 4174   2.592   3.601   1.439
 1092SOL    HW1 4175   2.628   3.513   1.469
 1092SOL    HW2 4176   2.667   3.658   1.405
 1093SOL     OW 4177   2.230   2.000   3.044
 1093SOL    HW1 4178   2.181   2.068   2.990
 1093SOL    HW2 4179   2.308   2.044   3.089
 1094SOL     OW 4180   0.264   6.746   2.615
 1094SOL    HW1 4181   0.283   6.832   2.663
 1094SOL    HW2 4182   0.325   6.738   2.536
 1095SOL     OW 4183   6.423   2.306   5.947
 1095SOL    HW1 4184   6.452   2.402   5.953
 1095SOL    HW2 4185   6.468   2.253   6.019
 1096SOL     OW 4186   3.625   4.606   1.434
 1096SOL    HW1 4187   3.628   4.703   1.455
 1096SOL    HW2 4188   3.660   4.554   1.512
 1097SOL     OW 4189   0.969   4.699   4.285
 1097SOL    HW1 4190   0.879   4.712   4.244
 1097SOL    HW2 4191   1.026   4.642   4.226
 1098SOL     OW 4192   5.498   2.496   0.783
 1098SOL    HW1 4193   5.429   2.568   0.788
 1098SOL    HW2 4194   5.473   2.423   0.847
 1099SOL     OW 4195   4.109   1.106   4.701
 1099SOL    HW1 4196   4.084   1.038   4.769
 1099SOL    HW2 4197   4.171   1.174   4.741
 1100SOL     OW 4198   1.924   1.366   6.555
 1100SOL    HW1 4199   2.022   1.346   6.554
 1100SOL    HW2 4200   1.910   1.463   6.536
 1101SOL     OW 4201   5.550   3.141   0.850
 1101SOL    HW1 4202   5.591   3.226   0.883
 1101SOL    HW2 4203   5.452   3.156   0.834
 1102SOL     OW 4204   2.026   4.637   3.142
 1102SOL    HW1 4205   1.972   4.673   3.066
 1102SOL    HW2 4206   2.072   4.553   3.114
 1103SOL     OW 4207   2.498   0.799   1.114
 1103SOL    HW1 4208   2.508   0.718   1.171
 1103SOL    HW2 4209   2.514   0.881   1.169
 1104SOL     OW 4210   1.516   3.729   6.473
 1104SOL    HW1 4211   1.419   3.722   6.448
 1104SOL    HW2 4212   1.545   3.824   6.465
 1105SOL     OW 4213   4.887   4.032   5.940
 1105SOL    HW1 4214   4.863   4.124   5.973
 1105SOL    HW2 4215   4.889   3.969   6.018
 1106SOL     OW 4216   1.017   1.656   0.429
 1106SOL    HW1 4217   1.087   1.706   0.379
 1106SOL    HW2 4218   0.967   1.719   0.489
 1107SOL     OW 4219   0.188   0.719   6.699
 1107SOL    HW1 4220   0.242   0.653   6.751
 1107SOL    HW2 4221   0.237   0.805   6.692
 1108SOL     OW 4222   2.799   0.710   5.733
 1108SOL    HW1 4223   2.773   0.777   5.803
 1108SOL    HW2 4224   2.898   0.702   5.729
 1109SOL     OW 4225   4.578   5.623   4.856
 1109SOL    HW1 4226   4.613   5.711   4.887
 1109SOL    HW2 4227   4.653   5.558   4.844
 1110SOL     OW 4228   3.221   1.943   2.436
 1110SOL    HW1 4229   3.215   2.036   2.472
 1110SOL    HW2 4230   3.225   1.878   2.511
 1111SOL     OW 4231   5.625   5.739   0.230
 1111SOL    HW1 4232   5.633   5.696   0.320
 1111SOL    HW2 4233   5.632   5.839   0.240
 1112SOL     OW 4234   6.178   0.997   2.952
 1112SOL    HW1 4235   6.156   1.018   2.857
 1112SOL    HW2 4236   6.272   0.961   2.957
 1113SOL     OW 4237   6.182   3.321   2.628
 1113SOL    HW1 4238   6.229   3.408   2.636
 1113SOL    HW2 4239   6.188   3.288   2.534
 1114SOL     OW 4240   4.677   0.767   6.453
 1114SOL    HW1 4241   4.642   0.787   6.361
 1114SOL    HW2 4242   4.731   0.844   6.485
 1115SOL     OW 4243   4.218   3.322   6.717
 1115SOL    HW1 4244   4.183   3.415   6.723
 1115SOL    HW2 4245   4.315   3.321   6.742
 1116SOL     OW 4246   5.613   5.530   4.542
 1116SOL    HW1 4247   5.557   5.540   4.460
 1116SOL    HW2 4248   5.598   5.440   4.582
 1117SOL     OW 4249   2.762   2.435   1.243
 1117SOL    HW1 4250   2.806   2.496   1.309
 1117SOL    HW2 4251   2.789   2.462   1.150
 1118SOL     OW 4252   1.796   4.933   2.036
 1118SOL    HW1 4253   1.868   5.000   2.048
 1118SOL    HW2 4254   1.750   4.947   1.948
 1119SOL     OW 4255   3.688   4.251   1.457
 1119SOL    HW1 4256   3.680   4.323   1.388
 1119SOL    HW2 4257   3.675   4.291   1.548
 1120SOL     OW 4258   5.769   5.840   5.719
 1120SOL    HW1 4259   5.837   5.879   5.782
 1120SOL    HW2 4260   5.685   5.893   5.724
 1121SOL     OW 4261   5.054   3.740   2.859
 1121SOL    HW1 4262   5.001   3.693   2.929
 1121SOL    HW2 4263   5.016   3.719   2.769
 1122SOL     OW 4264   5.337   3.209   6.539
 1122SOL    HW1 4265   5.261   3.253   6.587
 1122SOL    HW2 4266   5.320   3.210   6.440
 1123SOL     OW 4267   4.726   1.668   2.264
 1123SOL    HW1 4268   4.721   1.745   2.326
 1123SOL    HW2 4269   4.634   1.648   2.228
 1124SOL     OW 4270   6.850   4.006   4.911
 1124SOL    HW1 4271   6.808   3.941   4.848
 1124SOL    HW2 4272   6.913   3.958   4.972
 1125SOL     OW 4273   2.570   1.863   4.819
 1125SOL    HW1 4274   2.644   1.924   4.790
 1125SOL    HW2 4275   2.515   1.908   4.889
 1126SOL     OW 4276   5.029   0.323   6.866
 1126SOL    HW1 4277   4.953   0.299   6.806
 1126SOL    HW2 4278   5.004   0.403   6.920
 1127SOL     OW 4279   3.884   5.314   5.297
 1127SOL    HW1 4280   3.824   5.290   5.221
 1127SOL    HW2 4281   3.892   5.236   5.359
 1128SOL     OW 4282   5.023   2.656   5.062
 1128SOL    HW1 4283   4.924   2.649   5.071
 1128SOL    HW2 4284   5.057   2.578   5.009
 1129SOL     OW 4285   4.131   6.871   6.941
 1129SOL    HW1 4286   4.083   6.959   6.951
 1129SOL    HW2 4287   4.157   6.836   0.011
 1130SOL     OW 4288   1.966   3.856   0.788
 1130SOL    HW1 4289   2.002   3.901   0.706
 1130SOL    HW2 4290   1.979   3.916   0.867
 1131SOL     OW 4291   0.523   6.309   5.989
 1131SOL    HW1 4292   0.532   6.326   5.891
 1131SOL    HW2 4293   0.603   6.346   6.036
 1132SOL     OW 4294   4.323   0.528   6.736
 1132SOL    HW1 4295   4.384   0.595   6.694
 1132SOL    HW2 4296   4.377   0.452   6.773
 1133SOL     OW 4297   6.625   2.237   0.542
 1133SOL    HW1 4298   6.542   2.259   0.593
 1133SOL    HW2 4299   6.660   2.321   0.499
 1134SOL     OW 4300   5.740   1.648   0.540
 1134SOL    HW1 4301   5.765   1.685   0.629
 1134SOL    HW2 4302   5.763   1.714   0.468
 1135SOL     OW 4303   3.031   1.879   2.267
 1135SOL    HW1 4304   3.098   1.901   2.338
 1135SOL    HW2 4305   2.975   1.959   2.247
 1136SOL     OW 4306   3.132   5.089   5.039
 1136SOL    HW1 4307   3.071   5.168   5.052
 1136SOL    HW2 4308   3.080   5.012   5.004
 1137SOL     OW 4309   0.946   3.506   0.666
 1137SOL    HW1 4310   1.029   3.518   0.612
 1137SOL    HW2 4311   0.892   3.432   0.627
 1138SOL     OW 4312   1.388   1.682   6.177
 1138SOL    HW1 4313   1.315   1.614   6.169
 1138SOL    HW2 4314   1.418   1.710   6.086
 1139SOL     OW 4315   2.233   0.118   2.035
 1139SOL    HW1 4316   2.249   0.172   2.118
 1139SOL    HW2 4317   2.179   0.171   1.970
 1140SOL     OW 4318   3.877   2.121   2.456
 1140SOL    HW1 4319   3.903   2.211   2.491
 1140SOL    HW2 4320   3.780   2.105   2.476
 1141SOL     OW 4321   6.349   5.611   6.056
 1141SOL    HW1 4322   6.273   5.546   6.050
 1141SOL    HW2 4323   6.394   5.601   6.144
 1142SOL     OW 4324   4.783   0.626   4.383
 1142SOL    HW1 4325   4.722   0.552   4.356
 1142SOL    HW2 4326   4.770   0.646   4.481
 1143SOL     OW 4327   3.394   2.104   2.709
 1143SOL    HW1 4328   3.386   2.139   2.802
 1143SOL    HW2 4329   3.342   2.164   2.647
 1144SOL     OW 4330   6.704   4.537   4.723
 1144SOL    HW1 4331   6.786   4.592   4.711
 1144SOL    HW2 4332   6.625   4.586   4.684
 1145SOL     OW 4333   0.155   4.939   3.492
 1145SOL    HW1 4334   0.170   4.840   3.492
 1145SOL    HW2 4335   0.089   4.963   3.420
 1146SOL     OW 4336   4.912   1.066   1.060
 1146SOL    HW1 4337   4.968   1.148   1.068
 1146SOL    HW2 4338   4.819   1.086   1.092
 1147SOL     OW 4339   0.834   4.159   0.551
 1147SOL    HW1 4340   0.766   4.086   0.547
 1147SOL    HW2 4341   0.788   4.246   0.571
 1148SOL     OW 4342   2.780   6.794   0.233
 1148SOL    HW1 4343   2.853   6.863   0.239
 1148SOL    HW2 4344   2.694   6.838   0.209
 1149SOL     OW 4345   5.353   3.525   3.202
 1149SOL    HW1 4346   5.258   3.504   3.179
 1149SOL    HW2 4347   5.414   3.495   3.128
 1150SOL     OW 4348   1.649   4.056   1.015
 1150SOL    HW1 4349   1.596   4.086   0.935
 1150SOL    HW2 4350   1.724   4.119   1.032
 1151SOL     OW 4351   5.380   5.544   6.642
 1151SOL    HW1 4352   5.403   5.638   6.618
 1151SOL    HW2 4353   5.282   5.528   6.629
 1152SOL     OW 4354   0.936   6.609   5.137
 1152SOL    HW1 4355   0.874   6.685   5.152
 1152SOL    HW2 4356   0.909   6.560   5.053
 1153SOL     OW 4357   2.612   6.597   1.996
 1153SOL    HW1 4358   2.626   6.499   2.011
 1153SOL    HW2 4359   2.518   6.613   1.965
 1154SOL     OW 4360   0.142   3.364   1.586
 1154SOL    HW1 4361   0.201   3.284   1.585
 1154SOL    HW2 4362   0.050   3.338   1.558
 1155SOL     OW 4363   3.675   4.926   6.625
 1155SOL    HW1 4364   3.654   4.873   6.707
 1155SOL    HW2 4365   3.754   4.886   6.579
 1156SOL     OW 4366   2.237   0.613   4.371
 1156SOL    HW1 4367   2.139   0.602   4.353
 1156SOL    HW2 4368   2.263   0.709   4.356
 1157SOL     OW 4369   6.199   1.969   4.392
 1157SOL    HW1 4370   6.145   1.917   4.458
 1157SOL    HW2 4371   6.294   1.975   4.423
 1158SOL     OW 4372   6.471   5.164   5.630
 1158SOL    HW1 4373   6.379   5.182   5.595
 1158SOL    HW2 4374   6.518   5.251   5.646
 1159SOL     OW 4375   4.807   0.694   2.875
 1159SOL    HW1 4376   4.797   0.598   2.900
 1159SOL    HW2 4377   4.839   0.746   2.954
 1160SOL     OW 4378   3.446   3.520   1.443
 1160SOL    HW1 4379   3.461   3.424   1.466
 1160SOL    HW2 4380   3.347   3.538   1.434
 1161SOL     OW 4381   5.180   0.603   5.182
 1161SOL    HW1 4382   5.191   0.549   5.099
 1161SOL    HW2 4383   5.127   0.551   5.249
 1162SOL     OW 4384   4.271   2.929   0.653
 1162SOL    HW1 4385   4.173   2.952   0.656
 1162SOL    HW2 4386   4.322   2.994   0.709
 1163SOL     OW 4387   5.772   2.453   2.242
 1163SOL    HW1 4388   5.707   2.441   2.167
 1163SOL    HW2 4389   5.733   2.417   2.326
 1164SOL     OW 4390   5.120   2.873   3.653
 1164SOL    HW1 4391   5.151   2.951   3.708
 1164SOL    HW2 4392   5.200   2.828   3.613
 1165SOL     OW 4393   1.865   4.332   4.086
 1165SOL    HW1 4394   1.894   4.349   3.992
 1165SOL    HW2 4395   1.902   4.244   4.118
 1166SOL     OW 4396   4.032   1.077   6.967
 1166SOL    HW1 4397   4.006   1.137   0.024
 1166SOL    HW2 4398   3.956   1.073   6.902
 1167SOL     OW 4399   2.938   0.310   6.141
 1167SOL    HW1 4400   2.947   0.211   6.137
 1167SOL    HW2 4401   2.902   0.344   6.053
 1168SOL     OW 4402   5.517   0.290   2.199
 1168SOL    HW1 4403   5.565   0.211   2.238
 1168SOL    HW2 4404   5.565   0.374   2.226
 1169SOL     OW 4405   0.290   3.082   0.321
 1169SOL    HW1 4406   0.211   3.025   0.296
 1169SOL    HW2 4407   0.323   3.055   0.411
 1170SOL     OW 4408   4.408   0.741   2.206
 1170SOL    HW1 4409   4.380   0.724   2.301
 1170SOL    HW2 4410   4.435   0.654   2.164
 1171SOL     OW 4411   2.257   5.759   0.575
 1171SOL    HW1 4412   2.222   5.780   0.666
 1171SOL    HW2 4413   2.354   5.737   0.581
 1172SOL     OW 4414   3.499   3.984   3.392
 1172SOL    HW1 4415   3.489   4.059   3.457
 1172SOL    HW2 4416   3.414   3.974   3.339
 1173SOL     OW 4417   3.568   6.855   5.990
 1173SOL    HW1 4418   3.509   6.790   5.943
 1173SOL    HW2 4419   3.515   6.907   6.056
 1174SOL     OW 4420   3.210   5.620   0.757
 1174SOL    HW1 4421   3.175   5.620   0.850
 1174SOL    HW2 4422   3.166   5.694   0.705
 1175SOL     OW 4423   4.792   3.867   6.728
 1175SOL    HW1 4424   4.748   3.919   6.801
 1175SOL    HW2 4425   4.861   3.806   6.766
 1176SOL     OW 4426   6.002   4.678   0.526
 1176SOL    HW1 4427   5.979   4.761   0.577
 1176SOL    HW2 4428   6.085   4.637   0.564
 1177SOL     OW 4429   0.133   2.028   5.498
 1177SOL    HW1 4430   0.066   1.981   5.555
 1177SOL    HW2 4431   0.092   2.110   5.458
 1178SOL     OW 4432   4.330   3.639   1.434
 1178SOL    HW1 4433   4.271   3.669   1.359
 1178SOL    HW2 4434   4.317   3.541   1.449
 1179SOL     OW 4435   3.336   5.227   0.501
 1179SOL    HW1 4436   3.243   5.252   0.476
 1179SOL    HW2 4437   3.356   5.135   0.467
 1180SOL     OW 4438   2.907   0.359   3.755
 1180SOL    HW1 4439   2.989   0.314   3.719
 1180SOL    HW2 4440   2.830   0.296   3.750
 1181SOL     OW 4441   0.709   3.390   4.508
 1181SOL    HW1 4442   0.704   3.295   4.540
 1181SOL    HW2 4443   0.793   3.404   4.456
 1182SOL     OW 4444   2.019   5.065   2.919
 1182SOL    HW1 4445   2.105   5.042   2.874
 1182SOL    HW2 4446   2.035   5.130   2.993
 1183SOL     OW 4447   4.115   5.427   2.638
 1183SOL    HW1 4448   4.153   5.401   2.727
 1183SOL    HW2 4449   4.097   5.345   2.584
 1184SOL     OW 4450   3.323   2.064   5.030
 1184SOL    HW1 4451   3.251   2.003   5.062
 1184SOL    HW2 4452   3.283   2.154   5.009
 1185SOL     OW 4453   1.933   0.393   0.570
 1185SOL    HW1 4454   1.903   0.460   0.502
 1185SOL    HW2 4455   2.010   0.431   0.622
 1186SOL     OW 4456   6.006   6.816   6.216
 1186SOL    HW1 4457   6.030   6.739   6.156
 1186SOL    HW2 4458   5.995   6.782   6.310
 1187SOL     OW 4459   5.724   5.918   5.052
 1187SOL    HW1 4460   5.671   5.992   5.094
 1187SOL    HW2 4461   5.800   5.894   5.112
 1188SOL     OW 4462   3.428   6.525   6.242
 1188SOL    HW1 4463   3.442   6.623   6.224
 1188SOL    HW2 4464   3.342   6.511   6.290
 1189SOL     OW 4465   5.472   1.091   1.879
 1189SOL    HW1 4466   5.395   1.125   1.826
 1189SOL    HW2 4467   5.552   1.149   1.861
 1190SOL     OW 4468   4.216   4.869   4.664
 1190SOL    HW1 4469   4.242   4.865   4.760
 1190SOL    HW2 4470   4.177   4.959   4.644
 1191SOL     OW 4471   3.701   5.397   5.579
 1191SOL    HW1 4472   3.776   5.460   5.559
 1191SOL    HW2 4473   3.651   5.377   5.494
 1192SOL     OW 4474   5.727   4.791   3.432
 1192SOL    HW1 4475   5.763   4.770   3.342
 1192SOL    HW2 4476   5.662   4.721   3.461
 1193SOL     OW 4477   6.607   0.544   4.389
 1193SOL    HW1 4478   6.582   0.520   4.295
 1193SOL    HW2 4479   6.702   0.519   4.405
 1194SOL     OW 4480   0.219   1.244   1.138
 1194SOL    HW1 4481   0.176   1.180   1.202
 1194SOL    HW2 4482   0.312   1.215   1.119
 1195SOL     OW 4483   6.350   2.076   0.587
 1195SOL    HW1 4484   6.390   2.060   0.497
 1195SOL    HW2 4485   6.300   2.162   0.587
 1196SOL     OW 4486   0.185   4.625   2.087
 1196SOL    HW1 4487   0.213   4.613   2.182
 1196SOL    HW2 4488   0.206   4.543   2.035
 1197SOL     OW 4489   3.824   6.127   5.656
 1197SOL    HW1 4490   3.878   6.167   5.582
 1197SOL    HW2 4491   3.798   6.199   5.721
 1198SOL     OW 4492   2.319   2.693   2.472
 1198SOL    HW1 4493   2.227   2.730   2.460
 1198SOL    HW2 4494   2.366   2.689   2.384
 1199SOL     OW 4495   3.747   2.973   2.775
 1199SOL    HW1 4496   3.655   2.933   2.785
 1199SOL    HW2 4497   3.782   3.000   2.864
 1200SOL     OW 4498   4.102   3.451   5.018
 1200SOL    HW1 4499   4.056   3.509   4.951
 1200SOL    HW2 4500   4.095   3.355   4.990
 1201SOL     OW 4501   0.393   1.202   4.147
 1201SOL    HW1 4502   0.356   1.109   4.145
 1201SOL    HW2 4503   0.454   1.216   4.069
 1202SOL     OW 4504   6.239   0.737   5.784
 1202SOL    HW1 4505   6.308   0.749   5.856
 1202SOL    HW2 4506   6.149   0.728   5.826
 1203SOL     OW 4507   5.717   6.745   0.696
 1203SOL    HW1 4508   5.755   6.784   0.780
 1203SOL    HW2 4509   5.741   6.649   0.689
 1204SOL     OW 4510   3.945   1.291   0.106
 1204SOL    HW1 4511   3.919   1.269   0.200
 1204SOL    HW2 4512   3.870   1.339   0.061
 1205SOL     OW 4513   4.429   3.096   6.613
 1205SOL    HW1 4514   4.458   3.175   6.667
 1205SOL    HW2 4515   4.493   3.020   6.629
 1206SOL     OW 4516   1.774   1.840   4.895
 1206SOL    HW1 4517   1.730   1.926   4.918
 1206SOL    HW2 4518   1.868   1.840   4.931
 1207SOL     OW 4519   6.964   6.679   1.067
 1207SOL    HW1 4520   0.033   6.701   1.026
 1207SOL    HW2 4521   6.892   6.695   1.000
 1208SOL     OW 4522   3.542   4.079   2.470
 1208SOL    HW1 4523   3.595   4.028   2.403
 1208SOL    HW2 4524   3.452   4.100   2.432
 1209SOL     OW 4525   5.921   6.745   4.800
 1209SOL    HW1 4526   5.839   6.785   4.841
 1209SOL    HW2 4527   5.900   6.654   4.765
 1210SOL     OW 4528   4.922   6.453   3.431
 1210SOL    HW1 4529   4.828   6.487   3.423
 1210SOL    HW2 4530   4.925   6.381   3.500
 1211SOL     OW 4531   1.649   3.563   3.439
 1211SOL    HW1 4532   1.660   3.662   3.452
 1211SOL    HW2 4533   1.564   3.534   3.482
 1212SOL     OW 4534   6.896   2.403   5.657
 1212SOL    HW1 4535   6.905   2.502   5.648
 1212SOL    HW2 4536   6.799   2.379   5.657
 1213SOL     OW 4537   5.651   2.639   4.993
 1213SOL    HW1 4538   5.682   2.669   4.903
 1213SOL    HW2 4539   5.668   2.711   5.060
 1214SOL     OW 4540   1.337   3.447   4.502
 1214SOL    HW1 4541   1.365   3.362   4.458
 1214SOL    HW2 4542   1.253   3.481   4.460
 1215SOL     OW 4543   2.163   4.840   2.023
 1215SOL    HW1 4544   2.257   4.855   1.992
 1215SOL    HW2 4545   2.116   4.928   2.031
 1216SOL     OW 4546   0.513   0.106   1.433
 1216SOL    HW1 4547   0.535   0.068   1.343
 1216SOL    HW2 4548   0.492   0.204   1.424
 1217SOL     OW 4549   1.867   6.677   0.814
 1217SOL    HW1 4550   1.815   6.616   0.874
 1217SOL    HW2 4551   1.804   6.728   0.756
 1218SOL     OW 4552   0.786   3.126   4.834
 1218SOL    HW1 4553   0.874   3.171   4.816
 1218SOL    HW2 4554   0.732   3.184   4.895
 1219SOL     OW 4555   4.830   4.377   1.650
 1219SOL    HW1 4556   4.794   4.284   1.663
 1219SOL    HW2 4557   4.757   4.443   1.669
 1220SOL     OW 4558   5.131   4.087   2.447
 1220SOL    HW1 4559   5.192   4.009   2.435
 1220SOL    HW2 4560   5.174   4.153   2.508
 1221SOL     OW 4561   5.855   3.897   6.756
 1221SOL    HW1 4562   5.947   3.856   6.753
 1221SOL    HW2 4563   5.843   3.956   6.676
 1222SOL     OW 4564   7.001   0.432   0.872
 1222SOL    HW1 4565   0.050   0.367   0.905
 1222SOL    HW2 4566   6.912   0.410   0.911
 1223SOL     OW 4567   5.137   1.366   0.559
 1223SOL    HW1 4568   5.050   1.324   0.585
 1223SOL    HW2 4569   5.163   1.335   0.468
 1224SOL     OW 4570   3.352   5.941   6.869
 1224SOL    HW1 4571   3.384   5.986   6.952
 1224SOL    HW2 4572   3.275   5.881   6.891
 1225SOL     OW 4573   4.113   2.530   1.131
 1225SOL    HW1 4574   4.053   2.517   1.052
 1225SOL    HW2 4575   4.146   2.441   1.162
 1226SOL     OW 4576   5.445   6.495   1.141
 1226SOL    HW1 4577   5.518   6.429   1.156
 1226SOL    HW2 4578   5.387   6.500   1.222
 1227SOL     OW 4579   6.061   5.083   5.767
 1227SOL    HW1 4580   6.001   5.060   5.843
 1227SOL    HW2 4581   6.151   5.109   5.802
 1228SOL     OW 4582   3.473   3.093   0.641
 1228SOL    HW1 4583   3.426   3.168   0.595
 1228SOL    HW2 4584   3.425   3.072   0.726
 1229SOL     OW 4585   1.384   6.926   1.499
 1229SOL    HW1 4586   1.380   0.003   1.528
 1229SOL    HW2 4587   1.452   6.916   1.426
 1230SOL     OW 4588   5.112   5.936   3.066
 1230SOL    HW1 4589   5.135   5.960   3.161
 1230SOL    HW2 4590   5.044   6.000   3.031
 1231SOL     OW 4591   1.457   2.370   5.952
 1231SOL    HW1 4592   1.475   2.393   6.048
 1231SOL    HW2 4593   1.361   2.347   5.940
 1232SOL     OW 4594   4.721   1.185   5.046
 1232SOL    HW1 4595   4.800   1.204   5.104
 1232SOL    HW2 4596   4.648   1.146   5.103
 1233SOL     OW 4597   1.125   5.569   3.569
 1233SOL    HW1 4598   1.128   5.524   3.480
 1233SOL    HW2 4599   1.200   5.535   3.626
 1234SOL     OW 4600   0.051   2.635   6.652
 1234SOL    HW1 4601   0.106   2.572   6.597
 1234SOL    HW2 4602   6.973   2.618   6.634
 1235SOL     OW 4603   6.458   5.177   0.069
 1235SOL    HW1 4604   6.538   5.120   0.048
 1235SOL    HW2 4605   6.395   5.126   0.126
 1236SOL     OW 4606   3.447   2.181   0.629
 1236SOL    HW1 4607   3.503   2.190   0.711
 1236SOL    HW2 4608   3.497   2.129   0.560
 1237SOL     OW 4609   1.917   6.359   4.800
 1237SOL    HW1 4610   1.912   6.438   4.862
 1237SOL    HW2 4611   1.847   6.368   4.729
 1238SOL     OW 4612   0.661   0.116   3.599
 1238SOL    HW1 4613   0.567   0.095   3.571
 1238SOL    HW2 4614   0.718   0.035   3.587
 1239SOL     OW 4615   6.836   5.590   4.686
 1239SOL    HW1 4616   6.846   5.668   4.747
 1239SOL    HW2 4617   6.915   5.530   4.695
 1240SOL     OW 4618   5.493   5.197   2.086
 1240SOL    HW1 4619   5.466   5.193   2.182
 1240SOL    HW2 4620   5.412   5.205   2.028
 1241SOL     OW 4621   6.966   4.562   4.572
 1241SOL    HW1 4622   0.013   4.619   4.619
 1241SOL    HW2 4623   7.008   4.475   4.546
 1242SOL     OW 4624   2.037   3.570   0.341
 1242SOL    HW1 4625   1.978   3.630   0.287
 1242SOL    HW2 4626   2.040   3.603   0.435
 1243SOL     OW 4627   0.252   1.768   4.907
 1243SOL    HW1 4628   0.176   1.831   4.890
 1243SOL    HW2 4629   0.276   1.721   4.822
 1244SOL     OW 4630   5.448   6.808   5.408
 1244SOL    HW1 4631   5.534   6.857   5.425
 1244SOL    HW2 4632   5.457   6.752   5.325
 1245SOL     OW 4633   5.265   6.082   1.278
 1245SOL    HW1 4634   5.270   6.055   1.374
 1245SOL    HW2 4635   5.179   6.130   1.261
 1246SOL     OW 4636   3.886   1.347   2.228
 1246SOL    HW1 4637   3.942   1.313   2.303
 1246SOL    HW2 4638   3.839   1.270   2.184
 1247SOL     OW 4639   6.389   6.934   4.682
 1247SOL    HW1 4640   6.352   0.005   4.661
 1247SOL    HW2 4641   6.459   6.910   4.614
 1248SOL     OW 4642   0.861   6.412   3.520
 1248SOL    HW1 4643   0.833   6.345   3.451
 1248SOL    HW2 4644   0.918   6.367   3.589
 1249SOL     OW 4645   6.873   4.471   1.950
 1249SOL    HW1 4646   6.828   4.425   2.026
 1249SOL    HW2 4647   6.924   4.405   1.895
 1250SOL     OW 4648   6.545   3.187   4.910
 1250SOL    HW1 4649   6.564   3.135   4.826
 1250SOL    HW2 4650   6.630   3.228   4.943
 1251SOL     OW 4651   2.228   0.476   2.667
 1251SOL    HW1 4652   2.150   0.444   2.721
 1251SOL    HW2 4653   2.312   0.433   2.702
 1252SOL     OW 4654   3.143   5.538   6.737
 1252SOL    HW1 4655   3.091   5.589   6.668
 1252SOL    HW2 4656   3.106   5.557   6.828
 1253SOL     OW 4657   2.919   0.835   1.684
 1253SOL    HW1 4658   2.865   0.878   1.757
 1253SOL    HW2 4659   2.875   0.851   1.596
 1254SOL     OW 4660   6.447   1.955   3.173
 1254SOL    HW1 4661   6.431   1.861   3.201
 1254SOL    HW2 4662   6.533   1.988   3.212
 1255SOL     OW 4663   6.155   2.599   5.037
 1255SOL    HW1 4664   6.177   2.502   5.023
 1255SOL    HW2 4665   6.081   2.625   4.975
 1256SOL     OW 4666   0.358   6.028   3.172
 1256SOL    HW1 4667   0.408   6.015   3.258
 1256SOL    HW2 4668   0.287   6.097   3.185
 1257SOL     OW 4669   6.902   4.382   4.299
 1257SOL    HW1 4670   6.947   4.460   4.341
 1257SOL    HW2 4671   6.966   4.333   4.239
 1258SOL     OW 4672   2.412   5.912   2.471
 1258SOL    HW1 4673   2.463   5.994   2.498
 1258SOL    HW2 4674   2.316   5.936   2.456
 1259SOL     OW 4675   3.685   6.500   5.101
 1259SOL    HW1 4676   3.666   6.469   5.008
 1259SOL    HW2 4677   3.632   6.582   5.121
 1260SOL     OW 4678   3.393   0.977   1.414
 1260SOL    HW1 4679   3.406   1.076   1.420
 1260SOL    HW2 4680   3.308   0.952   1.460
 1261SOL     OW 4681   0.125   3.635   0.150
 1261SOL    HW1 4682   0.160   3.690   0.226
 1261SOL    HW2 4683   0.027   3.618   0.164
 1262SOL     OW 4684   4.537   4.767   1.253
 1262SOL    HW1 4685   4.475   4.834   1.212
 1262SOL    HW2 4686   4.608   4.814   1.305
 1263SOL     OW 4687   6.372   1.902   0.793
 1263SOL    HW1 4688   6.448   1.841   0.769
 1263SOL    HW2 4689   6.368   1.977   0.728
 1264SOL     OW 4690   0.666   4.316   2.647
 1264SOL    HW1 4691   0.652   4.332   2.549
 1264SOL    HW2 4692   0.684   4.219   2.663
 1265SOL     OW 4693   6.579   4.693   3.465
 1265SOL    HW1 4694   6.489   4.701   3.423
 1265SOL    HW2 4695   6.650   4.701   3.395
 1266SOL     OW 4696   2.442   1.148   4.252
 1266SOL    HW1 4697   2.505   1.225   4.239
 1266SOL    HW2 4698   2.361   1.160   4.195
 1267SOL     OW 4699   5.614   5.857   1.387
 1267SOL    HW1 4700   5.604   5.955   1.372
 1267SOL    HW2 4701   5.610   5.839   1.485
 1268SOL     OW 4702   5.225   2.295   6.983
 1268SOL    HW1 4703   5.210   2.318   6.887
 1268SOL    HW2 4704   5.174   2.212   7.005
 1269SOL     OW 4705   5.845   6.247   5.199
 1269SOL    HW1 4706   5.876   6.298   5.279
 1269SOL    HW2 4707   5.918   6.186   5.168
 1270SOL     OW 4708   2.191   4.162   4.259
 1270SOL    HW1 4709   2.203   4.149   4.357
 1270SOL    HW2 4710   2.235   4.248   4.231
 1271SOL     OW 4711   3.431   1.916   3.072
 1271SOL    HW1 4712   3.435   1.899   3.170
 1271SOL    HW2 4713   3.513   1.966   3.044
 1272SOL     OW 4714   6.997   6.005   1.169
 1272SOL    HW1 4715   7.012   5.909   1.192
 1272SOL    HW2 4716   6.950   6.010   1.081
 1273SOL     OW 4717   1.606   4.167   6.828
 1273SOL    HW1 4718   1.614   4.227   6.749
 1273SOL    HW2 4719   1.645   4.077   6.806
 1274SOL     OW 4720   6.877   3.374   1.502
 1274SOL    HW1 4721   6.898   3.318   1.422
 1274SOL    HW2 4722   6.778   3.377   1.515
 1275SOL     OW 4723   4.326   0.175   3.106
 1275SOL    HW1 4724   4.321   0.075   3.094
 1275SOL    HW2 4725   4.308   0.197   3.202
 1276SOL     OW 4726   6.855   0.351   3.625
 1276SOL    HW1 4727   6.866   0.311   3.534
 1276SOL    HW2 4728   6.943   0.355   3.671
 1277SOL     OW 4729   0.748   0.608   4.259
 1277SOL    HW1 4730   0.722   0.631   4.353
 1277SOL    HW2 4731   0.667   0.580   4.208
 1278SOL     OW 4732   1.295   1.534   5.387
 1278SOL    HW1 4733   1.232   1.509   5.460
 1278SOL    HW2 4734   1.382   1.485   5.400
 1279SOL     OW 4735   2.103   0.087   0.754
 1279SOL    HW1 4736   2.101   7.006   0.752
 1279SOL    HW2 4737   2.079   0.122   0.664
 1280SOL     OW 4738   2.509   6.228   3.535
 1280SOL    HW1 4739   2.539   6.282   3.457
 1280SOL    HW2 4740   2.562   6.254   3.616
 1281SOL     OW 4741   1.207   5.594   3.045
 1281SOL    HW1 4742   1.192   5.691   3.024
 1281SOL    HW2 4743   1.277   5.557   2.983
 1282SOL     OW 4744   1.112   1.065   0.705
 1282SOL    HW1 4745   1.031   1.050   0.649
 1282SOL    HW2 4746   1.099   1.147   0.761
 1283SOL     OW 4747   5.683   2.502   5.246
 1283SOL    HW1 4748   5.599   2.520   5.298
 1283SOL    HW2 4749   5.665   2.514   5.148
 1284SOL     OW 4750   3.176   3.613   1.544
 1284SOL    HW1 4751   3.085   3.580   1.570
 1284SOL    HW2 4752   3.168   3.706   1.506
 1285SOL     OW 4753   5.699   3.679   6.366
 1285SOL    HW1 4754   5.782   3.712   6.409
 1285SOL    HW2 4755   5.669   3.594   6.411
 1286SOL     OW 4756   5.092   4.467   2.593
 1286SOL    HW1 4757   5.041   4.430   2.671
 1286SOL    HW2 4758   5.040   4.451   2.509
 1287SOL     OW 4759   5.482   4.347   6.306
 1287SOL    HW1 4760   5.394   4.324   6.265
 1287SOL    HW2 4761   5.540   4.266   6.306
 1288SOL     OW 4762   6.352   3.771   1.613
 1288SOL    HW1 4763   6.334   3.863   1.647
 1288SOL    HW2 4764   6.301   3.756   1.528
 1289SOL     OW 4765   0.529   6.120   1.809
 1289SOL    HW1 4766   0.505   6.027   1.839
 1289SOL    HW2 4767   0.587   6.163   1.878
 1290SOL     OW 4768   0.612   1.007   0.072
 1290SOL    HW1 4769   0.610   0.953   0.156
 1290SOL    HW2 4770   0.699   0.994   0.025
 1291SOL     OW 4771   1.443   3.843   6.145
 1291SOL    HW1 4772   1.425   3.839   6.047
 1291SOL    HW2 4773   1.532   3.801   6.164
 1292SOL     OW 4774   6.375   5.027   2.060
 1292SOL    HW1 4775   6.299   5.026   1.995
 1292SOL    HW2 4776   6.400   5.121   2.080
 1293SOL     OW 4777   2.524   1.410   6.530
 1293SOL    HW1 4778   2.606   1.429   6.476
 1293SOL    HW2 4779   2.548   1.357   6.611
 1294SOL     OW 4780   0.693   3.035   1.137
 1294SOL    HW1 4781   0.728   3.120   1.174
 1294SOL    HW2 4782   0.768   2.981   1.098
 1295SOL     OW 4783   6.434   3.291   2.772
 1295SOL    HW1 4784   6.517   3.347   2.766
 1295SOL    HW2 4785   6.368   3.322   2.704
 1296SOL     OW 4786   4.050   0.565   5.530
 1296SOL    HW1 4787   3.983   0.623   5.577
 1296SOL    HW2 4788   4.027   0.560   5.433
 1297SOL     OW 4789   5.903   0.759   6.191
 1297SOL    HW1 4790   5.953   0.809   6.262
 1297SOL    HW2 4791   5.835   0.700   6.234
 1298SOL     OW 4792   6.380   3.444   3.441
 1298SOL    HW1 4793   6.333   3.382   3.379
 1298SOL    HW2 4794   6.396   3.398   3.529
 1299SOL     OW 4795   0.861   3.709   2.500
 1299SOL    HW1 4796   0.819   3.624   2.468
 1299SOL    HW2 4797   0.901   3.757   2.422
 1300SOL     OW 4798   3.080   4.002   2.133
 1300SOL    HW1 4799   3.025   3.974   2.212
 1300SOL    HW2 4800   3.163   3.946   2.129
 1301SOL     OW 4801   0.809   6.113   2.574
 1301SOL    HW1 4802   0.887   6.099   2.513
 1301SOL    HW2 4803   0.801   6.211   2.595
 1302SOL     OW 4804   3.104   0.171   5.058
 1302SOL    HW1 4805   3.095   0.081   5.101
 1302SOL    HW2 4806   3.059   0.240   5.115
 1303SOL     OW 4807   4.249   1.687   0.532
 1303SOL    HW1 4808   4.166   1.638   0.557
 1303SOL    HW2 4809   4.242   1.783   0.561
 1304SOL     OW 4810   1.384   1.279   6.558
 1304SOL    HW1 4811   1.413   1.221   6.482
 1304SOL    HW2 4812   1.389   1.227   6.643
 1305SOL     OW 4813   5.585   5.332   6.506
 1305SOL    HW1 4814   5.577   5.379   6.418
 1305SOL    HW2 4815   5.528   5.379   6.574
 1306SOL     OW 4816   0.529   4.650   5.343
 1306SOL    HW1 4817   0.625   4.627   5.363
 1306SOL    HW2 4818   0.524   4.695   5.254
 1307SOL     OW 4819   1.694   2.489   4.833
 1307SOL    HW1 4820   1.766   2.538   4.783
 1307SOL    HW2 4821   1.706   2.504   4.931
 1308SOL     OW 4822   4.052   5.619   4.686
 1308SOL    HW1 4823   4.072   5.616   4.784
 1308SOL    HW2 4824   3.965   5.664   4.671
 1309SOL     OW 4825   5.447   2.677   5.362
 1309SOL    HW1 4826   5.457   2.774   5.383
 1309SOL    HW2 4827   5.367   2.664   5.304
 1310SOL     OW 4828   6.262   3.716   4.987
 1310SOL    HW1 4829   6.319   3.688   4.909
 1310SOL    HW2 4830   6.170   3.677   4.977
 1311SOL     OW 4831   6.596   6.370   4.087
 1311SOL    HW1 4832   6.651   6.452   4.107
 1311SOL    HW2 4833   6.521   6.395   4.026
 1312SOL     OW 4834   0.738   0.530   6.529
 1312SOL    HW1 4835   0.650   0.490   6.504
 1312SOL    HW2 4836   0.781   0.569   6.448
 1313SOL     OW 4837   1.735   5.199   5.669
 1313SOL    HW1 4838   1.697   5.290   5.683
 1313SOL    HW2 4839   1.668   5.140   5.624
 1314SOL     OW 4840   2.406   1.732   5.478
 1314SOL    HW1 4841   2.318   1.723   5.430
 1314SOL    HW2 4842   2.395   1.795   5.555
 1315SOL     OW 4843   0.850   0.861   0.732
 1315SOL    HW1 4844   0.827   0.886   0.637
 1315SOL    HW2 4845   0.943   0.822   0.734
 1316SOL     OW 4846   2.120   6.808   3.880
 1316SOL    HW1 4847   2.123   6.870   3.802
 1316SOL    HW2 4848   2.179   6.729   3.862
 1317SOL     OW 4849   1.156   3.882   4.412
 1317SOL    HW1 4850   1.193   3.916   4.499
 1317SOL    HW2 4851   1.137   3.960   4.352
 1318SOL     OW 4852   6.754   0.570   0.668
 1318SOL    HW1 4853   6.833   0.569   0.607
 1318SOL    HW2 4854   6.733   0.664   0.693
 1319SOL     OW 4855   6.603   1.680   0.081
 1319SOL    HW1 4856   6.679   1.630   0.123
 1319SOL    HW2 4857   6.638   1.756   0.027
 1320SOL     OW 4858   6.029   3.810   0.259
 1320SOL    HW1 4859   5.971   3.867   0.317
 1320SOL    HW2 4860   5.995   3.716   0.261
 1321SOL     OW 4861   4.425   2.423   6.287
 1321SOL    HW1 4862   4.476   2.490   6.233
 1321SOL    HW2 4863   4.482   2.391   6.362
 1322SOL     OW 4864   5.424   0.871   3.733
 1322SOL    HW1 4865   5.505   0.832   3.688
 1322SOL    HW2 4866   5.452   0.910   3.821
 1323SOL     OW 4867   5.334   1.756   5.308
 1323SOL    HW1 4868   5.325   1.678   5.247
 1323SOL    HW2 4869   5.318   1.727   5.403
 1324SOL     OW 4870   0.800   2.670   1.824
 1324SOL    HW1 4871   0.738   2.640   1.897
 1324SOL    HW2 4872   0.758   2.651   1.735
 1325SOL     OW 4873   2.557   6.927   2.154
 1325SOL    HW1 4874   2.460   6.912   2.138
 1325SOL    HW2 4875   2.568   7.006   2.214
 1326SOL     OW 4876   4.730   2.768   4.598
 1326SOL    HW1 4877   4.639   2.742   4.629
 1326SOL    HW2 4878   4.723   2.812   4.508
 1327SOL     OW 4879   3.008   5.302   2.702
 1327SOL    HW1 4880   2.908   5.307   2.705
 1327SOL    HW2 4881   3.045   5.328   2.792
 1328SOL     OW 4882   1.054   2.987   0.867
 1328SOL    HW1 4883   1.022   3.045   0.792
 1328SOL    HW2 4884   1.136   2.938   0.839
 1329SOL     OW 4885   6.697   1.972   0.595
 1329SOL    HW1 4886   6.654   2.062   0.591
 1329SOL    HW2 4887   6.748   1.955   0.510
 1330SOL     OW 4888   6.584   0.630   0.931
 1330SOL    HW1 4889   6.490   0.595   0.922
 1330SOL    HW2 4890   6.601   0.698   0.859
 1331SOL     OW 4891   4.365   2.150   2.952
 1331SOL    HW1 4892   4.420   2.120   2.875
 1331SOL    HW2 4893   4.358   2.076   3.019
 1332SOL     OW 4894   3.537   6.875   0.399
 1332SOL    HW1 4895   3.593   6.877   0.481
 1332SOL    HW2 4896   3.505   6.967   0.378
 1333SOL     OW 4897   3.697   4.005   6.002
 1333SOL    HW1 4898   3.675   3.929   6.063
 1333SOL    HW2 4899   3.791   3.995   5.969
 1334SOL     OW 4900   6.814   2.816   4.719
 1334SOL    HW1 4901   6.762   2.773   4.645
 1334SOL    HW2 4902   6.894   2.863   4.682
 1335SOL     OW 4903   2.961   6.641   2.973
 1335SOL    HW1 4904   3.043   6.627   3.029
 1335SOL    HW2 4905   2.919   6.728   2.997
 1336SOL     OW 4906   1.394   1.153   6.315
 1336SOL    HW1 4907   1.415   1.192   6.225
 1336SOL    HW2 4908   1.414   1.055   6.313
 1337SOL     OW 4909   0.901   1.500   5.199
 1337SOL    HW1 4910   0.957   1.430   5.153
 1337SOL    HW2 4911   0.813   1.508   5.153
 1338SOL     OW 4912   4.521   3.280   5.759
 1338SOL    HW1 4913   4.505   3.295   5.856
 1338SOL    HW2 4914   4.504   3.364   5.708
 1339SOL     OW 4915   0.026   6.661   0.117
 1339SOL    HW1 4916   0.046   6.759   0.109
 1339SOL    HW2 4917   6.953   6.649   0.153
 1340SOL     OW 4918   1.190   1.360   2.284
 1340SOL    HW1 4919   1.119   1.393   2.221
 1340SOL    HW2 4920   1.270   1.419   2.277
 1341SOL     OW 4921   3.946   0.226   5.328
 1341SOL    HW1 4922   3.903   0.240   5.418
 1341SOL    HW2 4923   3.939   0.129   5.303
 1342SOL     OW 4924   1.484   5.093   6.203
 1342SOL    HW1 4925   1.581   5.119   6.196
 1342SOL    HW2 4926   1.472   4.999   6.172
 1343SOL     OW 4927   3.990   6.358   2.544
 1343SOL    HW1 4928   4.026   6.451   2.532
 1343SOL    HW2 4929   4.008   6.304   2.462
 1344SOL     OW 4930   6.995   3.895   3.468
 1344SOL    HW1 4931   6.969   3.928   3.559
 1344SOL    HW2 4932   6.929   3.827   3.437
 1345SOL     OW 4933   1.106   1.872   3.403
 1345SOL    HW1 4934   1.083   1.819   3.322
 1345SOL    HW2 4935   1.089   1.969   3.385
 1346SOL     OW 4936   1.899   0.026   2.962
 1346SOL    HW1 4937   1.852   0.013   2.875
 1346SOL    HW2 4938   1.893   6.961   3.016
 1347SOL     OW 4939   6.271   5.989   3.670
 1347SOL    HW1 4940   6.352   6.005   3.727
 1347SOL    HW2 4941   6.272   5.894   3.638
 1348SOL     OW 4942   5.749   5.515   3.049
 1348SOL    HW1 4943   5.741   5.572   2.967
 1348SOL    HW2 4944   5.728   5.570   3.130
 1349SOL     OW 4945   5.001   2.560   6.300
 1349SOL    HW1 4946   5.000   2.522   6.392
 1349SOL    HW2 4947   4.988   2.659   6.305
 1350SOL     OW 4948   3.823   4.597   0.213
 1350SOL    HW1 4949   3.872   4.630   0.132
 1350SOL    HW2 4950   3.828   4.497   0.216
 1351SOL     OW 4951   0.273   1.710   3.129
 1351SOL    HW1 4952   0.174   1.706   3.123
 1351SOL    HW2 4953   0.307   1.788   3.076
 1352SOL     OW 4954   0.680   0.791   3.140
 1352SOL    HW1 4955   0.634   0.774   3.227
 1352SOL    HW2 4956   0.778   0.801   3.156
 1353SOL     OW 4957   6.834   3.971   5.869
 1353SOL    HW1 4958   6.840   4.050   5.808
 1353SOL    HW2 4959   6.791   3.895   5.819
 1354SOL     OW 4960   6.860   2.219   0.370
 1354SOL    HW1 4961   6.775   2.209   0.422
 1354SOL    HW2 4962   6.928   2.155   0.405
 1355SOL     OW 4963   5.678   3.359   5.825
 1355SOL    HW1 4964   5.647   3.280   5.878
 1355SOL    HW2 4965   5.599   3.400   5.779
 1356SOL     OW 4966   3.320   3.851   3.992
 1356SOL    HW1 4967   3.329   3.887   4.084
 1356SOL    HW2 4968   3.254   3.905   3.940
 1357SOL     OW 4969   2.461   3.334   5.700
 1357SOL    HW1 4970   2.542   3.295   5.654
 1357SOL    HW2 4971   2.485   3.421   5.742
 1358SOL     OW 4972   3.307   1.630   6.151
 1358SOL    HW1 4973   3.380   1.587   6.204
 1358SOL    HW2 4974   3.311   1.729   6.162
 1359SOL     OW 4975   0.197   4.802   0.977
 1359SOL    HW1 4976   0.163   4.894   0.998
 1359SOL    HW2 4977   0.144   4.763   0.902
 1360SOL     OW 4978   4.104   3.544   2.494
 1360SOL    HW1 4979   4.170   3.598   2.546
 1360SOL    HW2 4980   4.148   3.509   2.411
 1361SOL     OW 4981   6.740   6.962   6.476
 1361SOL    HW1 4982   6.810   6.930   6.541
 1361SOL    HW2 4983   6.693   0.022   6.515
 1362SOL     OW 4984   2.972   3.871   4.407
 1362SOL    HW1 4985   2.914   3.846   4.330
 1362SOL    HW2 4986   2.928   3.842   4.492
 1363SOL     OW 4987   0.101   5.861   3.697
 1363SOL    HW1 4988   0.015   5.911   3.702
 1363SOL    HW2 4989   0.173   5.915   3.741
 1364SOL     OW 4990   0.071   1.987   0.313
 1364SOL    HW1 4991   0.111   1.941   0.393
 1364SOL    HW2 4992   0.144   2.014   0.250
 1365SOL     OW 4993   1.167   3.604   5.464
 1365SOL    HW1 4994   1.120   3.558   5.389
 1365SOL    HW2 4995   1.108   3.603   5.545
 1366SOL     OW 4996   0.270   4.345   0.797
 1366SOL    HW1 4997   0.323   4.395   0.728
 1366SOL    HW2 4998   0.243   4.409   0.870
 1367SOL     OW 4999   1.351   5.705   2.475
 1367SOL    HW1 5000   1.343   5.774   2.547
 1367SOL    HW2 5001   1.388   5.621   2.514
 1368SOL     OW 5002   6.973   0.512   4.170
 1368SOL    HW1 5003   6.937   0.575   4.101
 1368SOL    HW2 5004   0.050   0.492   4.149
 1369SOL     OW 5005   2.433   6.687   2.317
 1369SOL    HW1 5006   2.532   6.676   2.312
 1369SOL    HW2 5007   2.405   6.762   2.256
 1370SOL     OW 5008   6.292   1.973   3.757
 1370SOL    HW1 5009   6.238   1.889   3.761
 1370SOL    HW2 5010   6.232   2.050   3.737
 1371SOL     OW 5011   4.761   1.382   4.858
 1371SOL    HW1 5012   4.736   1.296   4.903
 1371SOL    HW2 5013   4.738   1.377   4.761
 1372SOL     OW 5014   0.243   2.341   1.184
 1372SOL    HW1 5015   0.230   2.287   1.101
 1372SOL    HW2 5016   0.202   2.295   1.262
 1373SOL     OW 5017   4.777   2.250   0.619
 1373SOL    HW1 5018   4.826   2.271   0.534
 1373SOL    HW2 5019   4.688   2.210   0.597
 1374SOL     OW 5020   4.926   4.049   0.264
 1374SOL    HW1 5021   4.940   4.078   0.359
 1374SOL    HW2 5022   4.915   4.130   0.206
 1375SOL     OW 5023   0.148   6.743   6.431
 1375SOL    HW1 5024   0.156   6.648   6.403
 1375SOL    HW2 5025   0.070   6.754   6.492
 1376SOL     OW 5026   3.295   4.792   5.576
 1376SOL    HW1 5027   3.198   4.779   5.599
 1376SOL    HW2 5028   3.307   4.880   5.531
 1377SOL     OW 5029   0.977   3.329   3.547
 1377SOL    HW1 5030   1.052   3.316   3.611
 1377SOL    HW2 5031   0.905   3.384   3.589
 1378SOL     OW 5032   5.390   2.145   5.374
 1378SOL    HW1 5033   5.470   2.138   5.434
 1378SOL    HW2 5034   5.414   2.198   5.292
 1379SOL     OW 5035   4.344   5.506   3.443
 1379SOL    HW1 5036   4.316   5.474   3.533
 1379SOL    HW2 5037   4.412   5.442   3.405
 1380SOL     OW 5038   0.133   6.138   3.289
 1380SOL    HW1 5039   0.184   6.052   3.285
 1380SOL    HW2 5040   0.057   6.135   3.224
 1381SOL     OW 5041   5.969   1.984   0.095
 1381SOL    HW1 5042   5.900   2.048   0.129
 1381SOL    HW2 5043   5.945   1.955   0.002
 1382SOL     OW 5044   5.005   3.089   1.049
 1382SOL    HW1 5045   4.910   3.059   1.037
 1382SOL    HW2 5046   5.011   3.187   1.032
 1383SOL     OW 5047   1.132   0.151   1.604
 1383SOL    HW1 5048   1.119   0.248   1.624
 1383SOL    HW2 5049   1.186   0.109   1.677
 1384SOL     OW 5050   5.004   6.797   1.720
 1384SOL    HW1 5051   5.039   6.880   1.763
 1384SOL    HW2 5052   5.071   6.723   1.732
 1385SOL     OW 5053   2.653   4.929   3.600
 1385SOL    HW1 5054   2.740   4.930   3.551
 1385SOL    HW2 5055   2.633   5.020   3.635
 1386SOL     OW 5056   3.399   0.404   3.683
 1386SOL    HW1 5057   3.345   0.488   3.687
 1386SOL    HW2 5058   3.430   0.380   3.775
 1387SOL     OW 5059   3.680   5.917   3.100
 1387SOL    HW1 5060   3.771   5.876   3.094
 1387SOL    HW2 5061   3.662   5.945   3.194
 1388SOL     OW 5062   6.500   0.114   1.926
 1388SOL    HW1 5063   6.433   0.187   1.924
 1388SOL    HW2 5064   6.552   0.117   2.012
 1389SOL     OW 5065   6.204   1.334   4.657
 1389SOL    HW1 5066   6.233   1.415   4.608
 1389SOL    HW2 5067   6.252   1.254   4.620
 1390SOL     OW 5068   0.557   3.915   6.588
 1390SOL    HW1 5069   0.642   3.946   6.543
 1390SOL    HW2 5070   0.579   3.872   6.675
 1391SOL     OW 5071   6.095   6.425   4.788
 1391SOL    HW1 5072   6.032   6.351   4.810
 1391SOL    HW2 5073   6.173   6.423   4.850
 1392SOL     OW 5074   5.901   6.131   6.244
 1392SOL    HW1 5075   6.001   6.133   6.238
 1392SOL    HW2 5076   5.868   6.218   6.280
 1393SOL     OW 5077   6.618   4.703   5.097
 1393SOL    HW1 5078   6.616   4.604   5.080
 1393SOL    HW2 5079   6.713   4.736   5.093
 1394SOL     OW 5080   3.644   5.215   5.773
 1394SOL    HW1 5081   3.557   5.252   5.806
 1394SOL    HW2 5082   3.663   5.251   5.681
 1395SOL     OW 5083   2.369   4.441   5.431
 1395SOL    HW1 5084   2.390   4.347   5.404
 1395SOL    HW2 5085   2.407   4.459   5.522
 1396SOL     OW 5086   0.718   1.245   4.925
 1396SOL    HW1 5087   0.793   1.257   4.860
 1396SOL    HW2 5088   0.642   1.306   4.899
 1397SOL     OW 5089   0.364   0.295   3.713
 1397SOL    HW1 5090   0.375   0.274   3.810
 1397SOL    HW2 5091   0.285   0.245   3.677
 1398SOL     OW 5092   3.195   0.513   6.240
 1398SOL    HW1 5093   3.147   0.481   6.158
 1398SOL    HW2 5094   3.165   0.459   6.319
 1399SOL     OW 5095   3.937   5.501   0.473
 1399SOL    HW1 5096   4.002   5.438   0.515
 1399SOL    HW2 5097   3.861   5.519   0.536
 1400SOL     OW 5098   0.234   1.494   2.912
 1400SOL    HW1 5099   0.143   1.486   2.872
 1400SOL    HW2 5100   0.245   1.585   2.952
 1401SOL     OW 5101   6.352   1.110   4.613
 1401SOL    HW1 5102   6.418   1.063   4.555
 1401SOL    HW2 5103   6.267   1.057   4.616
 1402SOL     OW 5104   6.664   3.828   6.657
 1402SOL    HW1 5105   6.716   3.893   6.601
 1402SOL    HW2 5106   6.598   3.780   6.598
 1403SOL     OW 5107   2.375   2.578   1.243
 1403SOL    HW1 5108   2.404   2.538   1.330
 1403SOL    HW2 5109   2.432   2.657   1.222
 1404SOL     OW 5110   6.028   6.788   0.785
 1404SOL    HW1 5111   6.083   6.869   0.808
 1404SOL    HW2 5112   6.089   6.716   0.752
 1405SOL     OW 5113   2.377   3.629   1.216
 1405SOL    HW1 5114   2.308   3.556   1.220
 1405SOL    HW2 5115   2.439   3.621   1.294
 1406SOL     OW 5116   0.768   5.499   0.960
 1406SOL    HW1 5117   0.758   5.526   0.864
 1406SOL    HW2 5118   0.824   5.566   1.008
 1407SOL     OW 5119   0.283   2.328   2.527
 1407SOL    HW1 5120   0.292   2.353   2.431
 1407SOL    HW2 5121   0.331   2.242   2.544
 1408SOL     OW 5122   5.627   1.442   6.136
 1408SOL    HW1 5123   5.631   1.541   6.118
 1408SOL    HW2 5124   5.532   1.411   6.134
 1409SOL     OW 5125   0.313   0.163   5.117
 1409SOL    HW1 5126   0.339   0.073   5.152
 1409SOL    HW2 5127   0.220   0.185   5.146
 1410SOL     OW 5128   1.227   3.471   6.447
 1410SOL    HW1 5129   1.231   3.525   6.363
 1410SOL    HW2 5130   1.292   3.395   6.441
 1411SOL     OW 5131   3.350   6.504   1.419
 1411SOL    HW1 5132   3.363   6.492   1.517
 1411SOL    HW2 5133   3.276   6.443   1.387
 1412SOL     OW 5134   0.488   1.976   0.868
 1412SOL    HW1 5135   0.462   2.069   0.890
 1412SOL    HW2 5136   0.478   1.918   0.949
 1413SOL     OW 5137   1.179   2.004   5.371
 1413SOL    HW1 5138   1.221   1.922   5.331
 1413SOL    HW2 5139   1.248   2.076   5.381
 1414SOL     OW 5140   2.355   1.141   1.905
 1414SOL    HW1 5141   2.441   1.188   1.886
 1414SOL    HW2 5142   2.374   1.045   1.926
 1415SOL     OW 5143   2.975   0.983   4.598
 1415SOL    HW1 5144   3.051   0.982   4.663
 1415SOL    HW2 5145   2.889   0.998   4.647
 1416SOL     OW 5146   5.459   5.143   4.627
 1416SOL    HW1 5147   5.384   5.126   4.691
 1416SOL    HW2 5148   5.427   5.133   4.533
 1417SOL     OW 5149   2.936   2.023   0.252
 1417SOL    HW1 5150   2.948   1.960   0.175
 1417SOL    HW2 5151   2.926   2.116   0.218
 1418SOL     OW 5152   3.254   4.047   3.222
 1418SOL    HW1 5153   3.239   3.965   3.167
 1418SOL    HW2 5154   3.322   4.106   3.178
 1419SOL     OW 5155   2.779   5.646   5.024
 1419SOL    HW1 5156   2.709   5.614   4.961
 1419SOL    HW2 5157   2.770   5.745   5.036
 1420SOL     OW 5158   2.919   6.901   1.383
 1420SOL    HW1 5159   2.921   6.989   1.430
 1420SOL    HW2 5160   3.005   6.886   1.334
 1421SOL     OW 5161   1.921   4.640   3.410
 1421SOL    HW1 5162   1.936   4.543   3.427
 1421SOL    HW2 5163   1.976   4.670   3.332
 1422SOL     OW 5164   1.449   3.589   1.148
 1422SOL    HW1 5165   1.379   3.618   1.214
 1422SOL    HW2 5166   1.515   3.530   1.195
 1423SOL     OW 5167   5.250   6.287   3.423
 1423SOL    HW1 5168   5.327   6.272   3.486
 1423SOL    HW2 5169   5.182   6.345   3.468
 1424SOL     OW 5170   6.266   4.702   6.223
 1424SOL    HW1 5171   6.317   4.754   6.292
 1424SOL    HW2 5172   6.312   4.711   6.135
 1425SOL     OW 5173   1.487   5.641   5.312
 1425SOL    HW1 5174   1.524   5.728   5.344
 1425SOL    HW2 5175   1.473   5.580   5.390
 1426SOL     OW 5176   1.999   3.233   6.149
 1426SOL    HW1 5177   2.043   3.146   6.124
 1426SOL    HW2 5178   1.959   3.274   6.068
 1427SOL     OW 5179   0.386   0.655   3.641
 1427SOL    HW1 5180   0.413   0.682   3.733
 1427SOL    HW2 5181   0.324   0.724   3.603
 1428SOL     OW 5182   6.783   3.613   0.288
 1428SOL    HW1 5183   6.734   3.591   0.373
 1428SOL    HW2 5184   6.843   3.537   0.264
 1429SOL     OW 5185   4.294   2.248   0.083
 1429SOL    HW1 5186   4.391   2.228   0.093
 1429SOL    HW2 5187   4.256   2.193   0.008
 1430SOL     OW 5188   1.626   4.800   3.816
 1430SOL    HW1 5189   1.567   4.726   3.849
 1430SOL    HW2 5190   1.676   4.770   3.735
 1431SOL     OW 5191   2.527   1.721   0.656
 1431SOL    HW1 5192   2.531   1.746   0.753
 1431SOL    HW2 5193   2.620   1.725   0.618
 1432SOL     OW 5194   2.646   1.604   2.394
 1432SOL    HW1 5195   2.639   1.506   2.413
 1432SOL    HW2 5196   2.740   1.634   2.410
 1433SOL     OW 5197   4.125   0.849   5.125
 1433SOL    HW1 5198   4.210   0.865   5.174
 1433SOL    HW2 5199   4.055   0.912   5.157
 1434SOL     OW 5200   0.217   0.008   5.498
 1434SOL    HW1 5201   0.155   0.074   5.455
 1434SOL    HW2 5202   0.178   6.936   5.490
 1435SOL     OW 5203   6.144   0.141   3.140
 1435SOL    HW1 5204   6.120   0.239   3.141
 1435SOL    HW2 5205   6.208   0.123   3.066
 1436SOL     OW 5206   5.389   3.970   6.942
 1436SOL    HW1 5207   5.455   4.009   6.878
 1436SOL    HW2 5208   5.354   4.041   7.003
 1437SOL     OW 5209   2.917   2.172   3.635
 1437SOL    HW1 5210   3.006   2.216   3.623
 1437SOL    HW2 5211   2.864   2.222   3.703
 1438SOL     OW 5212   2.802   6.158   1.195
 1438SOL    HW1 5213   2.871   6.090   1.169
 1438SOL    HW2 5214   2.715   6.112   1.215
 1439SOL     OW 5215   6.612   5.587   1.383
 1439SOL    HW1 5216   6.702   5.616   1.352
 1439SOL    HW2 5217   6.610   5.586   1.483
 1440SOL     OW 5218   3.254   3.052   0.036
 1440SOL    HW1 5219   3.174   3.018   0.084
 1440SOL    HW2 5220   3.334   2.997   0.060
 1441SOL     OW 5221   6.456   0.423   4.126
 1441SOL    HW1 5222   6.534   0.431   4.065
 1441SOL    HW2 5223   6.415   0.333   4.116
 1442SOL     OW 5224   0.539   5.952   0.017
 1442SOL    HW1 5225   0.498   5.879   0.071
 1442SOL    HW2 5226   0.604   6.003   0.073
 1443SOL     OW 5227   0.425   3.446   4.193
 1443SOL    HW1 5228   0.520   3.477   4.192
 1443SOL    HW2 5229   0.414   3.376   4.264
 1444SOL     OW 5230   4.905   6.029   0.754
 1444SOL    HW1 5231   4.817   6.036   0.706
 1444SOL    HW2 5232   4.935   6.119   0.783
 1445SOL     OW 5233   1.265   2.710   3.235
 1445SOL    HW1 5234   1.279   2.808   3.218
 1445SOL    HW2 5235   1.275   2.691   3.333
 1446SOL     OW 5236   6.081   1.423   6.755
 1446SOL    HW1 5237   6.059   1.425   6.853
 1446SOL    HW2 5238   6.119   1.512   6.728
 1447SOL     OW 5239   5.983   6.249   4.494
 1447SOL    HW1 5240   6.080   6.232   4.473
 1447SOL    HW2 5241   5.965   6.222   4.588
 1448SOL     OW 5242   6.997   2.793   5.423
 1448SOL    HW1 5243   6.969   2.880   5.464
 1448SOL    HW2 5244   0.059   2.759   5.470
 1449SOL     OW 5245   1.481   2.816   6.242
 1449SOL    HW1 5246   1.533   2.805   6.157
 1449SOL    HW2 5247   1.462   2.913   6.257
 1450SOL     OW 5248   0.547   1.857   0.599
 1450SOL    HW1 5249   0.601   1.773   0.604
 1450SOL    HW2 5250   0.547   1.902   0.689
 1451SOL     OW 5251   0.735   6.412   2.701
 1451SOL    HW1 5252   0.779   6.370   2.781
 1451SOL    HW2 5253   0.731   6.511   2.714
 1452SOL     OW 5254   4.157   1.637   5.082
 1452SOL    HW1 5255   4.245   1.628   5.036
 1452SOL    HW2 5256   4.125   1.547   5.110
 1453SOL     OW 5257   0.642   3.854   5.665
 1453SOL    HW1 5258   0.573   3.794   5.706
 1453SOL    HW2 5259   0.625   3.948   5.692
 1454SOL     OW 5260   0.495   2.914   1.966
 1454SOL    HW1 5261   0.562   2.973   2.011
 1454SOL    HW2 5262   0.418   2.898   2.028
 1455SOL     OW 5263   1.404   0.269   1.364
 1455SOL    HW1 5264   1.465   0.223   1.428
 1455SOL    HW2 5265   1.443   0.263   1.272
 1456SOL     OW 5266   6.642   0.062   6.231
 1456SOL    HW1 5267   6.652   0.045   6.329
 1456SOL    HW2 5268   6.647   6.995   6.181
 1457SOL     OW 5269   0.703   6.421   1.224
 1457SOL    HW1 5270   0.631   6.410   1.155
 1457SOL    HW2 5271   0.665   6.402   1.314
 1458SOL     OW 5272   5.865   5.093   4.516
 1458SOL    HW1 5273   5.832   5.067   4.426
 1458SOL    HW2 5274   5.798   5.069   4.585
 1459SOL     OW 5275   3.788   6.323   6.197
 1459SOL    HW1 5276   3.841   6.240   6.214
 1459SOL    HW2 5277   3.766   6.366   6.284
 1460SOL     OW 5278   0.581   0.140   4.888
 1460SOL    HW1 5279   0.484   0.116   4.886
 1460SOL    HW2 5280   0.614   0.139   4.982
 1461SOL     OW 5281   6.213   4.174   2.895
 1461SOL    HW1 5282   6.289   4.236   2.881
 1461SOL    HW2 5283   6.245   4.080   2.887
 1462SOL     OW 5284   1.797   0.935   0.139
 1462SOL    HW1 5285   1.893   0.961   0.134
 1462SOL    HW2 5286   1.789   0.838   0.163
 1463SOL     OW 5287   0.226   5.407   6.121
 1463SOL    HW1 5288   0.312   5.436   6.078
 1463SOL    HW2 5289   0.200   5.474   6.191
 1464SOL     OW 5290   0.333   5.736   2.156
 1464SOL    HW1 5291   0.297   5.825   2.127
 1464SOL    HW2 5292   0.262   5.685   2.204
 1465SOL     OW 5293   1.871   0.738   3.707
 1465SOL    HW1 5294   1.855   0.800   3.630
 1465SOL    HW2 5295   1.790   0.738   3.767
 1466SOL     OW 5296   2.491   2.120   2.179
 1466SOL    HW1 5297   2.479   2.155   2.086
 1466SOL    HW2 5298   2.574   2.159   2.219
 1467SOL     OW 5299   2.225   1.306   3.182
 1467SOL    HW1 5300   2.206   1.237   3.112
 1467SOL    HW2 5301   2.304   1.277   3.236
 1468SOL     OW 5302   2.334   5.471   2.570
 1468SOL    HW1 5303   2.412   5.533   2.570
 1468SOL    HW2 5304   2.366   5.377   2.576
 1469SOL     OW 5305   0.355   0.608   2.494
 1469SOL    HW1 5306   0.435   0.566   2.536
 1469SOL    HW2 5307   0.367   0.707   2.489
 1470SOL     OW 5308   1.395   1.714   2.469
 1470SOL    HW1 5309   1.460   1.679   2.401
 1470SOL    HW2 5310   1.309   1.736   2.424
 1471SOL     OW 5311   0.691   0.250   0.745
 1471SOL    HW1 5312   0.713   0.215   0.837
 1471SOL    HW2 5313   0.725   0.344   0.736
 1472SOL     OW 5314   2.262   5.500   5.542
 1472SOL    HW1 5315   2.317   5.546   5.472
 1472SOL    HW2 5316   2.318   5.430   5.587
 1473SOL     OW 5317   3.518   5.433   5.357
 1473SOL    HW1 5318   3.583   5.434   5.281
 1473SOL    HW2 5319   3.475   5.523   5.365
 1474SOL     OW 5320   5.255   5.189   1.963
 1474SOL    HW1 5321   5.226   5.158   1.872
 1474SOL    HW2 5322   5.195   5.263   1.994
 1475SOL     OW 5323   5.494   0.808   1.651
 1475SOL    HW1 5324   5.407   0.855   1.641
 1475SOL    HW2 5325   5.494   0.726   1.593
 1476SOL     OW 5326   2.826   1.128   1.311
 1476SOL    HW1 5327   2.899   1.073   1.270
 1476SOL    HW2 5328   2.836   1.223   1.281
 1477SOL     OW 5329   3.157   6.808   5.932
 1477SOL    HW1 5330   3.124   6.714   5.943
 1477SOL    HW2 5331   3.243   6.808   5.880
 1478SOL     OW 5332   6.263   5.258   5.478
 1478SOL    HW1 5333   6.250   5.251   5.379
 1478SOL    HW2 5334   6.208   5.333   5.514
 1479SOL     OW 5335   2.188   2.467   0.826
 1479SOL    HW1 5336   2.196   2.386   0.768
 1479SOL    HW2 5337   2.273   2.481   0.876
 1480SOL     OW 5338   3.428   0.835   4.982
 1480SOL    HW1 5339   3.479   0.905   4.932
 1480SOL    HW2 5340   3.404   0.870   5.073
 1481SOL     OW 5341   6.182   3.066   6.823
 1481SOL    HW1 5342   6.143   2.975   6.820
 1481SOL    HW2 5343   6.111   3.133   6.845
 1482SOL     OW 5344   4.748   1.164   1.287
 1482SOL    HW1 5345   4.716   1.185   1.379
 1482SOL    HW2 5346   4.743   1.066   1.271
 1483SOL     OW 5347   5.415   2.415   6.272
 1483SOL    HW1 5348   5.484   2.392   6.341
 1483SOL    HW2 5349   5.448   2.388   6.181
 1484SOL     OW 5350   4.835   4.874   4.231
 1484SOL    HW1 5351   4.744   4.835   4.216
 1484SOL    HW2 5352   4.832   4.938   4.307
 1485SOL     OW 5353   4.244   0.819   4.800
 1485SOL    HW1 5354   4.301   0.798   4.720
 1485SOL    HW2 5355   4.273   0.907   4.838
 1486SOL     OW 5356   5.889   0.646   2.778
 1486SOL    HW1 5357   5.927   0.635   2.686
 1486SOL    HW2 5358   5.823   0.573   2.796
 1487SOL     OW 5359   0.108   2.728   0.158
 1487SOL    HW1 5360   0.115   2.695   0.064
 1487SOL    HW2 5361   0.136   2.656   0.222
 1488SOL     OW 5362   5.819   0.278   3.652
 1488SOL    HW1 5363   5.808   0.279   3.751
 1488SOL    HW2 5364   5.730   0.291   3.609
 1489SOL     OW 5365   4.320   5.307   5.967
 1489SOL    HW1 5366   4.410   5.270   5.942
 1489SOL    HW2 5367   4.323   5.407   5.960
 1490SOL     OW 5368   0.718   3.730   1.514
 1490SOL    HW1 5369   0.624   3.761   1.525
 1490SOL    HW2 5370   0.759   3.714   1.604
 1491SOL     OW 5371   5.864   4.601   2.327
 1491SOL    HW1 5372   5.938   4.666   2.344
 1491SOL    HW2 5373   5.869   4.567   2.233
 1492SOL     OW 5374   6.342   0.142   2.451
 1492SOL    HW1 5375   6.347   0.064   2.513
 1492SOL    HW2 5376   6.349   0.111   2.357
 1493SOL     OW 5377   3.934   6.788   6.341
 1493SOL    HW1 5378   3.868   6.753   6.275
 1493SOL    HW2 5379   4.026   6.763   6.314
 1494SOL     OW 5380   5.175   2.324   6.256
 1494SOL    HW1 5381   5.091   2.368   6.287
 1494SOL    HW2 5382   5.253   2.382   6.279
 1495SOL     OW 5383   0.810   3.682   5.254
 1495SOL    HW1 5384   0.839   3.724   5.340
 1495SOL    HW2 5385   0.782   3.753   5.190
 1496SOL     OW 5386   0.616   1.368   1.164
 1496SOL    HW1 5387   0.617   1.268   1.174
 1496SOL    HW2 5388   0.522   1.399   1.154
 1497SOL     OW 5389   5.293   3.091   2.490
 1497SOL    HW1 5390   5.353   3.160   2.530
 1497SOL    HW2 5391   5.202   3.098   2.531
 1498SOL     OW 5392   2.387   4.613   6.449
 1498SOL    HW1 5393   2.353   4.650   6.362
 1498SOL    HW2 5394   2.321   4.549   6.486
 1499SOL     OW 5395   0.831   2.015   5.166
 1499SOL    HW1 5396   0.897   1.942   5.146
 1499SOL    HW2 5397   0.739   1.984   5.141
 1500SOL     OW 5398   0.254   0.236   0.014
 1500SOL    HW1 5399   0.240   0.330   0.043
 1500SOL    HW2 5400   0.268   0.178   0.094
 1501SOL     OW 5401   5.531   2.924   6.402
 1501SOL    HW1 5402   5.529   2.830   6.436
 1501SOL    HW2 5403   5.458   2.976   6.445
 1502SOL     OW 5404   3.964   0.515   6.858
 1502SOL    HW1 5405   4.033   0.580   6.888
 1502SOL    HW2 5406   3.941   0.532   6.762
 1503SOL     OW 5407   1.223   2.647   2.296
 1503SOL    HW1 5408   1.312   2.683   2.324
 1503SOL    HW2 5409   1.234   2.593   2.212
 1504SOL     OW 5410   0.394   0.309   4.232
 1504SOL    HW1 5411   0.489   0.286   4.250
 1504SOL    HW2 5412   0.346   0.325   4.318
 1505SOL     OW 5413   4.595   0.261   4.934
 1505SOL    HW1 5414   4.526   0.248   5.005
 1505SOL    HW2 5415   4.657   0.334   4.961
 1506SOL     OW 5416   0.626   6.489   0.352
 1506SOL    HW1 5417   0.622   6.459   0.447
 1506SOL    HW2 5418   0.707   6.449   0.308
 1507SOL     OW 5419   6.979   1.812   5.987
 1507SOL    HW1 5420   0.011   1.811   5.901
 1507SOL    HW2 5421   6.914   1.888   5.986
 1508SOL     OW 5422   6.406   1.322   0.627
 1508SOL    HW1 5423   6.325   1.276   0.663
 1508SOL    HW2 5424   6.488   1.273   0.657
 1509SOL     OW 5425   3.878   1.674   5.090
 1509SOL    HW1 5426   3.978   1.680   5.078
 1509SOL    HW2 5427   3.853   1.715   5.178
 1510SOL     OW 5428   5.004   1.229   4.482
 1510SOL    HW1 5429   4.986   1.163   4.555
 1510SOL    HW2 5430   4.950   1.204   4.401
 1511SOL     OW 5431   4.022   3.210   3.865
 1511SOL    HW1 5432   4.036   3.265   3.783
 1511SOL    HW2 5433   3.990   3.119   3.840
 1512SOL     OW 5434   6.978   5.862   0.724
 1512SOL    HW1 5435   6.992   5.960   0.715
 1512SOL    HW2 5436   6.882   5.840   0.708
 1513SOL     OW 5437   3.918   0.475   4.852
 1513SOL    HW1 5438   3.950   0.558   4.898
 1513SOL    HW2 5439   3.949   0.395   4.902
 1514SOL     OW 5440   3.651   2.838   5.288
 1514SOL    HW1 5441   3.681   2.814   5.380
 1514SOL    HW2 5442   3.607   2.928   5.291
 1515SOL     OW 5443   5.511   2.126   2.286
 1515SOL    HW1 5444   5.459   2.165   2.209
 1515SOL    HW2 5445   5.579   2.062   2.252
 1516SOL     OW 5446   6.547   5.427   5.712
 1516SOL    HW1 5447   6.586   5.438   5.803
 1516SOL    HW2 5448   6.602   5.480   5.647
 1517SOL     OW 5449   4.309   5.859   2.791
 1517SOL    HW1 5450   4.389   5.915   2.813
 1517SOL    HW2 5451   4.337   5.779   2.739
 1518SOL     OW 5452   0.439   2.723   0.433
 1518SOL    HW1 5453   0.400   2.706   0.523
 1518SOL    HW2 5454   0.434   2.640   0.378
 1519SOL     OW 5455   6.722   4.575   1.758
 1519SOL    HW1 5456   6.646   4.529   1.714
 1519SOL    HW2 5457   6.766   4.514   1.824
 1520SOL     OW 5458   0.500   4.343   1.996
 1520SOL    HW1 5459   0.563   4.420   1.984
 1520SOL    HW2 5460   0.406   4.376   1.993
 1521SOL     OW 5461   2.062   3.818   6.183
 1521SOL    HW1 5462   2.111   3.886   6.238
 1521SOL    HW2 5463   1.964   3.823   6.203
 1522SOL     OW 5464   5.574   6.121   5.191
 1522SOL    HW1 5465   5.510   6.197   5.198
 1522SOL    HW2 5466   5.667   6.156   5.190
 1523SOL     OW 5467   4.167   6.256   6.880
 1523SOL    HW1 5468   4.072   6.275   6.857
 1523SOL    HW2 5469   4.197   6.318   6.952
 1524SOL     OW 5470   2.544   1.753   2.960
 1524SOL    HW1 5471   2.500   1.803   2.885
 1524SOL    HW2 5472   2.582   1.667   2.926
 1525SOL     OW 5473   6.381   3.598   0.683
 1525SOL    HW1 5474   6.373   3.592   0.584
 1525SOL    HW2 5475   6.435   3.522   0.717
 1526SOL     OW 5476   6.927   0.844   6.640
 1526SOL    HW1 5477   6.998   0.779   6.610
 1526SOL    HW2 5478   6.929   0.851   6.739
 1527SOL     OW 5479   4.023   1.411   4.914
 1527SOL    HW1 5480   3.949   1.479   4.917
 1527SOL    HW2 5481   4.083   1.431   4.836
 1528SOL     OW 5482   3.847   4.872   2.856
 1528SOL    HW1 5483   3.919   4.880   2.788
 1528SOL    HW2 5484   3.885   4.831   2.940
 1529SOL     OW 5485   4.135   0.224   0.108
 1529SOL    HW1 5486   4.104   0.216   0.203
 1529SOL    HW2 5487   4.229   0.258   0.106
 1530SOL     OW 5488   4.062   1.929   2.306
 1530SOL    HW1 5489   3.983   1.980   2.271
 1530SOL    HW2 5490   4.059   1.928   2.406
 1531SOL     OW 5491   4.656   6.941   5.660
 1531SOL    HW1 5492   4.662   6.845   5.633
 1531SOL    HW2 5493   4.717   6.957   5.739
 1532SOL     OW 5494   3.446   3.456   6.332
 1532SOL    HW1 5495   3.471   3.369   6.289
 1532SOL    HW2 5496   3.347   3.463   6.337
 1533SOL     OW 5497   5.878   4.831   6.475
 1533SOL    HW1 5498   5.794   4.821   6.423
 1533SOL    HW2 5499   5.876   4.916   6.527
 1534SOL     OW 5500   3.123   5.783   6.928
 1534SOL    HW1 5501   3.096   5.791   6.833
 1534SOL    HW2 5502   3.068   5.846   6.984
 1535SOL     OW 5503   5.292   6.012   4.521
 1535SOL    HW1 5504   5.375   5.957   4.533
 1535SOL    HW2 5505   5.265   6.050   4.609
 1536SOL     OW 5506   3.830   4.144   5.733
 1536SOL    HW1 5507   3.814   4.092   5.649
 1536SOL    HW2 5508   3.756   4.210   5.746
 1537SOL     OW 5509   4.191   5.701   3.671
 1537SOL    HW1 5510   4.286   5.694   3.641
 1537SOL    HW2 5511   4.187   5.691   3.770
 1538SOL     OW 5512   3.132   0.085   6.794
 1538SOL    HW1 5513   3.038   0.092   6.760
 1538SOL    HW2 5514   3.170   7.014   6.770
 1539SOL     OW 5515   4.826   3.936   1.836
 1539SOL    HW1 5516   4.866   3.923   1.927
 1539SOL    HW2 5517   4.789   3.849   1.804
 1540SOL     OW 5518   1.039   6.063   5.479
 1540SOL    HW1 5519   0.961   6.084   5.420
 1540SOL    HW2 5520   1.029   6.113   5.565
 1541SOL     OW 5521   3.165   3.197   3.677
 1541SOL    HW1 5522   3.179   3.261   3.601
 1541SOL    HW2 5523   3.102   3.238   3.743
 1542SOL     OW 5524   6.699   0.029   2.487
 1542SOL    HW1 5525   6.660   0.011   2.396
 1542SOL    HW2 5526   6.749   0.116   2.484
 1543SOL     OW 5527   3.058   5.040   5.614
 1543SOL    HW1 5528   3.064   5.074   5.520
 1543SOL    HW2 5529   3.008   4.953   5.615
 1544SOL     OW 5530   3.049   3.546   2.456
 1544SOL    HW1 5531   2.956   3.511   2.460
 1544SOL    HW2 5532   3.075   3.563   2.361
 1545SOL     OW 5533   5.174   0.891   3.116
 1545SOL    HW1 5534   5.143   0.888   3.211
 1545SOL    HW2 5535   5.271   0.869   3.111
 1546SOL     OW 5536   4.160   6.801   5.743
 1546SOL    HW1 5537   4.164   6.722   5.804
 1546SOL    HW2 5538   4.251   6.841   5.733
 1547SOL     OW 5539   1.732   4.116   1.875
 1547SOL    HW1 5540   1.803   4.104   1.945
 1547SOL    HW2 5541   1.745   4.203   1.828
 1548SOL     OW 5542   5.796   3.529   5.584
 1548SOL    HW1 5543   5.757   3.514   5.675
 1548SOL    HW2 5544   5.756   3.612   5.544
 1549SOL     OW 5545   4.124   1.739   1.656
 1549SOL    HW1 5546   4.031   1.773   1.671
 1549SOL    HW2 5547   4.166   1.718   1.744
 1550SOL     OW 5548   2.760   3.706   0.163
 1550SOL    HW1 5549   2.779   3.762   0.243
 1550SOL    HW2 5550   2.669   3.665   0.171
 1551SOL     OW 5551   2.137   4.402   6.114
 1551SOL    HW1 5552   2.171   4.327   6.057
 1551SOL    HW2 5553   2.156   4.489   6.070
 1552SOL     OW 5554   1.516   5.828   0.204
 1552SOL    HW1 5555   1.614   5.842   0.219
 1552SOL    HW2 5556   1.475   5.788   0.285
 1553SOL     OW 5557   6.647   1.935   6.579
 1553SOL    HW1 5558   6.563   1.981   6.606
 1553SOL    HW2 5559   6.709   1.929   6.658
 1554SOL     OW 5560   4.092   1.957   2.861
 1554SOL    HW1 5561   4.137   1.906   2.934
 1554SOL    HW2 5562   4.074   2.051   2.892
 1555SOL     OW 5563   5.282   2.636   0.164
 1555SOL    HW1 5564   5.280   2.736   0.172
 1555SOL    HW2 5565   5.201   2.606   0.113
 1556SOL     OW 5566   3.007   1.826   6.992
 1556SOL    HW1 5567   2.952   1.746   6.966
 1556SOL    HW2 5568   3.010   1.890   6.915
 1557SOL     OW 5569   2.093   2.078   5.278
 1557SOL    HW1 5570   2.088   2.118   5.369
 1557SOL    HW2 5571   2.022   2.008   5.268
 1558SOL     OW 5572   5.826   0.424   4.876
 1558SOL    HW1 5573   5.901   0.463   4.823
 1558SOL    HW2 5574   5.828   0.461   4.969
 1559SOL     OW 5575   1.347   2.659   0.140
 1559SOL    HW1 5576   1.328   2.570   0.098
 1559SOL    HW2 5577   1.263   2.697   0.178
 1560SOL     OW 5578   0.161   1.074   5.612
 1560SOL    HW1 5579   0.096   1.134   5.565
 1560SOL    HW2 5580   0.249   1.121   5.621
 1561SOL     OW 5581   6.448   6.509   3.883
 1561SOL    HW1 5582   6.372   6.555   3.929
 1561SOL    HW2 5583   6.515   6.577   3.852
 1562SOL     OW 5584   4.063   5.895   2.919
 1562SOL    HW1 5585   4.024   5.897   2.827
 1562SOL    HW2 5586   4.162   5.891   2.913
 1563SOL     OW 5587   2.316   0.157   5.480
 1563SOL    HW1 5588   2.368   0.231   5.523
 1563SOL    HW2 5589   2.253   0.195   5.413
 1564SOL     OW 5590   1.252   2.524   3.460
 1564SOL    HW1 5591   1.288   2.435   3.488
 1564SOL    HW2 5592   1.327   2.589   3.447
 1565SOL     OW 5593   4.394   4.658   3.787
 1565SOL    HW1 5594   4.454   4.581   3.806
 1565SOL    HW2 5595   4.326   4.666   3.859
 1566SOL     OW 5596   5.673   4.858   2.874
 1566SOL    HW1 5597   5.609   4.842   2.799
 1566SOL    HW2 5598   5.660   4.950   2.909
 1567SOL     OW 5599   6.100   5.922   0.727
 1567SOL    HW1 5600   6.128   6.011   0.691
 1567SOL    HW2 5601   6.045   5.875   0.658
 1568SOL     OW 5602   1.603   6.443   6.910
 1568SOL    HW1 5603   1.651   6.435   6.998
 1568SOL    HW2 5604   1.666   6.420   6.836
 1569SOL     OW 5605   4.711   6.188   3.521
 1569SOL    HW1 5606   4.721   6.101   3.472
 1569SOL    HW2 5607   4.656   6.175   3.603
 1570SOL     OW 5608   1.893   0.356   1.087
 1570SOL    HW1 5609   1.988   0.332   1.106
 1570SOL    HW2 5610   1.890   0.428   1.018
 1571SOL     OW 5611   5.174   2.321   1.448
 1571SOL    HW1 5612   5.169   2.405   1.393
 1571SOL    HW2 5613   5.268   2.287   1.450
 1572SOL     OW 5614   0.799   6.850   0.858
 1572SOL    HW1 5615   0.837   6.759   0.845
 1572SOL    HW2 5616   0.821   6.882   0.950
 1573SOL     OW 5617   5.189   2.939   2.111
 1573SOL    HW1 5618   5.108   2.955   2.167
 1573SOL    HW2 5619   5.270   2.936   2.170
 1574SOL     OW 5620   6.287   0.676   1.432
 1574SOL    HW1 5621   6.271   0.774   1.427
 1574SOL    HW2 5622   6.385   0.658   1.437
 1575SOL     OW 5623   3.530   1.287   0.765
 1575SOL    HW1 5624   3.548   1.364   0.703
 1575SOL    HW2 5625   3.450   1.236   0.734
 1576SOL     OW 5626   0.981   0.117   3.349
 1576SOL    HW1 5627   0.887   0.084   3.363
 1576SOL    HW2 5628   1.044   0.040   3.353
 1577SOL     OW 5629   3.094   2.040   4.395
 1577SOL    HW1 5630   3.038   2.053   4.477
 1577SOL    HW2 5631   3.103   1.943   4.376
 1578SOL     OW 5632   6.314   3.337   6.233
 1578SOL    HW1 5633   6.285   3.330   6.138
 1578SOL    HW2 5634   6.381   3.266   6.253
 1579SOL     OW 5635   6.973   1.481   2.935
 1579SOL    HW1 5636   6.890   1.427   2.921
 1579SOL    HW2 5637   6.952   1.578   2.928
 1580SOL     OW 5638   2.906   4.034   5.281
 1580SOL    HW1 5639   2.861   4.122   5.297
 1580SOL    HW2 5640   2.838   3.960   5.291
 1581SOL     OW 5641   0.475   3.862   5.074
 1581SOL    HW1 5642   0.451   3.854   5.171
 1581SOL    HW2 5643   0.429   3.943   5.036
 1582SOL     OW 5644   1.432   0.070   4.574
 1582SOL    HW1 5645   1.471   7.017   4.517
 1582SOL    HW2 5646   1.498   0.144   4.584
 1583SOL     OW 5647   1.236   4.670   3.218
 1583SOL    HW1 5648   1.279   4.599   3.162
 1583SOL    HW2 5649   1.195   4.628   3.299
 1584SOL     OW 5650   1.651   6.621   5.154
 1584SOL    HW1 5651   1.688   6.713   5.139
 1584SOL    HW2 5652   1.552   6.624   5.147
 1585SOL     OW 5653   5.828   1.610   3.331
 1585SOL    HW1 5654   5.793   1.523   3.367
 1585SOL    HW2 5655   5.906   1.591   3.272
 1586SOL     OW 5656   3.611   4.452   1.214
 1586SOL    HW1 5657   3.556   4.464   1.132
 1586SOL    HW2 5658   3.576   4.512   1.286
 1587SOL     OW 5659   2.763   6.338   6.275
 1587SOL    HW1 5660   2.726   6.245   6.279
 1587SOL    HW2 5661   2.699   6.401   6.319
 1588SOL     OW 5662   5.084   1.756   3.498
 1588SOL    HW1 5663   5.001   1.723   3.542
 1588SOL    HW2 5664   5.062   1.795   3.408
 1589SOL     OW 5665   6.003   3.916   2.200
 1589SOL    HW1 5666   6.013   3.990   2.133
 1589SOL    HW2 5667   5.912   3.875   2.192
 1590SOL     OW 5668   2.677   6.341   6.766
 1590SOL    HW1 5669   2.754   6.308   6.822
 1590SOL    HW2 5670   2.711   6.407   6.699
 1591SOL     OW 5671   0.020   5.348   2.386
 1591SOL    HW1 5672   6.969   5.303   2.440
 1591SOL    HW2 5673   0.010   5.447   2.392
 1592SOL     OW 5674   1.971   4.631   0.591
 1592SOL    HW1 5675   2.033   4.596   0.521
 1592SOL    HW2 5676   1.927   4.715   0.559
 1593SOL     OW 5677   1.028   6.347   3.730
 1593SOL    HW1 5678   1.121   6.379   3.713
 1593SOL    HW2 5679   1.031   6.252   3.760
 1594SOL     OW 5680   6.642   5.809   2.550
 1594SOL    HW1 5681   6.732   5.849   2.567
 1594SOL    HW2 5682   6.609   5.837   2.460
 1595SOL     OW 5683   1.634   5.067   6.860
 1595SOL    HW1 5684   1.664   4.972   6.868
 1595SOL    HW2 5685   1.613   5.104   6.951
 1596SOL     OW 5686   0.597   3.126   4.594
 1596SOL    HW1 5687   0.596   3.068   4.513
 1596SOL    HW2 5688   0.561   3.074   4.672
 1597SOL     OW 5689   2.115   6.321   6.804
 1597SOL    HW1 5690   2.056   6.252   6.762
 1597SOL    HW2 5691   2.192   6.276   6.850
 1598SOL     OW 5692   0.902   3.883   0.018
 1598SOL    HW1 5693   0.915   3.789   0.050
 1598SOL    HW2 5694   0.804   3.906   0.022
 1599SOL     OW 5695   4.606   4.367   6.032
 1599SOL    HW1 5696   4.556   4.428   6.093
 1599SOL    HW2 5697   4.603   4.274   6.070
 1600SOL     OW 5698   5.064   1.795   5.123
 1600SOL    HW1 5699   5.153   1.776   5.165
 1600SOL    HW2 5700   5.052   1.737   5.043
 1601SOL     OW 5701   0.076   4.610   4.229
 1601SOL    HW1 5702   0.082   4.707   4.206
 1601SOL    HW2 5703   0.142   4.558   4.175
 1602SOL     OW 5704   2.100   5.266   4.019
 1602SOL    HW1 5705   2.160   5.288   4.095
 1602SOL    HW2 5706   2.004   5.273   4.048
 1603SOL     OW 5707   6.764   6.011   2.925
 1603SOL    HW1 5708   6.686   6.073   2.937
 1603SOL    HW2 5709   6.785   6.003   2.828
 1604SOL     OW 5710   6.382   4.596   0.327
 1604SOL    HW1 5711   6.472   4.568   0.361
 1604SOL    HW2 5712   6.346   4.527   0.265
 1605SOL     OW 5713   6.266   6.471   2.329
 1605SOL    HW1 5714   6.178   6.490   2.287
 1605SOL    HW2 5715   6.320   6.556   2.332
 1606SOL     OW 5716   3.092   0.537   5.021
 1606SOL    HW1 5717   3.154   0.529   4.942
 1606SOL    HW2 5718   3.029   0.614   5.006
 1607SOL     OW 5719   4.148   2.273   0.399
 1607SOL    HW1 5720   4.226   2.335   0.410
 1607SOL    HW2 5721   4.067   2.313   0.441
 1608SOL     OW 5722   1.665   0.210   4.655
 1608SOL    HW1 5723   1.662   0.289   4.594
 1608SOL    HW2 5724   1.648   0.240   4.749
 1609SOL     OW 5725   4.489   0.279   0.262
 1609SOL    HW1 5726   4.452   0.240   0.178
 1609SOL    HW2 5727   4.540   0.208   0.312
 1610SOL     OW 5728   5.862   4.041   5.830
 1610SOL    HW1 5729   5.954   4.079   5.820
 1610SOL    HW2 5730   5.804   4.075   5.756
 1611SOL     OW 5731   2.905   3.211   1.571
 1611SOL    HW1 5732   2.863   3.120   1.566
 1611SOL    HW2 5733   2.957   3.219   1.655
 1612SOL     OW 5734   2.630   1.271   4.852
 1612SOL    HW1 5735   2.634   1.280   4.952
 1612SOL    HW2 5736   2.640   1.174   4.827
 1613SOL     OW 5737   1.848   5.794   1.213
 1613SOL    HW1 5738   1.920   5.781   1.280
 1613SOL    HW2 5739   1.765   5.747   1.243
 1614SOL     OW 5740   6.315   3.633   0.433
 1614SOL    HW1 5741   6.223   3.638   0.473
 1614SOL    HW2 5742   6.335   3.718   0.385
 1615SOL     OW 5743   6.493   5.093   0.682
 1615SOL    HW1 5744   6.410   5.062   0.729
 1615SOL    HW2 5745   6.568   5.101   0.748
 1616SOL     OW 5746   3.730   1.967   4.961
 1616SOL    HW1 5747   3.767   1.883   5.001
 1616SOL    HW2 5748   3.693   1.947   4.871
 1617SOL     OW 5749   6.065   0.367   1.796
 1617SOL    HW1 5750   6.060   0.366   1.896
 1617SOL    HW2 5751   6.014   0.289   1.759
 1618SOL     OW 5752   0.950   3.638   1.287
 1618SOL    HW1 5753   0.936   3.540   1.304
 1618SOL    HW2 5754   0.863   3.680   1.260
 1619SOL     OW 5755   0.914   2.144   3.031
 1619SOL    HW1 5756   0.886   2.048   3.033
 1619SOL    HW2 5757   0.959   2.163   2.944
 1620SOL     OW 5758   2.469   5.359   1.234
 1620SOL    HW1 5759   2.516   5.270   1.224
 1620SOL    HW2 5760   2.400   5.353   1.306
 1621SOL     OW 5761   0.826   1.280   0.337
 1621SOL    HW1 5762   0.905   1.225   0.309
 1621SOL    HW2 5763   0.757   1.278   0.265
 1622SOL     OW 5764   0.370   2.511   4.706
 1622SOL    HW1 5765   0.337   2.586   4.764
 1622SOL    HW2 5766   0.463   2.531   4.676
 1623SOL     OW 5767   2.373   3.487   5.380
 1623SOL    HW1 5768   2.470   3.507   5.392
 1623SOL    HW2 5769   2.319   3.554   5.432
 1624SOL     OW 5770   2.868   1.196   5.450
 1624SOL    HW1 5771   2.929   1.217   5.374
 1624SOL    HW2 5772   2.903   1.115   5.499
 1625SOL     OW 5773   1.134   5.288   1.740
 1625SOL    HW1 5774   1.188   5.209   1.712
 1625SOL    HW2 5775   1.152   5.307   1.837
 1626SOL     OW 5776   3.229   2.198   6.570
 1626SOL    HW1 5777   3.137   2.218   6.537
 1626SOL    HW2 5778   3.280   2.283   6.582
 1627SOL     OW 5779   6.308   2.722   3.726
 1627SOL    HW1 5780   6.390   2.758   3.681
 1627SOL    HW2 5781   6.304   2.757   3.820
 1628SOL     OW 5782   4.650   4.710   6.957
 1628SOL    HW1 5783   4.663   4.809   6.968
 1628SOL    HW2 5784   4.738   4.668   6.933
 1629SOL     OW 5785   2.778   1.675   4.066
 1629SOL    HW1 5786   2.697   1.617   4.075
 1629SOL    HW2 5787   2.855   1.619   4.036
 1630SOL     OW 5788   1.421   6.478   5.710
 1630SOL    HW1 5789   1.402   6.414   5.636
 1630SOL    HW2 5790   1.452   6.428   5.791
 1631SOL     OW 5791   0.423   1.645   6.505
 1631SOL    HW1 5792   0.329   1.650   6.473
 1631SOL    HW2 5793   0.481   1.702   6.448
 1632SOL     OW 5794   0.085   1.736   0.115
 1632SOL    HW1 5795   0.157   1.805   0.101
 1632SOL    HW2 5796   0.105   1.684   0.198
 1633SOL     OW 5797   5.114   2.344   4.038
 1633SOL    HW1 5798   5.171   2.331   3.957
 1633SOL    HW2 5799   5.043   2.273   4.041
 1634SOL     OW 5800   3.985   4.482   5.995
 1634SOL    HW1 5801   4.020   4.554   6.054
 1634SOL    HW2 5802   3.885   4.487   5.992
 1635SOL     OW 5803   6.739   5.456   5.499
 1635SOL    HW1 5804   6.818   5.433   5.555
 1635SOL    HW2 5805   6.752   5.418   5.407
 1636SOL     OW 5806   2.376   3.991   1.518
 1636SOL    HW1 5807   2.384   4.024   1.423
 1636SOL    HW2 5808   2.315   3.913   1.521
 1637SOL     OW 5809   0.205   0.520   3.078
 1637SOL    HW1 5810   0.267   0.455   3.034
 1637SOL    HW2 5811   0.197   0.602   3.021
 1638SOL     OW 5812   0.298   4.198   3.660
 1638SOL    HW1 5813   0.395   4.182   3.641
 1638SOL    HW2 5814   0.252   4.110   3.674
 1639SOL     OW 5815   4.134   6.749   3.011
 1639SOL    HW1 5816   4.089   6.728   3.098
 1639SOL    HW2 5817   4.210   6.686   2.996
 1640SOL     OW 5818   5.933   1.575   1.006
 1640SOL    HW1 5819   5.920   1.495   1.065
 1640SOL    HW2 5820   5.938   1.658   1.062
 1641SOL     OW 5821   5.272   2.837   4.061
 1641SOL    HW1 5822   5.330   2.856   3.982
 1641SOL    HW2 5823   5.312   2.764   4.116
 1642SOL     OW 5824   5.874   3.336   6.899
 1642SOL    HW1 5825   5.945   3.404   6.883
 1642SOL    HW2 5826   5.791   3.381   6.932
 1643SOL     OW 5827   2.969   5.013   4.124
 1643SOL    HW1 5828   2.998   5.011   4.220
 1643SOL    HW2 5829   2.911   4.934   4.105
 1644SOL     OW 5830   1.082   3.233   1.413
 1644SOL    HW1 5831   1.052   3.172   1.339
 1644SOL    HW2 5832   1.007   3.296   1.436
 1645SOL     OW 5833   2.784   6.385   5.657
 1645SOL    HW1 5834   2.850   6.439   5.711
 1645SOL    HW2 5835   2.707   6.442   5.632
 1646SOL     OW 5836   2.174   0.007   1.088
 1646SOL    HW1 5837   2.206   0.009   0.993
 1646SOL    HW2 5838   2.106   0.078   1.102
 1647SOL     OW 5839   6.137   2.690   4.432
 1647SOL    HW1 5840   6.083   2.617   4.474
 1647SOL    HW2 5841   6.107   2.778   4.467
 1648SOL     OW 5842   6.007   5.976   0.971
 1648SOL    HW1 5843   6.013   5.888   1.017
 1648SOL    HW2 5844   6.051   5.971   0.881
 1649SOL     OW 5845   4.125   0.109   4.095
 1649SOL    HW1 5846   4.199   0.064   4.045
 1649SOL    HW2 5847   4.102   0.055   4.176
 1650SOL     OW 5848   1.947   0.079   4.733
 1650SOL    HW1 5849   1.996   7.014   4.709
 1650SOL    HW2 5850   1.963   0.100   4.829
 1651SOL     OW 5851   0.918   0.977   1.862
 1651SOL    HW1 5852   0.890   0.946   1.771
 1651SOL    HW2 5853   1.009   1.018   1.856
 1652SOL     OW 5854   1.683   3.238   1.618
 1652SOL    HW1 5855   1.742   3.288   1.554
 1652SOL    HW2 5856   1.635   3.303   1.677
 1653SOL     OW 5857   0.341   6.585   1.118
 1653SOL    HW1 5858   0.383   6.594   1.028
 1653SOL    HW2 5859   0.327   6.676   1.158
 1654SOL     OW 5860   6.294   2.924   2.154
 1654SOL    HW1 5861   6.382   2.877   2.156
 1654SOL    HW2 5862   6.305   3.015   2.115
 1655SOL     OW 5863   6.077   2.912   5.033
 1655SOL    HW1 5864   6.073   2.826   4.982
 1655SOL    HW2 5865   6.166   2.954   5.020
 1656SOL     OW 5866   2.095   4.737   2.710
 1656SOL    HW1 5867   2.173   4.681   2.683
 1656SOL    HW2 5868   2.012   4.681   2.707
 1657SOL     OW 5869   6.937   0.747   4.548
 1657SOL    HW1 5870   6.934   0.748   4.648
 1657SOL    HW2 5871   6.885   0.669   4.514
 1658SOL     OW 5872   0.868   0.457   2.455
 1658SOL    HW1 5873   0.807   0.394   2.503
 1658SOL    HW2 5874   0.820   0.542   2.436
 1659SOL     OW 5875   3.609   1.156   5.917
 1659SOL    HW1 5876   3.704   1.188   5.922
 1659SOL    HW2 5877   3.567   1.162   6.008
 1660SOL     OW 5878   1.440   4.952   3.676
 1660SOL    HW1 5879   1.353   4.992   3.706
 1660SOL    HW2 5880   1.462   4.873   3.734
 1661SOL     OW 5881   3.295   1.404   1.837
 1661SOL    HW1 5882   3.238   1.345   1.895
 1661SOL    HW2 5883   3.261   1.400   1.743
 1662SOL     OW 5884   6.567   1.033   4.473
 1662SOL    HW1 5885   6.664   1.057   4.478
 1662SOL    HW2 5886   6.555   0.936   4.491
 1663SOL     OW 5887   3.301   0.636   2.844
 1663SOL    HW1 5888   3.358   0.566   2.802
 1663SOL    HW2 5889   3.254   0.597   2.924
 1664SOL     OW 5890   2.348   0.371   3.821
 1664SOL    HW1 5891   2.335   0.431   3.900
 1664SOL    HW2 5892   2.336   0.423   3.737
 1665SOL     OW 5893   0.184   1.322   2.643
 1665SOL    HW1 5894   0.269   1.274   2.663
 1665SOL    HW2 5895   0.111   1.287   2.702
 1666SOL     OW 5896   5.192   3.346   0.699
 1666SOL    HW1 5897   5.135   3.359   0.618
 1666SOL    HW2 5898   5.282   3.312   0.673
 1667SOL     OW 5899   5.743   6.935   1.103
 1667SOL    HW1 5900   5.714   6.844   1.075
 1667SOL    HW2 5901   5.664   6.988   1.135
 1668SOL     OW 5902   5.412   5.683   5.513
 1668SOL    HW1 5903   5.427   5.589   5.484
 1668SOL    HW2 5904   5.411   5.743   5.433
 1669SOL     OW 5905   6.104   6.724   6.849
 1669SOL    HW1 5906   6.177   6.736   6.781
 1669SOL    HW2 5907   6.140   6.741   6.940
 1670SOL     OW 5908   6.875   5.102   6.509
 1670SOL    HW1 5909   6.897   5.022   6.455
 1670SOL    HW2 5910   6.781   5.094   6.544
 1671SOL     OW 5911   4.639   2.645   1.282
 1671SOL    HW1 5912   4.671   2.617   1.191
 1671SOL    HW2 5913   4.540   2.635   1.288
 1672SOL     OW 5914   2.164   3.924   2.306
 1672SOL    HW1 5915   2.193   3.964   2.219
 1672SOL    HW2 5916   2.099   3.986   2.351
 1673SOL     OW 5917   0.005   2.417   4.732
 1673SOL    HW1 5918   0.006   2.322   4.763
 1673SOL    HW2 5919   0.067   2.428   4.654
 1674SOL     OW 5920   0.524   4.122   2.165
 1674SOL    HW1 5921   0.494   4.197   2.107
 1674SOL    HW2 5922   0.449   4.092   2.223
 1675SOL     OW 5923   4.430   0.576   6.130
 1675SOL    HW1 5924   4.398   0.578   6.035
 1675SOL    HW2 5925   4.424   0.483   6.165
 1676SOL     OW 5926   3.237   1.218   2.010
 1676SOL    HW1 5927   3.210   1.194   2.104
 1676SOL    HW2 5928   3.178   1.170   1.945
 1677SOL     OW 5929   4.344   2.793   5.277
 1677SOL    HW1 5930   4.286   2.720   5.241
 1677SOL    HW2 5931   4.434   2.789   5.234
 1678SOL     OW 5932   4.718   4.626   5.236
 1678SOL    HW1 5933   4.777   4.618   5.156
 1678SOL    HW2 5934   4.697   4.534   5.271
 1679SOL     OW 5935   2.169   3.231   4.995
 1679SOL    HW1 5936   2.161   3.144   4.947
 1679SOL    HW2 5937   2.242   3.226   5.063
 1680SOL     OW 5938   0.636   1.899   4.177
 1680SOL    HW1 5939   0.709   1.896   4.109
 1680SOL    HW2 5940   0.668   1.948   4.258
 1681SOL     OW 5941   6.602   5.982   1.470
 1681SOL    HW1 5942   6.575   6.011   1.378
 1681SOL    HW2 5943   6.520   5.965   1.525
 1682SOL     OW 5944   6.938   2.780   4.977
 1682SOL    HW1 5945   6.892   2.774   4.888
 1682SOL    HW2 5946   6.991   2.697   4.992
 1683SOL     OW 5947   4.108   5.840   0.833
 1683SOL    HW1 5948   4.147   5.794   0.753
 1683SOL    HW2 5949   4.059   5.774   0.889
 1684SOL     OW 5950   1.146   6.292   2.713
 1684SOL    HW1 5951   1.194   6.349   2.780
 1684SOL    HW2 5952   1.209   6.223   2.677
 1685SOL     OW 5953   2.759   1.267   6.116
 1685SOL    HW1 5954   2.692   1.199   6.146
 1685SOL    HW2 5955   2.724   1.315   6.036
 1686SOL     OW 5956   1.832   4.853   5.129
 1686SOL    HW1 5957   1.818   4.952   5.120
 1686SOL    HW2 5958   1.883   4.834   5.213
 1687SOL     OW 5959   2.333   2.788   0.785
 1687SOL    HW1 5960   2.350   2.721   0.713
 1687SOL    HW2 5961   2.311   2.876   0.744
 1688SOL     OW 5962   1.346   2.446   3.791
 1688SOL    HW1 5963   1.379   2.530   3.833
 1688SOL    HW2 5964   1.422   2.396   3.750
 1689SOL     OW 5965   4.188   0.905   2.014
 1689SOL    HW1 5966   4.177   0.808   2.037
 1689SOL    HW2 5967   4.206   0.914   1.916
 1690SOL     OW 5968   1.415   2.940   3.592
 1690SOL    HW1 5969   1.464   2.930   3.679
 1690SOL    HW2 5970   1.424   2.855   3.540
 1691SOL     OW 5971   5.230   3.913   3.411
 1691SOL    HW1 5972   5.208   3.833   3.468
 1691SOL    HW2 5973   5.228   3.995   3.467
 1692SOL     OW 5974   6.532   0.535   1.542
 1692SOL    HW1 5975   6.562   0.545   1.447
 1692SOL    HW2 5976   6.505   0.440   1.558
 1693SOL     OW 5977   0.398   2.096   2.638
 1693SOL    HW1 5978   0.469   2.067   2.703
 1693SOL    HW2 5979   0.329   2.023   2.631
 1694SOL     OW 5980   5.091   0.352   3.694
 1694SOL    HW1 5981   5.137   0.263   3.696
 1694SOL    HW2 5982   5.086   0.389   3.787
 1695SOL     OW 5983   2.405   1.246   5.628
 1695SOL    HW1 5984   2.324   1.260   5.683
 1695SOL    HW2 5985   2.441   1.335   5.598
 1696SOL     OW 5986   5.131   4.997   0.529
 1696SOL    HW1 5987   5.057   5.064   0.536
 1696SOL    HW2 5988   5.136   4.945   0.613
 1697SOL     OW 5989   5.803   6.044   2.252
 1697SOL    HW1 5990   5.845   6.088   2.172
 1697SOL    HW2 5991   5.734   5.979   2.222
 1698SOL     OW 5992   4.494   0.836   0.756
 1698SOL    HW1 5993   4.522   0.872   0.845
 1698SOL    HW2 5994   4.414   0.887   0.723
 1699SOL     OW 5995   2.974   1.428   1.522
 1699SOL    HW1 5996   3.016   1.513   1.553
 1699SOL    HW2 5997   3.018   1.398   1.437
 1700SOL     OW 5998   6.296   1.916   3.447
 1700SOL    HW1 5999   6.326   2.008   3.422
 1700SOL    HW2 6000   6.197   1.910   3.437
 1701SOL     OW 6001   5.216   3.101   5.264
 1701SOL    HW1 6002   5.144   3.050   5.310
 1701SOL    HW2 6003   5.186   3.195   5.247
 1702SOL     OW 6004   6.971   2.919   0.871
 1702SOL    HW1 6005   6.935   2.887   0.959
 1702SOL    HW2 6006   0.025   2.985   0.887
 1703SOL     OW 6007   3.924   3.838   2.847
 1703SOL    HW1 6008   3.857   3.907   2.872
 1703SOL    HW2 6009   3.886   3.779   2.777
 1704SOL     OW 6010   0.472   1.292   2.128
 1704SOL    HW1 6011   0.523   1.230   2.187
 1704SOL    HW2 6012   0.439   1.242   2.047
 1705SOL     OW 6013   3.613   2.170   1.720
 1705SOL    HW1 6014   3.656   2.226   1.791
 1705SOL    HW2 6015   3.684   2.126   1.665
 1706SOL     OW 6016   4.668   0.371   1.438
 1706SOL    HW1 6017   4.688   0.461   1.399
 1706SOL    HW2 6018   4.617   0.316   1.372
 1707SOL     OW 6019   4.636   1.921   3.211
 1707SOL    HW1 6020   4.632   1.998   3.147
 1707SOL    HW2 6021   4.672   1.840   3.163
 1708SOL     OW 6022   4.356   5.282   2.120
 1708SOL    HW1 6023   4.430   5.218   2.140
 1708SOL    HW2 6024   4.272   5.231   2.102
 1709SOL     OW 6025   2.759   5.961   1.759
 1709SOL    HW1 6026   2.813   5.959   1.674
 1709SOL    HW2 6027   2.687   5.892   1.753
 1710SOL     OW 6028   5.592   4.538   3.488
 1710SOL    HW1 6029   5.539   4.453   3.482
 1710SOL    HW2 6030   5.684   4.522   3.451
 1711SOL     OW 6031   1.067   4.373   4.711
 1711SOL    HW1 6032   1.096   4.467   4.729
 1711SOL    HW2 6033   1.039   4.330   4.797
 1712SOL     OW 6034   1.013   2.991   6.512
 1712SOL    HW1 6035   1.110   3.010   6.523
 1712SOL    HW2 6036   0.976   3.046   6.437
 1713SOL     OW 6037   3.965   2.476   0.915
 1713SOL    HW1 6038   4.005   2.400   0.864
 1713SOL    HW2 6039   3.898   2.522   0.858
 1714SOL     OW 6040   4.683   1.574   5.737
 1714SOL    HW1 6041   4.621   1.625   5.678
 1714SOL    HW2 6042   4.714   1.633   5.812
 1715SOL     OW 6043   6.736   3.777   2.534
 1715SOL    HW1 6044   6.755   3.681   2.557
 1715SOL    HW2 6045   6.727   3.830   2.619
 1716SOL     OW 6046   4.972   6.741   2.041
 1716SOL    HW1 6047   4.965   6.820   2.102
 1716SOL    HW2 6048   4.930   6.763   1.953
 1717SOL     OW 6049   2.017   6.841   6.276
 1717SOL    HW1 6050   1.965   6.756   6.266
 1717SOL    HW2 6051   2.069   6.839   6.362
 1718SOL     OW 6052   2.092   1.998   1.512
 1718SOL    HW1 6053   2.125   2.080   1.559
 1718SOL    HW2 6054   2.055   1.934   1.579
 1719SOL     OW 6055   2.446   4.246   0.995
 1719SOL    HW1 6056   2.473   4.307   1.070
 1719SOL    HW2 6057   2.413   4.301   0.918
 1720SOL     OW 6058   6.531   1.220   0.977
 1720SOL    HW1 6059   6.584   1.226   0.892
 1720SOL    HW2 6060   6.592   1.204   1.054
 1721SOL     OW 6061   0.863   6.420   3.185
 1721SOL    HW1 6062   0.913   6.337   3.212
 1721SOL    HW2 6063   0.766   6.399   3.176
 1722SOL     OW 6064   4.741   1.858   3.807
 1722SOL    HW1 6065   4.659   1.898   3.768
 1722SOL    HW2 6066   4.732   1.853   3.906
 1723SOL     OW 6067   6.582   2.844   2.925
 1723SOL    HW1 6068   6.507   2.778   2.929
 1723SOL    HW2 6069   6.565   2.911   2.853
 1724SOL     OW 6070   6.087   2.096   0.963
 1724SOL    HW1 6071   6.062   2.191   0.942
 1724SOL    HW2 6072   6.092   2.043   0.879
 1725SOL     OW 6073   2.868   5.195   0.312
 1725SOL    HW1 6074   2.834   5.198   0.406
 1725SOL    HW2 6075   2.827   5.118   0.264
 1726SOL     OW 6076   5.514   3.992   5.299
 1726SOL    HW1 6077   5.479   3.926   5.366
 1726SOL    HW2 6078   5.524   3.947   5.211
 1727SOL     OW 6079   3.709   2.918   4.320
 1727SOL    HW1 6080   3.768   2.879   4.391
 1727SOL    HW2 6081   3.661   2.997   4.356
 1728SOL     OW 6082   6.017   5.317   4.642
 1728SOL    HW1 6083   6.040   5.305   4.738
 1728SOL    HW2 6084   5.977   5.233   4.606
 1729SOL     OW 6085   2.191   3.964   3.535
 1729SOL    HW1 6086   2.175   3.928   3.443
 1729SOL    HW2 6087   2.120   4.031   3.557
 1730SOL     OW 6088   6.608   0.161   5.365
 1730SOL    HW1 6089   6.614   0.222   5.286
 1730SOL    HW2 6090   6.700   0.135   5.394
 1731SOL     OW 6091   0.628   5.220   1.961
 1731SOL    HW1 6092   0.691   5.226   2.038
 1731SOL    HW2 6093   0.539   5.260   1.986
 1732SOL     OW 6094   2.100   4.476   5.433
 1732SOL    HW1 6095   2.193   4.440   5.433
 1732SOL    HW2 6096   2.038   4.408   5.392
 1733SOL     OW 6097   1.320   3.716   2.340
 1733SOL    HW1 6098   1.255   3.650   2.378
 1733SOL    HW2 6099   1.329   3.699   2.242
 1734SOL     OW 6100   4.895   3.311   1.908
 1734SOL    HW1 6101   4.990   3.288   1.928
 1734SOL    HW2 6102   4.836   3.235   1.934
 1735SOL     OW 6103   6.167   5.863   1.350
 1735SOL    HW1 6104   6.247   5.824   1.394
 1735SOL    HW2 6105   6.195   5.921   1.273
 1736SOL     OW 6106   4.095   2.152   1.419
 1736SOL    HW1 6107   4.091   2.097   1.503
 1736SOL    HW2 6108   4.039   2.109   1.348
 1737SOL     OW 6109   3.060   1.388   4.605
 1737SOL    HW1 6110   3.149   1.424   4.632
 1737SOL    HW2 6111   3.072   1.302   4.556
 1738SOL     OW 6112   2.000   1.677   3.694
 1738SOL    HW1 6113   1.911   1.637   3.674
 1738SOL    HW2 6114   2.061   1.663   3.616
 1739SOL     OW 6115   5.242   2.325   5.503
 1739SOL    HW1 6116   5.312   2.391   5.533
 1739SOL    HW2 6117   5.287   2.246   5.461
 1740SOL     OW 6118   0.397   1.917   6.178
 1740SOL    HW1 6119   0.354   1.853   6.114
 1740SOL    HW2 6120   0.355   2.007   6.169
 1741SOL     OW 6121   2.528   0.744   4.056
 1741SOL    HW1 6122   2.463   0.739   4.132
 1741SOL    HW2 6123   2.620   0.755   4.091
 1742SOL     OW 6124   4.607   6.071   6.283
 1742SOL    HW1 6125   4.632   6.151   6.338
 1742SOL    HW2 6126   4.520   6.088   6.237
 1743SOL     OW 6127   2.220   2.015   2.237
 1743SOL    HW1 6128   2.260   2.089   2.183
 1743SOL    HW2 6129   2.171   1.951   2.177
 1744SOL     OW 6130   0.511   0.395   1.391
 1744SOL    HW1 6131   0.587   0.412   1.455
 1744SOL    HW2 6132   0.434   0.454   1.415
 1745SOL     OW 6133   6.684   0.412   3.951
 1745SOL    HW1 6134   6.738   0.487   3.912
 1745SOL    HW2 6135   6.744   0.352   4.005
 1746SOL     OW 6136   2.202   5.304   5.122
 1746SOL    HW1 6137   2.137   5.379   5.136
 1746SOL    HW2 6138   2.151   5.221   5.100
 1747SOL     OW 6139   5.452   0.854   3.118
 1747SOL    HW1 6140   5.458   0.953   3.130
 1747SOL    HW2 6141   5.498   0.809   3.194
 1748SOL     OW 6142   0.535   1.060   3.671
 1748SOL    HW1 6143   0.529   1.154   3.637
 1748SOL    HW2 6144   0.451   1.037   3.719
 1749SOL     OW 6145   2.635   6.745   5.265
 1749SOL    HW1 6146   2.723   6.775   5.229
 1749SOL    HW2 6147   2.619   6.788   5.354
 1750SOL     OW 6148   6.637   6.916   3.263
 1750SOL    HW1 6149   6.561   6.966   3.222
 1750SOL    HW2 6150   6.630   6.921   3.363
 1751SOL     OW 6151   4.104   6.308   4.917
 1751SOL    HW1 6152   4.160   6.260   4.985
 1751SOL    HW2 6153   4.111   6.406   4.933
 1752SOL     OW 6154   0.016   2.377   2.587
 1752SOL    HW1 6155   0.113   2.384   2.563
 1752SOL    HW2 6156   0.000   2.292   2.637
 1753SOL     OW 6157   0.161   2.664   0.905
 1753SOL    HW1 6158   0.173   2.647   1.003
 1753SOL    HW2 6159   0.071   2.631   0.876
 1754SOL     OW 6160   3.499   3.250   1.137
 1754SOL    HW1 6161   3.518   3.242   1.235
 1754SOL    HW2 6162   3.403   3.226   1.120
 1755SOL     OW 6163   5.741   5.672   2.836
 1755SOL    HW1 6164   5.690   5.608   2.779
 1755SOL    HW2 6165   5.719   5.766   2.808
 1756SOL     OW 6166   4.199   4.274   6.265
 1756SOL    HW1 6167   4.275   4.332   6.235
 1756SOL    HW2 6168   4.129   4.272   6.194
 1757SOL     OW 6169   2.611   5.253   4.964
 1757SOL    HW1 6170   2.575   5.327   5.021
 1757SOL    HW2 6171   2.535   5.197   4.931
 1758SOL     OW 6172   2.947   0.542   3.966
 1758SOL    HW1 6173   3.007   0.603   3.914
 1758SOL    HW2 6174   2.901   0.479   3.904
 1759SOL     OW 6175   1.072   4.619   5.743
 1759SOL    HW1 6176   0.977   4.621   5.713
 1759SOL    HW2 6177   1.117   4.704   5.717
 1760SOL     OW 6178   6.693   1.949   1.468
 1760SOL    HW1 6179   6.622   1.987   1.408
 1760SOL    HW2 6180   6.744   1.879   1.418
 1761SOL     OW 6181   0.288   0.598   0.519
 1761SOL    HW1 6182   0.308   0.500   0.529
 1761SOL    HW2 6183   0.305   0.625   0.424
 1762SOL     OW 6184   6.611   1.652   4.978
 1762SOL    HW1 6185   6.553   1.727   5.010
 1762SOL    HW2 6186   6.619   1.656   4.879
 1763SOL     OW 6187   2.157   3.729   4.096
 1763SOL    HW1 6188   2.152   3.671   4.014
 1763SOL    HW2 6189   2.136   3.674   4.177
 1764SOL     OW 6190   1.829   4.138   2.946
 1764SOL    HW1 6191   1.734   4.117   2.921
 1764SOL    HW2 6192   1.846   4.105   3.039
 1765SOL     OW 6193   3.786   1.969   6.705
 1765SOL    HW1 6194   3.852   1.902   6.672
 1765SOL    HW2 6195   3.693   1.935   6.686
 1766SOL     OW 6196   5.148   3.685   3.522
 1766SOL    HW1 6197   5.170   3.598   3.479
 1766SOL    HW2 6198   5.109   3.669   3.613
 1767SOL     OW 6199   6.396   3.595   2.915
 1767SOL    HW1 6200   6.479   3.650   2.902
 1767SOL    HW2 6201   6.396   3.557   3.008
 1768SOL     OW 6202   3.515   1.246   4.714
 1768SOL    HW1 6203   3.442   1.314   4.703
 1768SOL    HW2 6204   3.588   1.265   4.647
 1769SOL     OW 6205   4.081   2.217   5.096
 1769SOL    HW1 6206   4.118   2.308   5.113
 1769SOL    HW2 6207   4.035   2.184   5.179
 1770SOL     OW 6208   0.378   5.341   4.737
 1770SOL    HW1 6209   0.297   5.395   4.759
 1770SOL    HW2 6210   0.408   5.362   4.644
 1771SOL     OW 6211   2.292   5.207   6.782
 1771SOL    HW1 6212   2.195   5.183   6.780
 1771SOL    HW2 6213   2.329   5.207   6.689
 1772SOL     OW 6214   2.714   6.561   3.625
 1772SOL    HW1 6215   2.740   6.530   3.534
 1772SOL    HW2 6216   2.644   6.633   3.618
 1773SOL     OW 6217   2.746   5.014   6.584
 1773SOL    HW1 6218   2.703   5.033   6.672
 1773SOL    HW2 6219   2.675   4.996   6.516
 1774SOL     OW 6220   4.419   0.026   1.742
 1774SOL    HW1 6221   4.377   0.055   1.829
 1774SOL    HW2 6222   4.504   0.076   1.728
 1775SOL     OW 6223   1.129   4.324   3.964
 1775SOL    HW1 6224   1.142   4.423   3.967
 1775SOL    HW2 6225   1.217   4.280   3.947
 1776SOL     OW 6226   3.632   0.512   4.419
 1776SOL    HW1 6227   3.610   0.607   4.397
 1776SOL    HW2 6228   3.703   0.509   4.490
 1777SOL     OW 6229   3.411   4.993   5.829
 1777SOL    HW1 6230   3.344   4.946   5.887
 1777SOL    HW2 6231   3.413   5.090   5.851
 1778SOL     OW 6232   4.988   2.679   5.960
 1778SOL    HW1 6233   5.069   2.714   6.007
 1778SOL    HW2 6234   4.948   2.752   5.904
 1779SOL     OW 6235   4.417   1.215   4.753
 1779SOL    HW1 6236   4.411   1.136   4.814
 1779SOL    HW2 6237   4.455   1.186   4.665
 1780SOL     OW 6238   3.050   3.124   5.966
 1780SOL    HW1 6239   3.067   3.025   5.964
 1780SOL    HW2 6240   2.980   3.147   5.898
 1781SOL     OW 6241   4.389   5.916   3.775
 1781SOL    HW1 6242   4.319   5.926   3.846
 1781SOL    HW2 6243   4.407   5.819   3.760
 1782SOL     OW 6244   2.763   2.140   2.685
 1782SOL    HW1 6245   2.742   2.071   2.615
 1782SOL    HW2 6246   2.852   2.119   2.726
 1783SOL     OW 6247   1.011   4.270   6.500
 1783SOL    HW1 6248   0.935   4.296   6.560
 1783SOL    HW2 6249   1.074   4.210   6.549
 1784SOL     OW 6250   3.539   1.412   4.956
 1784SOL    HW1 6251   3.540   1.495   4.901
 1784SOL    HW2 6252   3.518   1.333   4.898
 1785SOL     OW 6253   6.129   5.420   3.890
 1785SOL    HW1 6254   6.050   5.473   3.860
 1785SOL    HW2 6255   6.167   5.461   3.972
 1786SOL     OW 6256   1.390   2.570   1.266
 1786SOL    HW1 6257   1.396   2.486   1.319
 1786SOL    HW2 6258   1.373   2.548   1.170
 1787SOL     OW 6259   2.655   0.757   4.819
 1787SOL    HW1 6260   2.605   0.790   4.739
 1787SOL    HW2 6261   2.700   0.670   4.797
 1788SOL     OW 6262   3.547   2.884   0.180
 1788SOL    HW1 6263   3.595   2.919   0.261
 1788SOL    HW2 6264   3.588   2.924   0.098
 1789SOL     OW 6265   5.993   1.732   2.644
 1789SOL    HW1 6266   6.055   1.766   2.573
 1789SOL    HW2 6267   5.903   1.776   2.633
 1790SOL     OW 6268   3.918   6.677   4.035
 1790SOL    HW1 6269   3.992   6.624   4.076
 1790SOL    HW2 6270   3.886   6.746   4.100
 1791SOL     OW 6271   6.668   1.158   3.920
 1791SOL    HW1 6272   6.705   1.131   3.831
 1791SOL    HW2 6273   6.675   1.257   3.931
 1792SOL     OW 6274   0.324   2.723   4.094
 1792SOL    HW1 6275   0.308   2.672   4.009
 1792SOL    HW2 6276   0.313   2.662   4.172
 1793SOL     OW 6277   0.200   0.036   3.733
 1793SOL    HW1 6278   0.160   7.002   3.658
 1793SOL    HW2 6279   0.260   6.997   3.787
 1794SOL     OW 6280   6.110   6.217   5.933
 1794SOL    HW1 6281   6.184   6.220   6.000
 1794SOL    HW2 6282   6.071   6.308   5.922
 1795SOL     OW 6283   6.945   3.369   1.852
 1795SOL    HW1 6284   6.981   3.443   1.908
 1795SOL    HW2 6285   6.983   3.376   1.759
 1796SOL     OW 6286   2.679   0.636   4.369
 1796SOL    HW1 6287   2.644   0.543   4.377
 1796SOL    HW2 6288   2.695   0.658   4.273
 1797SOL     OW 6289   1.116   0.807   6.723
 1797SOL    HW1 6290   1.181   0.819   6.798
 1797SOL    HW2 6291   1.030   0.769   6.758
 1798SOL     OW 6292   5.109   2.316   4.498
 1798SOL    HW1 6293   5.148   2.404   4.468
 1798SOL    HW2 6294   5.121   2.248   4.425
 1799SOL     OW 6295   6.230   2.129   6.031
 1799SOL    HW1 6296   6.274   2.081   6.108
 1799SOL    HW2 6297   6.288   2.205   6.002
 1800SOL     OW 6298   4.005   4.949   2.645
 1800SOL    HW1 6299   4.025   5.044   2.618
 1800SOL    HW2 6300   4.072   4.888   2.604
 1801SOL     OW 6301   0.468   0.626   2.161
 1801SOL    HW1 6302   0.557   0.580   2.159
 1801SOL    HW2 6303   0.395   0.558   2.158
 1802SOL     OW 6304   5.017   5.480   2.291
 1802SOL    HW1 6305   5.070   5.562   2.314
 1802SOL    HW2 6306   4.922   5.494   2.317
 1803SOL     OW 6307   6.808   6.302   6.932
 1803SOL    HW1 6308   6.852   6.289   0.002
 1803SOL    HW2 6309   6.872   6.345   6.869
 1804SOL     OW 6310   2.200   4.012   5.585
 1804SOL    HW1 6311   2.132   4.027   5.656
 1804SOL    HW2 6312   2.291   4.007   5.627
 1805SOL     OW 6313   6.468   3.822   5.368
 1805SOL    HW1 6314   6.411   3.782   5.297
 1805SOL    HW2 6315   6.483   3.756   5.441
 1806SOL     OW 6316   1.021   1.402   0.540
 1806SOL    HW1 6317   1.014   1.495   0.505
 1806SOL    HW2 6318   1.016   1.337   0.465
 1807SOL     OW 6319   5.154   2.382   5.984
 1807SOL    HW1 6320   5.139   2.367   6.082
 1807SOL    HW2 6321   5.087   2.448   5.951
 1808SOL     OW 6322   0.214   3.516   5.552
 1808SOL    HW1 6323   0.249   3.542   5.462
 1808SOL    HW2 6324   0.233   3.588   5.618
 1809SOL     OW 6325   2.049   2.807   4.573
 1809SOL    HW1 6326   2.095   2.895   4.576
 1809SOL    HW2 6327   1.955   2.817   4.606
 1810SOL     OW 6328   3.082   0.484   4.443
 1810SOL    HW1 6329   3.021   0.562   4.428
 1810SOL    HW2 6330   3.070   0.450   4.537
 1811SOL     OW 6331   4.565   4.427   3.806
 1811SOL    HW1 6332   4.632   4.493   3.841
 1811SOL    HW2 6333   4.568   4.344   3.863
 1812SOL     OW 6334   4.221   6.584   6.011
 1812SOL    HW1 6335   4.292   6.652   6.031
 1812SOL    HW2 6336   4.203   6.531   6.094
 1813SOL     OW 6337   5.980   5.159   0.369
 1813SOL    HW1 6338   6.019   5.218   0.439
 1813SOL    HW2 6339   6.030   5.072   0.368
 1814SOL     OW 6340   6.649   1.378   0.222
 1814SOL    HW1 6341   6.571   1.414   0.273
 1814SOL    HW2 6342   6.724   1.358   0.286
 1815SOL     OW 6343   6.125   2.534   1.764
 1815SOL    HW1 6344   6.034   2.502   1.789
 1815SOL    HW2 6345   6.181   2.455   1.738
 1816SOL     OW 6346   2.318   3.781   0.564
 1816SOL    HW1 6347   2.252   3.850   0.594
 1816SOL    HW2 6348   2.325   3.782   0.465
 1817SOL     OW 6349   3.243   6.625   3.401
 1817SOL    HW1 6350   3.283   6.540   3.365
 1817SOL    HW2 6351   3.154   6.640   3.360
 1818SOL     OW 6352   1.698   6.372   1.941
 1818SOL    HW1 6353   1.603   6.364   1.908
 1818SOL    HW2 6354   1.745   6.285   1.926
 1819SOL     OW 6355   0.352   5.084   1.783
 1819SOL    HW1 6356   0.450   5.071   1.768
 1819SOL    HW2 6357   0.311   4.996   1.808
 1820SOL     OW 6358   4.917   0.747   2.100
 1820SOL    HW1 6359   4.855   0.669   2.098
 1820SOL    HW2 6360   4.872   0.827   2.061
 1821SOL     OW 6361   2.715   0.586   1.626
 1821SOL    HW1 6362   2.806   0.627   1.614
 1821SOL    HW2 6363   2.725   0.493   1.662
 1822SOL     OW 6364   1.604   2.636   1.756
 1822SOL    HW1 6365   1.642   2.706   1.696
 1822SOL    HW2 6366   1.669   2.617   1.830
 1823SOL     OW 6367   2.704   5.684   3.564
 1823SOL    HW1 6368   2.751   5.617   3.622
 1823SOL    HW2 6369   2.769   5.757   3.538
 1824SOL     OW 6370   3.454   3.228   1.431
 1824SOL    HW1 6371   3.545   3.220   1.471
 1824SOL    HW2 6372   3.395   3.156   1.467
 1825SOL     OW 6373   1.262   1.736   3.981
 1825SOL    HW1 6374   1.191   1.775   3.922
 1825SOL    HW2 6375   1.219   1.690   4.059
 1826SOL     OW 6376   3.251   0.291   0.898
 1826SOL    HW1 6377   3.320   0.238   0.947
 1826SOL    HW2 6378   3.160   0.264   0.928
 1827SOL     OW 6379   6.920   5.792   1.843
 1827SOL    HW1 6380   6.822   5.792   1.820
 1827SOL    HW2 6381   6.971   5.749   1.768
 1828SOL     OW 6382   1.291   2.865   0.801
 1828SOL    HW1 6383   1.334   2.797   0.741
 1828SOL    HW2 6384   1.332   2.860   0.892
 1829SOL     OW 6385   3.141   0.347   3.611
 1829SOL    HW1 6386   3.235   0.334   3.641
 1829SOL    HW2 6387   3.110   0.439   3.637
 1830SOL     OW 6388   5.726   6.104   3.927
 1830SOL    HW1 6389   5.774   6.111   4.015
 1830SOL    HW2 6390   5.628   6.109   3.942
 1831SOL     OW 6391   6.053   0.307   2.146
 1831SOL    HW1 6392   5.981   0.296   2.214
 1831SOL    HW2 6393   6.104   0.391   2.165
 1832SOL     OW 6394   5.083   1.319   1.071
 1832SOL    HW1 6395   5.173   1.347   1.037
 1832SOL    HW2 6396   5.013   1.377   1.029
 1833SOL     OW 6397   5.060   0.372   6.165
 1833SOL    HW1 6398   5.147   0.401   6.203
 1833SOL    HW2 6399   5.074   0.332   6.074
 1834SOL     OW 6400   2.833   4.064   0.309
 1834SOL    HW1 6401   2.895   4.055   0.231
 1834SOL    HW2 6402   2.825   3.975   0.355
 1835SOL     OW 6403   0.333   4.034   2.323
 1835SOL    HW1 6404   0.254   4.057   2.380
 1835SOL    HW2 6405   0.327   3.938   2.294
 1836SOL     OW 6406   5.030   2.095   0.992
 1836SOL    HW1 6407   4.963   2.082   1.066
 1836SOL    HW2 6408   5.104   2.154   1.024
 1837SOL     OW 6409   1.265   1.709   4.531
 1837SOL    HW1 6410   1.295   1.696   4.436
 1837SOL    HW2 6411   1.345   1.711   4.591
 1838SOL     OW 6412   6.915   1.139   4.275
 1838SOL    HW1 6413   6.970   1.222   4.271
 1838SOL    HW2 6414   6.966   1.063   4.233
 1839SOL     OW 6415   5.355   2.273   5.126
 1839SOL    HW1 6416   5.296   2.220   5.065
 1839SOL    HW2 6417   5.347   2.370   5.104
 1840SOL     OW 6418   3.361   5.945   1.716
 1840SOL    HW1 6419   3.328   5.968   1.807
 1840SOL    HW2 6420   3.289   5.898   1.665
 1841SOL     OW 6421   2.395   1.210   3.634
 1841SOL    HW1 6422   2.321   1.242   3.694
 1841SOL    HW2 6423   2.461   1.158   3.688
 1842SOL     OW 6424   1.434   5.377   0.251
 1842SOL    HW1 6425   1.361   5.443   0.234
 1842SOL    HW2 6426   1.427   5.342   0.344
 1843SOL     OW 6427   6.607   2.033   3.735
 1843SOL    HW1 6428   6.536   1.973   3.698
 1843SOL    HW2 6429   6.648   1.990   3.816
 1844SOL     OW 6430   3.298   0.601   5.236
 1844SOL    HW1 6431   3.227   0.586   5.167
 1844SOL    HW2 6432   3.268   0.560   5.323
 1845SOL     OW 6433   1.999   6.735   4.962
 1845SOL    HW1 6434   1.941   6.653   4.967
 1845SOL    HW2 6435   1.951   6.812   5.005
 1846SOL     OW 6436   4.282   2.104   0.901
 1846SOL    HW1 6437   4.327   2.024   0.941
 1846SOL    HW2 6438   4.352   2.167   0.867
 1847SOL     OW 6439   1.287   0.677   6.180
 1847SOL    HW1 6440   1.342   0.676   6.263
 1847SOL    HW2 6441   1.192   0.697   6.203
 1848SOL     OW 6442   1.074   0.020   2.765
 1848SOL    HW1 6443   1.011   0.026   2.843
 1848SOL    HW2 6444   1.156   6.989   2.792
 1849SOL     OW 6445   3.818   2.345   0.581
 1849SOL    HW1 6446   3.875   2.426   0.563
 1849SOL    HW2 6447   3.726   2.374   0.605
 1850SOL     OW 6448   0.761   2.794   2.396
 1850SOL    HW1 6449   0.765   2.798   2.296
 1850SOL    HW2 6450   0.767   2.699   2.426
 1851SOL     OW 6451   0.186   2.905   1.511
 1851SOL    HW1 6452   0.277   2.937   1.484
 1851SOL    HW2 6453   0.194   2.849   1.594
 1852SOL     OW 6454   6.000   3.640   2.694
 1852SOL    HW1 6455   5.901   3.631   2.708
 1852SOL    HW2 6456   6.021   3.626   2.597
 1853SOL     OW 6457   0.328   3.200   3.115
 1853SOL    HW1 6458   0.428   3.192   3.111
 1853SOL    HW2 6459   0.287   3.121   3.069
 1854SOL     OW 6460   2.643   5.985   3.474
 1854SOL    HW1 6461   2.545   5.989   3.492
 1854SOL    HW2 6462   2.668   6.056   3.408
 1855SOL     OW 6463   5.483   3.497   6.000
 1855SOL    HW1 6464   5.574   3.501   6.042
 1855SOL    HW2 6465   5.427   3.573   6.034
 1856SOL     OW 6466   6.055   3.778   5.618
 1856SOL    HW1 6467   6.063   3.812   5.525
 1856SOL    HW2 6468   6.077   3.681   5.620
 1857SOL     OW 6469   3.894   1.146   5.489
 1857SOL    HW1 6470   3.878   1.230   5.437
 1857SOL    HW2 6471   3.827   1.139   5.563
 1858SOL     OW 6472   6.301   3.491   3.988
 1858SOL    HW1 6473   6.392   3.479   3.948
 1858SOL    HW2 6474   6.308   3.498   4.087
 1859SOL     OW 6475   4.691   2.113   3.012
 1859SOL    HW1 6476   4.743   2.180   3.064
 1859SOL    HW2 6477   4.751   2.070   2.944
 1860SOL     OW 6478   6.809   0.343   4.776
 1860SOL    HW1 6479   6.855   0.324   4.689
 1860SOL    HW2 6480   6.713   0.318   4.769
 1861SOL     OW 6481   5.878   0.657   1.989
 1861SOL    HW1 6482   5.818   0.578   1.984
 1861SOL    HW2 6483   5.855   0.722   1.916
 1862SOL     OW 6484   2.526   0.660   6.124
 1862SOL    HW1 6485   2.472   0.744   6.119
 1862SOL    HW2 6486   2.503   0.610   6.207
 1863SOL     OW 6487   1.270   2.133   1.896
 1863SOL    HW1 6488   1.228   2.107   1.983
 1863SOL    HW2 6489   1.293   2.050   1.844
 1864SOL     OW 6490   0.812   7.014   5.325
 1864SOL    HW1 6491   0.807   0.062   5.399
 1864SOL    HW2 6492   0.728   6.960   5.324
 1865SOL     OW 6493   3.789   6.663   6.158
 1865SOL    HW1 6494   3.730   6.732   6.116
 1865SOL    HW2 6495   3.733   6.592   6.201
 1866SOL     OW 6496   4.121   4.747   3.313
 1866SOL    HW1 6497   4.185   4.694   3.368
 1866SOL    HW2 6498   4.049   4.785   3.372
 1867SOL     OW 6499   0.277   4.107   0.007
 1867SOL    HW1 6500   0.266   4.008   0.008
 1867SOL    HW2 6501   0.263   4.141   6.933
 1868SOL     OW 6502   4.698   4.380   6.950
 1868SOL    HW1 6503   4.763   4.455   6.943
 1868SOL    HW2 6504   4.708   4.320   6.870
 1869SOL     OW 6505   6.026   2.880   5.865
 1869SOL    HW1 6506   6.063   2.903   5.775
 1869SOL    HW2 6507   6.050   2.785   5.887
 1870SOL     OW 6508   2.117   2.846   5.545
 1870SOL    HW1 6509   2.187   2.885   5.485
 1870SOL    HW2 6510   2.101   2.908   5.622
 1871SOL     OW 6511   0.620   0.523   0.324
 1871SOL    HW1 6512   0.663   0.536   0.234
 1871SOL    HW2 6513   0.636   0.430   0.356
 1872SOL     OW 6514   3.739   1.899   6.016
 1872SOL    HW1 6515   3.640   1.911   6.006
 1872SOL    HW2 6516   3.768   1.819   5.963
 1873SOL     OW 6517   5.373   1.779   5.825
 1873SOL    HW1 6518   5.457   1.812   5.780
 1873SOL    HW2 6519   5.371   1.811   5.920
 1874SOL     OW 6520   3.268   1.498   0.658
 1874SOL    HW1 6521   3.258   1.398   0.651
 1874SOL    HW2 6522   3.198   1.543   0.603
 1875SOL     OW 6523   0.334   0.954   0.350
 1875SOL    HW1 6524   0.342   0.861   0.315
 1875SOL    HW2 6525   0.314   0.952   0.448
 1876SOL     OW 6526   4.163   6.406   6.223
 1876SOL    HW1 6527   4.090   6.370   6.165
 1876SOL    HW2 6528   4.208   6.330   6.270
 1877SOL     OW 6529   0.399   6.970   2.516
 1877SOL    HW1 6530   0.422   6.876   2.494
 1877SOL    HW2 6531   0.476   0.011   2.495
 1878SOL     OW 6532   6.867   2.506   3.518
 1878SOL    HW1 6533   6.942   2.441   3.505
 1878SOL    HW2 6534   6.805   2.471   3.589
 1879SOL     OW 6535   1.476   4.595   3.895
 1879SOL    HW1 6536   1.520   4.523   3.842
 1879SOL    HW2 6537   1.475   4.569   3.992
 1880SOL     OW 6538   6.233   1.549   4.508
 1880SOL    HW1 6539   6.294   1.629   4.519
 1880SOL    HW2 6540   6.229   1.523   4.412
 1881SOL     OW 6541   5.894   2.183   2.815
 1881SOL    HW1 6542   5.909   2.207   2.719
 1881SOL    HW2 6543   5.824   2.243   2.854
 1882SOL     OW 6544   1.251   3.666   6.234
 1882SOL    HW1 6545   1.330   3.715   6.198
 1882SOL    HW2 6546   1.215   3.713   6.314
 1883SOL     OW 6547   0.482   2.166   3.957
 1883SOL    HW1 6548   0.524   2.105   3.890
 1883SOL    HW2 6549   0.544   2.243   3.975
 1884SOL     OW 6550   6.701   2.981   0.431
 1884SOL    HW1 6551   6.634   2.932   0.486
 1884SOL    HW2 6552   6.693   2.953   0.335
 1885SOL     OW 6553   1.714   1.893   6.644
 1885SOL    HW1 6554   1.787   1.929   6.703
 1885SOL    HW2 6555   1.670   1.816   6.689
 1886SOL     OW 6556   2.078   1.318   1.419
 1886SOL    HW1 6557   2.121   1.293   1.506
 1886SOL    HW2 6558   1.979   1.317   1.430
 1887SOL     OW 6559   1.092   5.974   5.136
 1887SOL    HW1 6560   1.154   5.940   5.065
 1887SOL    HW2 6561   1.133   5.958   5.226
 1888SOL     OW 6562   2.578   1.793   0.259
 1888SOL    HW1 6563   2.482   1.805   0.287
 1888SOL    HW2 6564   2.599   1.696   0.253
 1889SOL     OW 6565   0.710   2.991   5.911
 1889SOL    HW1 6566   0.621   2.997   5.866
 1889SOL    HW2 6567   0.754   2.904   5.889
 1890SOL     OW 6568   1.978   6.282   4.382
 1890SOL    HW1 6569   1.951   6.186   4.373
 1890SOL    HW2 6570   1.930   6.323   4.460
 1891SOL     OW 6571   5.811   2.436   1.706
 1891SOL    HW1 6572   5.846   2.454   1.614
 1891SOL    HW2 6573   5.857   2.357   1.744
 1892SOL     OW 6574   2.795   0.651   2.852
 1892SOL    HW1 6575   2.889   0.683   2.843
 1892SOL    HW2 6576   2.761   0.673   2.943
 1893SOL     OW 6577   3.486   3.185   6.889
 1893SOL    HW1 6578   3.410   3.170   6.952
 1893SOL    HW2 6579   3.450   3.212   6.800
 1894SOL     OW 6580   3.544   4.100   3.911
 1894SOL    HW1 6581   3.557   4.171   3.980
 1894SOL    HW2 6582   3.449   4.100   3.882
 1895SOL     OW 6583   4.765   0.823   1.760
 1895SOL    HW1 6584   4.765   0.868   1.670
 1895SOL    HW2 6585   4.813   0.736   1.753
 1896SOL     OW 6586   5.254   0.417   1.309
 1896SOL    HW1 6587   5.344   0.376   1.313
 1896SOL    HW2 6588   5.203   0.396   1.392
 1897SOL     OW 6589   2.296   5.398   1.436
 1897SOL    HW1 6590   2.362   5.385   1.509
 1897SOL    HW2 6591   2.216   5.340   1.452
 1898SOL     OW 6592   2.251   5.771   3.311
 1898SOL    HW1 6593   2.321   5.769   3.240
 1898SOL    HW2 6594   2.220   5.678   3.329
 1899SOL     OW 6595   0.736   1.144   2.008
 1899SOL    HW1 6596   0.652   1.125   1.958
 1899SOL    HW2 6597   0.798   1.066   2.000
 1900SOL     OW 6598   1.692   0.574   6.192
 1900SOL    HW1 6599   1.727   0.634   6.121
 1900SOL    HW2 6600   1.747   0.490   6.196
 1901SOL     OW 6601   1.786   2.304   1.237
 1901SOL    HW1 6602   1.816   2.400   1.242
 1901SOL    HW2 6603   1.742   2.287   1.149
 1902SOL     OW 6604   2.049   1.287   5.097
 1902SOL    HW1 6605   2.074   1.252   5.187
 1902SOL    HW2 6606   2.132   1.319   5.050
 1903SOL     OW 6607   0.147   3.475   2.414
 1903SOL    HW1 6608   0.155   3.563   2.460
 1903SOL    HW2 6609   0.052   3.460   2.388
 1904SOL     OW 6610   5.178   5.546   3.659
 1904SOL    HW1 6611   5.090   5.577   3.622
 1904SOL    HW2 6612   5.212   5.469   3.605
 1905SOL     OW 6613   0.991   0.396   3.562
 1905SOL    HW1 6614   0.988   0.362   3.656
 1905SOL    HW2 6615   0.903   0.381   3.517
 1906SOL     OW 6616   2.553   7.000   4.859
 1906SOL    HW1 6617   2.552   6.945   4.943
 1906SOL    HW2 6618   2.633   0.040   4.860
 1907SOL     OW 6619   3.555   1.403   1.799
 1907SOL    HW1 6620   3.463   1.441   1.803
 1907SOL    HW2 6621   3.616   1.469   1.754
 1908SOL     OW 6622   3.609   0.121   5.558
 1908SOL    HW1 6623   3.613   0.054   5.484
 1908SOL    HW2 6624   3.649   0.081   5.641
 1909SOL     OW 6625   0.291   3.830   2.725
 1909SOL    HW1 6626   0.325   3.809   2.817
 1909SOL    HW2 6627   0.352   3.789   2.657
 1910SOL     OW 6628   0.026   4.788   0.038
 1910SOL    HW1 6629   6.969   4.758   0.095
 1910SOL    HW2 6630   0.093   4.714   0.031
 1911SOL     OW 6631   0.009   3.829   5.042
 1911SOL    HW1 6632   0.030   3.803   5.137
 1911SOL    HW2 6633   0.082   3.795   4.982
 1912SOL     OW 6634   3.417   5.781   0.350
 1912SOL    HW1 6635   3.385   5.815   0.261
 1912SOL    HW2 6636   3.362   5.702   0.377
 1913SOL     OW 6637   2.571   6.395   4.676
 1913SOL    HW1 6638   2.624   6.424   4.596
 1913SOL    HW2 6639   2.615   6.429   4.759
 1914SOL     OW 6640   3.862   2.689   5.838
 1914SOL    HW1 6641   3.914   2.640   5.768
 1914SOL    HW2 6642   3.778   2.639   5.859
 1915SOL     OW 6643   3.391   1.952   4.778
 1915SOL    HW1 6644   3.402   1.975   4.874
 1915SOL    HW2 6645   3.327   2.016   4.735
 1916SOL     OW 6646   3.742   5.644   1.429
 1916SOL    HW1 6647   3.838   5.628   1.455
 1916SOL    HW2 6648   3.703   5.712   1.491
 1917SOL     OW 6649   2.139   2.913   6.661
 1917SOL    HW1 6650   2.112   2.861   6.581
 1917SOL    HW2 6651   2.118   3.010   6.647
 1918SOL     OW 6652   1.412   1.113   5.200
 1918SOL    HW1 6653   1.468   1.196   5.204
 1918SOL    HW2 6654   1.325   1.134   5.154
 1919SOL     OW 6655   1.459   0.915   1.722
 1919SOL    HW1 6656   1.539   0.892   1.779
 1919SOL    HW2 6657   1.382   0.858   1.749
 1920SOL     OW 6658   0.255   4.221   2.832
 1920SOL    HW1 6659   0.254   4.214   2.931
 1920SOL    HW2 6660   0.175   4.174   2.795
 1921SOL     OW 6661   1.484   3.305   6.374
 1921SOL    HW1 6662   1.508   3.370   6.301
 1921SOL    HW2 6663   1.566   3.285   6.428
 1922SOL     OW 6664   2.443   3.223   1.464
 1922SOL    HW1 6665   2.512   3.282   1.420
 1922SOL    HW2 6666   2.457   3.128   1.432
 1923SOL     OW 6667   4.159   1.098   5.593
 1923SOL    HW1 6668   4.097   1.041   5.647
 1923SOL    HW2 6669   4.105   1.162   5.538
 1924SOL     OW 6670   4.999   6.463   0.268
 1924SOL    HW1 6671   4.935   6.414   0.208
 1924SOL    HW2 6672   5.091   6.430   0.251
 1925SOL     OW 6673   2.153   4.918   0.756
 1925SOL    HW1 6674   2.061   4.955   0.742
 1925SOL    HW2 6675   2.215   4.991   0.783
 1926SOL     OW 6676   2.564   6.745   2.896
 1926SOL    HW1 6677   2.589   6.818   2.960
 1926SOL    HW2 6678   2.517   6.672   2.945
 1927SOL     OW 6679   2.701   4.627   0.343
 1927SOL    HW1 6680   2.642   4.648   0.265
 1927SOL    HW2 6681   2.691   4.531   0.367
 1928SOL     OW 6682   5.740   3.948   4.860
 1928SOL    HW1 6683   5.740   3.856   4.819
 1928SOL    HW2 6684   5.833   3.983   4.864
 1929SOL     OW 6685   2.479   0.129   1.254
 1929SOL    HW1 6686   2.529   0.093   1.175
 1929SOL    HW2 6687   2.442   0.053   1.307
 1930SOL     OW 6688   4.524   3.716   6.668
 1930SOL    HW1 6689   4.490   3.792   6.723
 1930SOL    HW2 6690   4.591   3.750   6.602
 1931SOL     OW 6691   0.950   2.222   1.341
 1931SOL    HW1 6692   1.034   2.168   1.342
 1931SOL    HW2 6693   0.885   2.180   1.277
 1932SOL     OW 6694   4.797   2.490   2.831
 1932SOL    HW1 6695   4.849   2.406   2.842
 1932SOL    HW2 6696   4.838   2.546   2.759
 1933SOL     OW 6697   1.126   3.482   0.860
 1933SOL    HW1 6698   1.039   3.503   0.816
 1933SOL    HW2 6699   1.183   3.564   0.864
 1934SOL     OW 6700   6.909   0.409   5.021
 1934SOL    HW1 6701   6.854   0.469   5.079
 1934SOL    HW2 6702   6.852   0.373   4.947
 1935SOL     OW 6703   4.865   5.211   3.542
 1935SOL    HW1 6704   4.877   5.207   3.641
 1935SOL    HW2 6705   4.776   5.249   3.520
 1936SOL     OW 6706   5.382   4.577   4.031
 1936SOL    HW1 6707   5.310   4.583   4.101
 1936SOL    HW2 6708   5.340   4.574   3.940
 1937SOL     OW 6709   4.053   6.182   0.441
 1937SOL    HW1 6710   4.032   6.262   0.384
 1937SOL    HW2 6711   4.080   6.106   0.382
 1938SOL     OW 6712   1.285   1.622   1.672
 1938SOL    HW1 6713   1.311   1.717   1.684
 1938SOL    HW2 6714   1.189   1.610   1.698
 1939SOL     OW 6715   0.068   6.544   3.994
 1939SOL    HW1 6716   7.003   6.518   3.947
 1939SOL    HW2 6717   0.066   6.508   4.088
 1940SOL     OW 6718   6.018   5.127   0.731
 1940SOL    HW1 6719   5.957   5.185   0.677
 1940SOL    HW2 6720   5.975   5.039   0.748
 1941SOL     OW 6721   1.444   2.814   4.191
 1941SOL    HW1 6722   1.510   2.889   4.184
 1941SOL    HW2 6723   1.446   2.778   4.285
 1942SOL     OW 6724   5.652   2.634   1.751
 1942SOL    HW1 6725   5.577   2.602   1.808
 1942SOL    HW2 6726   5.716   2.559   1.734
 1943SOL     OW 6727   1.927   6.842   3.147
 1943SOL    HW1 6728   1.840   6.875   3.186
 1943SOL    HW2 6729   1.999   6.849   3.216
 1944SOL     OW 6730   6.335   4.020   6.940
 1944SOL    HW1 6731   6.404   4.010   6.868
 1944SOL    HW2 6732   6.345   3.945   7.006
 1945SOL     OW 6733   4.066   5.367   0.231
 1945SOL    HW1 6734   3.979   5.402   0.264
 1945SOL    HW2 6735   4.133   5.441   0.226
 1946SOL     OW 6736   5.646   6.685   1.064
 1946SOL    HW1 6737   5.728   6.633   1.038
 1946SOL    HW2 6738   5.587   6.628   1.121
 1947SOL     OW 6739   5.600   6.397   4.647
 1947SOL    HW1 6740   5.548   6.474   4.685
 1947SOL    HW2 6741   5.677   6.432   4.594
 1948SOL     OW 6742   6.273   4.791   2.716
 1948SOL    HW1 6743   6.221   4.834   2.642
 1948SOL    HW2 6744   6.217   4.788   2.799
 1949SOL     OW 6745   3.751   3.268   6.720
 1949SOL    HW1 6746   3.696   3.213   6.657
 1949SOL    HW2 6747   3.848   3.255   6.701
 1950SOL     OW 6748   3.445   2.991   1.658
 1950SOL    HW1 6749   3.474   2.895   1.659
 1950SOL    HW2 6750   3.345   2.996   1.659
 1951SOL     OW 6751   6.587   4.481   6.977
 1951SOL    HW1 6752   6.612   4.415   6.907
 1951SOL    HW2 6753   6.505   4.530   6.950
 1952SOL     OW 6754   4.763   4.212   0.946
 1952SOL    HW1 6755   4.748   4.219   1.045
 1952SOL    HW2 6756   4.812   4.293   0.914
 1953SOL     OW 6757   6.511   1.564   5.822
 1953SOL    HW1 6758   6.524   1.632   5.893
 1953SOL    HW2 6759   6.520   1.472   5.861
 1954SOL     OW 6760   6.223   0.494   1.254
 1954SOL    HW1 6761   6.246   0.570   1.314
 1954SOL    HW2 6762   6.124   0.489   1.242
 1955SOL     OW 6763   0.385   0.438   2.865
 1955SOL    HW1 6764   0.466   0.449   2.923
 1955SOL    HW2 6765   0.390   0.500   2.787
 1956SOL     OW 6766   5.192   0.159   1.676
 1956SOL    HW1 6767   5.159   0.190   1.587
 1956SOL    HW2 6768   5.279   0.112   1.665
 1957SOL     OW 6769   5.109   5.003   3.912
 1957SOL    HW1 6770   5.197   4.965   3.884
 1957SOL    HW2 6771   5.119   5.101   3.930
 1958SOL     OW 6772   4.765   1.596   1.505
 1958SOL    HW1 6773   4.819   1.622   1.585
 1958SOL    HW2 6774   4.770   1.669   1.436
 1959SOL     OW 6775   1.009   0.060   3.920
 1959SOL    HW1 6776   1.058   7.004   3.877
 1959SOL    HW2 6777   0.989   0.037   4.015
 1960SOL     OW 6778   0.088   4.024   2.716
 1960SOL    HW1 6779   0.161   3.957   2.722
 1960SOL    HW2 6780   0.065   4.041   2.620
 1961SOL     OW 6781   6.234   4.261   4.637
 1961SOL    HW1 6782   6.286   4.181   4.667
 1961SOL    HW2 6783   6.294   4.322   4.585
 1962SOL     OW 6784   1.648   6.676   2.457
 1962SOL    HW1 6785   1.616   6.763   2.495
 1962SOL    HW2 6786   1.575   6.608   2.462
 1963SOL     OW 6787   1.352   1.166   2.107
 1963SOL    HW1 6788   1.258   1.132   2.101
 1963SOL    HW2 6789   1.392   1.139   2.194
 1964SOL     OW 6790   4.359   4.618   1.398
 1964SOL    HW1 6791   4.441   4.654   1.352
 1964SOL    HW2 6792   4.366   4.518   1.404
 1965SOL     OW 6793   2.103   2.646   4.334
 1965SOL    HW1 6794   2.073   2.700   4.413
 1965SOL    HW2 6795   2.073   2.551   4.345
 1966SOL     OW 6796   0.610   5.796   1.542
 1966SOL    HW1 6797   0.608   5.784   1.641
 1966SOL    HW2 6798   0.697   5.765   1.505
 1967SOL     OW 6799   5.811   2.957   4.017
 1967SOL    HW1 6800   5.752   2.926   4.092
 1967SOL    HW2 6801   5.753   2.981   3.938
 1968SOL     OW 6802   2.117   0.387   5.566
 1968SOL    HW1 6803   2.076   0.473   5.596
 1968SOL    HW2 6804   2.108   0.380   5.466
 1969SOL     OW 6805   3.033   1.277   1.039
 1969SOL    HW1 6806   3.035   1.278   0.939
 1969SOL    HW2 6807   3.124   1.251   1.074
 1970SOL     OW 6808   1.041   0.094   5.193
 1970SOL    HW1 6809   0.972   0.060   5.257
 1970SOL    HW2 6810   1.055   0.027   5.120
 1971SOL     OW 6811   0.393   0.886   5.482
 1971SOL    HW1 6812   0.312   0.827   5.481
 1971SOL    HW2 6813   0.365   0.981   5.498
 1972SOL     OW 6814   5.706   2.236   0.933
 1972SOL    HW1 6815   5.618   2.223   0.978
 1972SOL    HW2 6816   5.776   2.257   1.002
 1973SOL     OW 6817   2.945   4.167   1.265
 1973SOL    HW1 6818   2.982   4.258   1.282
 1973SOL    HW2 6819   2.918   4.158   1.169
 1974SOL     OW 6820   5.214   0.512   4.883
 1974SOL    HW1 6821   5.310   0.528   4.862
 1974SOL    HW2 6822   5.160   0.517   4.799
 1975SOL     OW 6823   1.747   2.034   3.827
 1975SOL    HW1 6824   1.785   1.959   3.880
 1975SOL    HW2 6825   1.804   2.115   3.837
 1976SOL     OW 6826   5.841   6.175   0.708
 1976SOL    HW1 6827   5.807   6.113   0.638
 1976SOL    HW2 6828   5.940   6.165   0.716
 1977SOL     OW 6829   1.954   3.401   5.153
 1977SOL    HW1 6830   2.010   3.333   5.105
 1977SOL    HW2 6831   2.012   3.477   5.180
 1978SOL     OW 6832   2.208   6.214   2.618
 1978SOL    HW1 6833   2.176   6.136   2.672
 1978SOL    HW2 6834   2.294   6.248   2.656
 1979SOL     OW 6835   5.426   4.968   6.920
 1979SOL    HW1 6836   5.464   4.879   6.944
 1979SOL    HW2 6837   5.470   5.039   6.975
 1980SOL     OW 6838   4.219   0.214   3.360
 1980SOL    HW1 6839   4.218   0.142   3.429
 1980SOL    HW2 6840   4.245   0.300   3.402
 1981SOL     OW 6841   5.758   3.058   2.526
 1981SOL    HW1 6842   5.767   2.966   2.563
 1981SOL    HW2 6843   5.812   3.066   2.442
 1982SOL     OW 6844   6.580   4.010   3.675
 1982SOL    HW1 6845   6.583   3.993   3.576
 1982SOL    HW2 6846   6.656   4.070   3.701
 1983SOL     OW 6847   2.048   0.781   1.705
 1983SOL    HW1 6848   2.011   0.742   1.621
 1983SOL    HW2 6849   2.004   0.870   1.723
 1984SOL     OW 6850   4.423   2.385   5.031
 1984SOL    HW1 6851   4.324   2.372   5.037
 1984SOL    HW2 6852   4.445   2.438   4.949
 1985SOL     OW 6853   6.905   5.995   2.670
 1985SOL    HW1 6854   6.916   5.988   2.571
 1985SOL    HW2 6855   6.985   5.957   2.716
 1986SOL     OW 6856   3.009   1.243   6.214
 1986SOL    HW1 6857   2.918   1.270   6.181
 1986SOL    HW2 6858   3.050   1.320   6.264
 1987SOL     OW 6859   2.366   1.567   3.351
 1987SOL    HW1 6860   2.341   1.599   3.259
 1987SOL    HW2 6861   2.399   1.473   3.346
 1988SOL     OW 6862   6.944   2.909   0.573
 1988SOL    HW1 6863   6.859   2.944   0.533
 1988SOL    HW2 6864   6.950   2.937   0.669
 1989SOL     OW 6865   2.199   5.645   5.043
 1989SOL    HW1 6866   2.281   5.673   4.993
 1989SOL    HW2 6867   2.223   5.624   5.138
 1990SOL     OW 6868   3.888   5.909   0.438
 1990SOL    HW1 6869   3.872   5.912   0.537
 1990SOL    HW2 6870   3.952   5.834   0.418
 1991SOL     OW 6871   2.093   6.303   0.404
 1991SOL    HW1 6872   2.103   6.342   0.495
 1991SOL    HW2 6873   2.018   6.237   0.404
 1992SOL     OW 6874   0.223   0.854   0.601
 1992SOL    HW1 6875   0.206   0.756   0.593
 1992SOL    HW2 6876   0.270   0.874   0.686
 1993SOL     OW 6877   3.191   1.833   5.903
 1993SOL    HW1 6878   3.185   1.832   6.003
 1993SOL    HW2 6879   3.221   1.923   5.873
 1994SOL     OW 6880   5.939   2.467   0.956
 1994SOL    HW1 6881   6.007   2.412   0.908
 1994SOL    HW2 6882   5.866   2.492   0.893
 1995SOL     OW 6883   5.457   3.058   3.543
 1995SOL    HW1 6884   5.459   2.968   3.499
 1995SOL    HW2 6885   5.364   3.096   3.536
 1996SOL     OW 6886   2.401   1.954   0.947
 1996SOL    HW1 6887   2.308   1.986   0.968
 1996SOL    HW2 6888   2.468   2.016   0.988
 1997SOL     OW 6889   3.979   1.803   4.031
 1997SOL    HW1 6890   4.035   1.862   4.091
 1997SOL    HW2 6891   3.883   1.826   4.042
 1998SOL     OW 6892   1.422   3.832   0.697
 1998SOL    HW1 6893   1.391   3.895   0.626
 1998SOL    HW2 6894   1.466   3.753   0.654
 1999SOL     OW 6895   1.352   0.154   5.695
 1999SOL    HW1 6896   1.425   0.121   5.756
 1999SOL    HW2 6897   1.357   0.105   5.608
 2000SOL     OW 6898   3.553   2.790   5.716
 2000SOL    HW1 6899   3.551   2.696   5.751
 2000SOL    HW2 6900   3.611   2.794   5.635
 2001SOL     OW 6901   2.125   1.565   1.065
 2001SOL    HW1 6902   2.048   1.526   1.015
 2001SOL    HW2 6903   2.203   1.502   1.058
 2002SOL     OW 6904   0.436   5.026   0.741
 2002SOL    HW1 6905   0.512   4.993   0.798
 2002SOL    HW2 6906   0.473   5.081   0.666
 2003SOL     OW 6907   6.342   4.688   2.257
 2003SOL    HW1 6908   6.368   4.780   2.284
 2003SOL    HW2 6909   6.423   4.630   2.252
 2004SOL     OW 6910   4.988   1.000   4.640
 2004SOL    HW1 6911   4.890   0.993   4.658
 2004SOL    HW2 6912   5.030   0.910   4.647
 2005SOL     OW 6913   0.035   4.939   0.460
 2005SOL    HW1 6914   0.100   4.903   0.527
 2005SOL    HW2 6915   0.084   4.996   0.394
 2006SOL     OW 6916   5.517   0.051   3.675
 2006SOL    HW1 6917   5.544   7.017   3.595
 2006SOL    HW2 6918   5.523   0.148   3.654
 2007SOL     OW 6919   5.198   4.595   0.864
 2007SOL    HW1 6920   5.216   4.653   0.943
 2007SOL    HW2 6921   5.210   4.499   0.889
 2008SOL     OW 6922   1.915   3.553   3.374
 2008SOL    HW1 6923   1.819   3.556   3.403
 2008SOL    HW2 6924   1.939   3.638   3.327
 2009SOL     OW 6925   4.971   6.336   2.632
 2009SOL    HW1 6926   4.897   6.366   2.692
 2009SOL    HW2 6927   4.939   6.337   2.537
 2010SOL     OW 6928   2.412   1.769   1.673
 2010SOL    HW1 6929   2.497   1.785   1.622
 2010SOL    HW2 6930   2.407   1.833   1.749
 2011SOL     OW 6931   0.634   0.992   5.021
 2011SOL    HW1 6932   0.654   0.934   4.942
 2011SOL    HW2 6933   0.686   1.077   5.014
 2012SOL     OW 6934   1.608   3.770   2.443
 2012SOL    HW1 6935   1.692   3.793   2.394
 2012SOL    HW2 6936   1.529   3.785   2.383
 2013SOL     OW 6937   5.706   3.242   3.997
 2013SOL    HW1 6938   5.717   3.203   3.906
 2013SOL    HW2 6939   5.652   3.180   4.054
 2014SOL     OW 6940   3.103   0.225   3.372
 2014SOL    HW1 6941   3.111   0.274   3.458
 2014SOL    HW2 6942   3.187   0.174   3.354
 2015SOL     OW 6943   2.605   0.024   1.015
 2015SOL    HW1 6944   2.657   6.958   1.013
 2015SOL    HW2 6945   2.519   0.012   0.965
 2016SOL     OW 6946   1.367   5.239   5.646
 2016SOL    HW1 6947   1.294   5.182   5.608
 2016SOL    HW2 6948   1.340   5.273   5.736
 2017SOL     OW 6949   4.173   0.248   2.878
 2017SOL    HW1 6950   4.216   0.191   2.949
 2017SOL    HW2 6951   4.083   0.210   2.855
 2018SOL     OW 6952   6.313   3.022   3.544
 2018SOL    HW1 6953   6.341   3.081   3.620
 2018SOL    HW2 6954   6.394   2.979   3.504
 2019SOL     OW 6955   5.769   4.067   6.547
 2019SOL    HW1 6956   5.799   4.145   6.493
 2019SOL    HW2 6957   5.669   4.069   6.557
 2020SOL     OW 6958   2.197   6.638   6.167
 2020SOL    HW1 6959   2.196   6.734   6.194
 2020SOL    HW2 6960   2.245   6.584   6.237
 2021SOL     OW 6961   6.529   6.425   4.472
 2021SOL    HW1 6962   6.600   6.471   4.420
 2021SOL    HW2 6963   6.496   6.485   4.545
 2022SOL     OW 6964   1.382   4.849   4.183
 2022SOL    HW1 6965   1.464   4.794   4.165
 2022SOL    HW2 6966   1.384   4.879   4.278
 2023SOL     OW 6967   0.860   0.778   6.819
 2023SOL    HW1 6968   0.780   0.719   6.808
 2023SOL    HW2 6969   0.835   0.858   6.874
 2024SOL     OW 6970   0.175   5.702   3.923
 2024SOL    HW1 6971   0.217   5.779   3.875
 2024SOL    HW2 6972   0.088   5.679   3.879
 2025SOL     OW 6973   3.621   0.948   4.136
 2025SOL    HW1 6974   3.583   0.905   4.055
 2025SOL    HW2 6975   3.719   0.963   4.123
 2026SOL     OW 6976   6.242   2.547   6.633
 2026SOL    HW1 6977   6.222   2.629   6.685
 2026SOL    HW2 6978   6.286   2.479   6.692
 2027SOL     OW 6979   1.152   0.150   1.343
 2027SOL    HW1 6980   1.249   0.177   1.340
 2027SOL    HW2 6981   1.127   0.125   1.436
 2028SOL     OW 6982   3.385   5.336   3.960
 2028SOL    HW1 6983   3.320   5.265   3.935
 2028SOL    HW2 6984   3.478   5.300   3.951
 2029SOL     OW 6985   6.577   2.418   0.037
 2029SOL    HW1 6986   6.541   2.425   0.130
 2029SOL    HW2 6987   6.633   2.499   0.017
 2030SOL     OW 6988   3.288   0.213   3.005
 2030SOL    HW1 6989   3.351   0.217   3.083
 2030SOL    HW2 6990   3.197   0.240   3.035
 2031SOL     OW 6991   6.949   5.918   2.382
 2031SOL    HW1 6992   6.991   5.832   2.354
 2031SOL    HW2 6993   6.974   5.990   2.318
 2032SOL     OW 6994   3.367   1.215   1.556
 2032SOL    HW1 6995   3.379   1.312   1.539
 2032SOL    HW2 6996   3.423   1.187   1.633
 2033SOL     OW 6997   2.368   1.328   0.565
 2033SOL    HW1 6998   2.388   1.411   0.618
 2033SOL    HW2 6999   2.305   1.270   0.617
 2034SOL     OW 7000   2.296   5.269   5.989
 2034SOL    HW1 7001   2.253   5.358   5.970
 2034SOL    HW2 7002   2.324   5.227   5.903
 2035SOL     OW 7003   6.472   6.328   3.170
 2035SOL    HW1 7004   6.527   6.272   3.231
 2035SOL    HW2 7005   6.386   6.353   3.215
 2036SOL     OW 7006   1.257   3.463   2.818
 2036SOL    HW1 7007   1.290   3.535   2.758
 2036SOL    HW2 7008   1.165   3.486   2.850
 2037SOL     OW 7009   6.270   3.072   6.488
 2037SOL    HW1 7010   6.333   3.037   6.418
 2037SOL    HW2 7011   6.195   3.008   6.500
 2038SOL     OW 7012   2.246   1.569   0.432
 2038SOL    HW1 7013   2.149   1.583   0.454
 2038SOL    HW2 7014   2.277   1.483   0.473
 2039SOL     OW 7015   0.149   6.517   3.448
 2039SOL    HW1 7016   0.059   6.558   3.460
 2039SOL    HW2 7017   0.152   6.429   3.495
 2040SOL     OW 7018   2.205   1.863   6.986
 2040SOL    HW1 7019   2.123   1.811   7.009
 2040SOL    HW2 7020   2.283   1.801   6.982
 2041SOL     OW 7021   1.393   0.518   4.826
 2041SOL    HW1 7022   1.482   0.473   4.824
 2041SOL    HW2 7023   1.329   0.462   4.879
 2042SOL     OW 7024   5.043   0.281   5.895
 2042SOL    HW1 7025   4.952   0.265   5.932
 2042SOL    HW2 7026   5.055   0.226   5.812
 2043SOL     OW 7027   6.359   2.686   2.935
 2043SOL    HW1 7028   6.299   2.642   3.002
 2043SOL    HW2 7029   6.336   2.655   2.843
 2044SOL     OW 7030   5.757   0.244   0.887
 2044SOL    HW1 7031   5.762   0.177   0.812
 2044SOL    HW2 7032   5.734   0.334   0.850
 2045SOL     OW 7033   1.132   4.877   4.838
 2045SOL    HW1 7034   1.064   4.837   4.900
 2045SOL    HW2 7035   1.105   4.860   4.743
 2046SOL     OW 7036   6.641   2.071   5.113
 2046SOL    HW1 7037   6.562   2.047   5.058
 2046SOL    HW2 7038   6.715   2.005   5.097
 2047SOL     OW 7039   6.517   3.054   1.027
 2047SOL    HW1 7040   6.462   3.128   0.988
 2047SOL    HW2 7041   6.459   2.999   1.087
 2048SOL     OW 7042   0.688   0.591   4.999
 2048SOL    HW1 7043   0.634   0.663   5.042
 2048SOL    HW2 7044   0.628   0.517   4.970
 2049SOL     OW 7045   5.735   1.785   3.971
 2049SOL    HW1 7046   5.774   1.733   3.895
 2049SOL    HW2 7047   5.638   1.804   3.952
 2050SOL     OW 7048   6.820   2.388   4.167
 2050SOL    HW1 7049   6.917   2.369   4.187
 2050SOL    HW2 7050   6.768   2.303   4.173
 2051SOL     OW 7051   1.919   6.134   6.707
 2051SOL    HW1 7052   1.965   6.106   6.791
 2051SOL    HW2 7053   1.836   6.079   6.696
 2052SOL     OW 7054   1.419   2.880   1.049
 2052SOL    HW1 7055   1.512   2.892   1.016
 2052SOL    HW2 7056   1.418   2.818   1.127
 2053SOL     OW 7057   0.717   5.578   4.915
 2053SOL    HW1 7058   0.716   5.478   4.920
 2053SOL    HW2 7059   0.668   5.607   4.833
 2054SOL     OW 7060   3.083   4.003   2.945
 2054SOL    HW1 7061   3.008   4.069   2.956
 2054SOL    HW2 7062   3.065   3.922   3.001
 2055SOL     OW 7063   6.248   3.135   4.903
 2055SOL    HW1 7064   6.340   3.168   4.880
 2055SOL    HW2 7065   6.231   3.048   4.855
 2056SOL     OW 7066   4.009   4.905   1.968
 2056SOL    HW1 7067   3.970   4.921   1.877
 2056SOL    HW2 7068   3.935   4.905   2.036
 2057SOL     OW 7069   4.962   3.462   5.552
 2057SOL    HW1 7070   5.008   3.433   5.636
 2057SOL    HW2 7071   4.870   3.493   5.574
 2058SOL     OW 7072   0.249   6.401   2.443
 2058SOL    HW1 7073   0.320   6.462   2.409
 2058SOL    HW2 7074   0.203   6.357   2.366
 2059SOL     OW 7075   2.547   6.740   6.527
 2059SOL    HW1 7076   2.573   6.820   6.580
 2059SOL    HW2 7077   2.509   6.670   6.588
 2060SOL     OW 7078   0.153   4.112   1.903
 2060SOL    HW1 7079   0.132   4.020   1.935
 2060SOL    HW2 7080   0.236   4.110   1.847
 2061SOL     OW 7081   2.015   2.253   2.603
 2061SOL    HW1 7082   1.927   2.298   2.583
 2061SOL    HW2 7083   2.086   2.294   2.546
 2062SOL     OW 7084   0.155   5.888   5.150
 2062SOL    HW1 7085   0.226   5.853   5.210
 2062SOL    HW2 7086   0.073   5.831   5.159
 2063SOL     OW 7087   1.382   6.320   5.089
 2063SOL    HW1 7088   1.383   6.411   5.048
 2063SOL    HW2 7089   1.287   6.287   5.093
 2064SOL     OW 7090   0.301   2.897   4.661
 2064SOL    HW1 7091   0.359   2.869   4.583
 2064SOL    HW2 7092   0.283   2.995   4.655
 2065SOL     OW 7093   5.855   3.005   6.038
 2065SOL    HW1 7094   5.798   2.927   6.061
 2065SOL    HW2 7095   5.911   2.984   5.958
 2066SOL     OW 7096   6.295   4.029   5.530
 2066SOL    HW1 7097   6.255   4.001   5.442
 2066SOL    HW2 7098   6.384   3.985   5.542
 2067SOL     OW 7099   6.591   5.438   0.944
 2067SOL    HW1 7100   6.572   5.455   0.848
 2067SOL    HW2 7101   6.659   5.365   0.953
 2068SOL     OW 7102   4.061   0.568   4.459
 2068SOL    HW1 7103   4.030   0.649   4.408
 2068SOL    HW2 7104   4.043   0.486   4.405
 2069SOL     OW 7105   0.271   2.553   4.316
 2069SOL    HW1 7106   0.301   2.491   4.243
 2069SOL    HW2 7107   0.220   2.501   4.385
 2070SOL     OW 7108   1.069   2.456   0.931
 2070SOL    HW1 7109   1.065   2.358   0.911
 2070SOL    HW2 7110   1.045   2.508   0.849
 2071SOL     OW 7111   6.410   1.139   6.045
 2071SOL    HW1 7112   6.350   1.102   5.974
 2071SOL    HW2 7113   6.362   1.212   6.095
 2072SOL     OW 7114   4.782   4.974   4.793
 2072SOL    HW1 7115   4.721   4.917   4.738
 2072SOL    HW2 7116   4.730   5.049   4.833
 2073SOL     OW 7117   3.586   6.379   5.352
 2073SOL    HW1 7118   3.598   6.387   5.253
 2073SOL    HW2 7119   3.639   6.451   5.398
 2074SOL     OW 7120   2.212   2.430   6.671
 2074SOL    HW1 7121   2.250   2.509   6.719
 2074SOL    HW2 7122   2.164   2.371   6.735
 2075SOL     OW 7123   6.764   2.363   2.756
 2075SOL    HW1 7124   6.697   2.405   2.817
 2075SOL    HW2 7125   6.743   2.386   2.662
 2076SOL     OW 7126   5.642   0.099   5.919
 2076SOL    HW1 7127   5.689   0.187   5.932
 2076SOL    HW2 7128   5.685   0.030   5.977
 2077SOL     OW 7129   6.511   2.256   1.892
 2077SOL    HW1 7130   6.512   2.162   1.927
 2077SOL    HW2 7131   6.600   2.277   1.851
 2078SOL     OW 7132   1.710   4.844   6.352
 2078SOL    HW1 7133   1.676   4.776   6.417
 2078SOL    HW2 7134   1.661   4.835   6.265
 2079SOL     OW 7135   6.209   1.130   3.207
 2079SOL    HW1 7136   6.160   1.217   3.209
 2079SOL    HW2 7137   6.218   1.099   3.113
 2080SOL     OW 7138   3.200   1.478   4.909
 2080SOL    HW1 7139   3.199   1.578   4.907
 2080SOL    HW2 7140   3.106   1.444   4.916
 2081SOL     OW 7141   1.053   6.544   4.061
 2081SOL    HW1 7142   0.964   6.585   4.081
 2081SOL    HW2 7143   1.055   6.450   4.095
 2082SOL     OW 7144   0.856   6.692   3.246
 2082SOL    HW1 7145   0.947   6.725   3.222
 2082SOL    HW2 7146   0.851   6.593   3.231
 2083SOL     OW 7147   1.452   6.050   4.681
 2083SOL    HW1 7148   1.500   5.971   4.719
 2083SOL    HW2 7149   1.465   6.129   4.741
 2084SOL     OW 7150   0.884   3.175   1.860
 2084SOL    HW1 7151   0.880   3.266   1.817
 2084SOL    HW2 7152   0.883   3.105   1.788
 2085SOL     OW 7153   4.827   6.397   1.013
 2085SOL    HW1 7154   4.787   6.420   1.101
 2085SOL    HW2 7155   4.810   6.472   0.949
 2086SOL     OW 7156   3.661   6.024   7.017
 2086SOL    HW1 7157   3.609   5.942   6.997
 2086SOL    HW2 7158   3.684   6.026   0.096
 2087SOL     OW 7159   4.520   2.153   0.544
 2087SOL    HW1 7160   4.462   2.199   0.477
 2087SOL    HW2 7161   4.523   2.055   0.523
 2088SOL     OW 7162   1.394   5.833   5.879
 2088SOL    HW1 7163   1.383   5.801   5.784
 2088SOL    HW2 7164   1.329   5.785   5.938
 2089SOL     OW 7165   4.426   2.357   5.296
 2089SOL    HW1 7166   4.438   2.381   5.200
 2089SOL    HW2 7167   4.506   2.388   5.348
 2090SOL     OW 7168   4.720   3.129   5.229
 2090SOL    HW1 7169   4.765   3.197   5.286
 2090SOL    HW2 7170   4.622   3.127   5.250
 2091SOL     OW 7171   6.471   5.911   0.497
 2091SOL    HW1 7172   6.528   5.896   0.416
 2091SOL    HW2 7173   6.468   5.828   0.552
 2092SOL     OW 7174   5.593   4.122   1.231
 2092SOL    HW1 7175   5.542   4.149   1.313
 2092SOL    HW2 7176   5.589   4.022   1.221
 2093SOL     OW 7177   3.606   1.761   1.904
 2093SOL    HW1 7178   3.517   1.791   1.939
 2093SOL    HW2 7179   3.640   1.686   1.960
 2094SOL     OW 7180   5.368   2.025   0.942
 2094SOL    HW1 7181   5.369   2.113   0.990
 2094SOL    HW2 7182   5.308   2.031   0.862
 2095SOL     OW 7183   5.934   6.550   3.722
 2095SOL    HW1 7184   5.966   6.455   3.724
 2095SOL    HW2 7185   5.919   6.582   3.815
 2096SOL     OW 7186   4.652   5.256   3.043
 2096SOL    HW1 7187   4.722   5.225   3.107
 2096SOL    HW2 7188   4.639   5.187   2.972
 2097SOL     OW 7189   2.872   3.181   0.278
 2097SOL    HW1 7190   2.880   3.118   0.355
 2097SOL    HW2 7191   2.954   3.237   0.272
 2098SOL     OW 7192   3.906   5.772   3.101
 2098SOL    HW1 7193   3.984   5.807   3.049
 2098SOL    HW2 7194   3.933   5.758   3.196
 2099SOL     OW 7195   4.306   1.403   6.713
 2099SOL    HW1 7196   4.219   1.414   6.664
 2099SOL    HW2 7197   4.375   1.367   6.651
 2100SOL     OW 7198   4.816   1.784   0.143
 2100SOL    HW1 7199   4.883   1.813   0.074
 2100SOL    HW2 7200   4.854   1.798   0.234
 2101SOL     OW 7201   6.897   6.387   1.164
 2101SOL    HW1 7202   6.887   6.318   1.235
 2101SOL    HW2 7203   6.988   6.428   1.170
 2102SOL     OW 7204   5.057   3.797   1.616
 2102SOL    HW1 7205   5.014   3.712   1.585
 2102SOL    HW2 7206   4.987   3.866   1.632
 2103SOL     OW 7207   3.572   3.504   0.481
 2103SOL    HW1 7208   3.532   3.556   0.557
 2103SOL    HW2 7209   3.500   3.454   0.434
 2104SOL     OW 7210   1.403   4.861   1.779
 2104SOL    HW1 7211   1.372   4.780   1.829
 2104SOL    HW2 7212   1.503   4.856   1.767
 2105SOL     OW 7213   3.942   4.658   6.791
 2105SOL    HW1 7214   4.020   4.720   6.796
 2105SOL    HW2 7215   3.858   4.709   6.809
 2106SOL     OW 7216   5.407   3.893   1.268
 2106SOL    HW1 7217   5.343   3.944   1.211
 2106SOL    HW2 7218   5.360   3.864   1.352
 2107SOL     OW 7219   6.065   2.591   5.648
 2107SOL    HW1 7220   6.146   2.589   5.706
 2107SOL    HW2 7221   6.091   2.619   5.555
 2108SOL     OW 7222   5.777   5.912   5.420
 2108SOL    HW1 7223   5.764   5.883   5.514
 2108SOL    HW2 7224   5.687   5.927   5.378
 2109SOL     OW 7225   3.127   6.034   2.305
 2109SOL    HW1 7226   3.207   5.991   2.346
 2109SOL    HW2 7227   3.139   6.133   2.304
 2110SOL     OW 7228   3.802   0.408   5.813
 2110SOL    HW1 7229   3.838   0.376   5.901
 2110SOL    HW2 7230   3.714   0.452   5.827
 2111SOL     OW 7231   1.544   2.191   5.136
 2111SOL    HW1 7232   1.619   2.251   5.165
 2111SOL    HW2 7233   1.457   2.227   5.170
 2112SOL     OW 7234   5.650   2.426   6.746
 2112SOL    HW1 7235   5.646   2.526   6.736
 2112SOL    HW2 7236   5.583   2.397   6.815
 2113SOL     OW 7237   2.352   0.154   4.816
 2113SOL    HW1 7238   2.438   0.105   4.826
 2113SOL    HW2 7239   2.300   0.115   4.740
 2114SOL     OW 7240   2.170   2.923   6.947
 2114SOL    HW1 7241   2.163   2.919   6.847
 2114SOL    HW2 7242   2.128   3.008   6.980
 2115SOL     OW 7243   1.279   4.590   1.885
 2115SOL    HW1 7244   1.197   4.564   1.936
 2115SOL    HW2 7245   1.320   4.509   1.843
 2116SOL     OW 7246   1.129   2.743   1.345
 2116SOL    HW1 7247   1.056   2.698   1.292
 2116SOL    HW2 7248   1.218   2.712   1.312
 2117SOL     OW 7249   5.076   3.322   1.677
 2117SOL    HW1 7250   5.158   3.270   1.650
 2117SOL    HW2 7251   5.000   3.259   1.690
 2118SOL     OW 7252   6.044   3.925   2.769
 2118SOL    HW1 7253   6.143   3.912   2.779
 2118SOL    HW2 7254   6.009   3.864   2.698
 2119SOL     OW 7255   1.571   1.590   0.481
 2119SOL    HW1 7256   1.496   1.587   0.547
 2119SOL    HW2 7257   1.631   1.511   0.495
 2120SOL     OW 7258   6.925   2.640   2.656
 2120SOL    HW1 7259   6.973   2.561   2.617
 2120SOL    HW2 7260   6.873   2.686   2.583
 2121SOL     OW 7261   2.138   2.342   6.175
 2121SOL    HW1 7262   2.194   2.259   6.176
 2121SOL    HW2 7263   2.175   2.406   6.108
 2122SOL     OW 7264   6.100   6.563   6.131
 2122SOL    HW1 7265   6.070   6.553   6.036
 2122SOL    HW2 7266   6.190   6.605   6.134
 2123SOL     OW 7267   6.405   6.135   2.583
 2123SOL    HW1 7268   6.390   6.216   2.640
 2123SOL    HW2 7269   6.352   6.059   2.620
 2124SOL     OW 7270   2.997   1.560   6.173
 2124SOL    HW1 7271   3.085   1.539   6.217
 2124SOL    HW2 7272   3.011   1.571   6.074
 2125SOL     OW 7273   1.299   6.038   2.521
 2125SOL    HW1 7274   1.324   5.994   2.608
 2125SOL    HW2 7275   1.383   6.064   2.473
 2126SOL     OW 7276   4.140   2.499   6.637
 2126SOL    HW1 7277   4.157   2.510   6.540
 2126SOL    HW2 7278   4.085   2.576   6.671
 2127SOL     OW 7279   0.628   1.841   5.353
 2127SOL    HW1 7280   0.698   1.769   5.357
 2127SOL    HW2 7281   0.545   1.803   5.311
 2128SOL     OW 7282   6.098   2.896   0.970
 2128SOL    HW1 7283   6.153   2.955   0.911
 2128SOL    HW2 7284   6.126   2.801   0.957
 2129SOL     OW 7285   5.202   4.624   4.238
 2129SOL    HW1 7286   5.224   4.698   4.301
 2129SOL    HW2 7287   5.196   4.537   4.288
 2130SOL     OW 7288   2.627   1.589   1.252
 2130SOL    HW1 7289   2.578   1.661   1.203
 2130SOL    HW2 7290   2.725   1.597   1.232
 2131SOL     OW 7291   4.965   2.262   0.417
 2131SOL    HW1 7292   5.032   2.322   0.373
 2131SOL    HW2 7293   5.012   2.191   0.469
 2132SOL     OW 7294   3.415   1.355   6.794
 2132SOL    HW1 7295   3.379   1.272   6.836
 2132SOL    HW2 7296   3.442   1.420   6.865
 2133SOL     OW 7297   2.856   2.230   0.978
 2133SOL    HW1 7298   2.915   2.192   0.906
 2133SOL    HW2 7299   2.894   2.206   1.068
 2134SOL     OW 7300   1.240   1.204   4.724
 2134SOL    HW1 7301   1.169   1.171   4.662
 2134SOL    HW2 7302   1.201   1.271   4.787
 2135SOL     OW 7303   0.051   1.717   4.517
 2135SOL    HW1 7304   0.108   1.654   4.569
 2135SOL    HW2 7305   6.987   1.669   4.488
 2136SOL     OW 7306   1.325   3.935   4.621
 2136SOL    HW1 7307   1.362   4.021   4.587
 2136SOL    HW2 7308   1.393   3.863   4.609
 2137SOL     OW 7309   0.467   6.917   4.468
 2137SOL    HW1 7310   0.416   6.856   4.407
 2137SOL    HW2 7311   0.507   6.863   4.542
 2138SOL     OW 7312   5.293   3.155   1.648
 2138SOL    HW1 7313   5.312   3.102   1.565
 2138SOL    HW2 7314   5.274   3.092   1.724
 2139SOL     OW 7315   4.609   1.365   3.149
 2139SOL    HW1 7316   4.631   1.461   3.159
 2139SOL    HW2 7317   4.590   1.345   3.052
 2140SOL     OW 7318   2.940   6.379   2.971
 2140SOL    HW1 7319   2.920   6.475   2.954
 2140SOL    HW2 7320   3.014   6.349   2.911
 2141SOL     OW 7321   6.499   3.238   1.808
 2141SOL    HW1 7322   6.514   3.330   1.844
 2141SOL    HW2 7323   6.586   3.189   1.805
 2142SOL     OW 7324   1.290   2.203   3.247
 2142SOL    HW1 7325   1.296   2.255   3.333
 2142SOL    HW2 7326   1.365   2.229   3.187
 2143SOL     OW 7327   3.512   5.850   0.865
 2143SOL    HW1 7328   3.563   5.909   0.928
 2143SOL    HW2 7329   3.550   5.858   0.773
 2144SOL     OW 7330   2.197   0.521   2.967
 2144SOL    HW1 7331   2.243   0.500   3.053
 2144SOL    HW2 7332   2.106   0.557   2.985
 2145SOL     OW 7333   3.809   5.519   4.205
 2145SOL    HW1 7334   3.810   5.575   4.122
 2145SOL    HW2 7335   3.786   5.425   4.182
 2146SOL     OW 7336   3.202   3.960   2.499
 2146SOL    HW1 7337   3.109   3.966   2.462
 2146SOL    HW2 7338   3.198   3.953   2.599
 2147SOL     OW 7339   0.015   1.317   0.093
 2147SOL    HW1 7340   6.952   1.272   0.060
 2147SOL    HW2 7341   0.009   1.415   0.077
 2148SOL     OW 7342   4.835   3.170   4.260
 2148SOL    HW1 7343   4.815   3.227   4.340
 2148SOL    HW2 7344   4.913   3.209   4.211
 2149SOL     OW 7345   4.102   0.184   1.267
 2149SOL    HW1 7346   4.151   0.105   1.231
 2149SOL    HW2 7347   4.113   0.187   1.366
 2150SOL     OW 7348   3.148   2.168   2.560
 2150SOL    HW1 7349   3.100   2.250   2.527
 2150SOL    HW2 7350   3.113   2.143   2.650
 2151SOL     OW 7351   2.909   2.108   4.591
 2151SOL    HW1 7352   2.883   2.191   4.542
 2151SOL    HW2 7353   2.835   2.041   4.585
 2152SOL     OW 7354   4.832   6.237   1.978
 2152SOL    HW1 7355   4.918   6.268   2.020
 2152SOL    HW2 7356   4.798   6.156   2.026
 2153SOL     OW 7357   4.021   0.878   3.666
 2153SOL    HW1 7358   4.066   0.876   3.756
 2153SOL    HW2 7359   4.044   0.963   3.619
 2154SOL     OW 7360   3.311   6.103   4.788
 2154SOL    HW1 7361   3.407   6.103   4.759
 2154SOL    HW2 7362   3.294   6.023   4.845
 2155SOL     OW 7363   1.852   4.966   0.131
 2155SOL    HW1 7364   1.764   5.013   0.141
 2155SOL    HW2 7365   1.845   4.897   0.058
 2156SOL     OW 7366   2.858   0.112   1.525
 2156SOL    HW1 7367   2.836   0.200   1.483
 2156SOL    HW2 7368   2.776   0.075   1.570
 2157SOL     OW 7369   6.331   0.708   4.282
 2157SOL    HW1 7370   6.414   0.701   4.227
 2157SOL    HW2 7371   6.339   0.647   4.361
 2158SOL     OW 7372   3.541   6.485   0.498
 2158SOL    HW1 7373   3.605   6.547   0.452
 2158SOL    HW2 7374   3.452   6.531   0.509
 2159SOL     OW 7375   1.426   5.769   5.612
 2159SOL    HW1 7376   1.345   5.712   5.602
 2159SOL    HW2 7377   1.431   5.835   5.536
 2160SOL     OW 7378   4.525   3.795   1.560
 2160SOL    HW1 7379   4.452   3.737   1.522
 2160SOL    HW2 7380   4.484   3.872   1.610
 2161SOL     OW 7381   4.945   3.653   3.722
 2161SOL    HW1 7382   4.942   3.608   3.812
 2161SOL    HW2 7383   4.890   3.737   3.726
 2162SOL     OW 7384   1.907   0.572   0.339
 2162SOL    HW1 7385   1.811   0.584   0.315
 2162SOL    HW2 7386   1.965   0.615   0.269
 2163SOL     OW 7387   0.193   5.806   6.551
 2163SOL    HW1 7388   0.219   5.723   6.600
 2163SOL    HW2 7389   0.195   5.884   6.614
 2164SOL     OW 7390   1.761   1.017   6.289
 2164SOL    HW1 7391   1.819   1.052   6.362
 2164SOL    HW2 7392   1.665   1.025   6.315
 2165SOL     OW 7393   1.688   1.329   2.137
 2165SOL    HW1 7394   1.759   1.309   2.205
 2165SOL    HW2 7395   1.724   1.312   2.045
 2166SOL     OW 7396   2.593   2.591   5.960
 2166SOL    HW1 7397   2.672   2.603   5.899
 2166SOL    HW2 7398   2.558   2.498   5.950
 2167SOL     OW 7399   2.787   0.096   2.561
 2167SOL    HW1 7400   2.868   0.073   2.507
 2167SOL    HW2 7401   2.806   0.080   2.658
 2168SOL     OW 7402   6.362   2.649   5.183
 2168SOL    HW1 7403   6.422   2.727   5.166
 2168SOL    HW2 7404   6.293   2.644   5.111
 2169SOL     OW 7405   5.549   2.053   6.260
 2169SOL    HW1 7406   5.621   2.115   6.291
 2169SOL    HW2 7407   5.533   2.066   6.162
 2170SOL     OW 7408   5.465   4.443   5.168
 2170SOL    HW1 7409   5.496   4.462   5.075
 2170SOL    HW2 7410   5.391   4.506   5.192
 2171SOL     OW 7411   6.524   2.517   0.287
 2171SOL    HW1 7412   6.439   2.567   0.303
 2171SOL    HW2 7413   6.579   2.518   0.371
 2172SOL     OW 7414   3.262   1.214   0.738
 2172SOL    HW1 7415   3.224   1.227   0.830
 2172SOL    HW2 7416   3.203   1.152   0.686
 2173SOL     OW 7417   3.795   0.323   5.557
 2173SOL    HW1 7418   3.818   0.357   5.648
 2173SOL    HW2 7419   3.721   0.255   5.565
 2174SOL     OW 7420   6.262   4.700   5.863
 2174SOL    HW1 7421   6.175   4.653   5.844
 2174SOL    HW2 7422   6.262   4.789   5.817
 2175SOL     OW 7423   3.146   1.574   2.785
 2175SOL    HW1 7424   3.059   1.606   2.751
 2175SOL    HW2 7425   3.218   1.640   2.763
 2176SOL     OW 7426   1.014   2.023   1.670
 2176SOL    HW1 7427   1.024   1.997   1.574
 2176SOL    HW2 7428   0.965   1.951   1.719
 2177SOL     OW 7429   6.596   0.685   2.190
 2177SOL    HW1 7430   6.516   0.689   2.249
 2177SOL    HW2 7431   6.658   0.760   2.213
 2178SOL     OW 7432   1.056   4.002   0.576
 2178SOL    HW1 7433   1.041   3.998   0.675
 2178SOL    HW2 7434   0.979   4.048   0.532
 2179SOL     OW 7435   1.943   5.607   4.494
 2179SOL    HW1 7436   1.973   5.673   4.426
 2179SOL    HW2 7437   2.021   5.580   4.550
 2180SOL     OW 7438   3.005   3.179   2.525
 2180SOL    HW1 7439   3.088   3.169   2.470
 2180SOL    HW2 7440   2.925   3.170   2.466
 2181SOL     OW 7441   4.442   4.127   5.899
 2181SOL    HW1 7442   4.435   4.224   5.876
 2181SOL    HW2 7443   4.374   4.075   5.848
 2182SOL     OW 7444   0.097   3.753   6.405
 2182SOL    HW1 7445   0.189   3.731   6.437
 2182SOL    HW2 7446   0.052   3.669   6.375
 2183SOL     OW 7447   3.191   2.980   0.664
 2183SOL    HW1 7448   3.254   2.972   0.587
 2183SOL    HW2 7449   3.244   2.990   0.749
 2184SOL     OW 7450   3.755   0.012   6.050
 2184SOL    HW1 7451   3.854   7.017   6.041
 2184SOL    HW2 7452   3.707   6.958   6.002
 2185SOL     OW 7453   1.797   1.786   1.284
 2185SOL    HW1 7454   1.811   1.884   1.300
 2185SOL    HW2 7455   1.885   1.741   1.268
 2186SOL     OW 7456   6.585   4.673   2.482
 2186SOL    HW1 7457   6.599   4.723   2.567
 2186SOL    HW2 7458   6.670   4.671   2.430
 2187SOL     OW 7459   0.472   1.090   1.884
 2187SOL    HW1 7460   0.381   1.050   1.872
 2187SOL    HW2 7461   0.512   1.109   1.795
 2188SOL     OW 7462   4.703   5.924   3.933
 2188SOL    HW1 7463   4.671   5.874   3.853
 2188SOL    HW2 7464   4.665   5.883   4.016
 2189SOL     OW 7465   1.444   6.955   6.167
 2189SOL    HW1 7466   1.397   6.870   6.193
 2189SOL    HW2 7467   1.389   7.004   6.100
 2190SOL     OW 7468   5.673   3.102   1.628
 2190SOL    HW1 7469   5.621   3.157   1.563
 2190SOL    HW2 7470   5.616   3.082   1.708
 2191SOL     OW 7471   3.477   1.927   6.086
 2191SOL    HW1 7472   3.418   1.893   6.159
 2191SOL    HW2 7473   3.448   2.019   6.060
 2192SOL     OW 7474   4.579   6.612   5.208
 2192SOL    HW1 7475   4.593   6.711   5.201
 2192SOL    HW2 7476   4.485   6.593   5.236
 2193SOL     OW 7477   6.749   5.384   6.260
 2193SOL    HW1 7478   6.776   5.416   6.351
 2193SOL    HW2 7479   6.743   5.284   6.261
 2194SOL     OW 7480   1.821   5.813   0.545
 2194SOL    HW1 7481   1.900   5.753   0.552
 2194SOL    HW2 7482   1.743   5.761   0.510
 2195SOL     OW 7483   6.968   6.641   1.852
 2195SOL    HW1 7484   0.033   6.692   1.835
 2195SOL    HW2 7485   6.891   6.704   1.851
 2196SOL     OW 7486   2.575   0.596   5.669
 2196SOL    HW1 7487   2.668   0.616   5.701
 2196SOL    HW2 7488   2.527   0.543   5.739
 2197SOL     OW 7489   4.982   4.105   1.626
 2197SOL    HW1 7490   4.918   4.061   1.690
 2197SOL    HW2 7491   5.043   4.166   1.677
 2198SOL     OW 7492   0.172   3.079   6.976
 2198SOL    HW1 7493   0.158   3.134   6.894
 2198SOL    HW2 7494   0.252   3.113   0.007
 2199SOL     OW 7495   5.429   6.866   1.212
 2199SOL    HW1 7496   5.483   6.805   1.154
 2199SOL    HW2 7497   5.435   6.959   1.177
 2200SOL     OW 7498   4.274   0.547   4.631
 2200SOL    HW1 7499   4.283   0.449   4.613
 2200SOL    HW2 7500   4.196   0.583   4.579
 2201SOL     OW 7501   5.790   3.755   2.154
 2201SOL    HW1 7502   5.761   3.709   2.070
 2201SOL    HW2 7503   5.812   3.687   2.224
 2202SOL     OW 7504   3.278   5.064   4.245
 2202SOL    HW1 7505   3.292   5.163   4.248
 2202SOL    HW2 7506   3.198   5.041   4.301
 2203SOL     OW 7507   3.008   2.112   2.797
 2203SOL    HW1 7508   3.045   2.185   2.854
 2203SOL    HW2 7509   3.043   2.024   2.829
 2204SOL     OW 7510   3.771   1.106   6.796
 2204SOL    HW1 7511   3.759   1.057   6.882
 2204SOL    HW2 7512   3.732   1.052   6.721
 2205SOL     OW 7513   1.513   0.596   6.973
 2205SOL    HW1 7514   1.480   0.519   0.008
 2205SOL    HW2 7515   1.522   0.567   6.878
 2206SOL     OW 7516   3.133   3.980   5.653
 2206SOL    HW1 7517   3.154   3.918   5.577
 2206SOL    HW2 7518   3.199   4.055   5.653
 2207SOL     OW 7519   0.956   4.540   6.418
 2207SOL    HW1 7520   1.032   4.522   6.356
 2207SOL    HW2 7521   0.968   4.486   6.502
 2208SOL     OW 7522   1.401   4.370   2.216
 2208SOL    HW1 7523   1.469   4.392   2.286
 2208SOL    HW2 7524   1.349   4.452   2.193
 2209SOL     OW 7525   1.567   6.025   5.811
 2209SOL    HW1 7526   1.502   5.954   5.836
 2209SOL    HW2 7527   1.660   5.990   5.817
 2210SOL     OW 7528   1.228   5.094   2.823
 2210SOL    HW1 7529   1.132   5.085   2.849
 2210SOL    HW2 7530   1.235   5.146   2.737
 2211SOL     OW 7531   5.942   1.490   5.365
 2211SOL    HW1 7532   5.984   1.552   5.299
 2211SOL    HW2 7533   5.931   1.537   5.452
 2212SOL     OW 7534   0.358   6.137   6.298
 2212SOL    HW1 7535   0.431   6.123   6.231
 2212SOL    HW2 7536   0.385   6.208   6.363
 2213SOL     OW 7537   4.437   2.357   4.442
 2213SOL    HW1 7538   4.370   2.308   4.386
 2213SOL    HW2 7539   4.418   2.342   4.539
 2214SOL     OW 7540   4.722   0.650   5.647
 2214SOL    HW1 7541   4.818   0.641   5.673
 2214SOL    HW2 7542   4.709   0.737   5.598
 2215SOL     OW 7543   6.997   1.643   5.568
 2215SOL    HW1 7544   0.047   1.589   5.617
 2215SOL    HW2 7545   6.906   1.606   5.589
 2216SOL     OW 7546   1.438   0.582   0.342
 2216SOL    HW1 7547   1.507   0.631   0.395
 2216SOL    HW2 7548   1.456   0.484   0.345
 2217SOL     OW 7549   3.869   0.100   1.155
 2217SOL    HW1 7550   3.946   0.139   1.206
 2217SOL    HW2 7551   3.897   0.086   1.060
 2218SOL     OW 7552   0.766   6.545   0.020
 2218SOL    HW1 7553   0.816   6.483   0.080
 2218SOL    HW2 7554   0.819   6.630   0.009
 2219SOL     OW 7555   1.778   3.576   2.855
 2219SOL    HW1 7556   1.797   3.483   2.887
 2219SOL    HW2 7557   1.696   3.611   2.900
 2220SOL     OW 7558   0.158   1.286   4.524
 2220SOL    HW1 7559   0.110   1.310   4.439
 2220SOL    HW2 7560   0.159   1.365   4.585
 2221SOL     OW 7561   6.518   2.067   0.959
 2221SOL    HW1 7562   6.480   2.114   1.039
 2221SOL    HW2 7563   6.444   2.020   0.910
 2222SOL     OW 7564   4.252   0.708   1.249
 2222SOL    HW1 7565   4.161   0.743   1.271
 2222SOL    HW2 7566   4.256   0.610   1.270
 2223SOL     OW 7567   5.903   5.008   3.517
 2223SOL    HW1 7568   5.985   5.022   3.572
 2223SOL    HW2 7569   5.868   4.915   3.532
 2224SOL     OW 7570   1.891   4.437   1.090
 2224SOL    HW1 7571   1.895   4.444   0.990
 2224SOL    HW2 7572   1.814   4.491   1.125
 2225SOL     OW 7573   5.601   5.026   2.526
 2225SOL    HW1 7574   5.564   4.954   2.467
 2225SOL    HW2 7575   5.699   5.037   2.508
 2226SOL     OW 7576   3.812   3.514   0.894
 2226SOL    HW1 7577   3.810   3.613   0.875
 2226SOL    HW2 7578   3.751   3.466   0.831
 2227SOL     OW 7579   6.249   4.094   6.298
 2227SOL    HW1 7580   6.162   4.052   6.326
 2227SOL    HW2 7581   6.238   4.193   6.294
 2228SOL     OW 7582   3.176   5.618   0.359
 2228SOL    HW1 7583   3.115   5.697   0.366
 2228SOL    HW2 7584   3.184   5.590   0.264
 2229SOL     OW 7585   4.446   1.653   4.028
 2229SOL    HW1 7586   4.357   1.692   4.004
 2229SOL    HW2 7587   4.511   1.726   4.047
 2230SOL     OW 7588   1.243   5.447   4.010
 2230SOL    HW1 7589   1.192   5.511   4.068
 2230SOL    HW2 7590   1.303   5.498   3.949
 2231SOL     OW 7591   1.857   1.614   2.294
 2231SOL    HW1 7592   1.827   1.701   2.333
 2231SOL    HW2 7593   1.886   1.628   2.199
 2232SOL     OW 7594   0.507   3.221   3.747
 2232SOL    HW1 7595   0.432   3.270   3.703
 2232SOL    HW2 7596   0.473   3.134   3.783
 2233SOL     OW 7597   3.972   5.152   6.611
 2233SOL    HW1 7598   3.886   5.100   6.613
 2233SOL    HW2 7599   4.025   5.125   6.531
 2234SOL     OW 7600   3.775   2.616   0.745
 2234SOL    HW1 7601   3.808   2.623   0.651
 2234SOL    HW2 7602   3.706   2.545   0.752
 2235SOL     OW 7603   1.376   0.312   6.858
 2235SOL    HW1 7604   1.357   0.320   6.956
 2235SOL    HW2 7605   1.316   0.242   6.818
 2236SOL     OW 7606   0.702   4.363   0.715
 2236SOL    HW1 7607   0.745   4.324   0.796
 2236SOL    HW2 7608   0.678   4.459   0.733
 2237SOL     OW 7609   6.550   3.654   4.247
 2237SOL    HW1 7610   6.461   3.619   4.217
 2237SOL    HW2 7611   6.564   3.630   4.343
 2238SOL     OW 7612   6.992   5.405   1.847
 2238SOL    HW1 7613   0.051   5.349   1.875
 2238SOL    HW2 7614   6.961   5.461   1.924
 2239SOL     OW 7615   4.249   4.649   4.044
 2239SOL    HW1 7616   4.257   4.693   4.133
 2239SOL    HW2 7617   4.314   4.572   4.040
 2240SOL     OW 7618   6.377   5.227   3.203
 2240SOL    HW1 7619   6.279   5.207   3.209
 2240SOL    HW2 7620   6.418   5.216   3.293
 2241SOL     OW 7621   0.125   6.219   2.211
 2241SOL    HW1 7622   0.058   6.269   2.266
 2241SOL    HW2 7623   0.198   6.282   2.182
 2242SOL     OW 7624   5.370   1.486   2.979
 2242SOL    HW1 7625   5.296   1.424   3.005
 2242SOL    HW2 7626   5.388   1.550   3.054
 2243SOL     OW 7627   2.559   6.354   5.067
 2243SOL    HW1 7628   2.653   6.321   5.076
 2243SOL    HW2 7629   2.538   6.417   5.142
 2244SOL     OW 7630   4.163   0.717   3.466
 2244SOL    HW1 7631   4.093   0.750   3.529
 2244SOL    HW2 7632   4.120   0.685   3.381
 2245SOL     OW 7633   0.101   2.165   2.225
 2245SOL    HW1 7634   0.143   2.256   2.229
 2245SOL    HW2 7635   0.125   2.121   2.139
 2246SOL     OW 7636   1.701   2.883   5.220
 2246SOL    HW1 7637   1.761   2.865   5.142
 2246SOL    HW2 7638   1.746   2.855   5.305
 2247SOL     OW 7639   2.613   2.145   5.204
 2247SOL    HW1 7640   2.651   2.238   5.198
 2247SOL    HW2 7641   2.616   2.114   5.299
 2248SOL     OW 7642   5.242   3.624   5.676
 2248SOL    HW1 7643   5.189   3.544   5.703
 2248SOL    HW2 7644   5.245   3.689   5.753
 2249SOL     OW 7645   5.708   6.272   3.301
 2249SOL    HW1 7646   5.673   6.354   3.347
 2249SOL    HW2 7647   5.649   6.250   3.223
 2250SOL     OW 7648   5.382   4.034   1.690
 2250SOL    HW1 7649   5.421   3.971   1.757
 2250SOL    HW2 7650   5.354   3.984   1.609
 2251SOL     OW 7651   6.077   1.153   0.203
 2251SOL    HW1 7652   6.113   1.061   0.197
 2251SOL    HW2 7653   6.151   1.218   0.220
 2252SOL     OW 7654   6.078   3.172   5.420
 2252SOL    HW1 7655   6.153   3.201   5.480
 2252SOL    HW2 7656   6.078   3.072   5.413
 2253SOL     OW 7657   1.815   2.925   6.338
 2253SOL    HW1 7658   1.793   2.925   6.241
 2253SOL    HW2 7659   1.730   2.921   6.392
 2254SOL     OW 7660   2.485   3.270   5.996
 2254SOL    HW1 7661   2.442   3.200   6.053
 2254SOL    HW2 7662   2.459   3.256   5.900
 2255SOL     OW 7663   5.822   2.868   1.726
 2255SOL    HW1 7664   5.787   2.774   1.718
 2255SOL    HW2 7665   5.764   2.930   1.673
 2256SOL     OW 7666   3.620   5.262   1.879
 2256SOL    HW1 7667   3.620   5.187   1.945
 2256SOL    HW2 7668   3.650   5.228   1.790
 2257SOL     OW 7669   1.623   3.277   4.162
 2257SOL    HW1 7670   1.709   3.228   4.153
 2257SOL    HW2 7671   1.634   3.352   4.227
 2258SOL     OW 7672   1.446   5.022   4.562
 2258SOL    HW1 7673   1.361   5.059   4.600
 2258SOL    HW2 7674   1.448   4.923   4.578
 2259SOL     OW 7675   5.470   4.108   6.550
 2259SOL    HW1 7676   5.399   4.136   6.486
 2259SOL    HW2 7677   5.431   4.045   6.617
 2260SOL     OW 7678   4.247   4.727   2.847
 2260SOL    HW1 7679   4.316   4.659   2.870
 2260SOL    HW2 7680   4.230   4.725   2.748
 2261SOL     OW 7681   5.504   6.485   0.822
 2261SOL    HW1 7682   5.505   6.517   0.916
 2261SOL    HW2 7683   5.597   6.479   0.787
 2262SOL     OW 7684   5.700   2.075   3.787
 2262SOL    HW1 7685   5.620   2.021   3.811
 2262SOL    HW2 7686   5.706   2.154   3.848
 2263SOL     OW 7687   2.022   5.931   6.061
 2263SOL    HW1 7688   2.110   5.946   6.017
 2263SOL    HW2 7689   1.993   6.015   6.108
 2264SOL     OW 7690   2.970   3.662   2.202
 2264SOL    HW1 7691   2.948   3.574   2.160
 2264SOL    HW2 7692   3.057   3.696   2.166
 2265SOL     OW 7693   0.535   1.119   2.884
 2265SOL    HW1 7694   0.447   1.076   2.904
 2265SOL    HW2 7695   0.600   1.048   2.857
 2266SOL     OW 7696   6.670   1.253   0.738
 2266SOL    HW1 7697   6.686   1.180   0.671
 2266SOL    HW2 7698   6.740   1.323   0.729
 2267SOL     OW 7699   5.409   2.523   4.997
 2267SOL    HW1 7700   5.499   2.565   4.982
 2267SOL    HW2 7701   5.346   2.553   4.925
 2268SOL     OW 7702   6.632   5.829   0.272
 2268SOL    HW1 7703   6.725   5.794   0.281
 2268SOL    HW2 7704   6.634   5.918   0.227
 2269SOL     OW 7705   5.913   5.352   5.299
 2269SOL    HW1 7706   6.008   5.328   5.317
 2269SOL    HW2 7707   5.863   5.271   5.271
 2270SOL     OW 7708   3.628   3.824   1.208
 2270SOL    HW1 7709   3.621   3.725   1.222
 2270SOL    HW2 7710   3.622   3.870   1.297
 2271SOL     OW 7711   6.041   4.491   1.437
 2271SOL    HW1 7712   6.035   4.461   1.342
 2271SOL    HW2 7713   6.008   4.585   1.444
 2272SOL     OW 7714   5.926   2.121   4.676
 2272SOL    HW1 7715   5.972   2.194   4.626
 2272SOL    HW2 7716   5.832   2.112   4.643
 2273SOL     OW 7717   1.603   1.484   3.271
 2273SOL    HW1 7718   1.615   1.583   3.277
 2273SOL    HW2 7719   1.514   1.459   3.309
 2274SOL     OW 7720   1.664   3.947   4.865
 2274SOL    HW1 7721   1.662   3.859   4.818
 2274SOL    HW2 7722   1.582   3.957   4.921
 2275SOL     OW 7723   5.369   6.252   4.390
 2275SOL    HW1 7724   5.401   6.164   4.427
 2275SOL    HW2 7725   5.316   6.300   4.460
 2276SOL     OW 7726   3.754   4.945   1.244
 2276SOL    HW1 7727   3.723   5.031   1.205
 2276SOL    HW2 7728   3.758   4.875   1.172
 2277SOL     OW 7729   3.319   3.305   4.781
 2277SOL    HW1 7730   3.245   3.238   4.776
 2277SOL    HW2 7731   3.407   3.256   4.788
 2278SOL     OW 7732   4.504   5.969   3.146
 2278SOL    HW1 7733   4.555   6.048   3.182
 2278SOL    HW2 7734   4.538   5.948   3.054
 2279SOL     OW 7735   5.465   4.416   4.421
 2279SOL    HW1 7736   5.475   4.413   4.322
 2279SOL    HW2 7737   5.375   4.453   4.445
 2280SOL     OW 7738   6.510   6.210   5.068
 2280SOL    HW1 7739   6.519   6.204   5.168
 2280SOL    HW2 7740   6.536   6.122   5.027
 2281SOL     OW 7741   3.683   1.990   1.473
 2281SOL    HW1 7742   3.696   2.003   1.374
 2281SOL    HW2 7743   3.600   1.936   1.489
 2282SOL     OW 7744   5.053   5.761   4.767
 2282SOL    HW1 7745   4.979   5.760   4.700
 2282SOL    HW2 7746   5.127   5.701   4.736
 2283SOL     OW 7747   6.926   3.605   2.705
 2283SOL    HW1 7748   6.994   3.550   2.753
 2283SOL    HW2 7749   6.857   3.638   2.770
 2284SOL     OW 7750   2.448   2.227   1.909
 2284SOL    HW1 7751   2.438   2.327   1.911
 2284SOL    HW2 7752   2.543   2.203   1.890
 2285SOL     OW 7753   1.256   3.733   0.903
 2285SOL    HW1 7754   1.314   3.758   0.980
 2285SOL    HW2 7755   1.295   3.770   0.819
 2286SOL     OW 7756   6.966   5.700   5.172
 2286SOL    HW1 7757   6.898   5.702   5.098
 2286SOL    HW2 7758   6.919   5.708   5.260
 2287SOL     OW 7759   2.287   2.876   1.490
 2287SOL    HW1 7760   2.315   2.824   1.570
 2287SOL    HW2 7761   2.194   2.850   1.464
 2288SOL     OW 7762   0.906   5.691   3.674
 2288SOL    HW1 7763   0.966   5.645   3.607
 2288SOL    HW2 7764   0.857   5.765   3.628
 2289SOL     OW 7765   5.370   1.971   1.598
 2289SOL    HW1 7766   5.277   1.937   1.587
 2289SOL    HW2 7767   5.380   2.012   1.689
 2290SOL     OW 7768   2.883   3.359   2.752
 2290SOL    HW1 7769   2.909   3.454   2.734
 2290SOL    HW2 7770   2.935   3.298   2.692
 2291SOL     OW 7771   1.919   2.112   1.918
 2291SOL    HW1 7772   1.905   2.152   2.008
 2291SOL    HW2 7773   1.940   2.185   1.852
 2292SOL     OW 7774   5.259   3.204   3.845
 2292SOL    HW1 7775   5.269   3.189   3.747
 2292SOL    HW2 7776   5.331   3.155   3.894
 2293SOL     OW 7777   5.340   1.255   0.758
 2293SOL    HW1 7778   5.268   1.289   0.698
 2293SOL    HW2 7779   5.386   1.177   0.715
 2294SOL     OW 7780   2.822   1.636   5.683
 2294SOL    HW1 7781   2.862   1.560   5.631
 2294SOL    HW2 7782   2.856   1.723   5.648
 2295SOL     OW 7783   6.814   0.989   1.663
 2295SOL    HW1 7784   6.782   0.905   1.619
 2295SOL    HW2 7785   6.904   0.973   1.703
 2296SOL     OW 7786   2.697   5.011   3.254
 2296SOL    HW1 7787   2.749   5.078   3.308
 2296SOL    HW2 7788   2.757   4.935   3.229
 2297SOL     OW 7789   5.083   4.791   5.789
 2297SOL    HW1 7790   5.150   4.776   5.716
 2297SOL    HW2 7791   4.992   4.767   5.756
 2298SOL     OW 7792   3.921   3.957   3.215
 2298SOL    HW1 7793   3.840   3.906   3.188
 2298SOL    HW2 7794   3.894   4.035   3.271
 2299SOL     OW 7795   4.932   3.734   4.816
 2299SOL    HW1 7796   4.951   3.693   4.727
 2299SOL    HW2 7797   4.874   3.672   4.869
 2300SOL     OW 7798   3.007   6.760   3.588
 2300SOL    HW1 7799   3.046   6.846   3.620
 2300SOL    HW2 7800   2.914   6.750   3.624
 2301SOL     OW 7801   3.285   3.018   4.227
 2301SOL    HW1 7802   3.318   2.936   4.181
 2301SOL    HW2 7803   3.361   3.064   4.273
 2302SOL     OW 7804   3.746   0.953   7.013
 2302SOL    HW1 7805   3.777   0.863   0.023
 2302SOL    HW2 7806   3.733   1.011   0.074
 2303SOL     OW 7807   2.095   2.688   1.200
 2303SOL    HW1 7808   2.081   2.720   1.106
 2303SOL    HW2 7809   2.185   2.646   1.208
 2304SOL     OW 7810   6.573   5.818   4.247
 2304SOL    HW1 7811   6.552   5.813   4.344
 2304SOL    HW2 7812   6.631   5.740   4.221
 2305SOL     OW 7813   1.801   1.143   3.519
 2305SOL    HW1 7814   1.833   1.049   3.511
 2305SOL    HW2 7815   1.741   1.165   3.442
 2306SOL     OW 7816   1.483   5.101   2.440
 2306SOL    HW1 7817   1.545   5.116   2.517
 2306SOL    HW2 7818   1.535   5.067   2.362
 2307SOL     OW 7819   1.316   2.750   5.253
 2307SOL    HW1 7820   1.224   2.785   5.241
 2307SOL    HW2 7821   1.344   2.701   5.170
 2308SOL     OW 7822   2.373   5.097   0.849
 2308SOL    HW1 7823   2.374   5.143   0.760
 2308SOL    HW2 7824   2.452   5.036   0.856
 2309SOL     OW 7825   1.792   0.564   4.149
 2309SOL    HW1 7826   1.866   0.575   4.215
 2309SOL    HW2 7827   1.831   0.544   4.058
 2310SOL     OW 7828   5.252   6.673   2.043
 2310SOL    HW1 7829   5.308   6.736   1.990
 2310SOL    HW2 7830   5.155   6.694   2.029
 2311SOL     OW 7831   1.862   6.145   0.517
 2311SOL    HW1 7832   1.796   6.218   0.498
 2311SOL    HW2 7833   1.840   6.103   0.605
 2312SOL     OW 7834   3.626   5.377   3.165
 2312SOL    HW1 7835   3.688   5.324   3.222
 2312SOL    HW2 7836   3.642   5.356   3.069
 2313SOL     OW 7837   5.083   5.242   2.429
 2313SOL    HW1 7838   5.141   5.181   2.375
 2313SOL    HW2 7839   5.061   5.323   2.376
 2314SOL     OW 7840   3.640   5.989   3.373
 2314SOL    HW1 7841   3.664   6.074   3.419
 2314SOL    HW2 7842   3.543   5.970   3.384
 2315SOL     OW 7843   5.006   3.175   6.491
 2315SOL    HW1 7844   5.010   3.148   6.395
 2315SOL    HW2 7845   4.942   3.252   6.501
 2316SOL     OW 7846   4.690   2.819   3.356
 2316SOL    HW1 7847   4.721   2.733   3.315
 2316SOL    HW2 7848   4.591   2.824   3.352
 2317SOL     OW 7849   0.980   4.880   2.483
 2317SOL    HW1 7850   0.993   4.978   2.493
 2317SOL    HW2 7851   1.023   4.832   2.559
 2318SOL     OW 7852   0.521   2.256   3.430
 2318SOL    HW1 7853   0.601   2.200   3.413
 2318SOL    HW2 7854   0.546   2.335   3.485
 2319SOL     OW 7855   2.166   4.100   4.814
 2319SOL    HW1 7856   2.214   4.076   4.899
 2319SOL    HW2 7857   2.070   4.074   4.822
 2320SOL     OW 7858   0.288   2.279   4.193
 2320SOL    HW1 7859   0.299   2.221   4.112
 2320SOL    HW2 7860   0.340   2.239   4.269
 2321SOL     OW 7861   3.466   0.406   5.124
 2321SOL    HW1 7862   3.550   0.454   5.099
 2321SOL    HW2 7863   3.397   0.471   5.155
 2322SOL     OW 7864   1.169   1.930   5.753
 2322SOL    HW1 7865   1.267   1.922   5.735
 2322SOL    HW2 7866   1.119   1.939   5.667
 2323SOL     OW 7867   3.990   5.654   3.335
 2323SOL    HW1 7868   4.016   5.734   3.390
 2323SOL    HW2 7869   4.065   5.631   3.272
 2324SOL     OW 7870   1.007   6.480   2.275
 2324SOL    HW1 7871   1.034   6.569   2.236
 2324SOL    HW2 7872   1.041   6.473   2.368
 2325SOL     OW 7873   0.950   3.953   1.667
 2325SOL    HW1 7874   0.918   4.023   1.731
 2325SOL    HW2 7875   0.920   3.863   1.698
 2326SOL     OW 7876   1.860   3.889   6.423
 2326SOL    HW1 7877   1.929   3.846   6.482
 2326SOL    HW2 7878   1.861   3.988   6.437
 2327SOL     OW 7879   4.767   2.884   4.337
 2327SOL    HW1 7880   4.799   2.973   4.307
 2327SOL    HW2 7881   4.745   2.828   4.257
 2328SOL     OW 7882   5.171   1.247   3.007
 2328SOL    HW1 7883   5.085   1.215   3.044
 2328SOL    HW2 7884   5.165   1.252   2.907
 2329SOL     OW 7885   1.107   5.611   4.176
 2329SOL    HW1 7886   1.143   5.627   4.267
 2329SOL    HW2 7887   1.035   5.678   4.156
 2330SOL     OW 7888   0.101   5.170   1.322
 2330SOL    HW1 7889   0.107   5.075   1.352
 2330SOL    HW2 7890   0.172   5.224   1.368
 2331SOL     OW 7891   0.114   4.065   5.279
 2331SOL    HW1 7892   0.086   4.158   5.303
 2331SOL    HW2 7893   0.094   4.047   5.183
 2332SOL     OW 7894   5.221   2.826   6.031
 2332SOL    HW1 7895   5.247   2.789   6.121
 2332SOL    HW2 7896   5.224   2.926   6.034
 2333SOL     OW 7897   0.663   5.059   2.711
 2333SOL    HW1 7898   0.715   4.979   2.741
 2333SOL    HW2 7899   0.715   5.142   2.731
 2334SOL     OW 7900   3.312   6.774   6.794
 2334SOL    HW1 7901   3.364   6.780   6.879
 2334SOL    HW2 7902   3.373   6.792   6.717
 2335SOL     OW 7903   5.852   0.550   3.231
 2335SOL    HW1 7904   5.810   0.460   3.249
 2335SOL    HW2 7905   5.780   0.618   3.221
 2336SOL     OW 7906   4.872   1.076   5.494
 2336SOL    HW1 7907   4.916   1.146   5.551
 2336SOL    HW2 7908   4.806   1.120   5.432
 2337SOL     OW 7909   5.726   1.004   3.074
 2337SOL    HW1 7910   5.642   1.013   3.020
 2337SOL    HW2 7911   5.786   0.936   3.032
 2338SOL     OW 7912   6.769   6.682   0.184
 2338SOL    HW1 7913   6.742   6.771   0.148
 2338SOL    HW2 7914   6.742   6.611   0.119
 2339SOL     OW 7915   3.618   4.287   5.986
 2339SOL    HW1 7916   3.657   4.329   6.068
 2339SOL    HW2 7917   3.646   4.191   5.981
 2340SOL     OW 7918   3.640   6.083   5.426
 2340SOL    HW1 7919   3.624   6.171   5.382
 2340SOL    HW2 7920   3.735   6.055   5.411
 2341SOL     OW 7921   5.930   4.869   0.712
 2341SOL    HW1 7922   5.935   4.828   0.803
 2341SOL    HW2 7923   5.835   4.865   0.679
 2342SOL     OW 7924   0.127   6.415   5.593
 2342SOL    HW1 7925   0.037   6.376   5.609
 2342SOL    HW2 7926   0.159   6.462   5.676
 2343SOL     OW 7927   1.043   6.422   0.950
 2343SOL    HW1 7928   1.100   6.430   1.032
 2343SOL    HW2 7929   1.042   6.327   0.919
 2344SOL     OW 7930   2.882   1.633   2.790
 2344SOL    HW1 7931   2.894   1.693   2.870
 2344SOL    HW2 7932   2.784   1.618   2.775
 2345SOL     OW 7933   1.557   0.518   4.544
 2345SOL    HW1 7934   1.459   0.514   4.565
 2345SOL    HW2 7935   1.595   0.603   4.580
 2346SOL     OW 7936   4.501   2.815   5.511
 2346SOL    HW1 7937   4.546   2.881   5.571
 2346SOL    HW2 7938   4.423   2.858   5.466
 2347SOL     OW 7939   1.538   3.679   2.071
 2347SOL    HW1 7940   1.622   3.725   2.043
 2347SOL    HW2 7941   1.559   3.607   2.137
 2348SOL     OW 7942   2.310   6.587   3.445
 2348SOL    HW1 7943   2.294   6.509   3.386
 2348SOL    HW2 7944   2.243   6.588   3.519
 2349SOL     OW 7945   6.911   6.603   5.618
 2349SOL    HW1 7946   6.912   6.518   5.670
 2349SOL    HW2 7947   6.904   6.582   5.520
 2350SOL     OW 7948   3.118   0.924   5.243
 2350SOL    HW1 7949   3.185   0.927   5.317
 2350SOL    HW2 7950   3.027   0.909   5.282
 2351SOL     OW 7951   2.542   5.141   3.699
 2351SOL    HW1 7952   2.448   5.169   3.719
 2351SOL    HW2 7953   2.604   5.216   3.721
 2352SOL     OW 7954   6.379   4.019   3.157
 2352SOL    HW1 7955   6.316   3.946   3.130
 2352SOL    HW2 7956   6.330   4.105   3.161
 2353SOL     OW 7957   2.483   4.037   5.636
 2353SOL    HW1 7958   2.473   4.054   5.538
 2353SOL    HW2 7959   2.544   4.105   5.676
 2354SOL     OW 7960   3.686   2.536   0.094
 2354SOL    HW1 7961   3.595   2.525   0.054
 2354SOL    HW2 7962   3.698   2.471   0.169
 2355SOL     OW 7963   0.432   6.979   0.958
 2355SOL    HW1 7964   0.333   6.993   0.957
 2355SOL    HW2 7965   0.460   6.935   0.872
 2356SOL     OW 7966   2.455   5.199   2.307
 2356SOL    HW1 7967   2.523   5.127   2.322
 2356SOL    HW2 7968   2.502   5.285   2.283
 2357SOL     OW 7969   5.268   4.725   3.279
 2357SOL    HW1 7970   5.328   4.744   3.202
 2357SOL    HW2 7971   5.310   4.758   3.364
 2358SOL     OW 7972   3.180   6.925   4.164
 2358SOL    HW1 7973   3.266   6.874   4.153
 2358SOL    HW2 7974   3.187   6.987   4.241
 2359SOL     OW 7975   2.331   1.576   5.883
 2359SOL    HW1 7976   2.315   1.579   5.982
 2359SOL    HW2 7977   2.426   1.598   5.863
 2360SOL     OW 7978   3.854   4.576   0.511
 2360SOL    HW1 7979   3.850   4.630   0.427
 2360SOL    HW2 7980   3.875   4.481   0.488
 2361SOL     OW 7981   2.982   6.932   3.044
 2361SOL    HW1 7982   3.047   6.888   2.982
 2361SOL    HW2 7983   2.981   6.885   3.132
 2362SOL     OW 7984   4.365   5.951   4.650
 2362SOL    HW1 7985   4.419   5.937   4.733
 2362SOL    HW2 7986   4.336   6.046   4.644
 2363SOL     OW 7987   3.873   1.896   6.335
 2363SOL    HW1 7988   3.831   1.958   6.400
 2363SOL    HW2 7989   3.857   1.930   6.242
 2364SOL     OW 7990   5.268   1.553   1.921
 2364SOL    HW1 7991   5.218   1.631   1.960
 2364SOL    HW2 7992   5.273   1.480   1.989
 2365SOL     OW 7993   5.251   3.883   4.528
 2365SOL    HW1 7994   5.228   3.788   4.549
 2365SOL    HW2 7995   5.245   3.938   4.611
 2366SOL     OW 7996   1.549   3.873   5.496
 2366SOL    HW1 7997   1.563   3.822   5.411
 2366SOL    HW2 7998   1.566   3.970   5.479
 2367SOL     OW 7999   1.327   3.256   5.865
 2367SOL    HW1 8000   1.360   3.241   5.772
 2367SOL    HW2 8001   1.364   3.184   5.925
 2368SOL     OW 8002   4.465   1.268   4.428
 2368SOL    HW1 8003   4.499   1.296   4.338
 2368SOL    HW2 8004   4.506   1.325   4.499
 2369SOL     OW 8005   3.800   1.682   3.302
 2369SOL    HW1 8006   3.805   1.677   3.203
 2369SOL    HW2 8007   3.708   1.658   3.333
 2370SOL     OW 8008   4.926   2.683   0.782
 2370SOL    HW1 8009   4.976   2.678   0.695
 2370SOL    HW2 8010   4.894   2.592   0.808
 2371SOL     OW 8011   0.790   6.870   2.383
 2371SOL    HW1 8012   0.813   6.784   2.430
 2371SOL    HW2 8013   0.697   6.897   2.408
 2372SOL     OW 8014   6.488   0.951   6.221
 2372SOL    HW1 8015   6.566   0.973   6.279
 2372SOL    HW2 8016   6.474   1.024   6.154
 2373SOL     OW 8017   5.781   0.883   6.534
 2373SOL    HW1 8018   5.727   0.955   6.577
 2373SOL    HW2 8019   5.845   0.924   6.469
 2374SOL     OW 8020   6.006   5.652   3.276
 2374SOL    HW1 8021   5.912   5.684   3.284
 2374SOL    HW2 8022   6.021   5.615   3.184
 2375SOL     OW 8023   0.691   0.678   3.722
 2375SOL    HW1 8024   0.591   0.685   3.721
 2375SOL    HW2 8025   0.717   0.586   3.751
 2376SOL     OW 8026   0.015   2.290   3.545
 2376SOL    HW1 8027   0.112   2.265   3.546
 2376SOL    HW2 8028   6.979   2.208   3.561
 2377SOL     OW 8029   3.341   4.355   6.106
 2377SOL    HW1 8030   3.418   4.350   6.043
 2377SOL    HW2 8031   3.369   4.321   6.196
 2378SOL     OW 8032   5.756   1.819   0.309
 2378SOL    HW1 8033   5.844   1.863   0.327
 2378SOL    HW2 8034   5.692   1.886   0.271
 2379SOL     OW 8035   6.731   5.002   0.573
 2379SOL    HW1 8036   6.637   4.972   0.590
 2379SOL    HW2 8037   6.731   5.098   0.543
 2380SOL     OW 8038   6.137   2.659   5.365
 2380SOL    HW1 8039   6.216   2.670   5.306
 2380SOL    HW2 8040   6.076   2.590   5.327
 2381SOL     OW 8041   2.142   4.687   4.958
 2381SOL    HW1 8042   2.229   4.643   4.936
 2381SOL    HW2 8043   2.158   4.761   5.023
 2382SOL     OW 8044   1.751   5.579   2.596
 2382SOL    HW1 8045   1.845   5.604   2.571
 2382SOL    HW2 8046   1.707   5.656   2.642
 2383SOL     OW 8047   5.447   5.508   5.810
 2383SOL    HW1 8048   5.376   5.576   5.830
 2383SOL    HW2 8049   5.490   5.530   5.723
 2384SOL     OW 8050   0.374   1.793   1.440
 2384SOL    HW1 8051   0.346   1.860   1.508
 2384SOL    HW2 8052   0.306   1.719   1.435
 2385SOL     OW 8053   1.226   2.372   0.236
 2385SOL    HW1 8054   1.128   2.380   0.257
 2385SOL    HW2 8055   1.277   2.357   0.321
 2386SOL     OW 8056   3.174   5.159   4.744
 2386SOL    HW1 8057   3.146   5.196   4.833
 2386SOL    HW2 8058   3.225   5.228   4.694
 2387SOL     OW 8059   6.912   2.893   4.311
 2387SOL    HW1 8060   6.974   2.856   4.241
 2387SOL    HW2 8061   6.864   2.973   4.274
 2388SOL     OW 8062   0.284   2.102   5.871
 2388SOL    HW1 8063   0.206   2.154   5.837
 2388SOL    HW2 8064   0.357   2.104   5.803
 2389SOL     OW 8065   5.218   4.463   4.476
 2389SOL    HW1 8066   5.177   4.515   4.551
 2389SOL    HW2 8067   5.185   4.369   4.477
 2390SOL     OW 8068   4.172   3.484   5.521
 2390SOL    HW1 8069   4.227   3.421   5.576
 2390SOL    HW2 8070   4.199   3.477   5.425
 2391SOL     OW 8071   3.165   3.478   6.359
 2391SOL    HW1 8072   3.153   3.412   6.285
 2391SOL    HW2 8073   3.078   3.523   6.378
 2392SOL     OW 8074   3.575   4.363   5.731
 2392SOL    HW1 8075   3.515   4.442   5.718
 2392SOL    HW2 8076   3.587   4.346   5.828
 2393SOL     OW 8077   3.846   5.736   1.800
 2393SOL    HW1 8078   3.832   5.670   1.873
 2393SOL    HW2 8079   3.757   5.772   1.770
 2394SOL     OW 8080   0.156   4.356   3.823
 2394SOL    HW1 8081   0.129   4.286   3.890
 2394SOL    HW2 8082   0.214   4.315   3.753
 2395SOL     OW 8083   0.563   2.739   6.885
 2395SOL    HW1 8084   0.523   2.661   6.837
 2395SOL    HW2 8085   0.498   2.775   6.951
 2396SOL     OW 8086   5.563   0.400   6.520
 2396SOL    HW1 8087   5.641   0.363   6.470
 2396SOL    HW2 8088   5.586   0.491   6.553
 2397SOL     OW 8089   0.202   4.296   5.978
 2397SOL    HW1 8090   0.232   4.316   6.071
 2397SOL    HW2 8091   0.102   4.284   5.977
 2398SOL     OW 8092   2.853   5.684   4.243
 2398SOL    HW1 8093   2.912   5.621   4.293
 2398SOL    HW2 8094   2.906   5.763   4.214
 2399SOL     OW 8095   3.776   2.103   3.753
 2399SOL    HW1 8096   3.703   2.112   3.685
 2399SOL    HW2 8097   3.864   2.096   3.706
 2400SOL     OW 8098   1.820   3.333   0.634
 2400SOL    HW1 8099   1.759   3.408   0.605
 2400SOL    HW2 8100   1.777   3.284   0.709
 2401SOL     OW 8101   3.825   6.653   4.369
 2401SOL    HW1 8102   3.906   6.595   4.377
 2401SOL    HW2 8103   3.854   6.748   4.353
 2402SOL     OW 8104   0.512   2.465   3.172
 2402SOL    HW1 8105   0.607   2.488   3.192
 2402SOL    HW2 8106   0.504   2.367   3.156
 2403SOL     OW 8107   3.764   3.406   1.133
 2403SOL    HW1 8108   3.784   3.474   1.062
 2403SOL    HW2 8109   3.710   3.332   1.094
 2404SOL     OW 8110   6.197   1.415   1.406
 2404SOL    HW1 8111   6.227   1.472   1.329
 2404SOL    HW2 8112   6.228   1.321   1.392
 2405SOL     OW 8113   2.988   4.797   5.887
 2405SOL    HW1 8114   3.051   4.873   5.902
 2405SOL    HW2 8115   3.030   4.730   5.826
 2406SOL     OW 8116   2.608   0.332   3.898
 2406SOL    HW1 8117   2.511   0.333   3.875
 2406SOL    HW2 8118   2.636   0.238   3.921
 2407SOL     OW 8119   4.432   2.386   3.095
 2407SOL    HW1 8120   4.473   2.448   3.027
 2407SOL    HW2 8121   4.396   2.305   3.048
 2408SOL     OW 8122   2.759   5.568   2.882
 2408SOL    HW1 8123   2.706   5.648   2.855
 2408SOL    HW2 8124   2.731   5.489   2.827
 2409SOL     OW 8125   2.561   2.978   0.656
 2409SOL    HW1 8126   2.573   2.938   0.565
 2409SOL    HW2 8127   2.469   3.017   0.664
 2410SOL     OW 8128   6.527   3.478   5.987
 2410SOL    HW1 8129   6.601   3.436   6.039
 2410SOL    HW2 8130   6.535   3.578   5.991
 2411SOL     OW 8131   2.574   3.940   6.119
 2411SOL    HW1 8132   2.539   4.033   6.106
 2411SOL    HW2 8133   2.650   3.923   6.057
 2412SOL     OW 8134   2.476   2.988   7.008
 2412SOL    HW1 8135   2.533   3.022   0.063
 2412SOL    HW2 8136   2.403   3.053   6.989
 2413SOL     OW 8137   6.485   3.082   6.694
 2413SOL    HW1 8138   6.457   3.117   6.605
 2413SOL    HW2 8139   6.546   3.147   6.739
 2414SOL     OW 8140   5.557   1.645   3.694
 2414SOL    HW1 8141   5.514   1.716   3.638
 2414SOL    HW2 8142   5.653   1.670   3.709
 2415SOL     OW 8143   2.199   6.959   0.372
 2415SOL    HW1 8144   2.108   6.959   0.330
 2415SOL    HW2 8145   2.213   6.873   0.422
 2416SOL     OW 8146   0.855   3.226   3.325
 2416SOL    HW1 8147   0.828   3.313   3.285
 2416SOL    HW2 8148   0.926   3.242   3.395
 2417SOL     OW 8149   4.580   2.603   6.862
 2417SOL    HW1 8150   4.481   2.590   6.854
 2417SOL    HW2 8151   4.602   2.636   6.954
 2418SOL     OW 8152   3.805   3.982   5.537
 2418SOL    HW1 8153   3.779   4.034   5.455
 2418SOL    HW2 8154   3.726   3.931   5.570
 2419SOL     OW 8155   2.277   0.012   4.579
 2419SOL    HW1 8156   2.349   6.962   4.582
 2419SOL    HW2 8157   2.191   6.991   4.549
 2420SOL     OW 8158   3.507   5.540   1.800
 2420SOL    HW1 8159   3.561   5.476   1.855
 2420SOL    HW2 8160   3.503   5.509   1.705
 2421SOL     OW 8161   3.973   6.830   3.801
 2421SOL    HW1 8162   3.940   6.757   3.741
 2421SOL    HW2 8163   3.975   6.797   3.895
 2422SOL     OW 8164   3.975   0.083   0.870
 2422SOL    HW1 8165   3.962   0.036   0.782
 2422SOL    HW2 8166   4.072   0.082   0.894
 2423SOL     OW 8167   1.677   5.342   1.405
 2423SOL    HW1 8168   1.723   5.416   1.455
 2423SOL    HW2 8169   1.653   5.374   1.313
 2424SOL     OW 8170   5.853   6.449   6.813
 2424SOL    HW1 8171   5.913   6.488   6.884
 2424SOL    HW2 8172   5.844   6.351   6.827
 2425SOL     OW 8173   4.722   6.102   5.633
 2425SOL    HW1 8174   4.756   6.155   5.711
 2425SOL    HW2 8175   4.800   6.070   5.579
 2426SOL     OW 8176   0.731   5.571   5.197
 2426SOL    HW1 8177   0.780   5.659   5.196
 2426SOL    HW2 8178   0.731   5.532   5.106
 2427SOL     OW 8179   4.942   6.066   6.465
 2427SOL    HW1 8180   4.907   6.138   6.526
 2427SOL    HW2 8181   4.985   6.109   6.385
 2428SOL     OW 8182   0.298   1.019   2.991
 2428SOL    HW1 8183   0.258   1.073   3.065
 2428SOL    HW2 8184   0.289   0.921   3.012
 2429SOL     OW 8185   5.283   4.547   2.140
 2429SOL    HW1 8186   5.353   4.572   2.207
 2429SOL    HW2 8187   5.197   4.593   2.162
 2430SOL     OW 8188   5.934   2.150   0.518
 2430SOL    HW1 8189   5.947   2.069   0.461
 2430SOL    HW2 8190   5.884   2.124   0.602
 2431SOL     OW 8191   5.914   1.561   1.396
 2431SOL    HW1 8192   5.831   1.518   1.360
 2431SOL    HW2 8193   5.987   1.493   1.402
 2432SOL     OW 8194   3.169   5.957   1.516
 2432SOL    HW1 8195   3.202   6.051   1.518
 2432SOL    HW2 8196   3.193   5.915   1.428
 2433SOL     OW 8197   0.706   6.088   0.167
 2433SOL    HW1 8198   0.738   6.014   0.226
 2433SOL    HW2 8199   0.682   6.168   0.223
 2434SOL     OW 8200   4.819   2.111   2.159
 2434SOL    HW1 8201   4.893   2.054   2.123
 2434SOL    HW2 8202   4.810   2.094   2.258
 2435SOL     OW 8203   5.634   5.617   0.473
 2435SOL    HW1 8204   5.672   5.535   0.429
 2435SOL    HW2 8205   5.669   5.623   0.566
 2436SOL     OW 8206   1.548   1.100   1.477
 2436SOL    HW1 8207   1.492   1.029   1.519
 2436SOL    HW2 8208   1.498   1.143   1.402
 2437SOL     OW 8209   5.748   5.998   1.857
 2437SOL    HW1 8210   5.733   6.093   1.886
 2437SOL    HW2 8211   5.813   5.954   1.919
 2438SOL     OW 8212   4.153   1.729   4.314
 2438SOL    HW1 8213   4.089   1.776   4.376
 2438SOL    HW2 8214   4.150   1.631   4.333
 2439SOL     OW 8215   0.260   5.148   6.575
 2439SOL    HW1 8216   0.196   5.168   6.501
 2439SOL    HW2 8217   0.317   5.228   6.592
 2440SOL     OW 8218   4.644   0.014   5.408
 2440SOL    HW1 8219   4.618   0.108   5.429
 2440SOL    HW2 8220   4.663   6.985   5.493
 2441SOL     OW 8221   5.878   1.081   6.916
 2441SOL    HW1 8222   5.803   1.090   6.850
 2441SOL    HW2 8223   5.840   1.072   7.008
 2442SOL     OW 8224   5.799   4.395   3.054
 2442SOL    HW1 8225   5.870   4.390   2.983
 2442SOL    HW2 8226   5.740   4.315   3.048
 2443SOL     OW 8227   2.730   0.906   6.351
 2443SOL    HW1 8228   2.819   0.950   6.358
 2443SOL    HW2 8229   2.662   0.974   6.324
 2444SOL     OW 8230   4.270   4.761   6.986
 2444SOL    HW1 8231   4.225   4.748   0.055
 2444SOL    HW2 8232   4.248   4.852   6.951
 2445SOL     OW 8233   6.202   1.402   2.050
 2445SOL    HW1 8234   6.197   1.414   1.951
 2445SOL    HW2 8235   6.114   1.370   2.085
 2446SOL     OW 8236   0.905   2.803   3.389
 2446SOL    HW1 8237   0.969   2.735   3.355
 2446SOL    HW2 8238   0.815   2.786   3.348
 2447SOL     OW 8239   2.380   0.516   1.215
 2447SOL    HW1 8240   2.423   0.499   1.126
 2447SOL    HW2 8241   2.291   0.559   1.202
 2448SOL     OW 8242   6.375   1.869   4.192
 2448SOL    HW1 8243   6.368   1.936   4.265
 2448SOL    HW2 8244   6.435   1.794   4.222
 2449SOL     OW 8245   1.218   3.261   1.864
 2449SOL    HW1 8246   1.228   3.183   1.925
 2449SOL    HW2 8247   1.280   3.334   1.894
 2450SOL     OW 8248   2.527   5.308   6.588
 2450SOL    HW1 8249   2.563   5.250   6.661
 2450SOL    HW2 8250   2.579   5.291   6.504
 2451SOL     OW 8251   0.894   0.459   3.161
 2451SOL    HW1 8252   0.965   0.391   3.141
 2451SOL    HW2 8253   0.831   0.423   3.230
 2452SOL     OW 8254   2.986   1.880   3.572
 2452SOL    HW1 8255   2.924   1.849   3.644
 2452SOL    HW2 8256   2.989   1.980   3.571
 2453SOL     OW 8257   6.900   3.312   0.679
 2453SOL    HW1 8258   6.980   3.333   0.622
 2453SOL    HW2 8259   6.868   3.396   0.723
 2454SOL     OW 8260   2.438   6.435   6.914
 2454SOL    HW1 8261   2.515   6.467   6.969
 2454SOL    HW2 8262   2.473   6.374   6.842
 2455SOL     OW 8263   4.171   1.202   0.704
 2455SOL    HW1 8264   4.234   1.272   0.671
 2455SOL    HW2 8265   4.213   1.112   0.694
 2456SOL     OW 8266   0.577   2.499   6.717
 2456SOL    HW1 8267   0.676   2.502   6.725
 2456SOL    HW2 8268   0.551   2.513   6.621
 2457SOL     OW 8269   6.444   1.268   5.482
 2457SOL    HW1 8270   6.375   1.318   5.430
 2457SOL    HW2 8271   6.535   1.303   5.461
 2458SOL     OW 8272   1.128   6.846   3.807
 2458SOL    HW1 8273   1.209   6.810   3.761
 2458SOL    HW2 8274   1.047   6.827   3.751
 2459SOL     OW 8275   3.133   5.817   6.033
 2459SOL    HW1 8276   3.046   5.860   6.058
 2459SOL    HW2 8277   3.115   5.738   5.974
 2460SOL     OW 8278   1.397   1.235   0.803
 2460SOL    HW1 8279   1.304   1.271   0.815
 2460SOL    HW2 8280   1.459   1.309   0.778
 2461SOL     OW 8281   5.206   0.943   4.118
 2461SOL    HW1 8282   5.204   0.870   4.050
 2461SOL    HW2 8283   5.132   1.008   4.100
 2462SOL     OW 8284   2.392   5.128   0.033
 2462SOL    HW1 8285   2.317   5.165   0.088
 2462SOL    HW2 8286   2.389   5.168   6.961
 2463SOL     OW 8287   6.286   1.662   0.069
 2463SOL    HW1 8288   6.314   1.581   0.120
 2463SOL    HW2 8289   6.367   1.706   0.029
 2464SOL     OW 8290   1.689   3.198   3.082
 2464SOL    HW1 8291   1.605   3.247   3.108
 2464SOL    HW2 8292   1.748   3.187   3.163
 2465SOL     OW 8293   0.340   6.394   6.481
 2465SOL    HW1 8294   0.240   6.384   6.481
 2465SOL    HW2 8295   0.369   6.443   6.399
 2466SOL     OW 8296   1.956   1.261   2.684
 2466SOL    HW1 8297   1.901   1.183   2.656
 2466SOL    HW2 8298   1.926   1.343   2.635
 2467SOL     OW 8299   4.736   2.141   5.322
 2467SOL    HW1 8300   4.684   2.055   5.322
 2467SOL    HW2 8301   4.829   2.123   5.291
 2468SOL     OW 8302   4.223   6.716   0.875
 2468SOL    HW1 8303   4.270   6.802   0.893
 2468SOL    HW2 8304   4.247   6.649   0.945
 2469SOL     OW 8305   3.849   3.301   4.798
 2469SOL    HW1 8306   3.900   3.384   4.819
 2469SOL    HW2 8307   3.868   3.232   4.869
 2470SOL     OW 8308   3.821   4.845   5.636
 2470SOL    HW1 8309   3.741   4.799   5.597
 2470SOL    HW2 8310   3.900   4.784   5.630
 2471SOL     OW 8311   3.079   6.110   0.436
 2471SOL    HW1 8312   3.072   6.202   0.396
 2471SOL    HW2 8313   3.175   6.089   0.454
 2472SOL     OW 8314   4.704   2.327   3.165
 2472SOL    HW1 8315   4.622   2.289   3.122
 2472SOL    HW2 8316   4.714   2.288   3.257
 2473SOL     OW 8317   1.376   3.934   4.992
 2473SOL    HW1 8318   1.336   3.907   5.079
 2473SOL    HW2 8319   1.307   3.977   4.935
 2474SOL     OW 8320   0.751   5.970   1.178
 2474SOL    HW1 8321   0.661   5.998   1.146
 2474SOL    HW2 8322   0.767   6.007   1.269
 2475SOL     OW 8323   4.348   1.103   2.459
 2475SOL    HW1 8324   4.361   1.033   2.529
 2475SOL    HW2 8325   4.437   1.134   2.426
 2476SOL     OW 8326   5.402   0.421   1.876
 2476SOL    HW1 8327   5.328   0.372   1.923
 2476SOL    HW2 8328   5.376   0.517   1.865
 2477SOL     OW 8329   4.527   1.008   3.093
 2477SOL    HW1 8330   4.626   1.019   3.106
 2477SOL    HW2 8331   4.492   1.087   3.041
 2478SOL     OW 8332   6.348   1.145   1.437
 2478SOL    HW1 8333   6.434   1.162   1.486
 2478SOL    HW2 8334   6.316   1.053   1.458
 2479SOL     OW 8335   1.144   2.897   2.404
 2479SOL    HW1 8336   1.230   2.922   2.358
 2479SOL    HW2 8337   1.116   2.806   2.374
 2480SOL     OW 8338   4.579   3.513   0.597
 2480SOL    HW1 8339   4.610   3.422   0.570
 2480SOL    HW2 8340   4.551   3.512   0.693
 2481SOL     OW 8341   3.524   6.235   0.793
 2481SOL    HW1 8342   3.604   6.292   0.777
 2481SOL    HW2 8343   3.444   6.277   0.751
 2482SOL     OW 8344   5.194   3.704   6.162
 2482SOL    HW1 8345   5.124   3.637   6.139
 2482SOL    HW2 8346   5.250   3.670   6.238
 2483SOL     OW 8347   1.669   1.886   0.159
 2483SOL    HW1 8348   1.698   1.965   0.104
 2483SOL    HW2 8349   1.573   1.867   0.141
 2484SOL     OW 8350   3.695   0.638   6.893
 2484SOL    HW1 8351   3.682   0.598   6.802
 2484SOL    HW2 8352   3.793   0.646   6.912
 2485SOL     OW 8353   6.048   3.359   1.253
 2485SOL    HW1 8354   6.120   3.332   1.317
 2485SOL    HW2 8355   5.990   3.280   1.233
 2486SOL     OW 8356   1.095   4.942   5.389
 2486SOL    HW1 8357   1.085   4.982   5.298
 2486SOL    HW2 8358   1.086   4.843   5.384
 2487SOL     OW 8359   4.379   6.695   0.598
 2487SOL    HW1 8360   4.342   6.751   0.672
 2487SOL    HW2 8361   4.331   6.608   0.594
 2488SOL     OW 8362   1.153   4.234   2.135
 2488SOL    HW1 8363   1.224   4.290   2.178
 2488SOL    HW2 8364   1.085   4.293   2.092
 2489SOL     OW 8365   0.768   6.410   4.204
 2489SOL    HW1 8366   0.784   6.371   4.295
 2489SOL    HW2 8367   0.809   6.351   4.134
 2490SOL     OW 8368   6.994   5.089   1.013
 2490SOL    HW1 8369   0.039   5.161   1.039
 2490SOL    HW2 8370   6.919   5.086   1.079
 2491SOL     OW 8371   3.070   4.359   0.162
 2491SOL    HW1 8372   3.065   4.457   0.146
 2491SOL    HW2 8373   3.162   4.326   0.138
 2492SOL     OW 8374   4.682   3.810   0.787
 2492SOL    HW1 8375   4.760   3.756   0.815
 2492SOL    HW2 8376   4.597   3.761   0.809
 2493SOL     OW 8377   5.664   0.146   1.980
 2493SOL    HW1 8378   5.627   0.232   2.015
 2493SOL    HW2 8379   5.629   0.070   2.035
 2494SOL     OW 8380   5.566   4.232   2.975
 2494SOL    HW1 8381   5.515   4.206   2.893
 2494SOL    HW2 8382   5.623   4.155   3.004
 2495SOL     OW 8383   5.130   5.955   4.079
 2495SOL    HW1 8384   5.123   5.939   4.178
 2495SOL    HW2 8385   5.224   5.943   4.050
 2496SOL     OW 8386   0.033   2.107   6.478
 2496SOL    HW1 8387   0.021   2.129   6.381
 2496SOL    HW2 8388   0.120   2.144   6.510
 2497SOL     OW 8389   0.150   0.016   0.809
 2497SOL    HW1 8390   0.191   0.027   0.719
 2497SOL    HW2 8391   0.155   0.103   0.858
 2498SOL     OW 8392   3.191   2.136   4.736
 2498SOL    HW1 8393   3.102   2.149   4.694
 2498SOL    HW2 8394   3.190   2.174   4.829
 2499SOL     OW 8395   5.759   2.564   2.558
 2499SOL    HW1 8396   5.672   2.560   2.509
 2499SOL    HW2 8397   5.829   2.603   2.498
 2500SOL     OW 8398   4.016   4.377   6.655
 2500SOL    HW1 8399   4.112   4.372   6.627
 2500SOL    HW2 8400   3.994   4.470   6.683
 2501SOL     OW 8401   5.135   5.329   0.658
 2501SOL    HW1 8402   5.091   5.386   0.727
 2501SOL    HW2 8403   5.066   5.293   0.596
 2502SOL     OW 8404   1.007   0.683   3.544
 2502SOL    HW1 8405   1.003   0.584   3.528
 2502SOL    HW2 8406   1.043   0.699   3.636
 2503SOL     OW 8407   2.270   6.544   4.671
 2503SOL    HW1 8408   2.271   6.620   4.735
 2503SOL    HW2 8409   2.249   6.459   4.719
 2504SOL     OW 8410   3.786   5.378   4.535
 2504SOL    HW1 8411   3.789   5.476   4.557
 2504SOL    HW2 8412   3.826   5.363   4.445
 2505SOL     OW 8413   0.490   6.979   3.326
 2505SOL    HW1 8414   0.564   6.972   3.259
 2505SOL    HW2 8415   0.420   0.022   3.291
 2506SOL     OW 8416   6.433   3.903   5.863
 2506SOL    HW1 8417   6.391   3.815   5.840
 2506SOL    HW2 8418   6.407   3.928   5.956
 2507SOL     OW 8419   6.858   3.185   0.252
 2507SOL    HW1 8420   6.903   3.115   0.198
 2507SOL    HW2 8421   6.800   3.142   0.321
 2508SOL     OW 8422   2.797   1.541   3.379
 2508SOL    HW1 8423   2.859   1.465   3.358
 2508SOL    HW2 8424   2.749   1.568   3.296
 2509SOL     OW 8425   0.098   4.115   0.875
 2509SOL    HW1 8426   0.173   4.073   0.926
 2509SOL    HW2 8427   0.129   4.201   0.835
 2510SOL     OW 8428   3.187   5.215   1.288
 2510SOL    HW1 8429   3.176   5.150   1.213
 2510SOL    HW2 8430   3.129   5.188   1.365
 2511SOL     OW 8431   3.502   1.664   4.197
 2511SOL    HW1 8432   3.402   1.667   4.190
 2511SOL    HW2 8433   3.533   1.570   4.187
 2512SOL     OW 8434   4.606   3.022   5.700
 2512SOL    HW1 8435   4.568   2.999   5.790
 2512SOL    HW2 8436   4.575   3.114   5.674
 2513SOL     OW 8437   1.950   4.055   5.195
 2513SOL    HW1 8438   2.037   4.092   5.227
 2513SOL    HW2 8439   1.943   4.066   5.096
 2514SOL     OW 8440   0.343   3.604   4.952
 2514SOL    HW1 8441   0.274   3.654   4.899
 2514SOL    HW2 8442   0.415   3.668   4.981
 2515SOL     OW 8443   1.173   0.333   1.047
 2515SOL    HW1 8444   1.243   0.348   1.117
 2515SOL    HW2 8445   1.166   0.235   1.028
 2516SOL     OW 8446   5.879   1.855   2.360
 2516SOL    HW1 8447   5.893   1.951   2.332
 2516SOL    HW2 8448   5.959   1.801   2.332
 2517SOL     OW 8449   0.801   6.703   6.022
 2517SOL    HW1 8450   0.857   6.620   6.026
 2517SOL    HW2 8451   0.860   6.783   6.024
 2518SOL     OW 8452   1.416   4.563   6.888
 2518SOL    HW1 8453   1.511   4.561   6.857
 2518SOL    HW2 8454   1.382   4.470   6.897
 2519SOL     OW 8455   3.918   6.414   2.025
 2519SOL    HW1 8456   3.828   6.399   1.984
 2519SOL    HW2 8457   3.989   6.376   1.965
 2520SOL     OW 8458   3.081   1.634   0.494
 2520SOL    HW1 8459   3.033   1.587   0.420
 2520SOL    HW2 8460   3.022   1.706   0.532
 2521SOL     OW 8461   2.886   0.875   5.401
 2521SOL    HW1 8462   2.822   0.936   5.354
 2521SOL    HW2 8463   2.914   0.916   5.488
 2522SOL     OW 8464   1.022   2.705   4.929
 2522SOL    HW1 8465   1.118   2.684   4.943
 2522SOL    HW2 8466   0.966   2.653   4.993
 2523SOL     OW 8467   0.204   3.487   1.172
 2523SOL    HW1 8468   0.182   3.574   1.216
 2523SOL    HW2 8469   0.187   3.412   1.236
 2524SOL     OW 8470   1.012   6.403   5.299
 2524SOL    HW1 8471   0.983   6.482   5.245
 2524SOL    HW2 8472   0.944   6.384   5.370
 2525SOL     OW 8473   1.436   2.387   5.678
 2525SOL    HW1 8474   1.453   2.370   5.775
 2525SOL    HW2 8475   1.486   2.319   5.624
 2526SOL     OW 8476   1.219   4.418   6.379
 2526SOL    HW1 8477   1.255   4.485   6.444
 2526SOL    HW2 8478   1.153   4.358   6.425
 2527SOL     OW 8479   5.454   5.900   5.313
 2527SOL    HW1 8480   5.487   5.972   5.252
 2527SOL    HW2 8481   5.394   5.940   5.382
 2528SOL     OW 8482   6.070   5.043   0.088
 2528SOL    HW1 8483   5.979   5.058   0.127
 2528SOL    HW2 8484   6.062   4.990   0.004
 2529SOL     OW 8485   6.593   5.974   6.428
 2529SOL    HW1 8486   6.689   5.960   6.405
 2529SOL    HW2 8487   6.573   6.072   6.433
 2530SOL     OW 8488   2.812   6.403   5.369
 2530SOL    HW1 8489   2.866   6.321   5.352
 2530SOL    HW2 8490   2.826   6.433   5.464
 2531SOL     OW 8491   5.714   5.770   4.823
 2531SOL    HW1 8492   5.652   5.696   4.798
 2531SOL    HW2 8493   5.708   5.787   4.921
 2532SOL     OW 8494   0.506   5.899   1.038
 2532SOL    HW1 8495   0.484   5.971   1.105
 2532SOL    HW2 8496   0.424   5.878   0.984
 2533SOL     OW 8497   3.067   6.497   4.466
 2533SOL    HW1 8498   3.043   6.553   4.387
 2533SOL    HW2 8499   3.061   6.400   4.441
 2534SOL     OW 8500   3.939   0.622   2.749
 2534SOL    HW1 8501   3.840   0.613   2.734
 2534SOL    HW2 8502   3.976   0.690   2.686
 2535SOL     OW 8503   3.540   2.585   5.405
 2535SOL    HW1 8504   3.565   2.671   5.362
 2535SOL    HW2 8505   3.441   2.572   5.400
 2536SOL     OW 8506   1.467   1.478   4.405
 2536SOL    HW1 8507   1.417   1.552   4.361
 2536SOL    HW2 8508   1.403   1.404   4.428
 2537SOL     OW 8509   3.576   0.227   6.087
 2537SOL    HW1 8510   3.594   0.312   6.037
 2537SOL    HW2 8511   3.646   0.159   6.063
 2538SOL     OW 8512   0.956   4.458   3.120
 2538SOL    HW1 8513   0.908   4.397   3.182
 2538SOL    HW2 8514   0.994   4.405   3.044
 2539SOL     OW 8515   6.249   1.134   4.909
 2539SOL    HW1 8516   6.215   1.172   4.823
 2539SOL    HW2 8517   6.189   1.161   4.984
 2540SOL     OW 8518   3.988   1.833   3.109
 2540SOL    HW1 8519   3.955   1.927   3.120
 2540SOL    HW2 8520   4.032   1.802   3.193
 2541SOL     OW 8521   2.785   0.378   5.048
 2541SOL    HW1 8522   2.860   0.423   5.097
 2541SOL    HW2 8523   2.770   0.424   4.961
 2542SOL     OW 8524   3.504   1.587   5.717
 2542SOL    HW1 8525   3.456   1.664   5.674
 2542SOL    HW2 8526   3.439   1.534   5.772
 2543SOL     OW 8527   1.539   1.159   3.400
 2543SOL    HW1 8528   1.523   1.066   3.366
 2543SOL    HW2 8529   1.454   1.196   3.437
 2544SOL     OW 8530   0.568   6.705   1.377
 2544SOL    HW1 8531   0.473   6.718   1.347
 2544SOL    HW2 8532   0.629   6.712   1.298
 2545SOL     OW 8533   1.247   0.010   1.801
 2545SOL    HW1 8534   1.196   0.004   1.887
 2545SOL    HW2 8535   1.265   6.938   1.765
 2546SOL     OW 8536   0.046   0.954   1.783
 2546SOL    HW1 8537   0.099   1.035   1.757
 2546SOL    HW2 8538   0.108   0.876   1.790
 2547SOL     OW 8539   5.915   5.469   0.529
 2547SOL    HW1 8540   5.857   5.412   0.472
 2547SOL    HW2 8541   6.011   5.441   0.520
 2548SOL     OW 8542   1.532   6.660   6.052
 2548SOL    HW1 8543   1.524   6.740   5.992
 2548SOL    HW2 8544   1.476   6.674   6.134
 2549SOL     OW 8545   2.173   0.493   0.706
 2549SOL    HW1 8546   2.225   0.557   0.762
 2549SOL    HW2 8547   2.230   0.461   0.630
 2550SOL     OW 8548   6.734   0.260   6.875
 2550SOL    HW1 8549   6.722   0.323   6.799
 2550SOL    HW2 8550   6.790   0.303   6.946
 2551SOL     OW 8551   2.834   5.511   0.378
 2551SOL    HW1 8552   2.817   5.599   0.334
 2551SOL    HW2 8553   2.795   5.512   0.470
 2552SOL     OW 8554   1.812   5.414   5.219
 2552SOL    HW1 8555   1.865   5.446   5.140
 2552SOL    HW2 8556   1.725   5.377   5.187
 2553SOL     OW 8557   5.060   3.422   5.807
 2553SOL    HW1 8558   4.989   3.444   5.875
 2553SOL    HW2 8559   5.135   3.375   5.852
 2554SOL     OW 8560   1.658   6.817   0.352
 2554SOL    HW1 8561   1.703   6.906   0.346
 2554SOL    HW2 8562   1.561   6.827   0.330
 2555SOL     OW 8563   5.674   6.947   5.427
 2555SOL    HW1 8564   5.693   0.008   5.370
 2555SOL    HW2 8565   5.683   6.972   5.523
 2556SOL     OW 8566   4.335   6.014   0.637
 2556SOL    HW1 8567   4.267   5.946   0.664
 2556SOL    HW2 8568   4.324   6.096   0.693
 2557SOL     OW 8569   2.533   3.954   0.221
 2557SOL    HW1 8570   2.607   3.935   0.286
 2557SOL    HW2 8571   2.507   4.051   0.229
 2558SOL     OW 8572   5.273   1.833   4.249
 2558SOL    HW1 8573   5.215   1.760   4.214
 2558SOL    HW2 8574   5.366   1.799   4.262
 2559SOL     OW 8575   0.226   3.483   4.002
 2559SOL    HW1 8576   0.297   3.446   4.062
 2559SOL    HW2 8577   0.262   3.560   3.950
 2560SOL     OW 8578   5.712   3.521   4.076
 2560SOL    HW1 8579   5.761   3.499   4.160
 2560SOL    HW2 8580   5.731   3.451   4.007
 2561SOL     OW 8581   3.523   6.239   5.643
 2561SOL    HW1 8582   3.502   6.306   5.572
 2561SOL    HW2 8583   3.558   6.155   5.601
 2562SOL     OW 8584   2.004   5.896   1.880
 2562SOL    HW1 8585   1.974   5.988   1.854
 2562SOL    HW2 8586   2.102   5.897   1.897
 2563SOL     OW 8587   3.925   2.612   0.512
 2563SOL    HW1 8588   3.853   2.664   0.465
 2563SOL    HW2 8589   4.015   2.645   0.483
 2564SOL     OW 8590   2.089   6.105   5.788
 2564SOL    HW1 8591   2.086   6.119   5.689
 2564SOL    HW2 8592   2.014   6.155   5.831
 2565SOL     OW 8593   1.170   0.303   0.014
 2565SOL    HW1 8594   1.150   0.390   6.988
 2565SOL    HW2 8595   1.119   0.230   6.989
 2566SOL     OW 8596   2.795   6.886   0.869
 2566SOL    HW1 8597   2.875   6.883   0.929
 2566SOL    HW2 8598   2.814   6.947   0.792
 2567SOL     OW 8599   0.912   1.140   1.087
 2567SOL    HW1 8600   0.910   1.208   1.160
 2567SOL    HW2 8601   0.874   1.179   1.003
 2568SOL     OW 8602   3.799   0.092   6.753
 2568SOL    HW1 8603   3.851   0.072   6.835
 2568SOL    HW2 8604   3.853   0.150   6.692
 2569SOL     OW 8605   3.011   1.571   1.865
 2569SOL    HW1 8606   3.047   1.646   1.921
 2569SOL    HW2 8607   2.988   1.494   1.925
 2570SOL     OW 8608   5.789   0.027   6.508
 2570SOL    HW1 8609   5.812   6.949   6.504
 2570SOL    HW2 8610   5.701   0.042   6.462
 2571SOL     OW 8611   2.522   4.445   6.237
 2571SOL    HW1 8612   2.614   4.406   6.235
 2571SOL    HW2 8613   2.489   4.450   6.331
 2572SOL     OW 8614   2.664   4.964   0.442
 2572SOL    HW1 8615   2.743   4.908   0.466
 2572SOL    HW2 8616   2.647   4.957   0.344
 2573SOL     OW 8617   6.809   2.313   1.935
 2573SOL    HW1 8618   6.782   2.328   2.031
 2573SOL    HW2 8619   6.800   2.398   1.885
 2574SOL     OW 8620   5.949   4.159   0.697
 2574SOL    HW1 8621   6.001   4.245   0.692
 2574SOL    HW2 8622   6.002   4.092   0.749
 2575SOL     OW 8623   5.066   5.455   1.203
 2575SOL    HW1 8624   5.127   5.385   1.241
 2575SOL    HW2 8625   5.083   5.463   1.105
 2576SOL     OW 8626   4.351   6.393   4.545
 2576SOL    HW1 8627   4.353   6.381   4.446
 2576SOL    HW2 8628   4.443   6.378   4.582
 2577SOL     OW 8629   4.431   6.628   1.696
 2577SOL    HW1 8630   4.425   6.534   1.730
 2577SOL    HW2 8631   4.449   6.690   1.772
 2578SOL     OW 8632   4.586   1.873   5.156
 2578SOL    HW1 8633   4.506   1.890   5.098
 2578SOL    HW2 8634   4.592   1.776   5.178
 2579SOL     OW 8635   1.455   6.064   3.345
 2579SOL    HW1 8636   1.541   6.023   3.314
 2579SOL    HW2 8637   1.417   6.008   3.419
 2580SOL     OW 8638   2.918   4.103   6.203
 2580SOL    HW1 8639   2.999   4.137   6.156
 2580SOL    HW2 8640   2.916   4.138   6.297
 2581SOL     OW 8641   1.520   4.686   1.105
 2581SOL    HW1 8642   1.437   4.648   1.145
 2581SOL    HW2 8643   1.497   4.770   1.055
 2582SOL     OW 8644   0.364   4.169   1.712
 2582SOL    HW1 8645   0.437   4.119   1.664
 2582SOL    HW2 8646   0.381   4.267   1.705
 2583SOL     OW 8647   1.070   1.554   0.018
 2583SOL    HW1 8648   1.158   1.512   7.018
 2583SOL    HW2 8649   0.998   1.504   6.988
 2584SOL     OW 8650   4.132   4.893   5.967
 2584SOL    HW1 8651   4.105   4.963   6.033
 2584SOL    HW2 8652   4.056   4.831   5.952
 2585SOL     OW 8653   4.327   3.129   6.965
 2585SOL    HW1 8654   4.281   3.125   0.034
 2585SOL    HW2 8655   4.290   3.059   6.905
 2586SOL     OW 8656   3.967   1.423   3.112
 2586SOL    HW1 8657   3.976   1.344   3.173
 2586SOL    HW2 8658   3.870   1.445   3.099
 2587SOL     OW 8659   0.045   0.711   2.921
 2587SOL    HW1 8660   0.004   0.639   2.977
 2587SOL    HW2 8661   0.047   0.797   2.972
 2588SOL     OW 8662   5.042   1.386   6.489
 2588SOL    HW1 8663   4.964   1.367   6.430
 2588SOL    HW2 8664   5.091   1.301   6.509
 2589SOL     OW 8665   1.161   6.578   5.861
 2589SOL    HW1 8666   1.183   6.675   5.859
 2589SOL    HW2 8667   1.221   6.529   5.797
 2590SOL     OW 8668   3.074   5.362   0.482
 2590SOL    HW1 8669   3.113   5.450   0.456
 2590SOL    HW2 8670   2.997   5.341   0.421
 2591SOL     OW 8671   6.718   5.003   3.227
 2591SOL    HW1 8672   6.646   4.939   3.201
 2591SOL    HW2 8673   6.704   5.030   3.323
 2592SOL     OW 8674   3.410   5.445   0.020
 2592SOL    HW1 8675   3.379   5.350   0.020
 2592SOL    HW2 8676   3.485   5.456   0.085
 2593SOL     OW 8677   3.754   5.416   0.244
 2593SOL    HW1 8678   3.669   5.369   0.271
 2593SOL    HW2 8679   3.755   5.508   0.284
 2594SOL     OW 8680   1.863   4.717   6.135
 2594SOL    HW1 8681   1.892   4.812   6.150
 2594SOL    HW2 8682   1.843   4.703   6.038
 2595SOL     OW 8683   0.058   0.468   3.745
 2595SOL    HW1 8684   0.001   0.543   3.779
 2595SOL    HW2 8685   0.104   0.423   3.822
 2596SOL     OW 8686   3.358   2.164   1.848
 2596SOL    HW1 8687   3.372   2.140   1.944
 2596SOL    HW2 8688   3.439   2.141   1.795
 2597SOL     OW 8689   0.456   4.995   5.494
 2597SOL    HW1 8690   0.464   4.903   5.533
 2597SOL    HW2 8691   0.367   5.033   5.519
 2598SOL     OW 8692   6.306   1.399   2.858
 2598SOL    HW1 8693   6.219   1.351   2.846
 2598SOL    HW2 8694   6.374   1.334   2.892
 2599SOL     OW 8695   1.317   5.761   0.956
 2599SOL    HW1 8696   1.415   5.754   0.935
 2599SOL    HW2 8697   1.283   5.849   0.924
 2600SOL     OW 8698   5.785   2.870   4.810
 2600SOL    HW1 8699   5.764   2.918   4.896
 2600SOL    HW2 8700   5.713   2.888   4.744
 2601SOL     OW 8701   2.094   1.388   1.972
 2601SOL    HW1 8702   2.153   1.411   2.050
 2601SOL    HW2 8703   2.147   1.392   1.888
 2602SOL     OW 8704   1.181   4.626   5.137
 2602SOL    HW1 8705   1.265   4.591   5.095
 2602SOL    HW2 8706   1.128   4.677   5.070
 2603SOL     OW 8707   3.215   0.614   3.676
 2603SOL    HW1 8708   3.203   0.689   3.611
 2603SOL    HW2 8709   3.201   0.649   3.769
 2604SOL     OW 8710   4.648   2.329   2.469
 2604SOL    HW1 8711   4.559   2.348   2.429
 2604SOL    HW2 8712   4.640   2.257   2.538
 2605SOL     OW 8713   1.827   2.841   3.612
 2605SOL    HW1 8714   1.915   2.843   3.659
 2605SOL    HW2 8715   1.816   2.924   3.558
 2606SOL     OW 8716   5.418   4.864   1.527
 2606SOL    HW1 8717   5.491   4.893   1.465
 2606SOL    HW2 8718   5.333   4.850   1.476
 2607SOL     OW 8719   1.423   1.434   2.070
 2607SOL    HW1 8720   1.518   1.415   2.044
 2607SOL    HW2 8721   1.374   1.348   2.081
 2608SOL     OW 8722   4.135   5.352   0.622
 2608SOL    HW1 8723   4.218   5.380   0.574
 2608SOL    HW2 8724   4.146   5.370   0.720
 2609SOL     OW 8725   6.507   0.910   2.003
 2609SOL    HW1 8726   6.468   0.907   2.095
 2609SOL    HW2 8727   6.530   0.817   1.973
 2610SOL     OW 8728   0.885   4.004   4.298
 2610SOL    HW1 8729   0.860   3.921   4.348
 2610SOL    HW2 8730   0.832   4.081   4.333
 2611SOL     OW 8731   3.899   6.022   0.895
 2611SOL    HW1 8732   3.945   5.933   0.888
 2611SOL    HW2 8733   3.882   6.057   0.803
 2612SOL     OW 8734   6.429   6.548   4.730
 2612SOL    HW1 8735   6.385   6.494   4.802
 2612SOL    HW2 8736   6.359   6.582   4.666
 2613SOL     OW 8737   1.771   5.811   6.198
 2613SOL    HW1 8738   1.732   5.886   6.252
 2613SOL    HW2 8739   1.845   5.848   6.140
 2614SOL     OW 8740   6.417   2.034   0.332
 2614SOL    HW1 8741   6.346   2.005   0.269
 2614SOL    HW2 8742   6.499   2.060   0.281
 2615SOL     OW 8743   0.898   3.014   2.487
 2615SOL    HW1 8744   0.994   2.986   2.493
 2615SOL    HW2 8745   0.841   2.935   2.467
 2616SOL     OW 8746   2.728   2.920   6.049
 2616SOL    HW1 8747   2.669   2.854   6.094
 2616SOL    HW2 8748   2.695   3.013   6.068
 2617SOL     OW 8749   4.333   0.429   0.422
 2617SOL    HW1 8750   4.304   0.517   0.383
 2617SOL    HW2 8751   4.402   0.387   0.363
 2618SOL     OW 8752   6.871   0.257   4.105
 2618SOL    HW1 8753   6.903   0.344   4.141
 2618SOL    HW2 8754   6.928   0.230   4.027
 2619SOL     OW 8755   5.136   1.818   1.627
 2619SOL    HW1 8756   5.140   1.771   1.538
 2619SOL    HW2 8757   5.087   1.760   1.692
 2620SOL     OW 8758   6.916   6.809   3.593
 2620SOL    HW1 8759   6.974   6.875   3.545
 2620SOL    HW2 8760   6.866   6.855   3.667
 2621SOL     OW 8761   0.817   5.201   2.171
 2621SOL    HW1 8762   0.897   5.180   2.114
 2621SOL    HW2 8763   0.776   5.117   2.205
 2622SOL     OW 8764   1.790   3.971   6.040
 2622SOL    HW1 8765   1.825   3.888   5.997
 2622SOL    HW2 8766   1.758   3.950   6.132
 2623SOL     OW 8767   0.701   0.531   5.531
 2623SOL    HW1 8768   0.787   0.532   5.480
 2623SOL    HW2 8769   0.717   0.563   5.624
 2624SOL     OW 8770   0.494   1.415   4.860
 2624SOL    HW1 8771   0.403   1.410   4.902
 2624SOL    HW2 8772   0.484   1.427   4.761
 2625SOL     OW 8773   2.547   3.674   5.944
 2625SOL    HW1 8774   2.576   3.673   6.040
 2625SOL    HW2 8775   2.622   3.705   5.887
 2626SOL     OW 8776   0.002   0.325   6.213
 2626SOL    HW1 8777   0.046   0.414   6.197
 2626SOL    HW2 8778   0.035   0.259   6.146
 2627SOL     OW 8779   1.331   0.927   6.092
 2627SOL    HW1 8780   1.248   0.983   6.083
 2627SOL    HW2 8781   1.305   0.833   6.111
 2628SOL     OW 8782   2.206   4.125   5.325
 2628SOL    HW1 8783   2.205   4.088   5.418
 2628SOL    HW2 8784   2.284   4.088   5.275
 2629SOL     OW 8785   4.045   3.445   2.232
 2629SOL    HW1 8786   4.077   3.519   2.172
 2629SOL    HW2 8787   4.074   3.357   2.195
 2630SOL     OW 8788   3.728   1.424   2.514
 2630SOL    HW1 8789   3.808   1.426   2.574
 2630SOL    HW2 8790   3.744   1.484   2.436
 2631SOL     OW 8791   5.268   0.723   6.346
 2631SOL    HW1 8792   5.357   0.759   6.374
 2631SOL    HW2 8793   5.277   0.680   6.257
 2632SOL     OW 8794   5.593   3.127   0.520
 2632SOL    HW1 8795   5.589   3.119   0.420
 2632SOL    HW2 8796   5.628   3.042   0.559
 2633SOL     OW 8797   0.066   1.516   4.729
 2633SOL    HW1 8798   0.038   1.585   4.797
 2633SOL    HW2 8799   7.012   1.449   4.719
 2634SOL     OW 8800   1.046   5.251   3.584
 2634SOL    HW1 8801   1.144   5.241   3.565
 2634SOL    HW2 8802   1.033   5.305   3.667
 2635SOL     OW 8803   0.241   6.083   4.656
 2635SOL    HW1 8804   0.313   6.061   4.721
 2635SOL    HW2 8805   0.234   6.011   4.587
 2636SOL     OW 8806   4.011   0.464   6.247
 2636SOL    HW1 8807   4.009   0.519   6.330
 2636SOL    HW2 8808   4.057   0.377   6.266
 2637SOL     OW 8809   6.409   2.049   3.992
 2637SOL    HW1 8810   6.398   2.009   3.901
 2637SOL    HW2 8811   6.396   1.977   4.061
 2638SOL     OW 8812   6.724   6.608   4.432
 2638SOL    HW1 8813   6.798   6.575   4.491
 2638SOL    HW2 8814   6.759   6.623   4.340
 2639SOL     OW 8815   6.967   6.226   0.149
 2639SOL    HW1 8816   0.030   6.284   0.153
 2639SOL    HW2 8817   6.983   6.142   0.200
 2640SOL     OW 8818   6.597   6.614   5.301
 2640SOL    HW1 8819   6.556   6.609   5.210
 2640SOL    HW2 8820   6.526   6.631   5.369
 2641SOL     OW 8821   5.523   2.506   2.092
 2641SOL    HW1 8822   5.451   2.564   2.129
 2641SOL    HW2 8823   5.536   2.526   1.995
 2642SOL     OW 8824   6.227   0.118   3.679
 2642SOL    HW1 8825   6.224   0.212   3.713
 2642SOL    HW2 8826   6.204   0.118   3.581
 2643SOL     OW 8827   1.281   3.780   3.544
 2643SOL    HW1 8828   1.368   3.823   3.568
 2643SOL    HW2 8829   1.224   3.774   3.625
 2644SOL     OW 8830   4.986   5.115   4.977
 2644SOL    HW1 8831   4.956   5.207   5.002
 2644SOL    HW2 8832   4.916   5.071   4.920
 2645SOL     OW 8833   4.381   5.200   3.838
 2645SOL    HW1 8834   4.438   5.272   3.801
 2645SOL    HW2 8835   4.438   5.120   3.860
 2646SOL     OW 8836   6.654   2.119   0.179
 2646SOL    HW1 8837   6.723   2.053   0.150
 2646SOL    HW2 8838   6.693   2.212   0.177
 2647SOL     OW 8839   6.413   6.923   1.770
 2647SOL    HW1 8840   6.463   6.892   1.689
 2647SOL    HW2 8841   6.468   6.990   1.819
 2648SOL     OW 8842   0.349   6.111   4.183
 2648SOL    HW1 8843   0.376   6.187   4.242
 2648SOL    HW2 8844   0.424   6.088   4.121
 2649SOL     OW 8845   6.375   3.269   0.948
 2649SOL    HW1 8846   6.394   3.318   1.033
 2649SOL    HW2 8847   6.289   3.218   0.957
 2650SOL     OW 8848   1.649   5.085   3.871
 2650SOL    HW1 8849   1.625   4.989   3.859
 2650SOL    HW2 8850   1.745   5.099   3.846
 2651SOL     OW 8851   2.795   1.954   1.236
 2651SOL    HW1 8852   2.855   1.884   1.274
 2651SOL    HW2 8853   2.778   1.934   1.139
 2652SOL     OW 8854   4.199   3.139   5.442
 2652SOL    HW1 8855   4.183   3.183   5.530
 2652SOL    HW2 8856   4.164   3.199   5.369
 2653SOL     OW 8857   4.566   6.526   5.897
 2653SOL    HW1 8858   4.533   6.495   5.986
 2653SOL    HW2 8859   4.531   6.466   5.825
 2654SOL     OW 8860   4.423   6.903   1.374
 2654SOL    HW1 8861   4.380   6.895   1.464
 2654SOL    HW2 8862   4.520   6.879   1.382
 2655SOL     OW 8863   5.054   5.680   4.081
 2655SOL    HW1 8864   5.077   5.703   4.176
 2655SOL    HW2 8865   5.043   5.763   4.028
 2656SOL     OW 8866   3.313   5.373   4.635
 2656SOL    HW1 8867   3.295   5.434   4.558
 2656SOL    HW2 8868   3.401   5.328   4.622
 2657SOL     OW 8869   1.765   4.028   0.137
 2657SOL    HW1 8870   1.725   3.945   0.176
 2657SOL    HW2 8871   1.706   4.106   0.157
 2658SOL     OW 8872   4.662   4.928   0.421
 2658SOL    HW1 8873   4.749   4.890   0.389
 2658SOL    HW2 8874   4.601   4.854   0.448
 2659SOL     OW 8875   4.868   3.104   5.000
 2659SOL    HW1 8876   4.848   3.009   4.980
 2659SOL    HW2 8877   4.831   3.128   5.090
 2660SOL     OW 8878   1.230   0.291   1.920
 2660SOL    HW1 8879   1.275   0.202   1.918
 2660SOL    HW2 8880   1.200   0.311   2.013
 2661SOL     OW 8881   1.867   6.598   1.371
 2661SOL    HW1 8882   1.909   6.594   1.280
 2661SOL    HW2 8883   1.859   6.506   1.408
 2662SOL     OW 8884   3.162   0.025   4.547
 2662SOL    HW1 8885   3.214   6.970   4.505
 2662SOL    HW2 8886   3.223   0.100   4.570
 2663SOL     OW 8887   4.546   4.180   6.576
 2663SOL    HW1 8888   4.448   4.180   6.598
 2663SOL    HW2 8889   4.558   4.161   6.479
 2664SOL     OW 8890   4.469   3.189   5.324
 2664SOL    HW1 8891   4.379   3.145   5.330
 2664SOL    HW2 8892   4.457   3.288   5.327
 2665SOL     OW 8893   2.625   3.557   5.410
 2665SOL    HW1 8894   2.605   3.637   5.466
 2665SOL    HW2 8895   2.718   3.526   5.427
 2666SOL     OW 8896   1.481   4.492   1.516
 2666SOL    HW1 8897   1.458   4.419   1.451
 2666SOL    HW2 8898   1.497   4.452   1.606
 2667SOL     OW 8899   1.564   5.678   3.637
 2667SOL    HW1 8900   1.628   5.619   3.687
 2667SOL    HW2 8901   1.565   5.769   3.677
 2668SOL     OW 8902   6.312   2.640   4.703
 2668SOL    HW1 8903   6.385   2.608   4.765
 2668SOL    HW2 8904   6.330   2.606   4.611
 2669SOL     OW 8905   2.934   5.340   6.267
 2669SOL    HW1 8906   2.978   5.413   6.319
 2669SOL    HW2 8907   2.982   5.329   6.179
 2670SOL     OW 8908   5.982   2.899   4.614
 2670SOL    HW1 8909   5.914   2.867   4.548
 2670SOL    HW2 8910   5.936   2.922   4.700
 2671SOL     OW 8911   4.654   5.263   6.365
 2671SOL    HW1 8912   4.672   5.212   6.449
 2671SOL    HW2 8913   4.560   5.295   6.365
 2672SOL     OW 8914   2.992   6.470   1.146
 2672SOL    HW1 8915   3.028   6.378   1.158
 2672SOL    HW2 8916   2.892   6.468   1.148
 2673SOL     OW 8917   6.346   2.337   2.107
 2673SOL    HW1 8918   6.418   2.302   2.047
 2673SOL    HW2 8919   6.259   2.297   2.080
 2674SOL     OW 8920   1.139   4.603   4.094
 2674SOL    HW1 8921   1.219   4.577   4.148
 2674SOL    HW2 8922   1.158   4.689   4.046
 2675SOL     OW 8923   6.492   6.035   3.833
 2675SOL    HW1 8924   6.468   6.006   3.926
 2675SOL    HW2 8925   6.561   6.108   3.838
 2676SOL     OW 8926   3.075   3.167   1.322
 2676SOL    HW1 8927   3.070   3.245   1.385
 2676SOL    HW2 8928   2.982   3.138   1.298
 2677SOL     OW 8929   2.654   4.562   1.113
 2677SOL    HW1 8930   2.725   4.631   1.127
 2677SOL    HW2 8931   2.571   4.605   1.078
 2678SOL     OW 8932   0.326   2.882   2.172
 2678SOL    HW1 8933   0.228   2.874   2.191
 2678SOL    HW2 8934   0.377   2.880   2.258
 2679SOL     OW 8935   1.813   4.749   2.380
 2679SOL    HW1 8936   1.812   4.713   2.287
 2679SOL    HW2 8937   1.845   4.844   2.378
 2680SOL     OW 8938   0.972   2.369   0.357
 2680SOL    HW1 8939   1.007   2.342   0.447
 2680SOL    HW2 8940   0.893   2.429   0.369
 2681SOL     OW 8941   1.297   2.085   4.673
 2681SOL    HW1 8942   1.345   2.165   4.711
 2681SOL    HW2 8943   1.253   2.111   4.587
 2682SOL     OW 8944   4.700   4.336   4.127
 2682SOL    HW1 8945   4.774   4.403   4.127
 2682SOL    HW2 8946   4.721   4.262   4.190
 2683SOL     OW 8947   2.524   4.559   1.952
 2683SOL    HW1 8948   2.476   4.647   1.959
 2683SOL    HW2 8949   2.617   4.570   1.986
 2684SOL     OW 8950   4.721   0.140   2.097
 2684SOL    HW1 8951   4.724   0.197   2.180
 2684SOL    HW2 8952   4.651   0.070   2.108
 2685SOL     OW 8953   5.526   5.263   5.877
 2685SOL    HW1 8954   5.503   5.359   5.865
 2685SOL    HW2 8955   5.606   5.239   5.821
 2686SOL     OW 8956   1.134   1.235   5.305
 2686SOL    HW1 8957   1.215   1.285   5.273
 2686SOL    HW2 8958   1.154   1.194   5.394
 2687SOL     OW 8959   4.059   5.729   0.370
 2687SOL    HW1 8960   4.005   5.656   0.413
 2687SOL    HW2 8961   4.041   5.730   0.272
 2688SOL     OW 8962   2.301   2.449   0.421
 2688SOL    HW1 8963   2.335   2.356   0.435
 2688SOL    HW2 8964   2.323   2.504   0.501
 2689SOL     OW 8965   6.674   3.775   2.103
 2689SOL    HW1 8966   6.680   3.857   2.160
 2689SOL    HW2 8967   6.737   3.783   2.025
 2690SOL     OW 8968   3.099   3.317   6.156
 2690SOL    HW1 8969   3.031   3.386   6.135
 2690SOL    HW2 8970   3.087   3.238   6.095
 2691SOL     OW 8971   0.152   4.907   3.810
 2691SOL    HW1 8972   0.147   4.814   3.847
 2691SOL    HW2 8973   0.154   4.903   3.710
 2692SOL     OW 8974   2.580   0.030   3.503
 2692SOL    HW1 8975   2.549   6.954   3.501
 2692SOL    HW2 8976   2.524   0.081   3.568
 2693SOL     OW 8977   2.846   4.751   4.131
 2693SOL    HW1 8978   2.894   4.709   4.054
 2693SOL    HW2 8979   2.757   4.708   4.143
 2694SOL     OW 8980   3.771   6.757   3.331
 2694SOL    HW1 8981   3.728   6.846   3.345
 2694SOL    HW2 8982   3.758   6.700   3.412
 2695SOL     OW 8983   5.493   0.579   2.611
 2695SOL    HW1 8984   5.459   0.672   2.597
 2695SOL    HW2 8985   5.550   0.576   2.693
 2696SOL     OW 8986   4.484   3.542   5.632
 2696SOL    HW1 8987   4.582   3.530   5.647
 2696SOL    HW2 8988   4.463   3.640   5.624
 2697SOL     OW 8989   3.579   1.714   2.571
 2697SOL    HW1 8990   3.537   1.623   2.572
 2697SOL    HW2 8991   3.638   1.722   2.491
 2698SOL     OW 8992   2.218   4.371   0.003
 2698SOL    HW1 8993   2.287   4.435   6.990
 2698SOL    HW2 8994   2.245   4.278   6.999
 2699SOL     OW 8995   2.734   5.879   0.687
 2699SOL    HW1 8996   2.781   5.966   0.700
 2699SOL    HW2 8997   2.660   5.871   0.754
 2700SOL     OW 8998   2.718   1.847   1.006
 2700SOL    HW1 8999   2.632   1.818   1.049
 2700SOL    HW2 9000   2.700   1.873   0.911
 2701SOL     OW 9001   5.457   2.333   6.011
 2701SOL    HW1 9002   5.359   2.336   5.990
 2701SOL    HW2 9003   5.508   2.313   5.928
 2702SOL     OW 9004   0.999   2.610   3.214
 2702SOL    HW1 9005   0.983   2.611   3.115
 2702SOL    HW2 9006   1.091   2.645   3.233
 2703SOL     OW 9007   1.154   5.836   1.401
 2703SOL    HW1 9008   1.189   5.838   1.495
 2703SOL    HW2 9009   1.135   5.929   1.371
 2704SOL     OW 9010   6.584   6.301   2.124
 2704SOL    HW1 9011   6.602   6.249   2.208
 2704SOL    HW2 9012   6.492   6.340   2.129
 2705SOL     OW 9013   6.610   0.369   5.182
 2705SOL    HW1 9014   6.696   0.419   5.195
 2705SOL    HW2 9015   6.533   0.431   5.195
 2706SOL     OW 9016   6.275   4.793   3.439
 2706SOL    HW1 9017   6.213   4.728   3.484
 2706SOL    HW2 9018   6.275   4.879   3.490
 2707SOL     OW 9019   4.120   0.368   4.244
 2707SOL    HW1 9020   4.201   0.352   4.300
 2707SOL    HW2 9021   4.087   0.282   4.205
 2708SOL     OW 9022   6.180   2.717   1.177
 2708SOL    HW1 9023   6.080   2.705   1.172
 2708SOL    HW2 9024   6.216   2.659   1.250
 2709SOL     OW 9025   5.185   6.991   6.578
 2709SOL    HW1 9026   5.214   0.003   6.488
 2709SOL    HW2 9027   5.206   0.042   6.646
 2710SOL     OW 9028   1.439   2.649   3.950
 2710SOL    HW1 9029   1.428   2.727   3.888
 2710SOL    HW2 9030   1.434   2.681   4.045
 2711SOL     OW 9031   2.933   0.939   3.911
 2711SOL    HW1 9032   2.949   1.002   3.835
 2711SOL    HW2 9033   2.865   0.978   3.973
 2712SOL     OW 9034   2.258   5.664   2.186
 2712SOL    HW1 9035   2.270   5.693   2.091
 2712SOL    HW2 9036   2.334   5.698   2.241
 2713SOL     OW 9037   3.124   4.021   6.769
 2713SOL    HW1 9038   3.126   4.064   6.679
 2713SOL    HW2 9039   3.216   3.996   6.797
 2714SOL     OW 9040   3.406   3.340   6.668
 2714SOL    HW1 9041   3.331   3.400   6.638
 2714SOL    HW2 9042   3.486   3.395   6.690
 2715SOL     OW 9043   5.199   2.033   0.318
 2715SOL    HW1 9044   5.251   2.118   0.311
 2715SOL    HW2 9045   5.248   1.969   0.379
 2716SOL     OW 9046   4.893   3.503   3.965
 2716SOL    HW1 9047   4.924   3.532   4.056
 2716SOL    HW2 9048   4.913   3.406   3.952
 2717SOL     OW 9049   0.859   6.891   1.868
 2717SOL    HW1 9050   0.933   6.948   1.902
 2717SOL    HW2 9051   0.834   6.824   1.938
 2718SOL     OW 9052   0.409   1.276   5.256
 2718SOL    HW1 9053   0.407   1.302   5.160
 2718SOL    HW2 9054   0.345   1.201   5.272
 2719SOL     OW 9055   1.215   4.730   1.620
 2719SOL    HW1 9056   1.283   4.675   1.669
 2719SOL    HW2 9057   1.128   4.727   1.668
 2720SOL     OW 9058   1.295   0.157   2.449
 2720SOL    HW1 9059   1.380   0.203   2.476
 2720SOL    HW2 9060   1.217   0.211   2.481
 2721SOL     OW 9061   3.308   6.372   3.265
 2721SOL    HW1 9062   3.265   6.282   3.270
 2721SOL    HW2 9063   3.350   6.383   3.175
 2722SOL     OW 9064   5.306   5.067   6.714
 2722SOL    HW1 9065   5.370   5.105   6.647
 2722SOL    HW2 9066   5.356   5.028   6.791
 2723SOL     OW 9067   1.682   6.044   6.315
 2723SOL    HW1 9068   1.618   6.059   6.240
 2723SOL    HW2 9069   1.636   6.058   6.403
 2724SOL     OW 9070   1.550   6.408   5.947
 2724SOL    HW1 9071   1.543   6.496   5.993
 2724SOL    HW2 9072   1.607   6.346   6.002
 2725SOL     OW 9073   5.222   4.163   5.242
 2725SOL    HW1 9074   5.145   4.227   5.238
 2725SOL    HW2 9075   5.297   4.205   5.292
 2726SOL     OW 9076   0.408   2.608   2.063
 2726SOL    HW1 9077   0.419   2.707   2.074
 2726SOL    HW2 9078   0.497   2.564   2.076
 2727SOL     OW 9079   1.045   3.903   4.049
 2727SOL    HW1 9080   1.063   3.947   3.961
 2727SOL    HW2 9081   0.961   3.939   4.088
 2728SOL     OW 9082   5.088   6.344   5.972
 2728SOL    HW1 9083   5.087   6.252   5.933
 2728SOL    HW2 9084   5.010   6.396   5.937
 2729SOL     OW 9085   6.592   6.398   0.451
 2729SOL    HW1 9086   6.609   6.333   0.377
 2729SOL    HW2 9087   6.666   6.464   0.456
 2730SOL     OW 9088   1.366   6.071   1.835
 2730SOL    HW1 9089   1.329   6.058   1.743
 2730SOL    HW2 9090   1.419   5.990   1.861
 2731SOL     OW 9091   3.022   3.801   3.137
 2731SOL    HW1 9092   3.074   3.781   3.221
 2731SOL    HW2 9093   2.926   3.776   3.151
 2732SOL     OW 9094   5.815   1.709   0.789
 2732SOL    HW1 9095   5.756   1.775   0.835
 2732SOL    HW2 9096   5.860   1.651   0.857
 2733SOL     OW 9097   6.688   1.629   5.308
 2733SOL    HW1 9098   6.786   1.639   5.292
 2733SOL    HW2 9099   6.642   1.716   5.292
 2734SOL     OW 9100   2.603   5.674   1.017
 2734SOL    HW1 9101   2.686   5.629   0.982
 2734SOL    HW2 9102   2.597   5.661   1.116
 2735SOL     OW 9103   1.638   2.186   2.056
 2735SOL    HW1 9104   1.553   2.211   2.102
 2735SOL    HW2 9105   1.626   2.195   1.957
 2736SOL     OW 9106   6.480   5.963   4.947
 2736SOL    HW1 9107   6.401   6.008   4.904
 2736SOL    HW2 9108   6.509   5.886   4.891
 2737SOL     OW 9109   3.120   3.571   5.293
 2737SOL    HW1 9110   3.088   3.481   5.323
 2737SOL    HW2 9111   3.049   3.614   5.237
 2738SOL     OW 9112   6.098   5.928   2.280
 2738SOL    HW1 9113   6.144   5.995   2.222
 2738SOL    HW2 9114   6.106   5.957   2.376
 2739SOL     OW 9115   1.268   4.558   0.838
 2739SOL    HW1 9116   1.360   4.521   0.822
 2739SOL    HW2 9117   1.233   4.597   0.753
 2740SOL     OW 9118   0.027   4.852   1.662
 2740SOL    HW1 9119   7.012   4.759   1.668
 2740SOL    HW2 9120   6.970   4.916   1.674
 2741SOL     OW 9121   6.621   1.250   4.699
 2741SOL    HW1 9122   6.583   1.341   4.679
 2741SOL    HW2 9123   6.586   1.184   4.633
 2742SOL     OW 9124   2.242   5.021   0.383
 2742SOL    HW1 9125   2.295   4.944   0.417
 2742SOL    HW2 9126   2.233   5.090   0.454
 2743SOL     OW 9127   0.131   4.774   2.502
 2743SOL    HW1 9128   0.071   4.738   2.573
 2743SOL    HW2 9129   0.154   4.702   2.437
 2744SOL     OW 9130   4.557   2.971   0.367
 2744SOL    HW1 9131   4.513   3.060   0.355
 2744SOL    HW2 9132   4.525   2.929   0.452
 2745SOL     OW 9133   6.969   1.076   4.852
 2745SOL    HW1 9134   7.011   1.062   4.762
 2745SOL    HW2 9135   7.006   1.009   4.917
 2746SOL     OW 9136   1.089   2.375   4.742
 2746SOL    HW1 9137   1.102   2.397   4.839
 2746SOL    HW2 9138   1.051   2.283   4.734
 2747SOL     OW 9139   4.871   5.624   6.756
 2747SOL    HW1 9140   4.793   5.571   6.723
 2747SOL    HW2 9141   4.888   5.701   6.693
 2748SOL     OW 9142   4.583   1.369   1.888
 2748SOL    HW1 9143   4.659   1.335   1.832
 2748SOL    HW2 9144   4.550   1.455   1.849
 2749SOL     OW 9145   6.812   4.655   1.023
 2749SOL    HW1 9146   6.885   4.712   1.061
 2749SOL    HW2 9147   6.724   4.691   1.053
 2750SOL     OW 9148   2.245   4.098   2.085
 2750SOL    HW1 9149   2.298   4.182   2.080
 2750SOL    HW2 9150   2.235   4.059   1.994
 2751SOL     OW 9151   0.556   2.493   1.684
 2751SOL    HW1 9152   0.646   2.448   1.691
 2751SOL    HW2 9153   0.568   2.585   1.647
 2752SOL     OW 9154   3.229   4.584   6.330
 2752SOL    HW1 9155   3.272   4.508   6.283
 2752SOL    HW2 9156   3.142   4.555   6.370
 2753SOL     OW 9157   6.764   6.452   4.739
 2753SOL    HW1 9158   6.726   6.429   4.829
 2753SOL    HW2 9159   6.764   6.370   4.681
 2754SOL     OW 9160   0.300   0.314   0.644
 2754SOL    HW1 9161   0.356   0.358   0.714
 2754SOL    HW2 9162   0.349   0.236   0.606
 2755SOL     OW 9163   3.946   6.710   2.513
 2755SOL    HW1 9164   3.992   6.792   2.545
 2755SOL    HW2 9165   3.958   6.700   2.415
 2756SOL     OW 9166   4.235   5.987   6.813
 2756SOL    HW1 9167   4.331   5.959   6.814
 2756SOL    HW2 9168   4.229   6.086   6.829
 2757SOL     OW 9169   2.300   6.395   0.260
 2757SOL    HW1 9170   2.321   6.318   0.199
 2757SOL    HW2 9171   2.216   6.375   0.310
 2758SOL     OW 9172   4.502   0.587   3.731
 2758SOL    HW1 9173   4.475   0.682   3.713
 2758SOL    HW2 9174   4.555   0.583   3.815
 2759SOL     OW 9175   5.794   6.412   5.706
 2759SOL    HW1 9176   5.826   6.462   5.626
 2759SOL    HW2 9177   5.820   6.316   5.698
 2760SOL     OW 9178   0.453   5.892   1.943
 2760SOL    HW1 9179   0.471   5.850   2.032
 2760SOL    HW2 9180   0.361   5.931   1.943
 2761SOL     OW 9181   2.107   4.647   4.487
 2761SOL    HW1 9182   2.074   4.608   4.573
 2761SOL    HW2 9183   2.056   4.606   4.411
 2762SOL     OW 9184   1.774   0.884   5.330
 2762SOL    HW1 9185   1.737   0.824   5.259
 2762SOL    HW2 9186   1.868   0.908   5.308
 2763SOL     OW 9187   5.159   1.596   4.088
 2763SOL    HW1 9188   5.109   1.577   4.173
 2763SOL    HW2 9189   5.164   1.513   4.033
 2764SOL     OW 9190   6.262   0.743   1.045
 2764SOL    HW1 9191   6.321   0.672   1.005
 2764SOL    HW2 9192   6.193   0.769   0.977
 2765SOL     OW 9193   5.435   0.369   0.832
 2765SOL    HW1 9194   5.460   0.311   0.754
 2765SOL    HW2 9195   5.518   0.389   0.885
 2766SOL     OW 9196   4.686   2.302   0.297
 2766SOL    HW1 9197   4.782   2.276   0.307
 2766SOL    HW2 9198   4.640   2.238   0.235
 2767SOL     OW 9199   6.659   5.275   6.857
 2767SOL    HW1 9200   6.686   5.213   6.931
 2767SOL    HW2 9201   6.607   5.225   6.788
 2768SOL     OW 9202   4.785   0.395   0.570
 2768SOL    HW1 9203   4.765   0.492   0.563
 2768SOL    HW2 9204   4.784   0.367   0.666
 2769SOL     OW 9205   0.607   4.437   3.841
 2769SOL    HW1 9206   0.584   4.340   3.856
 2769SOL    HW2 9207   0.692   4.443   3.790
 2770SOL     OW 9208   2.729   5.375   5.754
 2770SOL    HW1 9209   2.726   5.468   5.790
 2770SOL    HW2 9210   2.824   5.349   5.734
 2771SOL     OW 9211   6.413   0.664   2.958
 2771SOL    HW1 9212   6.313   0.660   2.959
 2771SOL    HW2 9213   6.443   0.758   2.974
 2772SOL     OW 9214   4.308   1.428   0.628
 2772SOL    HW1 9215   4.380   1.425   0.698
 2772SOL    HW2 9216   4.305   1.520   0.589
 2773SOL     OW 9217   5.975   2.433   5.276
 2773SOL    HW1 9218   5.878   2.452   5.290
 2773SOL    HW2 9219   5.994   2.429   5.178
 2774SOL     OW 9220   6.241   3.700   3.406
 2774SOL    HW1 9221   6.322   3.642   3.408
 2774SOL    HW2 9222   6.161   3.648   3.436
 2775SOL     OW 9223   6.998   5.252   6.713
 2775SOL    HW1 9224   6.945   5.206   6.641
 2775SOL    HW2 9225   0.077   5.241   6.694
 2776SOL     OW 9226   5.008   4.590   5.969
 2776SOL    HW1 9227   5.027   4.686   5.948
 2776SOL    HW2 9228   4.964   4.584   6.058
 2777SOL     OW 9229   2.536   0.792   1.658
 2777SOL    HW1 9230   2.608   0.725   1.639
 2777SOL    HW2 9231   2.568   0.883   1.632
 2778SOL     OW 9232   1.334   0.214   4.974
 2778SOL    HW1 9233   1.274   0.237   5.051
 2778SOL    HW2 9234   1.277   0.192   4.895
 2779SOL     OW 9235   4.975   6.651   1.098
 2779SOL    HW1 9236   5.068   6.636   1.064
 2779SOL    HW2 9237   4.910   6.649   1.022
 2780SOL     OW 9238   6.320   6.295   6.601
 2780SOL    HW1 9239   6.277   6.335   6.682
 2780SOL    HW2 9240   6.285   6.202   6.587
 2781SOL     OW 9241   6.139   5.926   1.768
 2781SOL    HW1 9242   6.106   5.891   1.856
 2781SOL    HW2 9243   6.063   5.965   1.717
 2782SOL     OW 9244   3.565   1.898   5.313
 2782SOL    HW1 9245   3.511   1.849   5.245
 2782SOL    HW2 9246   3.504   1.943   5.379
 2783SOL     OW 9247   5.196   3.618   4.452
 2783SOL    HW1 9248   5.135   3.565   4.394
 2783SOL    HW2 9249   5.291   3.605   4.421
 2784SOL     OW 9250   3.455   2.189   1.241
 2784SOL    HW1 9251   3.369   2.198   1.191
 2784SOL    HW2 9252   3.441   2.211   1.337
 2785SOL     OW 9253   5.674   1.900   0.918
 2785SOL    HW1 9254   5.574   1.898   0.920
 2785SOL    HW2 9255   5.710   1.910   1.011
 2786SOL     OW 9256   4.440   5.816   2.214
 2786SOL    HW1 9257   4.504   5.889   2.242
 2786SOL    HW2 9258   4.482   5.727   2.233
 2787SOL     OW 9259   3.232   1.861   6.744
 2787SOL    HW1 9260   3.275   1.867   6.654
 2787SOL    HW2 9261   3.296   1.891   6.814
 2788SOL     OW 9262   2.310   5.028   6.204
 2788SOL    HW1 9263   2.295   4.949   6.145
 2788SOL    HW2 9264   2.249   5.103   6.178
 2789SOL     OW 9265   1.788   1.967   3.533
 2789SOL    HW1 9266   1.805   1.908   3.453
 2789SOL    HW2 9267   1.863   1.956   3.598
 2790SOL     OW 9268   2.908   5.629   2.273
 2790SOL    HW1 9269   2.999   5.596   2.248
 2790SOL    HW2 9270   2.862   5.665   2.191
 2791SOL     OW 9271   0.781   3.950   3.389
 2791SOL    HW1 9272   0.837   4.025   3.425
 2791SOL    HW2 9273   0.759   3.887   3.464
 2792SOL     OW 9274   1.121   6.442   4.770
 2792SOL    HW1 9275   1.165   6.389   4.843
 2792SOL    HW2 9276   1.028   6.466   4.797
 2793SOL     OW 9277   4.862   3.559   3.460
 2793SOL    HW1 9278   4.838   3.631   3.395
 2793SOL    HW2 9279   4.888   3.601   3.547
 2794SOL     OW 9280   0.301   3.088   0.639
 2794SOL    HW1 9281   0.295   3.183   0.670
 2794SOL    HW2 9282   0.219   3.038   0.668
 2795SOL     OW 9283   1.810   3.030   0.854
 2795SOL    HW1 9284   1.908   3.048   0.847
 2795SOL    HW2 9285   1.788   3.002   0.948
 2796SOL     OW 9286   6.340   5.216   2.718
 2796SOL    HW1 9287   6.289   5.250   2.639
 2796SOL    HW2 9288   6.284   5.228   2.801
 2797SOL     OW 9289   5.318   4.790   4.460
 2797SOL    HW1 9290   5.392   4.791   4.527
 2797SOL    HW2 9291   5.294   4.884   4.436
 2798SOL     OW 9292   1.210   4.897   1.387
 2798SOL    HW1 9293   1.260   4.983   1.399
 2798SOL    HW2 9294   1.237   4.832   1.458
 2799SOL     OW 9295   6.607   6.890   0.423
 2799SOL    HW1 9296   6.611   6.802   0.469
 2799SOL    HW2 9297   6.601   6.963   0.492
 2800SOL     OW 9298   4.703   4.977   0.015
 2800SOL    HW1 9299   4.641   4.984   0.093
 2800SOL    HW2 9300   4.755   5.062   0.006
 2801SOL     OW 9301   5.618   5.306   4.876
 2801SOL    HW1 9302   5.656   5.227   4.829
 2801SOL    HW2 9303   5.691   5.358   4.920
 2802SOL     OW 9304   4.723   1.997   5.971
 2802SOL    HW1 9305   4.735   1.989   5.872
 2802SOL    HW2 9306   4.747   2.090   6.000
 2803SOL     OW 9307   3.141   5.828   6.398
 2803SOL    HW1 9308   3.115   5.912   6.351
 2803SOL    HW2 9309   3.230   5.839   6.441
 2804SOL     OW 9310   0.162   4.450   4.919
 2804SOL    HW1 9311   0.239   4.462   4.856
 2804SOL    HW2 9312   0.157   4.529   4.981
 2805SOL     OW 9313   5.042   2.671   2.172
 2805SOL    HW1 9314   4.971   2.631   2.230
 2805SOL    HW2 9315   5.000   2.724   2.099
 2806SOL     OW 9316   0.032   5.422   4.672
 2806SOL    HW1 9317   0.061   5.403   4.578
 2806SOL    HW2 9318   0.017   5.335   4.719
 2807SOL     OW 9319   4.838   5.492   3.591
 2807SOL    HW1 9320   4.796   5.479   3.501
 2807SOL    HW2 9321   4.909   5.423   3.605
 2808SOL     OW 9322   5.457   3.204   2.690
 2808SOL    HW1 9323   5.500   3.123   2.652
 2808SOL    HW2 9324   5.468   3.204   2.790
 2809SOL     OW 9325   5.673   2.960   1.295
 2809SOL    HW1 9326   5.635   2.996   1.210
 2809SOL    HW2 9327   5.708   3.036   1.350
 2810SOL     OW 9328   3.291   5.586   3.955
 2810SOL    HW1 9329   3.195   5.564   3.974
 2810SOL    HW2 9330   3.346   5.502   3.961
 2811SOL     OW 9331   1.475   1.412   2.942
 2811SOL    HW1 9332   1.541   1.488   2.935
 2811SOL    HW2 9333   1.412   1.416   2.864
 2812SOL     OW 9334   5.138   3.858   0.242
 2812SOL    HW1 9335   5.146   3.843   0.144
 2812SOL    HW2 9336   5.067   3.926   0.260
 2813SOL     OW 9337   6.809   0.156   5.901
 2813SOL    HW1 9338   6.834   0.188   5.992
 2813SOL    HW2 9339   6.740   0.216   5.861
 2814SOL     OW 9340   4.829   3.397   6.485
 2814SOL    HW1 9341   4.871   3.448   6.560
 2814SOL    HW2 9342   4.736   3.428   6.471
 2815SOL     OW 9343   6.095   1.050   5.575
 2815SOL    HW1 9344   6.063   1.143   5.587
 2815SOL    HW2 9345   6.189   1.042   5.609
 2816SOL     OW 9346   6.207   5.549   3.407
 2816SOL    HW1 9347   6.201   5.462   3.456
 2816SOL    HW2 9348   6.116   5.576   3.376
 2817SOL     OW 9349   2.771   0.430   0.999
 2817SOL    HW1 9350   2.713   0.391   1.071
 2817SOL    HW2 9351   2.724   0.506   0.955
 2818SOL     OW 9352   0.032   0.320   0.602
 2818SOL    HW1 9353   7.006   0.371   0.675
 2818SOL    HW2 9354   0.130   0.336   0.605
 2819SOL     OW 9355   0.792   0.875   1.613
 2819SOL    HW1 9356   0.736   0.955   1.636
 2819SOL    HW2 9357   0.735   0.807   1.566
 2820SOL     OW 9358   1.047   2.101   3.290
 2820SOL    HW1 9359   1.135   2.147   3.280
 2820SOL    HW2 9360   0.986   2.129   3.215
 2821SOL     OW 9361   3.954   3.592   6.985
 2821SOL    HW1 9362   3.883   3.581   0.035
 2821SOL    HW2 9363   3.917   3.645   6.908
 2822SOL     OW 9364   4.598   2.153   0.098
 2822SOL    HW1 9365   4.642   2.167   0.009
 2822SOL    HW2 9366   4.591   2.055   0.116
 2823SOL     OW 9367   3.633   6.011   0.294
 2823SOL    HW1 9368   3.710   5.989   0.353
 2823SOL    HW2 9369   3.557   6.044   0.350
 2824SOL     OW 9370   3.183   0.860   3.130
 2824SOL    HW1 9371   3.250   0.919   3.085
 2824SOL    HW2 9372   3.153   0.902   3.215
 2825SOL     OW 9373   6.684   0.456   6.687
 2825SOL    HW1 9374   6.593   0.433   6.653
 2825SOL    HW2 9375   6.744   0.476   6.609
 2826SOL     OW 9376   4.406   1.662   6.655
 2826SOL    HW1 9377   4.341   1.587   6.668
 2826SOL    HW2 9378   4.489   1.644   6.708
 2827SOL     OW 9379   6.355   0.780   5.522
 2827SOL    HW1 9380   6.308   0.783   5.610
 2827SOL    HW2 9381   6.428   0.849   5.520
 2828SOL     OW 9382   3.077   1.341   0.519
 2828SOL    HW1 9383   2.988   1.371   0.483
 2828SOL    HW2 9384   3.112   1.266   0.464
 2829SOL     OW 9385   3.526   3.640   5.765
 2829SOL    HW1 9386   3.465   3.688   5.702
 2829SOL    HW2 9387   3.489   3.644   5.857
 2830SOL     OW 9388   1.373   3.090   6.251
 2830SOL    HW1 9389   1.425   3.168   6.286
 2830SOL    HW2 9390   1.382   3.087   6.151
 2831SOL     OW 9391   0.853   5.430   3.355
 2831SOL    HW1 9392   0.850   5.451   3.257
 2831SOL    HW2 9393   0.940   5.386   3.376
 2832SOL     OW 9394   1.083   0.678   2.188
 2832SOL    HW1 9395   1.118   0.661   2.280
 2832SOL    HW2 9396   1.120   0.763   2.152
 2833SOL     OW 9397   4.255   2.111   2.176
 2833SOL    HW1 9398   4.198   2.044   2.224
 2833SOL    HW2 9399   4.221   2.123   2.082
 2834SOL     OW 9400   2.550   5.713   6.373
 2834SOL    HW1 9401   2.643   5.689   6.345
 2834SOL    HW2 9402   2.521   5.654   6.447
 2835SOL     OW 9403   6.749   0.237   1.632
 2835SOL    HW1 9404   6.652   0.256   1.620
 2835SOL    HW2 9405   6.761   0.144   1.665
 2836SOL     OW 9406   5.861   0.267   2.347
 2836SOL    HW1 9407   5.801   0.208   2.294
 2836SOL    HW2 9408   5.806   0.327   2.406
 2837SOL     OW 9409   5.258   4.080   3.024
 2837SOL    HW1 9410   5.295   3.988   3.034
 2837SOL    HW2 9411   5.316   4.144   3.074
 2838SOL     OW 9412   2.162   4.642   0.764
 2838SOL    HW1 9413   2.186   4.738   0.771
 2838SOL    HW2 9414   2.088   4.630   0.698
 2839SOL     OW 9415   6.506   1.627   1.733
 2839SOL    HW1 9416   6.463   1.661   1.817
 2839SOL    HW2 9417   6.436   1.586   1.674
 2840SOL     OW 9418   2.539   1.083   3.230
 2840SOL    HW1 9419   2.569   1.090   3.135
 2840SOL    HW2 9420   2.564   0.993   3.267
 2841SOL     OW 9421   1.003   0.548   5.897
 2841SOL    HW1 9422   0.949   0.594   5.826
 2841SOL    HW2 9423   0.988   0.592   5.985
 2842SOL     OW 9424   0.036   3.619   4.165
 2842SOL    HW1 9425   0.059   3.568   4.081
 2842SOL    HW2 9426   0.078   3.574   4.244
 2843SOL     OW 9427   2.967   1.201   2.626
 2843SOL    HW1 9428   2.873   1.181   2.600
 2843SOL    HW2 9429   3.016   1.115   2.642
 2844SOL     OW 9430   0.570   5.668   0.393
 2844SOL    HW1 9431   0.552   5.743   0.456
 2844SOL    HW2 9432   0.534   5.583   0.431
 2845SOL     OW 9433   6.592   3.116   1.448
 2845SOL    HW1 9434   6.546   3.195   1.489
 2845SOL    HW2 9435   6.617   3.052   1.521
 2846SOL     OW 9436   4.201   1.165   6.461
 2846SOL    HW1 9437   4.227   1.099   6.532
 2846SOL    HW2 9438   4.245   1.139   6.375
 2847SOL     OW 9439   4.931   3.849   3.993
 2847SOL    HW1 9440   5.008   3.786   3.998
 2847SOL    HW2 9441   4.891   3.847   3.901
 2848SOL     OW 9442   1.678   3.165   5.927
 2848SOL    HW1 9443   1.641   3.134   5.840
 2848SOL    HW2 9444   1.747   3.235   5.911
 2849SOL     OW 9445   3.321   6.635   0.531
 2849SOL    HW1 9446   3.321   6.735   0.523
 2849SOL    HW2 9447   3.267   6.607   0.610
 2850SOL     OW 9448   2.368   0.118   2.465
 2850SOL    HW1 9449   2.411   0.031   2.440
 2850SOL    HW2 9450   2.351   0.119   2.564
 2851SOL     OW 9451   6.683   1.807   5.686
 2851SOL    HW1 9452   6.611   1.772   5.627
 2851SOL    HW2 9453   6.763   1.747   5.680
 2852SOL     OW 9454   5.666   4.849   6.984
 2852SOL    HW1 9455   5.724   4.901   0.027
 2852SOL    HW2 9456   5.711   4.763   6.961
 2853SOL     OW 9457   1.829   2.615   6.887
 2853SOL    HW1 9458   1.878   2.543   6.936
 2853SOL    HW2 9459   1.866   2.704   6.912
 2854SOL     OW 9460   3.983   0.944   4.872
 2854SOL    HW1 9461   3.910   0.890   4.831
 2854SOL    HW2 9462   4.024   0.894   4.948
 2855SOL     OW 9463   2.742   1.117   6.672
 2855SOL    HW1 9464   2.664   1.153   6.722
 2855SOL    HW2 9465   2.730   1.135   6.574
 2856SOL     OW 9466   1.634   2.699   6.041
 2856SOL    HW1 9467   1.702   2.626   6.039
 2856SOL    HW2 9468   1.680   2.788   6.042
 2857SOL     OW 9469   3.257   1.516   2.176
 2857SOL    HW1 9470   3.343   1.467   2.193
 2857SOL    HW2 9471   3.273   1.589   2.109
 2858SOL     OW 9472   5.091   4.359   2.998
 2858SOL    HW1 9473   5.100   4.260   2.994
 2858SOL    HW2 9474   5.181   4.400   3.014
 2859SOL     OW 9475   5.073   2.066   0.081
 2859SOL    HW1 9476   5.077   1.972   0.049
 2859SOL    HW2 9477   5.095   2.069   0.179
 2860SOL     OW 9478   3.418   1.904   1.533
 2860SOL    HW1 9479   3.336   1.883   1.586
 2860SOL    HW2 9480   3.401   1.885   1.436
 2861SOL     OW 9481   3.923   3.674   6.045
 2861SOL    HW1 9482   3.958   3.736   5.974
 2861SOL    HW2 9483   3.857   3.723   6.102
 2862SOL     OW 9484   5.324   1.864   3.054
 2862SOL    HW1 9485   5.336   1.784   3.113
 2862SOL    HW2 9486   5.325   1.947   3.110
 2863SOL     OW 9487   4.890   1.151   0.076
 2863SOL    HW1 9488   4.850   1.239   0.050
 2863SOL    HW2 9489   4.865   1.130   0.170
 2864SOL     OW 9490   4.322   1.194   1.382
 2864SOL    HW1 9491   4.257   1.255   1.427
 2864SOL    HW2 9492   4.379   1.246   1.318
 2865SOL     OW 9493   5.099   4.375   6.628
 2865SOL    HW1 9494   5.198   4.385   6.640
 2865SOL    HW2 9495   5.066   4.298   6.682
 2866SOL     OW 9496   6.312   5.806   6.963
 2866SOL    HW1 9497   6.270   5.844   6.881
 2866SOL    HW2 9498   6.292   5.866   0.022
 2867SOL     OW 9499   5.723   3.585   2.671
 2867SOL    HW1 9500   5.631   3.623   2.675
 2867SOL    HW2 9501   5.728   3.515   2.600
 2868SOL     OW 9502   6.696   2.460   5.438
 2868SOL    HW1 9503   6.792   2.430   5.432
 2868SOL    HW2 9504   6.692   2.545   5.491
 2869SOL     OW 9505   6.756   0.517   3.241
 2869SOL    HW1 9506   6.703   0.436   3.217
 2869SOL    HW2 9507   6.799   0.503   3.331
 2870SOL     OW 9508   6.824   1.058   4.522
 2870SOL    HW1 9509   6.886   0.985   4.550
 2870SOL    HW2 9510   6.844   1.084   4.427
 2871SOL     OW 9511   0.512   1.755   0.328
 2871SOL    HW1 9512   0.555   1.665   0.330
 2871SOL    HW2 9513   0.526   1.801   0.416
 2872SOL     OW 9514   3.193   1.359   2.588
 2872SOL    HW1 9515   3.178   1.421   2.665
 2872SOL    HW2 9516   3.110   1.305   2.573
 2873SOL     OW 9517   6.756   4.961   2.872
 2873SOL    HW1 9518   6.729   4.902   2.948
 2873SOL    HW2 9519   6.705   5.047   2.876
 2874SOL     OW 9520   3.005   6.505   3.474
 2874SOL    HW1 9521   2.988   6.593   3.520
 2874SOL    HW2 9522   3.076   6.455   3.523
 2875SOL     OW 9523   4.756   6.655   0.947
 2875SOL    HW1 9524   4.659   6.640   0.930
 2875SOL    HW2 9525   4.770   6.749   0.979
 2876SOL     OW 9526   0.909   6.993   1.620
 2876SOL    HW1 9527   0.967   0.047   1.654
 2876SOL    HW2 9528   0.868   6.944   1.696
 2877SOL     OW 9529   3.279   2.518   5.340
 2877SOL    HW1 9530   3.247   2.451   5.273
 2877SOL    HW2 9531   3.261   2.610   5.304
 2878SOL     OW 9532   4.480   5.330   4.655
 2878SOL    HW1 9533   4.534   5.279   4.722
 2878SOL    HW2 9534   4.409   5.270   4.617
 2879SOL     OW 9535   5.041   4.840   0.752
 2879SOL    HW1 9536   4.961   4.782   0.744
 2879SOL    HW2 9537   5.124   4.784   0.742
 2880SOL     OW 9538   5.665   6.812   1.797
 2880SOL    HW1 9539   5.586   6.790   1.739
 2880SOL    HW2 9540   5.749   6.789   1.748
 2881SOL     OW 9541   5.311   6.166   6.745
 2881SOL    HW1 9542   5.226   6.168   6.797
 2881SOL    HW2 9543   5.303   6.224   6.664
 2882SOL     OW 9544   0.817   4.569   2.695
 2882SOL    HW1 9545   0.777   4.480   2.719
 2882SOL    HW2 9546   0.798   4.589   2.599
 2883SOL     OW 9547   6.191   6.784   3.737
 2883SOL    HW1 9548   6.291   6.787   3.732
 2883SOL    HW2 9549   6.152   6.834   3.660
 2884SOL     OW 9550   0.870   5.794   2.992
 2884SOL    HW1 9551   0.851   5.804   2.894
 2884SOL    HW2 9552   0.962   5.827   3.011
 2885SOL     OW 9553   0.672   3.178   2.414
 2885SOL    HW1 9554   0.669   3.249   2.485
 2885SOL    HW2 9555   0.745   3.113   2.436
 2886SOL     OW 9556   2.760   4.181   5.994
 2886SOL    HW1 9557   2.670   4.185   6.038
 2886SOL    HW2 9558   2.829   4.157   6.062
 2887SOL     OW 9559   1.017   0.135   4.341
 2887SOL    HW1 9560   0.924   0.156   4.310
 2887SOL    HW2 9561   1.081   0.200   4.299
 2888SOL     OW 9562   0.899   4.315   0.065
 2888SOL    HW1 9563   0.947   4.399   0.037
 2888SOL    HW2 9564   0.935   4.285   0.154
 2889SOL     OW 9565   2.293   6.898   2.158
 2889SOL    HW1 9566   2.273   6.982   2.107
 2889SOL    HW2 9567   2.210   6.842   2.165
 2890SOL     OW 9568   2.376   6.998   0.857
 2890SOL    HW1 9569   2.368   6.921   0.921
 2890SOL    HW2 9570   2.388   6.963   0.765
 2891SOL     OW 9571   1.504   4.140   3.130
 2891SOL    HW1 9572   1.533   4.223   3.177
 2891SOL    HW2 9573   1.419   4.157   3.080
 2892SOL     OW 9574   5.654   3.703   6.787
 2892SOL    HW1 9575   5.574   3.728   6.841
 2892SOL    HW2 9576   5.715   3.782   6.779
 2893SOL     OW 9577   0.221   6.729   4.596
 2893SOL    HW1 9578   0.307   6.693   4.561
 2893SOL    HW2 9579   0.218   6.717   4.695
 2894SOL     OW 9580   2.760   3.155   0.630
 2894SOL    HW1 9581   2.681   3.099   0.653
 2894SOL    HW2 9582   2.731   3.249   0.611
 2895SOL     OW 9583   4.558   2.606   6.172
 2895SOL    HW1 9584   4.494   2.629   6.099
 2895SOL    HW2 9585   4.639   2.562   6.132
 2896SOL     OW 9586   4.081   5.067   6.388
 2896SOL    HW1 9587   4.062   5.070   6.289
 2896SOL    HW2 9588   4.180   5.068   6.402
 2897SOL     OW 9589   3.660   4.939   3.607
 2897SOL    HW1 9590   3.596   4.974   3.675
 2897SOL    HW2 9591   3.621   4.950   3.516
 2898SOL     OW 9592   3.928   5.972   4.338
 2898SOL    HW1 9593   4.011   6.027   4.330
 2898SOL    HW2 9594   3.951   5.875   4.330
 2899SOL     OW 9595   0.856   1.793   0.766
 2899SOL    HW1 9596   0.805   1.710   0.741
 2899SOL    HW2 9597   0.887   1.785   0.860
 2900SOL     OW 9598   2.412   4.887   5.569
 2900SOL    HW1 9599   2.493   4.914   5.518
 2900SOL    HW2 9600   2.430   4.802   5.618
 2901SOL     OW 9601   2.114   6.510   3.613
 2901SOL    HW1 9602   2.135   6.528   3.709
 2901SOL    HW2 9603   2.104   6.411   3.600
 2902SOL     OW 9604   4.893   6.557   1.531
 2902SOL    HW1 9605   4.894   6.467   1.575
 2902SOL    HW2 9606   4.798   6.588   1.520
 2903SOL     OW 9607   2.878   0.953   0.458
 2903SOL    HW1 9608   2.906   0.867   0.415
 2903SOL    HW2 9609   2.784   0.975   0.430
 2904SOL     OW 9610   2.288   3.821   5.293
 2904SOL    HW1 9611   2.268   3.756   5.219
 2904SOL    HW2 9612   2.360   3.883   5.263
 2905SOL     OW 9613   1.012   2.151   3.619
 2905SOL    HW1 9614   1.105   2.115   3.618
 2905SOL    HW2 9615   1.011   2.240   3.573
 2906SOL     OW 9616   4.547   5.707   2.644
 2906SOL    HW1 9617   4.634   5.722   2.597
 2906SOL    HW2 9618   4.487   5.652   2.586
 2907SOL     OW 9619   0.159   1.336   4.230
 2907SOL    HW1 9620   0.247   1.289   4.222
 2907SOL    HW2 9621   0.175   1.432   4.253
 2908SOL     OW 9622   4.740   0.001   4.422
 2908SOL    HW1 9623   4.759   0.095   4.394
 2908SOL    HW2 9624   4.699   6.970   4.345
 2909SOL     OW 9625   0.807   6.938   3.422
 2909SOL    HW1 9626   0.853   6.857   3.386
 2909SOL    HW2 9627   0.736   6.967   3.359
 2910SOL     OW 9628   4.916   6.750   4.568
 2910SOL    HW1 9629   4.859   6.813   4.515
 2910SOL    HW2 9630   4.915   6.777   4.664
 2911SOL     OW 9631   2.160   5.468   3.364
 2911SOL    HW1 9632   2.094   5.476   3.290
 2911SOL    HW2 9633   2.113   5.469   3.452
 2912SOL     OW 9634   4.394   0.084   6.750
 2912SOL    HW1 9635   4.307   0.129   6.773
 2912SOL    HW2 9636   4.465   0.153   6.740
 2913SOL     OW 9637   2.284   4.336   3.179
 2913SOL    HW1 9638   2.307   4.284   3.262
 2913SOL    HW2 9639   2.185   4.352   3.177
 2914SOL     OW 9640   5.999   6.471   5.878
 2914SOL    HW1 9641   5.904   6.472   5.847
 2914SOL    HW2 9642   6.058   6.509   5.806
 2915SOL     OW 9643   5.707   1.878   5.286
 2915SOL    HW1 9644   5.762   1.940   5.341
 2915SOL    HW2 9645   5.700   1.914   5.192
 2916SOL     OW 9646   6.825   6.428   6.384
 2916SOL    HW1 9647   6.833   6.526   6.404
 2916SOL    HW2 9648   6.741   6.392   6.423
 2917SOL     OW 9649   3.691   6.520   2.462
 2917SOL    HW1 9650   3.643   6.556   2.542
 2917SOL    HW2 9651   3.769   6.578   2.440
 2918SOL     OW 9652   6.769   4.091   4.058
 2918SOL    HW1 9653   6.708   4.169   4.045
 2918SOL    HW2 9654   6.716   4.006   4.053
 2919SOL     OW 9655   6.872   0.895   0.785
 2919SOL    HW1 9656   6.884   0.910   0.883
 2919SOL    HW2 9657   6.953   0.927   0.737
 2920SOL     OW 9658   2.714   2.229   1.855
 2920SOL    HW1 9659   2.770   2.296   1.904
 2920SOL    HW2 9660   2.757   2.138   1.861
 2921SOL     OW 9661   1.274   0.779   3.124
 2921SOL    HW1 9662   1.211   0.779   3.201
 2921SOL    HW2 9663   1.360   0.824   3.151
 2922SOL     OW 9664   5.027   6.843   0.655
 2922SOL    HW1 9665   5.008   6.777   0.583
 2922SOL    HW2 9666   5.071   6.924   0.615
 2923SOL     OW 9667   6.776   4.902   2.008
 2923SOL    HW1 9668   6.841   4.827   2.013
 2923SOL    HW2 9669   6.685   4.869   2.034
 2924SOL     OW 9670   0.447   1.945   6.840
 2924SOL    HW1 9671   0.500   1.931   6.924
 2924SOL    HW2 9672   0.381   2.018   6.854
 2925SOL     OW 9673   4.792   0.956   3.141
 2925SOL    HW1 9674   4.867   0.949   3.075
 2925SOL    HW2 9675   4.789   0.873   3.197
 2926SOL     OW 9676   6.894   1.307   4.652
 2926SOL    HW1 9677   6.949   1.224   4.651
 2926SOL    HW2 9678   6.798   1.283   4.668
 2927SOL     OW 9679   1.324   2.102   2.868
 2927SOL    HW1 9680   1.294   2.010   2.893
 2927SOL    HW2 9681   1.255   2.168   2.895
 2928SOL     OW 9682   0.050   2.247   6.257
 2928SOL    HW1 9683   0.127   2.226   6.197
 2928SOL    HW2 9684   6.996   2.290   6.204
 2929SOL     OW 9685   0.609   1.294   6.282
 2929SOL    HW1 9686   0.616   1.362   6.355
 2929SOL    HW2 9687   0.518   1.298   6.241
 2930SOL     OW 9688   4.281   6.502   5.041
 2930SOL    HW1 9689   4.221   6.560   5.096
 2930SOL    HW2 9690   4.322   6.557   4.968
 2931SOL     OW 9691   5.356   5.215   0.778
 2931SOL    HW1 9692   5.278   5.232   0.718
 2931SOL    HW2 9693   5.372   5.295   0.836
 2932SOL     OW 9694   0.953   5.136   1.158
 2932SOL    HW1 9695   0.881   5.074   1.126
 2932SOL    HW2 9696   1.042   5.091   1.150
 2933SOL     OW 9697   6.171   4.220   3.200
 2933SOL    HW1 9698   6.178   4.310   3.157
 2933SOL    HW2 9699   6.102   4.165   3.153
 2934SOL     OW 9700   4.761   1.486   0.420
 2934SOL    HW1 9701   4.681   1.519   0.370
 2934SOL    HW2 9702   4.833   1.461   0.355
 2935SOL     OW 9703   6.255   2.990   1.422
 2935SOL    HW1 9704   6.202   2.913   1.458
 2935SOL    HW2 9705   6.292   3.043   1.498
 2936SOL     OW 9706   3.844   5.212   2.063
 2936SOL    HW1 9707   3.749   5.237   2.081
 2936SOL    HW2 9708   3.873   5.252   1.976
 2937SOL     OW 9709   4.158   4.751   0.250
 2937SOL    HW1 9710   4.216   4.820   0.294
 2937SOL    HW2 9711   4.184   4.660   0.283
 2938SOL     OW 9712   4.995   4.635   6.242
 2938SOL    HW1 9713   4.969   4.731   6.254
 2938SOL    HW2 9714   5.068   4.612   6.307
 2939SOL     OW 9715   0.716   0.436   3.860
 2939SOL    HW1 9716   0.712   0.337   3.850
 2939SOL    HW2 9717   0.798   0.462   3.911
 2940SOL     OW 9718   5.693   5.993   6.552
 2940SOL    HW1 9719   5.642   5.988   6.466
 2940SOL    HW2 9720   5.658   6.069   6.607
 2941SOL     OW 9721   2.305   2.799   4.076
 2941SOL    HW1 9722   2.264   2.883   4.040
 2941SOL    HW2 9723   2.295   2.796   4.175
 2942SOL     OW 9724   3.182   2.356   1.403
 2942SOL    HW1 9725   3.105   2.304   1.439
 2942SOL    HW2 9726   3.268   2.313   1.431
 2943SOL     OW 9727   5.336   4.428   3.066
 2943SOL    HW1 9728   5.432   4.410   3.087
 2943SOL    HW2 9729   5.281   4.414   3.149
 2944SOL     OW 9730   2.922   5.603   5.563
 2944SOL    HW1 9731   2.871   5.527   5.525
 2944SOL    HW2 9732   2.862   5.683   5.571
 2945SOL     OW 9733   3.774   4.101   3.428
 2945SOL    HW1 9734   3.692   4.080   3.375
 2945SOL    HW2 9735   3.755   4.092   3.526
 2946SOL     OW 9736   0.962   5.927   0.019
 2946SOL    HW1 9737   0.968   5.890   6.946
 2946SOL    HW2 9738   1.053   5.957   0.049
 2947SOL     OW 9739   0.660   3.502   6.907
 2947SOL    HW1 9740   0.679   3.599   6.919
 2947SOL    HW2 9741   0.717   3.465   6.833
 2948SOL     OW 9742   6.843   4.593   5.605
 2948SOL    HW1 9743   6.939   4.609   5.628
 2948SOL    HW2 9744   6.836   4.560   5.511
 2949SOL     OW 9745   2.776   5.610   0.647
 2949SOL    HW1 9746   2.848   5.572   0.705
 2949SOL    HW2 9747   2.763   5.707   0.669
 2950SOL     OW 9748   4.909   3.488   4.452
 2950SOL    HW1 9749   4.915   3.540   4.367
 2950SOL    HW2 9750   4.820   3.504   4.495
 2951SOL     OW 9751   6.033   1.807   1.148
 2951SOL    HW1 9752   5.956   1.812   1.211
 2951SOL    HW2 9753   6.075   1.898   1.139
 2952SOL     OW 9754   0.785   5.684   5.465
 2952SOL    HW1 9755   0.735   5.638   5.391
 2952SOL    HW2 9756   0.838   5.616   5.516
 2953SOL     OW 9757   5.162   3.420   3.425
 2953SOL    HW1 9758   5.107   3.415   3.342
 2953SOL    HW2 9759   5.259   3.428   3.400
 2954SOL     OW 9760   0.569   5.356   1.559
 2954SOL    HW1 9761   0.625   5.280   1.592
 2954SOL    HW2 9762   0.625   5.416   1.501
 2955SOL     OW 9763   0.804   4.168   1.455
 2955SOL    HW1 9764   0.876   4.105   1.484
 2955SOL    HW2 9765   0.814   4.188   1.358
 2956SOL     OW 9766   6.200   6.350   3.323
 2956SOL    HW1 9767   6.119   6.380   3.273
 2956SOL    HW2 9768   6.172   6.318   3.414
 2957SOL     OW 9769   6.110   3.089   1.851
 2957SOL    HW1 9770   6.036   3.095   1.784
 2957SOL    HW2 9771   6.081   3.129   1.937
 2958SOL     OW 9772   2.627   4.630   4.584
 2958SOL    HW1 9773   2.606   4.642   4.681
 2958SOL    HW2 9774   2.701   4.691   4.558
 2959SOL     OW 9775   4.791   4.971   0.715
 2959SOL    HW1 9776   4.889   4.971   0.737
 2959SOL    HW2 9777   4.779   4.951   0.618
 2960SOL     OW 9778   4.233   6.928   6.109
 2960SOL    HW1 9779   4.305   6.878   6.061
 2960SOL    HW2 9780   4.185   6.866   6.171
 2961SOL     OW 9781   4.769   2.485   4.444
 2961SOL    HW1 9782   4.815   2.421   4.506
 2961SOL    HW2 9783   4.837   2.548   4.406
 2962SOL     OW 9784   4.356   0.904   3.438
 2962SOL    HW1 9785   4.282   0.841   3.463
 2962SOL    HW2 9786   4.374   0.897   3.340
 2963SOL     OW 9787   1.915   0.981   5.559
 2963SOL    HW1 9788   1.886   0.932   5.477
 2963SOL    HW2 9789   1.897   1.078   5.548
 2964SOL     OW 9790   6.911   0.386   2.686
 2964SOL    HW1 9791   6.850   0.456   2.722
 2964SOL    HW2 9792   6.994   0.429   2.652
 2965SOL     OW 9793   6.914   0.745   4.831
 2965SOL    HW1 9794   6.991   0.683   4.845
 2965SOL    HW2 9795   6.842   0.725   4.897
 2966SOL     OW 9796   6.081   5.536   4.254
 2966SOL    HW1 9797   6.171   5.527   4.211
 2966SOL    HW2 9798   6.091   5.572   4.346
 2967SOL     OW 9799   6.034   1.871   4.583
 2967SOL    HW1 9800   6.079   1.816   4.653
 2967SOL    HW2 9801   6.001   1.956   4.624
 2968SOL     OW 9802   1.007   3.267   6.382
 2968SOL    HW1 9803   1.026   3.288   6.478
 2968SOL    HW2 9804   1.059   3.328   6.323
 2969SOL     OW 9805   5.922   1.041   4.875
 2969SOL    HW1 9806   5.848   0.974   4.870
 2969SOL    HW2 9807   6.000   1.003   4.925
 2970SOL     OW 9808   1.050   4.111   6.232
 2970SOL    HW1 9809   1.017   4.164   6.309
 2970SOL    HW2 9810   0.978   4.103   6.163
 2971SOL     OW 9811   5.974   3.461   6.036
 2971SOL    HW1 9812   6.009   3.463   6.130
 2971SOL    HW2 9813   5.883   3.502   6.034
 2972SOL     OW 9814   6.417   4.362   6.403
 2972SOL    HW1 9815   6.353   4.398   6.336
 2972SOL    HW2 9816   6.504   4.412   6.396
 2973SOL     OW 9817   5.606   0.877   4.423
 2973SOL    HW1 9818   5.580   0.927   4.506
 2973SOL    HW2 9819   5.632   0.941   4.351
 2974SOL     OW 9820   0.681   4.053   2.501
 2974SOL    HW1 9821   0.743   4.118   2.457
 2974SOL    HW2 9822   0.685   3.966   2.452
 2975SOL     OW 9823   0.164   2.089   4.997
 2975SOL    HW1 9824   0.083   2.101   4.940
 2975SOL    HW2 9825   0.232   2.158   4.974
 2976SOL     OW 9826   4.098   2.226   2.988
 2976SOL    HW1 9827   4.084   2.319   2.955
 2976SOL    HW2 9828   4.183   2.189   2.949
 2977SOL     OW 9829   1.744   6.895   3.872
 2977SOL    HW1 9830   1.705   6.858   3.957
 2977SOL    HW2 9831   1.810   6.967   3.894
 2978SOL     OW 9832   4.333   4.667   6.529
 2978SOL    HW1 9833   4.373   4.614   6.603
 2978SOL    HW2 9834   4.401   4.683   6.458
 2979SOL     OW 9835   4.768   0.254   4.258
 2979SOL    HW1 9836   4.683   0.296   4.288
 2979SOL    HW2 9837   4.845   0.314   4.280
 2980SOL     OW 9838   1.109   6.093   3.844
 2980SOL    HW1 9839   1.112   6.010   3.788
 2980SOL    HW2 9840   1.167   6.081   3.924
 2981SOL     OW 9841   1.665   1.546   6.128
 2981SOL    HW1 9842   1.588   1.610   6.126
 2981SOL    HW2 9843   1.709   1.544   6.039
 2982SOL     OW 9844   3.926   6.142   3.038
 2982SOL    HW1 9845   3.975   6.059   3.010
 2982SOL    HW2 9846   3.914   6.142   3.137
 2983SOL     OW 9847   1.026   1.224   4.030
 2983SOL    HW1 9848   0.934   1.186   4.022
 2983SOL    HW2 9849   1.019   1.323   4.048
 2984SOL     OW 9850   5.163   5.477   1.788
 2984SOL    HW1 9851   5.108   5.443   1.712
 2984SOL    HW2 9852   5.135   5.432   1.872
 2985SOL     OW 9853   1.625   2.246   5.519
 2985SOL    HW1 9854   1.644   2.148   5.521
 2985SOL    HW2 9855   1.711   2.297   5.523
 2986SOL     OW 9856   2.172   4.002   6.351
 2986SOL    HW1 9857   2.265   3.967   6.362
 2986SOL    HW2 9858   2.116   3.975   6.429
 2987SOL     OW 9859   5.718   1.159   3.974
 2987SOL    HW1 9860   5.672   1.224   4.035
 2987SOL    HW2 9861   5.655   1.084   3.953
 2988SOL     OW 9862   0.570   6.650   2.764
 2988SOL    HW1 9863   0.507   6.656   2.686
 2988SOL    HW2 9864   0.543   6.574   2.823
 2989SOL     OW 9865   6.949   5.896   0.445
 2989SOL    HW1 9866   7.003   5.820   0.480
 2989SOL    HW2 9867   7.010   5.960   0.397
 2990SOL     OW 9868   4.256   1.675   4.659
 2990SOL    HW1 9869   4.235   1.583   4.693
 2990SOL    HW2 9870   4.220   1.685   4.567
 2991SOL     OW 9871   6.812   4.013   6.143
 2991SOL    HW1 9872   6.715   4.027   6.159
 2991SOL    HW2 9873   6.828   3.990   6.047
 2992SOL     OW 9874   2.113   4.987   5.900
 2992SOL    HW1 9875   2.093   5.084   5.892
 2992SOL    HW2 9876   2.088   4.955   5.991
 2993SOL     OW 9877   0.513   4.938   1.445
 2993SOL    HW1 9878   0.598   4.956   1.494
 2993SOL    HW2 9879   0.513   4.988   1.358
 2994SOL     OW 9880   3.709   6.670   0.351
 2994SOL    HW1 9881   3.639   6.740   0.353
 2994SOL    HW2 9882   3.799   6.712   0.362
 2995SOL     OW 9883   1.868   3.635   6.753
 2995SOL    HW1 9884   1.818   3.619   6.667
 2995SOL    HW2 9885   1.962   3.603   6.743
 2996SOL     OW 9886   1.904   6.978   4.338
 2996SOL    HW1 9887   1.894   6.886   4.299
 2996SOL    HW2 9888   1.939   0.020   4.268
 2997SOL     OW 9889   4.941   0.533   2.491
 2997SOL    HW1 9890   4.955   0.614   2.548
 2997SOL    HW2 9891   5.015   0.526   2.425
 2998SOL     OW 9892   5.155   0.296   4.529
 2998SOL    HW1 9893   5.190   0.211   4.491
 2998SOL    HW2 9894   5.095   0.275   4.607
 2999SOL     OW 9895   3.506   5.032   4.074
 2999SOL    HW1 9896   3.422   5.050   4.125
 2999SOL    HW2 9897   3.537   4.939   4.092
 3000SOL     OW 9898   2.234   4.100   6.974
 3000SOL    HW1 9899   2.287   4.029   7.019
 3000SOL    HW2 9900   2.136   4.081   6.986
 3001SOL     OW 9901   5.498   5.781   6.575
 3001SOL    HW1 9902   5.448   5.816   6.654
 3001SOL    HW2 9903   5.588   5.825   6.571
 3002SOL     OW 9904   4.014   0.042   6.005
 3002SOL    HW1 9905   4.010   0.038   5.905
 3002SOL    HW2 9906   4.098   7.017   6.037
 3003SOL     OW 9907   2.121   0.113   7.017
 3003SOL    HW1 9908   2.040   0.090   6.963
 3003SOL    HW2 9909   2.203   0.080   6.970
 3004SOL     OW 9910   1.346   5.125   3.408
 3004SOL    HW1 9911   1.382   5.213   3.441
 3004SOL    HW2 9912   1.409   5.087   3.341
 3005SOL     OW 9913   3.128   2.263   6.946
 3005SOL    HW1 9914   3.057   2.331   6.962
 3005SOL    HW2 9915   3.089   2.184   6.899
 3006SOL     OW 9916   4.934   2.441   6.522
 3006SOL    HW1 9917   4.859   2.502   6.547
 3006SOL    HW2 9918   4.899   2.367   6.464
 3007SOL     OW 9919   5.574   5.430   1.322
 3007SOL    HW1 9920   5.660   5.479   1.329
 3007SOL    HW2 9921   5.577   5.367   1.245
 3008SOL     OW 9922   3.449   0.628   6.184
 3008SOL    HW1 9923   3.355   0.606   6.210
 3008SOL    HW2 9924   3.450   0.662   6.090
 3009SOL     OW 9925   0.711   0.661   2.869
 3009SOL    HW1 9926   0.789   0.610   2.834
 3009SOL    HW2 9927   0.714   0.661   2.969
 3010SOL     OW 9928   3.092   6.093   3.936
 3010SOL    HW1 9929   3.191   6.109   3.943
 3010SOL    HW2 9930   3.059   6.126   3.848
 3011SOL     OW 9931   5.353   1.423   1.051
 3011SOL    HW1 9932   5.381   1.443   0.957
 3011SOL    HW2 9933   5.423   1.368   1.096
 3012SOL     OW 9934   0.775   3.627   4.952
 3012SOL    HW1 9935   0.701   3.600   5.014
 3012SOL    HW2 9936   0.862   3.621   5.000
 3013SOL     OW 9937   5.518   5.575   4.857
 3013SOL    HW1 9938   5.542   5.619   4.944
 3013SOL    HW2 9939   5.550   5.481   4.857
 3014SOL     OW 9940   5.020   3.150   4.791
 3014SOL    HW1 9941   5.085   3.075   4.799
 3014SOL    HW2 9942   4.947   3.138   4.858
 3015SOL     OW 9943   2.429   2.203   0.426
 3015SOL    HW1 9944   2.508   2.263   0.440
 3015SOL    HW2 9945   2.429   2.132   0.496
 3016SOL     OW 9946   2.797   5.760   3.946
 3016SOL    HW1 9947   2.870   5.793   3.885
 3016SOL    HW2 9948   2.795   5.816   4.029
 3017SOL     OW 9949   0.826   5.238   1.673
 3017SOL    HW1 9950   0.852   5.227   1.577
 3017SOL    HW2 9951   0.903   5.276   1.725
 3018SOL     OW 9952   2.207   6.842   5.718
 3018SOL    HW1 9953   2.108   6.838   5.725
 3018SOL    HW2 9954   2.247   6.760   5.761
 3019SOL     OW 9955   1.645   0.095   0.288
 3019SOL    HW1 9956   1.722   0.068   0.231
 3019SOL    HW2 9957   1.564   0.043   0.261
 3020SOL     OW 9958   4.116   3.629   2.004
 3020SOL    HW1 9959   4.208   3.651   1.972
 3020SOL    HW2 9960   4.055   3.617   1.926
 3021SOL     OW 9961   3.463   0.231   7.015
 3021SOL    HW1 9962   3.486   0.328   7.004
 3021SOL    HW2 9963   3.369   0.215   6.986
 3022SOL     OW 9964   3.920   4.855   4.463
 3022SOL    HW1 9965   3.855   4.921   4.424
 3022SOL    HW2 9966   3.869   4.776   4.498
 3023SOL     OW 9967   4.622   0.303   2.772
 3023SOL    HW1 9968   4.662   0.237   2.709
 3023SOL    HW2 9969   4.527   0.320   2.747
 3024SOL     OW 9970   4.487   6.320   5.730
 3024SOL    HW1 9971   4.530   6.232   5.753
 3024SOL    HW2 9972   4.456   6.317   5.635
 3025SOL     OW 9973   3.640   1.401   0.215
 3025SOL    HW1 9974   3.664   1.498   0.220
 3025SOL    HW2 9975   3.653   1.368   0.122
 3026SOL     OW 9976   1.524   1.488   0.784
 3026SOL    HW1 9977   1.509   1.473   0.881
 3026SOL    HW2 9978   1.442   1.528   0.743
 3027SOL     OW 9979   4.131   0.375   2.505
 3027SOL    HW1 9980   4.119   0.454   2.445
 3027SOL    HW2 9981   4.212   0.390   2.562
 3028SOL     OW 9982   1.711   3.902   5.737
 3028SOL    HW1 9983   1.688   3.854   5.652
 3028SOL    HW2 9984   1.682   3.998   5.730
 3029SOL     OW 9985   0.410   3.535   4.495
 3029SOL    HW1 9986   0.379   3.447   4.532
 3029SOL    HW2 9987   0.499   3.523   4.451
 3030SOL     OW 9988   0.960   2.361   5.878
 3030SOL    HW1 9989   1.019   2.436   5.906
 3030SOL    HW2 9990   0.972   2.342   5.781
 3031SOL     OW 9991   0.659   2.849   0.877
 3031SOL    HW1 9992   0.740   2.839   0.936
 3031SOL    HW2 9993   0.651   2.945   0.849
 3032SOL     OW 9994   4.472   6.370   1.818
 3032SOL    HW1 9995   4.453   6.278   1.852
 3032SOL    HW2 9996   4.517   6.365   1.729
 3033SOL     OW 9997   0.039   2.291   1.796
 3033SOL    HW1 9998   6.987   2.283   1.866
 3033SOL    HW2 9999   0.128   2.306   1.840
 3034SOL     OW10000   1.972   5.496   3.616
 3034SOL    HW110001   2.015   5.533   3.699
 3034SOL    HW210002   1.908   5.564   3.579
 3035SOL     OW10003   0.390   3.342   0.430
 3035SOL    HW110004   0.394   3.259   0.375
 3035SOL    HW210005   0.348   3.322   0.518
 3036SOL     OW10006   1.796   2.692   6.639
 3036SOL    HW110007   1.750   2.778   6.661
 3036SOL    HW210008   1.815   2.642   6.723
 3037SOL     OW10009   1.211   5.967   4.709
 3037SOL    HW110010   1.303   5.998   4.683
 3037SOL    HW210011   1.142   6.021   4.661
 3038SOL     OW10012   5.602   5.783   6.078
 3038SOL    HW110013   5.566   5.847   6.146
 3038SOL    HW210014   5.605   5.828   5.988
 3039SOL     OW10015   0.072   4.164   1.399
 3039SOL    HW110016   0.166   4.189   1.422
 3039SOL    HW210017   0.020   4.247   1.378
 3040SOL     OW10018   4.196   3.235   6.171
 3040SOL    HW110019   4.121   3.174   6.195
 3040SOL    HW210020   4.220   3.290   6.251
 3041SOL     OW10021   2.230   2.994   4.815
 3041SOL    HW110022   2.314   2.963   4.860
 3041SOL    HW210023   2.243   2.990   4.716
 3042SOL     OW10024   5.012   6.329   2.154
 3042SOL    HW110025   5.023   6.239   2.196
 3042SOL    HW210026   5.091   6.349   2.096
 3043SOL     OW10027   0.930   5.834   1.742
 3043SOL    HW110028   0.989   5.779   1.801
 3043SOL    HW210029   0.835   5.825   1.770
 3044SOL     OW10030   3.158   4.159   6.040
 3044SOL    HW110031   3.234   4.217   6.067
 3044SOL    HW210032   3.192   4.081   5.987
 3045SOL     OW10033   4.853   1.212   3.157
 3045SOL    HW110034   4.831   1.115   3.166
 3045SOL    HW210035   4.769   1.265   3.147
 3046SOL     OW10036   2.559   1.817   6.533
 3046SOL    HW110037   2.485   1.779   6.587
 3046SOL    HW210038   2.522   1.880   6.465
 3047SOL     OW10039   4.917   0.003   2.452
 3047SOL    HW110040   4.922   6.923   2.464
 3047SOL    HW210041   4.974   0.048   2.520
 3048SOL     OW10042   3.936   2.339   1.710
 3048SOL    HW110043   3.952   2.437   1.699
 3048SOL    HW210044   3.870   2.325   1.783
 3049SOL     OW10045   0.841   6.351   1.650
 3049SOL    HW110046   0.892   6.268   1.669
 3049SOL    HW210047   0.905   6.426   1.631
 3050SOL     OW10048   3.089   0.795   2.395
 3050SOL    HW110049   3.069   0.754   2.306
 3050SOL    HW210050   3.185   0.824   2.397
 3051SOL     OW10051   1.948   4.383   6.938
 3051SOL    HW110052   1.894   4.411   7.017
 3051SOL    HW210053   2.044   4.375   6.965
 3052SOL     OW10054   5.203   0.122   2.219
 3052SOL    HW110055   5.195   0.130   2.319
 3052SOL    HW210056   5.225   0.211   2.181
 3053SOL     OW10057   0.053   1.838   6.855
 3053SOL    HW110058   0.040   1.800   6.947
 3053SOL    HW210059   0.120   1.782   6.805
 3054SOL     OW10060   6.711   2.516   1.483
 3054SOL    HW110061   6.786   2.462   1.521
 3054SOL    HW210062   6.715   2.513   1.383
 3055SOL     OW10063   5.217   6.860   4.016
 3055SOL    HW110064   5.183   6.780   4.064
 3055SOL    HW210065   5.317   6.859   4.016
 3056SOL     OW10066   6.297   1.420   5.305
 3056SOL    HW110067   6.344   1.467   5.230
 3056SOL    HW210068   6.243   1.487   5.357
 3057SOL     OW10069   4.096   5.866   3.482
 3057SOL    HW110070   4.169   5.912   3.432
 3057SOL    HW210071   4.135   5.819   3.562
 3058SOL     OW10072   6.942   5.578   0.705
 3058SOL    HW110073   6.849   5.576   0.667
 3058SOL    HW210074   6.967   5.672   0.727
 3059SOL     OW10075   2.645   2.325   4.239
 3059SOL    HW110076   2.611   2.414   4.211
 3059SOL    HW210077   2.744   2.320   4.222
 3060SOL     OW10078   0.788   5.856   0.306
 3060SOL    HW110079   0.871   5.823   0.262
 3060SOL    HW210080   0.716   5.787   0.298
 3061SOL     OW10081   5.649   0.387   5.603
 3061SOL    HW110082   5.560   0.404   5.644
 3061SOL    HW210083   5.645   0.406   5.505
 3062SOL     OW10084   1.388   6.633   6.831
 3062SOL    HW110085   1.443   6.551   6.846
 3062SOL    HW210086   1.421   6.707   6.889
 3063SOL     OW10087   2.911   5.405   1.552
 3063SOL    HW110088   2.843   5.334   1.535
 3063SOL    HW210089   2.928   5.412   1.650
 3064SOL     OW10090   5.284   3.897   3.840
 3064SOL    HW110091   5.288   3.974   3.902
 3064SOL    HW210092   5.376   3.866   3.817
 3065SOL     OW10093   2.056   0.994   0.040
 3065SOL    HW110094   2.079   1.068   6.996
 3065SOL    HW210095   2.140   0.946   0.066
 3066SOL     OW10096   4.776   5.178   1.038
 3066SOL    HW110097   4.718   5.099   1.015
 3066SOL    HW210098   4.860   5.145   1.081
 3067SOL     OW10099   3.834   2.057   4.592
 3067SOL    HW110100   3.794   1.989   4.654
 3067SOL    HW210101   3.929   2.074   4.619
 3068SOL     OW10102   5.673   6.675   1.436
 3068SOL    HW110103   5.695   6.586   1.477
 3068SOL    HW210104   5.747   6.704   1.376
 3069SOL     OW10105   6.731   6.251   1.915
 3069SOL    HW110106   6.812   6.310   1.913
 3069SOL    HW210107   6.676   6.275   1.995
 3070SOL     OW10108   1.082   1.090   2.105
 3070SOL    HW110109   1.060   1.183   2.074
 3070SOL    HW210110   1.003   1.052   2.154
 3071SOL     OW10111   6.155   6.039   3.167
 3071SOL    HW110112   6.194   6.112   3.112
 3071SOL    HW210113   6.179   5.950   3.126
 3072SOL     OW10114   1.086   6.945   0.306
 3072SOL    HW110115   1.080   0.014   0.351
 3072SOL    HW210116   1.059   6.955   0.210
 3073SOL     OW10117   6.877   3.207   5.003
 3073SOL    HW110118   6.940   3.131   4.987
 3073SOL    HW210119   6.925   3.294   4.987
 3074SOL     OW10120   5.226   3.576   0.890
 3074SOL    HW110121   5.249   3.652   0.829
 3074SOL    HW210122   5.203   3.495   0.836
 3075SOL     OW10123   2.429   5.960   1.537
 3075SOL    HW110124   2.384   5.999   1.617
 3075SOL    HW210125   2.465   6.033   1.479
 3076SOL     OW10126   7.001   0.863   4.291
 3076SOL    HW110127   6.986   0.837   4.387
 3076SOL    HW210128   0.058   0.812   4.254
 3077SOL     OW10129   4.748   5.353   2.638
 3077SOL    HW110130   4.790   5.373   2.726
 3077SOL    HW210131   4.656   5.316   2.652
 3078SOL     OW10132   1.037   3.399   1.693
 3078SOL    HW110133   1.023   3.475   1.757
 3078SOL    HW210134   1.109   3.339   1.728
 3079SOL     OW10135   2.260   1.907   4.660
 3079SOL    HW110136   2.321   1.984   4.679
 3079SOL    HW210137   2.297   1.853   4.585
 3080SOL     OW10138   4.937   3.894   3.505
 3080SOL    HW110139   4.884   3.845   3.436
 3080SOL    HW210140   5.034   3.888   3.482
 3081SOL     OW10141   0.655   2.556   5.836
 3081SOL    HW110142   0.744   2.600   5.843
 3081SOL    HW210143   0.661   2.464   5.874
 3082SOL     OW10144   3.427   6.825   4.156
 3082SOL    HW110145   3.520   6.853   4.134
 3082SOL    HW210146   3.424   6.725   4.165
 3083SOL     OW10147   4.721   6.637   3.446
 3083SOL    HW110148   4.670   6.706   3.394
 3083SOL    HW210149   4.667   6.608   3.524
 3084SOL     OW10150   5.106   4.167   4.620
 3084SOL    HW110151   5.123   4.173   4.522
 3084SOL    HW210152   5.097   4.258   4.659
 3085SOL     OW10153   0.310   4.772   1.474
 3085SOL    HW110154   0.312   4.712   1.554
 3085SOL    HW210155   0.392   4.830   1.475
 3086SOL     OW10156   3.812   2.007   2.218
 3086SOL    HW110157   3.766   2.069   2.154
 3086SOL    HW210158   3.835   2.056   2.302
 3087SOL     OW10159   1.195   5.045   3.758
 3087SOL    HW110160   1.099   5.059   3.731
 3087SOL    HW210161   1.217   5.106   3.835
 3088SOL     OW10162   2.516   4.913   5.889
 3088SOL    HW110163   2.589   4.899   5.822
 3088SOL    HW210164   2.453   4.835   5.886
 3089SOL     OW10165   1.153   3.445   0.457
 3089SOL    HW110166   1.170   3.429   0.360
 3089SOL    HW210167   1.184   3.366   0.510
 3090SOL     OW10168   2.111   1.876   2.013
 3090SOL    HW110169   2.121   1.777   2.023
 3090SOL    HW210170   2.018   1.898   1.984
 3091SOL     OW10171   1.117   0.005   0.729
 3091SOL    HW110172   1.034   0.022   0.676
 3091SOL    HW210173   1.184   6.977   0.672
 3092SOL     OW10174   4.949   6.628   0.493
 3092SOL    HW110175   4.975   6.584   0.407
 3092SOL    HW210176   4.982   6.573   0.570
 3093SOL     OW10177   5.026   6.074   5.990
 3093SOL    HW110178   5.045   6.007   6.062
 3093SOL    HW210179   4.932   6.106   5.998
 3094SOL     OW10180   2.192   6.440   4.230
 3094SOL    HW110181   2.216   6.521   4.282
 3094SOL    HW210182   2.107   6.401   4.266
 3095SOL     OW10183   1.954   5.522   5.004
 3095SOL    HW110184   1.928   5.504   4.909
 3095SOL    HW210185   2.049   5.553   5.006
 3096SOL     OW10186   1.360   6.534   4.936
 3096SOL    HW110187   1.410   6.584   4.865
 3096SOL    HW210188   1.298   6.598   4.983
 3097SOL     OW10189   0.364   2.744   0.731
 3097SOL    HW110190   0.278   2.736   0.781
 3097SOL    HW210191   0.390   2.841   0.725
 3098SOL     OW10192   3.214   3.270   0.800
 3098SOL    HW110193   3.241   3.290   0.894
 3098SOL    HW210194   3.147   3.195   0.799
 3099SOL     OW10195   0.618   6.551   3.487
 3099SOL    HW110196   0.714   6.525   3.487
 3099SOL    HW210197   0.582   6.545   3.580
 3100SOL     OW10198   6.390   6.928   5.047
 3100SOL    HW110199   6.397   6.832   5.074
 3100SOL    HW210200   6.362   6.934   4.952
 3101SOL     OW10201   4.871   6.507   5.920
 3101SOL    HW110202   4.824   6.539   5.837
 3101SOL    HW210203   4.804   6.470   5.984
 3102SOL     OW10204   0.188   5.018   2.627
 3102SOL    HW110205   0.136   4.937   2.598
 3102SOL    HW210206   0.218   5.006   2.722
 3103SOL     OW10207   3.750   0.803   1.853
 3103SOL    HW110208   3.659   0.764   1.867
 3103SOL    HW210209   3.780   0.848   1.937
 3104SOL     OW10210   5.138   6.379   4.995
 3104SOL    HW110211   5.047   6.367   4.954
 3104SOL    HW210212   5.130   6.373   5.094
 3105SOL     OW10213   6.239   4.374   1.592
 3105SOL    HW110214   6.295   4.315   1.534
 3105SOL    HW210215   6.157   4.403   1.542
 3106SOL     OW10216   5.528   1.420   2.574
 3106SOL    HW110217   5.543   1.413   2.673
 3106SOL    HW210218   5.554   1.511   2.543
 3107SOL     OW10219   4.011   0.781   4.315
 3107SOL    HW110220   3.981   0.876   4.310
 3107SOL    HW210221   4.104   0.773   4.278
 3108SOL     OW10222   1.144   0.211   4.568
 3108SOL    HW110223   1.100   0.180   4.483
 3108SOL    HW210224   1.237   0.241   4.547
 3109SOL     OW10225   5.608   6.288   2.064
 3109SOL    HW110226   5.597   6.344   1.982
 3109SOL    HW210227   5.583   6.342   2.144
 3110SOL     OW10228   1.716   1.711   3.805
 3110SOL    HW110229   1.739   1.735   3.711
 3110SOL    HW210230   1.671   1.621   3.807
 3111SOL     OW10231   6.253   6.073   4.148
 3111SOL    HW110232   6.260   5.975   4.128
 3111SOL    HW210233   6.342   6.107   4.176
 3112SOL     OW10234   5.280   2.710   6.270
 3112SOL    HW110235   5.271   2.615   6.302
 3112SOL    HW210236   5.363   2.750   6.307
 3113SOL     OW10237   1.910   6.338   3.926
 3113SOL    HW110238   1.998   6.293   3.914
 3113SOL    HW210239   1.840   6.271   3.947
 3114SOL     OW10240   3.832   2.056   6.955
 3114SOL    HW110241   3.829   2.024   6.860
 3114SOL    HW210242   3.795   2.148   6.960
 3115SOL     OW10243   4.231   3.051   6.431
 3115SOL    HW110244   4.303   3.029   6.497
 3115SOL    HW210245   4.224   3.150   6.421
 3116SOL     OW10246   0.353   3.617   6.836
 3116SOL    HW110247   0.294   3.679   6.887
 3116SOL    HW210248   0.298   3.545   6.794
 3117SOL     OW10249   4.255   3.425   5.264
 3117SOL    HW110250   4.345   3.464   5.282
 3117SOL    HW210251   4.231   3.440   5.168
 3118SOL     OW10252   0.447   4.422   0.597
 3118SOL    HW110253   0.448   4.512   0.554
 3118SOL    HW210254   0.536   4.405   0.639
 3119SOL     OW10255   2.050   3.312   5.476
 3119SOL    HW110256   2.127   3.321   5.413
 3119SOL    HW210257   1.986   3.388   5.461
 3120SOL     OW10258   2.840   6.780   3.835
 3120SOL    HW110259   2.879   6.872   3.835
 3120SOL    HW210260   2.745   6.783   3.867
 3121SOL     OW10261   0.041   1.567   2.594
 3121SOL    HW110262   0.123   1.622   2.605
 3121SOL    HW210263   0.063   1.471   2.606
 3122SOL     OW10264   3.108   6.166   5.928
 3122SOL    HW110265   3.192   6.121   5.897
 3122SOL    HW210266   3.060   6.205   5.850
 3123SOL     OW10267   3.779   1.189   4.310
 3123SOL    HW110268   3.878   1.183   4.320
 3123SOL    HW210269   3.745   1.105   4.267
 3124SOL     OW10270   4.446   6.572   4.783
 3124SOL    HW110271   4.425   6.668   4.769
 3124SOL    HW210272   4.385   6.516   4.727
 3125SOL     OW10273   6.893   2.226   5.112
 3125SOL    HW110274   6.817   2.174   5.151
 3125SOL    HW210275   6.979   2.194   5.152
 3126SOL     OW10276   4.531   4.697   6.339
 3126SOL    HW110277   4.608   4.634   6.327
 3126SOL    HW210278   4.565   4.784   6.377
 3127SOL     OW10279   0.775   3.081   3.618
 3127SOL    HW110280   0.855   3.024   3.599
 3127SOL    HW210281   0.692   3.026   3.612
 3128SOL     OW10282   1.993   0.636   6.440
 3128SOL    HW110283   1.955   0.550   6.473
 3128SOL    HW210284   1.920   0.705   6.434
 3129SOL     OW10285   0.413   4.277   6.449
 3129SOL    HW110286   0.362   4.254   6.366
 3129SOL    HW210287   0.507   4.302   6.424
 3130SOL     OW10288   1.440   4.383   1.780
 3130SOL    HW110289   1.540   4.386   1.776
 3130SOL    HW210290   1.411   4.296   1.821
 3131SOL     OW10291   6.774   2.555   1.830
 3131SOL    HW110292   6.842   2.627   1.842
 3131SOL    HW210293   6.687   2.595   1.802
 3132SOL     OW10294   4.162   5.130   5.827
 3132SOL    HW110295   4.213   5.197   5.881
 3132SOL    HW210296   4.162   5.042   5.874
 3133SOL     OW10297   3.194   2.083   3.685
 3133SOL    HW110298   3.231   1.991   3.673
 3133SOL    HW210299   3.258   2.139   3.739
 3134SOL     OW10300   4.715   4.092   1.458
 3134SOL    HW110301   4.706   4.109   1.556
 3134SOL    HW210302   4.793   4.142   1.422
 3135SOL     OW10303   5.086   0.910   5.104
 3135SOL    HW110304   5.075   0.873   5.196
 3135SOL    HW210305   5.182   0.938   5.091
 3136SOL     OW10306   5.124   0.706   0.184
 3136SOL    HW110307   5.089   0.730   0.274
 3136SOL    HW210308   5.138   0.789   0.130
 3137SOL     OW10309   6.527   0.211   3.404
 3137SOL    HW110310   6.536   0.283   3.473
 3137SOL    HW210311   6.518   0.252   3.313
 3138SOL     OW10312   6.522   2.541   3.918
 3138SOL    HW110313   6.573   2.557   4.002
 3138SOL    HW210314   6.487   2.448   3.917
 3139SOL     OW10315   4.496   0.092   0.611
 3139SOL    HW110316   4.551   0.011   0.632
 3139SOL    HW210317   4.529   0.131   0.525
 3140SOL     OW10318   5.676   7.017   6.832
 3140SOL    HW110319   5.683   0.054   6.750
 3140SOL    HW210320   5.755   6.957   6.838
 3141SOL     OW10321   0.429   5.619   6.157
 3141SOL    HW110322   0.417   5.709   6.115
 3141SOL    HW210323   0.520   5.584   6.136
 3142SOL     OW10324   4.815   6.267   1.716
 3142SOL    HW110325   4.816   6.283   1.815
 3142SOL    HW210326   4.722   6.245   1.687
 3143SOL     OW10327   0.046   2.371   6.962
 3143SOL    HW110328   7.007   2.348   6.884
 3143SOL    HW210329   7.008   2.399   0.020
 3144SOL     OW10330   3.522   4.143   1.220
 3144SOL    HW110331   3.620   4.164   1.219
 3144SOL    HW210332   3.505   4.068   1.284
 3145SOL     OW10333   1.898   5.009   2.333
 3145SOL    HW110334   1.993   5.040   2.340
 3145SOL    HW210335   1.838   5.087   2.317
 3146SOL     OW10336   1.279   6.866   2.906
 3146SOL    HW110337   1.343   6.792   2.888
 3146SOL    HW210338   1.325   6.940   2.955
 3147SOL     OW10339   3.056   5.196   0.065
 3147SOL    HW110340   2.997   5.272   0.091
 3147SOL    HW210341   3.095   5.213   6.994
 3148SOL     OW10342   5.221   5.831   4.989
 3148SOL    HW110343   5.266   5.905   4.939
 3148SOL    HW210344   5.147   5.793   4.934
 3149SOL     OW10345   2.993   0.368   5.261
 3149SOL    HW110346   3.052   0.446   5.239
 3149SOL    HW210347   2.921   0.398   5.324
 3150SOL     OW10348   6.892   5.821   4.329
 3150SOL    HW110349   6.885   5.886   4.253
 3150SOL    HW210350   6.971   5.762   4.314
 3151SOL     OW10351   4.135   1.185   6.058
 3151SOL    HW110352   4.088   1.125   6.123
 3151SOL    HW210353   4.227   1.205   6.091
 3152SOL     OW10354   1.379   5.340   0.833
 3152SOL    HW110355   1.310   5.284   0.879
 3152SOL    HW210356   1.465   5.290   0.830
 3153SOL     OW10357   6.152   4.418   1.887
 3153SOL    HW110358   6.190   4.386   1.800
 3153SOL    HW210359   6.065   4.464   1.870
 3154SOL     OW10360   6.572   1.741   0.633
 3154SOL    HW110361   6.516   1.721   0.552
 3154SOL    HW210362   6.615   1.830   0.623
 3155SOL     OW10363   6.491   5.291   1.339
 3155SOL    HW110364   6.398   5.299   1.301
 3155SOL    HW210365   6.520   5.381   1.372
 3156SOL     OW10366   2.875   3.430   3.461
 3156SOL    HW110367   2.896   3.421   3.364
 3156SOL    HW210368   2.776   3.435   3.474
 3157SOL     OW10369   1.913   2.838   4.998
 3157SOL    HW110370   1.906   2.938   4.996
 3157SOL    HW210371   2.002   2.811   5.035
 3158SOL     OW10372   4.309   0.067   1.983
 3158SOL    HW110373   4.215   0.038   1.999
 3158SOL    HW210374   4.322   0.160   2.017
 3159SOL     OW10375   5.512   1.140   0.572
 3159SOL    HW110376   5.468   1.061   0.529
 3159SOL    HW210377   5.603   1.153   0.532
 3160SOL     OW10378   6.862   6.278   5.393
 3160SOL    HW110379   6.834   6.365   5.432
 3160SOL    HW210380   6.913   6.294   5.309
 3161SOL     OW10381   1.734   1.632   3.552
 3161SOL    HW110382   1.672   1.640   3.474
 3161SOL    HW210383   1.776   1.541   3.552
 3162SOL     OW10384   0.811   6.284   0.799
 3162SOL    HW110385   0.844   6.267   0.892
 3162SOL    HW210386   0.880   6.255   0.733
 3163SOL     OW10387   4.003   2.264   6.617
 3163SOL    HW110388   4.045   2.351   6.643
 3163SOL    HW210389   3.915   2.254   6.662
 3164SOL     OW10390   4.226   4.007   1.386
 3164SOL    HW110391   4.322   4.031   1.380
 3164SOL    HW210392   4.194   3.976   1.296
 3165SOL     OW10393   1.492   5.696   1.656
 3165SOL    HW110394   1.396   5.722   1.668
 3165SOL    HW210395   1.547   5.778   1.642
 3166SOL     OW10396   4.554   1.067   6.521
 3166SOL    HW110397   4.648   1.040   6.537
 3166SOL    HW210398   4.496   1.031   6.594
 3167SOL     OW10399   0.104   4.371   1.681
 3167SOL    HW110400   0.196   4.334   1.695
 3167SOL    HW210401   0.037   4.302   1.707
 3168SOL     OW10402   5.272   2.923   0.187
 3168SOL    HW110403   5.359   2.955   0.148
 3168SOL    HW210404   5.202   2.922   0.116
 3169SOL     OW10405   1.701   3.330   5.231
 3169SOL    HW110406   1.786   3.332   5.178
 3169SOL    HW210407   1.722   3.338   5.328
 3170SOL     OW10408   4.493   0.745   1.124
 3170SOL    HW110409   4.556   0.669   1.105
 3170SOL    HW210410   4.413   0.710   1.174
 3171SOL     OW10411   0.155   6.408   1.213
 3171SOL    HW110412   0.156   6.421   1.312
 3171SOL    HW210413   0.207   6.481   1.169
 3172SOL     OW10414   0.313   5.156   5.836
 3172SOL    HW110415   0.370   5.081   5.802
 3172SOL    HW210416   0.249   5.184   5.765
 3173SOL     OW10417   3.215   2.150   1.105
 3173SOL    HW110418   3.139   2.187   1.159
 3173SOL    HW210419   3.181   2.077   1.046
 3174SOL     OW10420   2.970   2.657   6.685
 3174SOL    HW110421   2.905   2.619   6.619
 3174SOL    HW210422   3.052   2.599   6.688
 3175SOL     OW10423   0.299   6.495   0.516
 3175SOL    HW110424   0.354   6.452   0.444
 3175SOL    HW210425   0.354   6.561   0.565
 3176SOL     OW10426   2.018   5.026   4.769
 3176SOL    HW110427   2.050   5.119   4.755
 3176SOL    HW210428   2.093   4.962   4.754
 3177SOL     OW10429   4.775   4.850   5.419
 3177SOL    HW110430   4.723   4.934   5.409
 3177SOL    HW210431   4.737   4.779   5.360
 3178SOL     OW10432   6.883   2.812   1.096
 3178SOL    HW110433   6.838   2.879   1.156
 3178SOL    HW210434   6.932   2.745   1.151
 3179SOL     OW10435   2.082   2.738   2.332
 3179SOL    HW110436   2.095   2.659   2.272
 3179SOL    HW210437   1.991   2.778   2.317
 3180SOL     OW10438   4.655   0.486   6.926
 3180SOL    HW110439   4.687   0.579   6.912
 3180SOL    HW210440   4.651   0.465   0.004
 3181SOL     OW10441   1.223   1.227   3.009
 3181SOL    HW110442   1.227   1.214   3.108
 3181SOL    HW210443   1.305   1.189   2.968
 3182SOL     OW10444   1.532   1.278   5.639
 3182SOL    HW110445   1.472   1.200   5.622
 3182SOL    HW210446   1.620   1.246   5.673
 3183SOL     OW10447   5.295   3.809   1.497
 3183SOL    HW110448   5.350   3.743   1.547
 3183SOL    HW210449   5.200   3.804   1.527
 3184SOL     OW10450   2.318   2.360   2.815
 3184SOL    HW110451   2.369   2.274   2.803
 3184SOL    HW210452   2.359   2.431   2.757
 3185SOL     OW10453   5.982   0.774   6.714
 3185SOL    HW110454   5.945   0.818   6.632
 3185SOL    HW210455   6.048   0.703   6.686
 3186SOL     OW10456   3.487   1.598   3.073
 3186SOL    HW110457   3.455   1.690   3.053
 3186SOL    HW210458   3.581   1.587   3.039
 3187SOL     OW10459   4.707   4.354   0.328
 3187SOL    HW110460   4.733   4.260   0.351
 3187SOL    HW210461   4.621   4.352   0.275
 3188SOL     OW10462   3.316   6.104   4.326
 3188SOL    HW110463   3.353   6.086   4.236
 3188SOL    HW210464   3.378   6.070   4.396
 3189SOL     OW10465   2.512   0.914   2.751
 3189SOL    HW110466   2.529   0.918   2.652
 3189SOL    HW210467   2.452   0.837   2.771
 3190SOL     OW10468   0.636   6.349   1.471
 3190SOL    HW110469   0.723   6.368   1.516
 3190SOL    HW210470   0.565   6.407   1.511
 3191SOL     OW10471   3.740   6.726   0.815
 3191SOL    HW110472   3.754   6.805   0.876
 3191SOL    HW210473   3.825   6.674   0.809
 3192SOL     OW10474   0.270   2.612   1.201
 3192SOL    HW110475   0.282   2.621   1.300
 3192SOL    HW210476   0.269   2.515   1.176
 3193SOL     OW10477   4.433   1.897   5.816
 3193SOL    HW110478   4.378   1.959   5.760
 3193SOL    HW210479   4.376   1.852   5.884
 3194SOL     OW10480   0.856   2.750   5.881
 3194SOL    HW110481   0.938   2.727   5.933
 3194SOL    HW210482   0.881   2.789   5.793
 3195SOL     OW10483   2.213   2.948   2.567
 3195SOL    HW110484   2.291   2.885   2.572
 3195SOL    HW210485   2.135   2.908   2.615
 3196SOL     OW10486   0.110   0.561   4.886
 3196SOL    HW110487   0.148   0.630   4.948
 3196SOL    HW210488   0.037   0.511   4.933
 3197SOL     OW10489   1.831   5.660   3.469
 3197SOL    HW110490   1.753   5.722   3.467
 3197SOL    HW210491   1.849   5.626   3.377
 3198SOL     OW10492   6.083   2.797   6.184
 3198SOL    HW110493   6.011   2.862   6.207
 3198SOL    HW210494   6.073   2.714   6.239
 3199SOL     OW10495   4.235   2.799   1.682
 3199SOL    HW110496   4.187   2.743   1.615
 3199SOL    HW210497   4.172   2.868   1.719
 3200SOL     OW10498   6.953   1.718   1.782
 3200SOL    HW110499   6.936   1.650   1.854
 3200SOL    HW210500   6.868   1.768   1.764
 3201SOL     OW10501   5.081   4.380   4.775
 3201SOL    HW110502   4.990   4.358   4.810
 3201SOL    HW210503   5.150   4.337   4.834
 3202SOL     OW10504   1.047   4.449   2.004
 3202SOL    HW110505   0.952   4.473   1.985
 3202SOL    HW210506   1.082   4.391   1.931
 3203SOL     OW10507   5.299   1.019   1.174
 3203SOL    HW110508   5.239   1.095   1.197
 3203SOL    HW210509   5.343   1.037   1.086
 3204SOL     OW10510   4.831   5.760   1.724
 3204SOL    HW110511   4.863   5.731   1.815
 3204SOL    HW210512   4.880   5.843   1.697
 3205SOL     OW10513   0.313   4.033   6.571
 3205SOL    HW110514   0.376   3.956   6.581
 3205SOL    HW210515   0.354   4.103   6.514
 3206SOL     OW10516   6.791   6.776   5.791
 3206SOL    HW110517   6.861   6.846   5.805
 3206SOL    HW210518   6.824   6.708   5.726
 3207SOL     OW10519   0.314   1.713   6.781
 3207SOL    HW110520   0.368   1.687   6.701
 3207SOL    HW210521   0.352   1.797   6.821
 3208SOL     OW10522   5.261   6.467   6.141
 3208SOL    HW110523   5.203   6.410   6.084
 3208SOL    HW210524   5.208   6.545   6.175
 3209SOL     OW10525   3.152   5.526   3.589
 3209SOL    HW110526   3.199   5.489   3.669
 3209SOL    HW210527   3.216   5.577   3.533
 3210SOL     OW10528   0.781   3.937   2.020
 3210SOL    HW110529   0.842   3.885   2.080
 3210SOL    HW210530   0.827   4.021   1.991
 3211SOL     OW10531   2.122   4.024   0.633
 3211SOL    HW110532   2.159   4.048   0.543
 3211SOL    HW210533   2.124   4.105   0.692
 3212SOL     OW10534   4.164   1.471   6.322
 3212SOL    HW110535   4.120   1.560   6.320
 3212SOL    HW210536   4.162   1.434   6.415
 3213SOL     OW10537   5.854   5.063   3.245
 3213SOL    HW110538   5.953   5.059   3.230
 3213SOL    HW210539   5.835   5.048   3.342
 3214SOL     OW10540   4.967   5.976   0.498
 3214SOL    HW110541   5.026   6.016   0.568
 3214SOL    HW210542   4.945   5.882   0.522
 3215SOL     OW10543   6.909   3.662   1.156
 3215SOL    HW110544   6.857   3.583   1.122
 3215SOL    HW210545   7.006   3.638   1.163
 3216SOL     OW10546   4.969   5.682   1.954
 3216SOL    HW110547   5.069   5.680   1.959
 3216SOL    HW210548   4.935   5.592   1.926
 3217SOL     OW10549   0.673   4.965   2.275
 3217SOL    HW110550   0.714   4.881   2.310
 3217SOL    HW210551   0.597   4.992   2.333
 3218SOL     OW10552   4.186   6.316   3.307
 3218SOL    HW110553   4.203   6.349   3.214
 3218SOL    HW210554   4.274   6.306   3.354
 3219SOL     OW10555   0.205   0.808   3.251
 3219SOL    HW110556   0.159   0.722   3.275
 3219SOL    HW210557   0.139   0.872   3.212
 3220SOL     OW10558   6.313   5.139   5.835
 3220SOL    HW110559   6.352   5.139   5.927
 3220SOL    HW210560   6.386   5.145   5.767
 3221SOL     OW10561   3.242   6.456   2.038
 3221SOL    HW110562   3.327   6.403   2.047
 3221SOL    HW210563   3.263   6.553   2.041
 3222SOL     OW10564   4.817   1.988   3.560
 3222SOL    HW110565   4.817   2.087   3.573
 3222SOL    HW210566   4.787   1.944   3.645
 3223SOL     OW10567   1.747   5.445   6.599
 3223SOL    HW110568   1.666   5.474   6.548
 3223SOL    HW210569   1.761   5.506   6.677
 3224SOL     OW10570   4.383   4.948   6.130
 3224SOL    HW110571   4.454   4.899   6.079
 3224SOL    HW210572   4.323   4.996   6.066
 3225SOL     OW10573   4.287   2.351   5.587
 3225SOL    HW110574   4.259   2.353   5.683
 3225SOL    HW210575   4.370   2.296   5.577
 3226SOL     OW10576   1.498   1.164   4.573
 3226SOL    HW110577   1.503   1.131   4.667
 3226SOL    HW210578   1.420   1.226   4.563
 3227SOL     OW10579   2.993   2.011   6.387
 3227SOL    HW110580   2.908   2.018   6.440
 3227SOL    HW210581   3.037   1.923   6.406
 3228SOL     OW10582   5.052   3.272   4.142
 3228SOL    HW110583   5.125   3.331   4.108
 3228SOL    HW210584   5.090   3.208   4.209
 3229SOL     OW10585   3.292   1.489   5.900
 3229SOL    HW110586   3.292   1.563   5.968
 3229SOL    HW210587   3.233   1.515   5.824
 3230SOL     OW10588   0.587   2.793   4.179
 3230SOL    HW110589   0.643   2.837   4.110
 3230SOL    HW210590   0.492   2.791   4.149
 3231SOL     OW10591   3.394   5.986   2.367
 3231SOL    HW110592   3.425   6.079   2.348
 3231SOL    HW210593   3.472   5.923   2.364
 3232SOL     OW10594   4.357   5.202   4.212
 3232SOL    HW110595   4.456   5.207   4.203
 3232SOL    HW210596   4.326   5.109   4.189
 3233SOL     OW10597   1.972   3.601   1.199
 3233SOL    HW110598   1.963   3.634   1.105
 3233SOL    HW210599   2.064   3.565   1.213
 3234SOL     OW10600   0.162   2.373   0.592
 3234SOL    HW110601   0.261   2.358   0.593
 3234SOL    HW210602   0.130   2.373   0.497
 3235SOL     OW10603   5.558   5.829   1.976
 3235SOL    HW110604   5.480   5.862   2.029
 3235SOL    HW210605   5.577   5.893   1.902
 3236SOL     OW10606   1.587   3.272   2.008
 3236SOL    HW110607   1.500   3.224   2.013
 3236SOL    HW210608   1.646   3.243   2.084
 3237SOL     OW10609   5.133   0.912   3.715
 3237SOL    HW110610   5.219   0.866   3.693
 3237SOL    HW210611   5.124   0.994   3.659
 3238SOL     OW10612   6.967   5.097   6.964
 3238SOL    HW110613   0.024   5.036   6.986
 3238SOL    HW210614   6.992   5.154   6.885
 3239SOL     OW10615   6.142   1.335   0.503
 3239SOL    HW110616   6.045   1.359   0.496
 3239SOL    HW210617   6.183   1.340   0.412
 3240SOL     OW10618   1.392   6.750   5.236
 3240SOL    HW110619   1.332   6.769   5.159
 3240SOL    HW210620   1.338   6.743   5.320
 3241SOL     OW10621   5.608   1.601   4.479
 3241SOL    HW110622   5.693   1.627   4.525
 3241SOL    HW210623   5.560   1.532   4.534
 3242SOL     OW10624   3.271   4.514   0.678
 3242SOL    HW110625   3.192   4.520   0.617
 3242SOL    HW210626   3.241   4.526   0.772
 3243SOL     OW10627   5.501   5.317   0.484
 3243SOL    HW110628   5.592   5.293   0.519
 3243SOL    HW210629   5.471   5.403   0.526
 3244SOL     OW10630   4.886   5.301   6.606
 3244SOL    HW110631   4.935   5.274   6.689
 3244SOL    HW210632   4.951   5.312   6.531
 3245SOL     OW10633   4.823   2.589   5.702
 3245SOL    HW110634   4.770   2.612   5.620
 3245SOL    HW210635   4.888   2.516   5.680
 3246SOL     OW10636   6.392   0.202   2.993
 3246SOL    HW110637   6.439   0.126   2.947
 3246SOL    HW210638   6.363   0.269   2.925
 3247SOL     OW10639   0.103   5.320   3.034
 3247SOL    HW110640   0.138   5.340   2.942
 3247SOL    HW210641   0.003   5.332   3.034
 3248SOL     OW10642   5.786   3.683   1.841
 3248SOL    HW110643   5.870   3.673   1.788
 3248SOL    HW210644   5.713   3.630   1.799
 3249SOL     OW10645   4.230   4.008   5.785
 3249SOL    HW110646   4.151   4.068   5.796
 3249SOL    HW210647   4.228   3.939   5.857
 3250SOL     OW10648   5.390   0.119   3.255
 3250SOL    HW110649   5.448   0.038   3.260
 3250SOL    HW210650   5.312   0.109   3.316
 3251SOL     OW10651   4.169   0.959   2.306
 3251SOL    HW110652   4.231   1.033   2.332
 3251SOL    HW210653   4.201   0.918   2.220
 3252SOL     OW10654   3.513   1.264   2.058
 3252SOL    HW110655   3.419   1.237   2.037
 3252SOL    HW210656   3.546   1.329   1.990
 3253SOL     OW10657   5.035   3.083   2.581
 3253SOL    HW110658   4.972   3.062   2.506
 3253SOL    HW210659   4.983   3.090   2.666
 3254SOL     OW10660   3.557   4.990   4.706
 3254SOL    HW110661   3.541   4.947   4.616
 3254SOL    HW210662   3.649   4.968   4.738
 3255SOL     OW10663   4.513   5.902   0.984
 3255SOL    HW110664   4.422   5.867   1.009
 3255SOL    HW210665   4.580   5.828   0.990
 3256SOL     OW10666   5.465   0.348   6.049
 3256SOL    HW110667   5.400   0.332   6.123
 3256SOL    HW210668   5.548   0.296   6.065
 3257SOL     OW10669   0.762   2.094   1.207
 3257SOL    HW110670   0.689   2.152   1.242
 3257SOL    HW210671   0.762   2.097   1.107
 3258SOL     OW10672   4.460   6.146   2.003
 3258SOL    HW110673   4.534   6.090   1.966
 3258SOL    HW210674   4.474   6.159   2.101
 3259SOL     OW10675   4.641   6.087   4.525
 3259SOL    HW110676   4.566   6.021   4.530
 3259SOL    HW210677   4.717   6.046   4.473
 3260SOL     OW10678   1.889   2.547   1.325
 3260SOL    HW110679   1.803   2.585   1.292
 3260SOL    HW210680   1.965   2.593   1.279
 3261SOL     OW10681   4.287   6.426   0.564
 3261SOL    HW110682   4.354   6.416   0.490
 3261SOL    HW210683   4.286   6.343   0.620
 3262SOL     OW10684   3.922   1.678   2.903
 3262SOL    HW110685   3.961   1.724   2.983
 3262SOL    HW210686   3.957   1.721   2.820
 3263SOL     OW10687   4.848   0.134   3.774
 3263SOL    HW110688   4.908   0.190   3.717
 3263SOL    HW210689   4.846   0.040   3.738
 3264SOL     OW10690   0.472   4.857   6.944
 3264SOL    HW110691   0.411   4.851   6.866
 3264SOL    HW210692   0.566   4.875   6.912
 3265SOL     OW10693   4.295   2.165   6.279
 3265SOL    HW110694   4.341   2.254   6.271
 3265SOL    HW210695   4.322   2.107   6.201
 3266SOL     OW10696   0.424   2.343   0.564
 3266SOL    HW110697   0.424   2.245   0.549
 3266SOL    HW210698   0.443   2.391   0.478
 3267SOL     OW10699   3.406   2.253   0.912
 3267SOL    HW110700   3.504   2.243   0.930
 3267SOL    HW210701   3.354   2.205   0.983
 3268SOL     OW10702   1.116   3.827   6.759
 3268SOL    HW110703   1.115   3.730   6.783
 3268SOL    HW210704   1.190   3.874   6.806
 3269SOL     OW10705   4.140   5.131   2.050
 3269SOL    HW110706   4.045   5.162   2.055
 3269SOL    HW210707   4.142   5.032   2.040
 3270SOL     OW10708   1.286   5.884   4.963
 3270SOL    HW110709   1.263   5.918   4.872
 3270SOL    HW210710   1.286   5.784   4.962
 3271SOL     OW10711   5.357   2.629   2.668
 3271SOL    HW110712   5.432   2.613   2.731
 3271SOL    HW210713   5.300   2.704   2.702
 3272SOL     OW10714   3.560   5.557   0.992
 3272SOL    HW110715   3.502   5.560   0.910
 3272SOL    HW210716   3.653   5.531   0.966
 3273SOL     OW10717   0.741   6.505   2.210
 3273SOL    HW110718   0.834   6.478   2.233
 3273SOL    HW210719   0.743   6.594   2.163
 3274SOL     OW10720   3.829   2.345   6.952
 3274SOL    HW110721   3.780   2.409   7.011
 3274SOL    HW210722   3.927   2.365   6.956
 3275SOL     OW10723   1.394   0.438   6.632
 3275SOL    HW110724   1.483   0.482   6.626
 3275SOL    HW210725   1.379   0.406   6.726
 3276SOL     OW10726   3.246   5.062   6.666
 3276SOL    HW110727   3.308   5.111   6.728
 3276SOL    HW210728   3.186   5.127   6.620
 3277SOL     OW10729   5.741   0.610   6.354
 3277SOL    HW110730   5.737   0.632   6.451
 3277SOL    HW210731   5.757   0.511   6.343
 3278SOL     OW10732   6.736   0.890   5.441
 3278SOL    HW110733   6.666   0.950   5.478
 3278SOL    HW210734   6.719   0.796   5.472
 3279SOL     OW10735   0.377   0.699   1.321
 3279SOL    HW110736   0.393   0.686   1.224
 3279SOL    HW210737   0.306   0.767   1.335
 3280SOL     OW10738   2.483   5.529   5.991
 3280SOL    HW110739   2.440   5.611   6.027
 3280SOL    HW210740   2.506   5.467   6.066
 3281SOL     OW10741   1.987   5.227   1.057
 3281SOL    HW110742   2.082   5.257   1.047
 3281SOL    HW210743   1.977   5.177   1.143
 3282SOL     OW10744   2.607   5.235   4.153
 3282SOL    HW110745   2.658   5.195   4.229
 3282SOL    HW210746   2.573   5.325   4.179
 3283SOL     OW10747   3.081   1.783   2.025
 3283SOL    HW110748   3.072   1.779   2.125
 3283SOL    HW210749   3.048   1.871   1.993
 3284SOL     OW10750   6.375   6.913   6.543
 3284SOL    HW110751   6.290   6.941   6.586
 3284SOL    HW210752   6.450   6.968   6.580
 3285SOL     OW10753   0.076   2.621   3.314
 3285SOL    HW110754   0.043   2.591   3.224
 3285SOL    HW210755   0.175   2.605   3.320
 3286SOL     OW10756   3.871   2.976   3.834
 3286SOL    HW110757   3.868   2.997   3.931
 3286SOL    HW210758   3.857   2.878   3.820
 3287SOL     OW10759   1.167   5.985   0.434
 3287SOL    HW110760   1.130   5.929   0.508
 3287SOL    HW210761   1.250   5.941   0.398
 3288SOL     OW10762   0.939   5.800   6.799
 3288SOL    HW110763   0.889   5.797   6.713
 3288SOL    HW210764   0.927   5.712   6.847
 3289SOL     OW10765   1.754   6.411   5.718
 3289SOL    HW110766   1.707   6.484   5.768
 3289SOL    HW210767   1.687   6.342   5.690
 3290SOL     OW10768   0.288   6.717   1.867
 3290SOL    HW110769   0.269   6.710   1.965
 3290SOL    HW210770   0.319   6.629   1.832
 3291SOL     OW10771   1.151   6.685   6.713
 3291SOL    HW110772   1.237   6.676   6.763
 3291SOL    HW210773   1.153   6.769   6.657
 3292SOL     OW10774   0.657   1.283   0.146
 3292SOL    HW110775   0.573   1.337   0.134
 3292SOL    HW210776   0.642   1.191   0.111
 3293SOL     OW10777   6.667   2.039   3.303
 3293SOL    HW110778   6.742   2.104   3.313
 3293SOL    HW210779   6.593   2.065   3.365
 3294SOL     OW10780   0.222   0.219   6.088
 3294SOL    HW110781   0.311   0.265   6.082
 3294SOL    HW210782   0.211   0.158   6.009
 3295SOL     OW10783   2.422   2.511   0.975
 3295SOL    HW110784   2.419   2.507   1.075
 3295SOL    HW210785   2.478   2.588   0.946
 3296SOL     OW10786   2.090   6.431   0.900
 3296SOL    HW110787   2.087   6.421   0.800
 3296SOL    HW210788   2.172   6.387   0.936
 3297SOL     OW10789   2.897   1.413   4.393
 3297SOL    HW110790   2.957   1.418   4.472
 3297SOL    HW210791   2.919   1.332   4.339
 3298SOL     OW10792   6.367   3.163   3.071
 3298SOL    HW110793   6.380   3.064   3.079
 3298SOL    HW210794   6.355   3.188   2.975
 3299SOL     OW10795   2.382   0.106   3.665
 3299SOL    HW110796   2.352   0.169   3.736
 3299SOL    HW210797   2.308   0.042   3.644
 3300SOL     OW10798   0.203   0.050   5.883
 3300SOL    HW110799   0.255   6.984   5.882
 3300SOL    HW210800   0.248   0.118   5.825
 3301SOL     OW10801   2.092   4.222   3.670
 3301SOL    HW110802   2.189   4.239   3.688
 3301SOL    HW210803   2.037   4.260   3.744
 3302SOL     OW10804   1.225   5.160   4.667
 3302SOL    HW110805   1.302   5.218   4.694
 3302SOL    HW210806   1.164   5.147   4.745
 3303SOL     OW10807   3.149   2.663   1.719
 3303SOL    HW110808   3.066   2.608   1.706
 3303SOL    HW210809   3.128   2.759   1.699
 3304SOL     OW10810   1.565   5.005   3.178
 3304SOL    HW110811   1.612   4.968   3.258
 3304SOL    HW210812   1.534   4.931   3.119
 3305SOL     OW10813   2.497   1.846   2.376
 3305SOL    HW110814   2.531   1.753   2.362
 3305SOL    HW210815   2.574   1.909   2.384
 3306SOL     OW10816   2.496   4.606   3.539
 3306SOL    HW110817   2.505   4.578   3.444
 3306SOL    HW210818   2.474   4.703   3.544
 3307SOL     OW10819   0.035   6.282   6.511
 3307SOL    HW110820   0.014   6.190   6.543
 3307SOL    HW210821   6.972   6.325   6.475
 3308SOL     OW10822   4.462   5.874   6.467
 3308SOL    HW110823   4.527   5.920   6.407
 3308SOL    HW210824   4.462   5.776   6.448
 3309SOL     OW10825   0.673   5.243   2.480
 3309SOL    HW110826   0.662   5.336   2.516
 3309SOL    HW210827   0.662   5.178   2.555
 3310SOL     OW10828   6.869   3.846   3.143
 3310SOL    HW110829   6.784   3.898   3.130
 3310SOL    HW210830   6.946   3.900   3.109
 3311SOL     OW10831   2.998   5.096   0.761
 3311SOL    HW110832   3.017   5.187   0.724
 3311SOL    HW210833   2.921   5.055   0.711
 3312SOL     OW10834   2.884   4.177   6.488
 3312SOL    HW110835   2.829   4.107   6.532
 3312SOL    HW210836   2.830   4.261   6.478
 3313SOL     OW10837   1.000   5.395   2.926
 3313SOL    HW110838   1.022   5.322   2.990
 3313SOL    HW210839   1.084   5.439   2.894
 3314SOL     OW10840   1.807   2.598   5.059
 3314SOL    HW110841   1.763   2.589   5.149
 3314SOL    HW210842   1.852   2.687   5.053
 3315SOL     OW10843   6.998   2.560   4.457
 3315SOL    HW110844   0.019   2.648   4.432
 3315SOL    HW210845   0.051   2.500   4.493
 3316SOL     OW10846   3.594   1.383   5.544
 3316SOL    HW110847   3.572   1.436   5.626
 3316SOL    HW210848   3.573   1.437   5.462
 3317SOL     OW10849   4.492   2.811   1.715
 3317SOL    HW110850   4.518   2.886   1.774
 3317SOL    HW210851   4.392   2.807   1.707
 3318SOL     OW10852   2.653   6.978   6.975
 3318SOL    HW110853   2.570   0.009   6.952
 3318SOL    HW210854   2.716   0.019   0.003
 3319SOL     OW10855   6.850   6.579   3.470
 3319SOL    HW110856   6.751   6.572   3.485
 3319SOL    HW210857   6.885   6.661   3.513
 3320SOL     OW10858   5.918   1.376   6.122
 3320SOL    HW110859   5.964   1.464   6.120
 3320SOL    HW210860   5.820   1.389   6.106
 3321SOL     OW10861   3.173   3.006   1.646
 3321SOL    HW110862   3.215   3.024   1.557
 3321SOL    HW210863   3.156   3.092   1.693
 3322SOL     OW10864   5.016   2.063   1.666
 3322SOL    HW110865   5.000   2.089   1.571
 3322SOL    HW210866   5.078   1.985   1.669
 3323SOL     OW10867   2.003   3.856   6.852
 3323SOL    HW110868   1.935   3.783   6.851
 3323SOL    HW210869   1.961   3.940   6.888
 3324SOL     OW10870   1.103   4.013   0.152
 3324SOL    HW110871   1.043   3.974   0.082
 3324SOL    HW210872   1.152   3.939   0.199
 3325SOL     OW10873   2.004   3.151   7.018
 3325SOL    HW110874   1.908   3.146   6.990
 3325SOL    HW210875   2.010   3.185   0.092
 3326SOL     OW10876   5.378   1.591   1.506
 3326SOL    HW110877   5.463   1.539   1.517
 3326SOL    HW210878   5.368   1.616   1.410
 3327SOL     OW10879   2.289   6.708   0.939
 3327SOL    HW110880   2.239   6.630   0.901
 3327SOL    HW210881   2.334   6.681   1.024
 3328SOL     OW10882   4.910   1.395   2.147
 3328SOL    HW110883   4.933   1.472   2.207
 3328SOL    HW210884   4.853   1.428   2.072
 3329SOL     OW10885   4.726   0.271   5.254
 3329SOL    HW110886   4.775   0.202   5.202
 3329SOL    HW210887   4.630   0.272   5.226
 3330SOL     OW10888   5.688   6.707   2.407
 3330SOL    HW110889   5.738   6.753   2.480
 3330SOL    HW210890   5.638   6.629   2.445
 3331SOL     OW10891   1.579   3.346   2.667
 3331SOL    HW110892   1.672   3.344   2.705
 3331SOL    HW210893   1.545   3.440   2.668
 3332SOL     OW10894   5.890   3.965   0.485
 3332SOL    HW110895   5.899   4.052   0.535
 3332SOL    HW210896   5.880   3.890   0.551
 3333SOL     OW10897   2.905   3.449   6.972
 3333SOL    HW110898   2.868   3.399   6.893
 3333SOL    HW210899   2.918   3.545   6.947
 3334SOL     OW10900   1.957   3.075   1.974
 3334SOL    HW110901   1.916   3.007   1.912
 3334SOL    HW210902   1.960   3.163   1.928
 3335SOL     OW10903   4.492   5.530   5.766
 3335SOL    HW110904   4.501   5.607   5.703
 3335SOL    HW210905   4.451   5.561   5.852
 3336SOL     OW10906   2.370   0.204   4.120
 3336SOL    HW110907   2.273   0.184   4.109
 3336SOL    HW210908   2.420   0.118   4.134
 3337SOL     OW10909   3.577   3.202   2.036
 3337SOL    HW110910   3.623   3.278   1.989
 3337SOL    HW210911   3.645   3.131   2.058
 3338SOL     OW10912   0.325   2.375   1.791
 3338SOL    HW110913   0.399   2.371   1.723
 3338SOL    HW210914   0.340   2.452   1.853
 3339SOL     OW10915   2.144   0.172   5.909
 3339SOL    HW110916   2.110   0.178   5.816
 3339SOL    HW210917   2.083   0.115   5.964
 3340SOL     OW10918   4.905   0.587   4.126
 3340SOL    HW110919   4.906   0.670   4.183
 3340SOL    HW210920   4.913   0.506   4.185
 3341SOL     OW10921   2.539   4.505   3.222
 3341SOL    HW110922   2.494   4.593   3.215
 3341SOL    HW210923   2.473   4.431   3.211
 3342SOL     OW10924   0.020   0.673   2.651
 3342SOL    HW110925   0.090   0.633   2.592
 3342SOL    HW210926   0.053   0.676   2.745
 3343SOL     OW10927   5.087   5.319   6.363
 3343SOL    HW110928   5.031   5.249   6.317
 3343SOL    HW210929   5.105   5.394   6.300
 3344SOL     OW10930   6.317   2.904   3.113
 3344SOL    HW110931   6.314   2.843   3.034
 3344SOL    HW210932   6.337   2.851   3.195
 3345SOL     OW10933   0.835   3.964   6.490
 3345SOL    HW110934   0.855   3.867   6.502
 3345SOL    HW210935   0.828   4.008   6.580
 3346SOL     OW10936   1.748   1.048   6.909
 3346SOL    HW110937   1.724   0.983   6.837
 3346SOL    HW210938   1.781   0.997   6.989
 3347SOL     OW10939   1.528   2.427   6.220
 3347SOL    HW110940   1.446   2.472   6.256
 3347SOL    HW210941   1.604   2.440   6.284
 3348SOL     OW10942   4.383   3.902   5.498
 3348SOL    HW110943   4.480   3.879   5.502
 3348SOL    HW210944   4.345   3.905   5.590
 3349SOL     OW10945   2.312   4.847   3.813
 3349SOL    HW110946   2.339   4.859   3.717
 3349SOL    HW210947   2.381   4.888   3.872
 3350SOL     OW10948   0.903   3.199   5.773
 3350SOL    HW110949   0.886   3.212   5.676
 3350SOL    HW210950   0.823   3.154   5.815
 3351SOL     OW10951   5.745   1.062   1.310
 3351SOL    HW110952   5.666   1.013   1.349
 3351SOL    HW210953   5.824   1.000   1.307
 3352SOL     OW10954   5.072   2.363   0.784
 3352SOL    HW110955   4.987   2.393   0.827
 3352SOL    HW210956   5.093   2.423   0.707
 3353SOL     OW10957   1.994   0.160   0.511
 3353SOL    HW110958   1.979   0.126   0.418
 3353SOL    HW210959   1.960   0.254   0.518
 3354SOL     OW10960   3.888   2.928   5.147
 3354SOL    HW110961   3.802   2.893   5.185
 3354SOL    HW210962   3.962   2.911   5.212
 3355SOL     OW10963   2.180   1.363   5.764
 3355SOL    HW110964   2.237   1.433   5.806
 3355SOL    HW210965   2.136   1.400   5.683
 3356SOL     OW10966   0.739   6.201   6.394
 3356SOL    HW110967   0.797   6.126   6.426
 3356SOL    HW210968   0.690   6.239   6.472
 3357SOL     OW10969   3.527   3.622   1.731
 3357SOL    HW110970   3.439   3.615   1.780
 3357SOL    HW210971   3.513   3.603   1.634
 3358SOL     OW10972   5.526   1.248   3.411
 3358SOL    HW110973   5.439   1.285   3.378
 3358SOL    HW210974   5.539   1.274   3.507
 3359SOL     OW10975   0.359   5.159   3.854
 3359SOL    HW110976   0.336   5.088   3.787
 3359SOL    HW210977   0.417   5.228   3.811
 3360SOL     OW10978   0.953   2.332   6.542
 3360SOL    HW110979   0.936   2.380   6.456
 3360SOL    HW210980   0.959   2.398   6.617
 3361SOL     OW10981   0.765   0.200   4.227
 3361SOL    HW110982   0.728   0.252   4.305
 3361SOL    HW210983   0.721   0.110   4.224
 3362SOL     OW10984   4.171   1.573   3.043
 3362SOL    HW110985   4.088   1.526   3.073
 3362SOL    HW210986   4.188   1.551   2.947
 3363SOL     OW10987   6.873   3.740   1.906
 3363SOL    HW110988   6.946   3.692   1.953
 3363SOL    HW210989   6.852   3.693   1.820
 3364SOL     OW10990   1.577   4.544   2.634
 3364SOL    HW110991   1.485   4.578   2.651
 3364SOL    HW210992   1.581   4.502   2.543
 3365SOL     OW10993   1.458   2.680   4.432
 3365SOL    HW110994   1.395   2.626   4.487
 3365SOL    HW210995   1.538   2.624   4.408
 3366SOL     OW10996   6.197   3.853   3.813
 3366SOL    HW110997   6.291   3.820   3.813
 3366SOL    HW210998   6.140   3.792   3.869
 3367SOL     OW10999   3.422   3.299   3.734
 3367SOL    HW111000   3.490   3.294   3.660
 3367SOL    HW211001   3.338   3.255   3.704
 3368SOL     OW11002   0.493   5.872   6.782
 3368SOL    HW111003   0.561   5.915   6.723
 3368SOL    HW211004   0.508   5.901   6.877
 3369SOL     OW11005   4.774   1.888   1.617
 3369SOL    HW111006   4.786   1.859   1.522
 3369SOL    HW211007   4.848   1.950   1.643
 3370SOL     OW11008   5.631   6.678   2.045
 3370SOL    HW111009   5.686   6.750   2.088
 3370SOL    HW211010   5.612   6.704   1.950
 3371SOL     OW11011   2.056   3.851   2.008
 3371SOL    HW111012   2.051   3.768   2.063
 3371SOL    HW211013   2.150   3.865   1.977
 3372SOL     OW11014   6.699   2.504   0.525
 3372SOL    HW111015   6.790   2.544   0.519
 3372SOL    HW211016   6.670   2.501   0.621
 3373SOL     OW11017   0.509   1.748   2.872
 3373SOL    HW111018   0.485   1.718   2.779
 3373SOL    HW211019   0.583   1.692   2.907
 3374SOL     OW11020   1.288   0.484   3.746
 3374SOL    HW111021   1.220   0.534   3.693
 3374SOL    HW211022   1.274   0.501   3.844
 3375SOL     OW11023   6.698   4.695   0.553
 3375SOL    HW111024   6.664   4.612   0.507
 3375SOL    HW211025   6.664   4.698   0.647
 3376SOL     OW11026   2.983   3.664   4.915
 3376SOL    HW111027   2.982   3.586   4.853
 3376SOL    HW211028   3.076   3.679   4.949
 3377SOL     OW11029   6.578   4.934   4.502
 3377SOL    HW111030   6.638   4.996   4.553
 3377SOL    HW211031   6.626   4.901   4.420
 3378SOL     OW11032   0.364   0.248   6.798
 3378SOL    HW111033   0.299   0.210   6.733
 3378SOL    HW211034   0.325   0.243   6.890
 3379SOL     OW11035   0.969   2.894   4.728
 3379SOL    HW111036   1.029   2.867   4.804
 3379SOL    HW211037   0.914   2.973   4.756
 3380SOL     OW11038   4.156   5.433   5.274
 3380SOL    HW111039   4.057   5.426   5.288
 3380SOL    HW211040   4.186   5.359   5.213
 3381SOL     OW11041   6.932   2.958   1.479
 3381SOL    HW111042   6.901   2.973   1.385
 3381SOL    HW211043   0.008   2.931   1.479
 3382SOL     OW11044   0.346   3.287   0.992
 3382SOL    HW111045   0.440   3.309   1.019
 3382SOL    HW211046   0.285   3.360   1.020
 3383SOL     OW11047   3.486   5.353   0.304
 3383SOL    HW111048   3.460   5.342   0.400
 3383SOL    HW211049   3.422   5.303   0.246
 3384SOL     OW11050   2.887   4.456   0.848
 3384SOL    HW111051   2.816   4.403   0.894
 3384SOL    HW211052   2.889   4.549   0.887
 3385SOL     OW11053   6.374   3.095   3.838
 3385SOL    HW111054   6.320   3.012   3.847
 3385SOL    HW211055   6.458   3.086   3.893
 3386SOL     OW11056   6.391   4.848   0.002
 3386SOL    HW111057   6.312   4.790   0.022
 3386SOL    HW211058   6.382   4.886   6.929
 3387SOL     OW11059   4.965   0.529   3.157
 3387SOL    HW111060   4.958   0.515   3.058
 3387SOL    HW211061   5.058   0.506   3.188
 3388SOL     OW11062   5.304   4.265   2.065
 3388SOL    HW111063   5.349   4.195   2.122
 3388SOL    HW211064   5.297   4.350   2.116
 3389SOL     OW11065   6.677   5.529   6.771
 3389SOL    HW111066   6.635   5.589   6.840
 3389SOL    HW211067   6.651   5.434   6.790
 3390SOL     OW11068   4.346   6.280   6.372
 3390SOL    HW111069   4.292   6.210   6.420
 3390SOL    HW211070   4.385   6.343   6.439
 3391SOL     OW11071   5.149   2.016   3.218
 3391SOL    HW111072   5.149   2.115   3.200
 3391SOL    HW211073   5.058   1.988   3.247
 3392SOL     OW11074   3.292   6.577   4.279
 3392SOL    HW111075   3.211   6.613   4.234
 3392SOL    HW211076   3.266   6.500   4.337
 3393SOL     OW11077   5.054   6.766   0.149
 3393SOL    HW111078   5.053   6.864   0.128
 3393SOL    HW211079   5.102   6.751   0.236
 3394SOL     OW11080   3.965   5.170   0.773
 3394SOL    HW111081   3.972   5.077   0.739
 3394SOL    HW211082   4.054   5.216   0.764
 3395SOL     OW11083   4.987   1.680   3.073
 3395SOL    HW111084   5.048   1.755   3.099
 3395SOL    HW211085   5.008   1.650   2.980
 3396SOL     OW11086   5.416   1.028   3.948
 3396SOL    HW111087   5.366   1.043   4.033
 3396SOL    HW211088   5.377   1.085   3.875
 3397SOL     OW11089   2.745   5.795   6.066
 3397SOL    HW111090   2.782   5.881   6.031
 3397SOL    HW211091   2.787   5.775   6.155
 3398SOL     OW11092   0.833   0.241   5.457
 3398SOL    HW111093   0.816   0.246   5.555
 3398SOL    HW211094   0.881   0.324   5.427
 3399SOL     OW11095   6.400   4.829   3.178
 3399SOL    HW111096   6.372   4.784   3.263
 3399SOL    HW211097   6.328   4.893   3.150
 3400SOL     OW11098   6.429   3.506   6.567
 3400SOL    HW111099   6.376   3.424   6.547
 3400SOL    HW211100   6.472   3.497   6.656
 3401SOL     OW11101   6.110   3.716   6.277
 3401SOL    HW111102   6.089   3.813   6.290
 3401SOL    HW211103   6.150   3.702   6.186
 3402SOL     OW11104   6.222   5.625   0.456
 3402SOL    HW111105   6.291   5.656   0.391
 3402SOL    HW211106   6.202   5.528   0.441
 3403SOL     OW11107   4.974   5.613   6.295
 3403SOL    HW111108   4.893   5.593   6.240
 3403SOL    HW211109   4.957   5.590   6.390
 3404SOL     OW11110   5.065   3.140   6.927
 3404SOL    HW111111   5.152   3.137   6.878
 3404SOL    HW211112   5.055   3.058   6.984
 3405SOL     OW11113   5.510   4.833   6.073
 3405SOL    HW111114   5.418   4.806   6.044
 3405SOL    HW211115   5.504   4.910   6.136
 3406SOL     OW11116   2.145   3.635   2.646
 3406SOL    HW111117   2.189   3.724   2.642
 3406SOL    HW211118   2.046   3.646   2.650
 3407SOL     OW11119   2.789   4.158   0.626
 3407SOL    HW111120   2.796   4.169   0.527
 3407SOL    HW211121   2.878   4.178   0.668
 3408SOL     OW11122   4.326   2.390   4.673
 3408SOL    HW111123   4.269   2.309   4.687
 3408SOL    HW211124   4.271   2.472   4.692
 3409SOL     OW11125   3.106   6.150   0.841
 3409SOL    HW111126   3.183   6.099   0.804
 3409SOL    HW211127   3.020   6.105   0.815
 3410SOL     OW11128   5.833   6.379   3.024
 3410SOL    HW111129   5.753   6.320   3.031
 3410SOL    HW211130   5.828   6.432   2.939
 3411SOL     OW11131   0.026   2.929   0.319
 3411SOL    HW111132   7.007   2.905   0.408
 3411SOL    HW211133   0.058   2.846   0.272
 3412SOL     OW11134   4.946   3.737   1.157
 3412SOL    HW111135   4.886   3.779   1.225
 3412SOL    HW211136   4.987   3.654   1.195
 3413SOL     OW11137   6.389   2.405   6.848
 3413SOL    HW111138   6.460   2.414   6.918
 3413SOL    HW211139   6.326   2.332   6.873
 3414SOL     OW11140   3.770   2.162   5.664
 3414SOL    HW111141   3.721   2.244   5.634
 3414SOL    HW211142   3.715   2.111   5.729
 3415SOL     OW11143   2.122   2.124   3.987
 3415SOL    HW111144   2.083   2.045   4.035
 3415SOL    HW211145   2.208   2.151   4.033
 3416SOL     OW11146   5.951   0.198   6.769
 3416SOL    HW111147   5.928   0.224   6.675
 3416SOL    HW211148   5.876   0.226   6.830
 3417SOL     OW11149   0.049   6.587   2.523
 3417SOL    HW111150   0.101   6.513   2.480
 3417SOL    HW211151   0.107   6.633   2.591
 3418SOL     OW11152   3.743   5.710   3.441
 3418SOL    HW111153   3.830   5.693   3.395
 3418SOL    HW211154   3.705   5.797   3.409
 3419SOL     OW11155   4.009   5.385   5.935
 3419SOL    HW111156   3.909   5.381   5.930
 3419SOL    HW211157   4.046   5.383   5.842
 3420SOL     OW11158   5.258   3.040   4.252
 3420SOL    HW111159   5.261   2.973   4.177
 3420SOL    HW211160   5.197   3.006   4.323
 3421SOL     OW11161   5.428   1.646   3.193
 3421SOL    HW111162   5.400   1.614   3.283
 3421SOL    HW211163   5.503   1.711   3.202
 3422SOL     OW11164   2.264   0.546   0.378
 3422SOL    HW111165   2.290   0.503   0.465
 3422SOL    HW211166   2.206   0.625   0.396
 3423SOL     OW11167   0.633   3.961   5.960
 3423SOL    HW111168   0.660   3.914   5.876
 3423SOL    HW211169   0.540   3.935   5.984
 3424SOL     OW11170   3.395   0.407   1.474
 3424SOL    HW111171   3.318   0.393   1.536
 3424SOL    HW211172   3.374   0.368   1.384
 3425SOL     OW11173   4.536   5.088   2.184
 3425SOL    HW111174   4.601   5.060   2.114
 3425SOL    HW211175   4.487   5.007   2.218
 3426SOL     OW11176   5.233   2.938   0.833
 3426SOL    HW111177   5.280   3.026   0.836
 3426SOL    HW211178   5.162   2.939   0.763
 3427SOL     OW11179   0.818   2.028   2.300
 3427SOL    HW111180   0.774   2.048   2.388
 3427SOL    HW211181   0.805   1.932   2.277
 3428SOL     OW11182   4.740   4.530   6.340
 3428SOL    HW111183   4.823   4.572   6.304
 3428SOL    HW211184   4.761   4.440   6.378
 3429SOL     OW11185   0.681   1.111   1.303
 3429SOL    HW111186   0.731   1.171   1.365
 3429SOL    HW211187   0.746   1.056   1.250
 3430SOL     OW11188   2.089   5.219   6.177
 3430SOL    HW111189   2.034   5.299   6.202
 3430SOL    HW211190   2.167   5.248   6.122
 3431SOL     OW11191   2.049   6.781   2.127
 3431SOL    HW111192   1.984   6.857   2.138
 3431SOL    HW211193   1.998   6.695   2.123
 3432SOL     OW11194   2.108   4.969   6.478
 3432SOL    HW111195   2.053   4.886   6.471
 3432SOL    HW211196   2.171   4.974   6.400
 3433SOL     OW11197   1.939   1.193   6.123
 3433SOL    HW111198   1.913   1.229   6.034
 3433SOL    HW211199   1.862   1.200   6.186
 3434SOL     OW11200   2.993   2.013   1.924
 3434SOL    HW111201   2.996   2.112   1.939
 3434SOL    HW211202   2.897   1.983   1.922
 3435SOL     OW11203   2.680   1.258   0.170
 3435SOL    HW111204   2.615   1.239   0.243
 3435SOL    HW211205   2.670   1.190   0.097
 3436SOL     OW11206   3.736   5.270   0.029
 3436SOL    HW111207   3.798   5.294   6.974
 3436SOL    HW211208   3.757   5.328   0.109
 3437SOL     OW11209   1.566   6.969   5.644
 3437SOL    HW111210   1.655   6.987   5.686
 3437SOL    HW211211   1.576   6.969   5.544
 3438SOL     OW11212   0.437   4.132   1.276
 3438SOL    HW111213   0.534   4.146   1.257
 3438SOL    HW211214   0.418   4.034   1.285
 3439SOL     OW11215   3.303   5.940   3.390
 3439SOL    HW111216   3.275   5.847   3.415
 3439SOL    HW211217   3.281   6.003   3.464
 3440SOL     OW11218   3.983   3.639   3.699
 3440SOL    HW111219   4.001   3.713   3.634
 3440SOL    HW211220   4.019   3.664   3.789
 3441SOL     OW11221   0.610   6.254   6.630
 3441SOL    HW111222   0.511   6.247   6.614
 3441SOL    HW211223   0.629   6.335   6.684
 3442SOL     OW11224   3.384   3.539   0.706
 3442SOL    HW111225   3.285   3.546   0.707
 3442SOL    HW211226   3.414   3.481   0.782
 3443SOL     OW11227   3.330   5.383   2.471
 3443SOL    HW111228   3.325   5.483   2.473
 3443SOL    HW211229   3.383   5.351   2.550
 3444SOL     OW11230   5.038   4.788   1.751
 3444SOL    HW111231   5.020   4.800   1.849
 3444SOL    HW211232   5.043   4.690   1.729
 3445SOL     OW11233   0.408   5.197   4.108
 3445SOL    HW111234   0.501   5.234   4.100
 3445SOL    HW211235   0.363   5.199   4.019
 3446SOL     OW11236   5.695   0.542   1.216
 3446SOL    HW111237   5.615   0.600   1.202
 3446SOL    HW211238   5.699   0.514   1.312
 3447SOL     OW11239   5.616   1.199   0.007
 3447SOL    HW111240   5.594   1.120   0.064
 3447SOL    HW211241   5.685   1.255   0.054
 3448SOL     OW11242   2.279   6.601   5.891
 3448SOL    HW111243   2.215   6.530   5.861
 3448SOL    HW211244   2.268   6.617   5.989
 3449SOL     OW11245   5.808   5.105   5.315
 3449SOL    HW111246   5.869   5.069   5.386
 3449SOL    HW211247   5.715   5.111   5.350
 3450SOL     OW11248   1.408   1.040   6.740
 3450SOL    HW111249   1.365   0.957   6.775
 3450SOL    HW211250   1.439   1.097   6.816
 3451SOL     OW11251   1.678   5.590   0.448
 3451SOL    HW111252   1.699   5.493   0.434
 3451SOL    HW211253   1.593   5.613   0.399
 3452SOL     OW11254   5.995   0.738   5.937
 3452SOL    HW111255   5.959   0.815   5.884
 3452SOL    HW211256   5.959   0.743   6.030
 3453SOL     OW11257   5.249   5.997   6.357
 3453SOL    HW111258   5.234   6.095   6.363
 3453SOL    HW211259   5.175   5.954   6.306
 3454SOL     OW11260   1.498   3.197   3.910
 3454SOL    HW111261   1.413   3.250   3.917
 3454SOL    HW211262   1.552   3.208   3.994
 3455SOL     OW11263   2.339   1.728   4.451
 3455SOL    HW111264   2.383   1.752   4.365
 3455SOL    HW211265   2.303   1.635   4.446
 3456SOL     OW11266   4.395   4.585   2.068
 3456SOL    HW111267   4.381   4.526   1.989
 3456SOL    HW211268   4.489   4.575   2.101
 3457SOL     OW11269   4.031   5.160   5.034
 3457SOL    HW111270   3.983   5.227   4.977
 3457SOL    HW211271   4.127   5.154   5.005
 3458SOL     OW11272   4.649   2.069   1.935
 3458SOL    HW111273   4.617   2.118   1.853
 3458SOL    HW211274   4.727   2.118   1.974
 3459SOL     OW11275   5.223   1.989   3.600
 3459SOL    HW111276   5.139   1.953   3.559
 3459SOL    HW211277   5.298   1.926   3.582
 3460SOL     OW11278   2.839   1.961   5.780
 3460SOL    HW111279   2.925   1.934   5.738
 3460SOL    HW211280   2.826   1.911   5.866
 3461SOL     OW11281   5.973   4.683   6.692
 3461SOL    HW111282   5.945   4.586   6.695
 3461SOL    HW211283   5.939   4.724   6.607
 3462SOL     OW11284   1.401   3.679   5.626
 3462SOL    HW111285   1.460   3.743   5.577
 3462SOL    HW211286   1.337   3.636   5.562
 3463SOL     OW11287   0.765   4.257   1.169
 3463SOL    HW111288   0.841   4.318   1.145
 3463SOL    HW211289   0.719   4.227   1.085
 3464SOL     OW11290   0.242   4.428   6.606
 3464SOL    HW111291   0.295   4.369   6.545
 3464SOL    HW211292   0.291   4.514   6.620
 3465SOL     OW11293   2.253   1.618   2.059
 3465SOL    HW111294   2.348   1.649   2.066
 3465SOL    HW211295   2.230   1.603   1.962
 3466SOL     OW11296   6.804   5.591   6.064
 3466SOL    HW111297   6.781   5.533   6.142
 3466SOL    HW211298   6.732   5.660   6.052
 3467SOL     OW11299   1.813   1.610   6.905
 3467SOL    HW111300   1.822   1.510   6.897
 3467SOL    HW211301   1.727   1.639   6.863
 3468SOL     OW11302   3.272   5.167   2.725
 3468SOL    HW111303   3.294   5.087   2.669
 3468SOL    HW211304   3.200   5.221   2.680
 3469SOL     OW11305   6.368   2.189   4.227
 3469SOL    HW111306   6.356   2.158   4.133
 3469SOL    HW211307   6.326   2.279   4.239
 3470SOL     OW11308   0.534   5.267   0.994
 3470SOL    HW111309   0.483   5.268   1.079
 3470SOL    HW211310   0.588   5.351   0.986
 3471SOL     OW11311   4.353   5.106   5.358
 3471SOL    HW111312   4.375   5.197   5.392
 3471SOL    HW211313   4.291   5.113   5.280
 3472SOL     OW11314   2.614   1.075   3.783
 3472SOL    HW111315   2.613   0.977   3.762
 3472SOL    HW211316   2.669   1.090   3.865
 3473SOL     OW11317   5.614   1.724   6.123
 3473SOL    HW111318   5.518   1.731   6.149
 3473SOL    HW211319   5.641   1.807   6.074
 3474SOL     OW11320   3.060   4.886   1.559
 3474SOL    HW111321   3.057   4.983   1.533
 3474SOL    HW211322   3.047   4.878   1.657
 3475SOL     OW11323   1.290   6.610   4.192
 3475SOL    HW111324   1.215   6.580   4.133
 3475SOL    HW211325   1.370   6.551   4.177
 3476SOL     OW11326   3.585   6.798   4.490
 3476SOL    HW111327   3.569   6.813   4.587
 3476SOL    HW211328   3.601   6.887   4.445
 3477SOL     OW11329   3.422   5.309   1.331
 3477SOL    HW111330   3.479   5.332   1.252
 3477SOL    HW211331   3.330   5.285   1.300
 3478SOL     OW11332   2.437   6.327   5.631
 3478SOL    HW111333   2.452   6.306   5.534
 3478SOL    HW211334   2.463   6.422   5.648
 3479SOL     OW11335   0.642   0.160   2.895
 3479SOL    HW111336   0.621   0.241   2.949
 3479SOL    HW211337   0.557   0.116   2.865
 3480SOL     OW11338   6.691   1.402   4.285
 3480SOL    HW111339   6.617   1.339   4.309
 3480SOL    HW211340   6.715   1.390   4.188
 3481SOL     OW11341   4.271   7.007   6.523
 3481SOL    HW111342   4.195   6.951   6.555
 3481SOL    HW211343   4.316   0.032   6.600
 3482SOL     OW11344   5.552   1.269   1.176
 3482SOL    HW111345   5.539   1.228   1.266
 3482SOL    HW211346   5.647   1.298   1.165
 3483SOL     OW11347   2.802   0.758   0.998
 3483SOL    HW111348   2.803   0.685   1.067
 3483SOL    HW211349   2.731   0.824   1.021
 3484SOL     OW11350   3.000   3.608   2.695
 3484SOL    HW111351   3.014   3.595   2.597
 3484SOL    HW211352   3.046   3.691   2.725
 3485SOL     OW11353   1.612   0.943   5.048
 3485SOL    HW111354   1.546   0.967   5.119
 3485SOL    HW211355   1.689   1.007   5.050
 3486SOL     OW11356   3.763   1.557   2.140
 3486SOL    HW111357   3.810   1.475   2.172
 3486SOL    HW211358   3.746   1.618   2.218
 3487SOL     OW11359   5.438   1.693   6.768
 3487SOL    HW111360   5.367   1.741   6.716
 3487SOL    HW211361   5.515   1.672   6.708
 3488SOL     OW11362   5.606   3.101   4.272
 3488SOL    HW111363   5.531   3.100   4.338
 3488SOL    HW211364   5.682   3.156   4.308
 3489SOL     OW11365   3.404   6.919   0.832
 3489SOL    HW111366   3.321   6.866   0.815
 3489SOL    HW211367   3.464   6.867   0.893
 3490SOL     OW11368   4.727   4.583   0.477
 3490SOL    HW111369   4.723   4.494   0.431
 3490SOL    HW211370   4.635   4.624   0.477
 3491SOL     OW11371   6.885   2.936   6.050
 3491SOL    HW111372   6.793   2.973   6.066
 3491SOL    HW211373   6.949   2.975   6.116
 3492SOL     OW11374   0.943   5.671   0.158
 3492SOL    HW111375   0.907   5.580   0.138
 3492SOL    HW211376   0.922   5.733   0.082
 3493SOL     OW11377   5.803   5.104   0.141
 3493SOL    HW111378   5.848   5.147   0.219
 3493SOL    HW211379   5.758   5.173   0.086
 3494SOL     OW11380   4.182   6.972   0.468
 3494SOL    HW111381   4.179   0.048   0.437
 3494SOL    HW211382   4.275   6.937   0.457
 3495SOL     OW11383   4.178   4.709   2.561
 3495SOL    HW111384   4.260   4.684   2.509
 3495SOL    HW211385   4.112   4.634   2.556
 3496SOL     OW11386   1.261   3.206   1.589
 3496SOL    HW111387   1.180   3.211   1.529
 3496SOL    HW211388   1.232   3.205   1.684
 3497SOL     OW11389   4.017   0.501   2.972
 3497SOL    HW111390   4.070   0.428   2.930
 3497SOL    HW211391   3.983   0.563   2.901
 3498SOL     OW11392   3.056   1.920   1.059
 3498SOL    HW111393   2.959   1.941   1.064
 3498SOL    HW211394   3.072   1.849   0.990
 3499SOL     OW11395   6.557   3.610   4.512
 3499SOL    HW111396   6.536   3.566   4.599
 3499SOL    HW211397   6.527   3.706   4.515
 3500SOL     OW11398   6.616   4.227   6.209
 3500SOL    HW111399   6.583   4.275   6.127
 3500SOL    HW211400   6.589   4.279   6.291
 3501SOL     OW11401   0.253   5.099   4.706
 3501SOL    HW111402   0.200   5.112   4.621
 3501SOL    HW211403   0.328   5.165   4.708
 3502SOL     OW11404   0.491   2.046   2.235
 3502SOL    HW111405   0.477   2.115   2.164
 3502SOL    HW211406   0.480   1.955   2.196
 3503SOL     OW11407   4.834   5.761   5.230
 3503SOL    HW111408   4.753   5.763   5.288
 3503SOL    HW211409   4.895   5.687   5.261
 3504SOL     OW11410   2.791   3.543   1.008
 3504SOL    HW111411   2.839   3.460   1.034
 3504SOL    HW211412   2.711   3.519   0.953
 3505SOL     OW11413   5.274   5.642   5.186
 3505SOL    HW111414   5.368   5.608   5.188
 3505SOL    HW211415   5.267   5.718   5.121
 3506SOL     OW11416   4.188   5.780   5.079
 3506SOL    HW111417   4.266   5.778   5.141
 3506SOL    HW211418   4.140   5.868   5.088
 3507SOL     OW11419   1.507   0.934   6.494
 3507SOL    HW111420   1.477   0.962   6.585
 3507SOL    HW211421   1.522   0.835   6.492
 3508SOL     OW11422   4.795   2.440   6.927
 3508SOL    HW111423   4.714   2.488   6.893
 3508SOL    HW211424   4.798   2.347   6.891
 3509SOL     OW11425   6.102   6.067   6.997
 3509SOL    HW111426   6.182   6.048   0.035
 3509SOL    HW211427   6.131   6.076   6.902
 3510SOL     OW11428   1.889   2.244   2.180
 3510SOL    HW111429   1.800   2.225   2.139
 3510SOL    HW211430   1.914   2.171   2.243
 3511SOL     OW11431   1.500   3.177   0.089
 3511SOL    HW111432   1.408   3.205   0.060
 3511SOL    HW211433   1.498   3.080   0.115
 3512SOL     OW11434   1.002   4.261   0.303
 3512SOL    HW111435   0.930   4.261   0.373
 3512SOL    HW211436   1.045   4.171   0.300
 3513SOL     OW11437   6.278   4.733   0.917
 3513SOL    HW111438   6.223   4.650   0.926
 3513SOL    HW211439   6.311   4.761   1.007
 3514SOL     OW11440   0.334   6.840   1.306
 3514SOL    HW111441   0.385   6.923   1.282
 3514SOL    HW211442   0.254   6.865   1.360
 3515SOL     OW11443   3.260   5.683   2.784
 3515SOL    HW111444   3.179   5.644   2.740
 3515SOL    HW211445   3.325   5.611   2.805
 3516SOL     OW11446   3.392   0.803   0.687
 3516SOL    HW111447   3.321   0.740   0.718
 3516SOL    HW211448   3.418   0.863   0.763
 3517SOL     OW11449   0.541   1.151   0.434
 3517SOL    HW111450   0.598   1.219   0.388
 3517SOL    HW211451   0.490   1.098   0.367
 3518SOL     OW11452   5.198   3.985   6.130
 3518SOL    HW111453   5.234   3.956   6.219
 3518SOL    HW211454   5.145   3.911   6.090
 3519SOL     OW11455   0.762   6.841   6.706
 3519SOL    HW111456   0.686   6.883   6.658
 3519SOL    HW211457   0.848   6.870   6.664
 3520SOL     OW11458   3.797   4.237   1.096
 3520SOL    HW111459   3.858   4.218   1.173
 3520SOL    HW211460   3.751   4.325   1.110
 3521SOL     OW11461   5.206   3.201   1.274
 3521SOL    HW111462   5.266   3.180   1.352
 3521SOL    HW211463   5.235   3.287   1.232
 3522SOL     OW11464   3.057   5.264   1.862
 3522SOL    HW111465   3.033   5.350   1.817
 3522SOL    HW211466   3.073   5.281   1.959
 3523SOL     OW11467   3.040   4.738   5.289
 3523SOL    HW111468   2.976   4.678   5.240
 3523SOL    HW211469   3.124   4.748   5.236
 3524SOL     OW11470   2.684   0.677   0.513
 3524SOL    HW111471   2.624   0.753   0.486
 3524SOL    HW211472   2.779   0.709   0.515
 3525SOL     OW11473   0.484   3.568   1.878
 3525SOL    HW111474   0.580   3.596   1.884
 3525SOL    HW211475   0.461   3.549   1.783
 3526SOL     OW11476   1.384   0.652   3.360
 3526SOL    HW111477   1.292   0.620   3.339
 3526SOL    HW211478   1.415   0.611   3.446
 3527SOL     OW11479   5.027   2.841   6.366
 3527SOL    HW111480   5.111   2.800   6.331
 3527SOL    HW211481   5.031   2.940   6.356
 3528SOL     OW11482   1.138   5.893   3.112
 3528SOL    HW111483   1.169   5.856   3.199
 3528SOL    HW211484   1.171   5.987   3.102
 3529SOL     OW11485   4.014   6.594   5.537
 3529SOL    HW111486   4.077   6.517   5.527
 3529SOL    HW211487   4.003   6.615   5.634
 3530SOL     OW11488   3.050   6.030   2.781
 3530SOL    HW111489   3.088   6.117   2.812
 3530SOL    HW211490   3.124   5.970   2.750
 3531SOL     OW11491   5.488   4.053   0.327
 3531SOL    HW111492   5.583   4.077   0.310
 3531SOL    HW211493   5.447   4.121   0.388
 3532SOL     OW11494   2.279   0.827   0.102
 3532SOL    HW111495   2.360   0.855   0.153
 3532SOL    HW211496   2.304   0.755   0.037
 3533SOL     OW11497   0.760   2.045   3.510
 3533SOL    HW111498   0.848   2.058   3.556
 3533SOL    HW211499   0.769   2.066   3.413
 3534SOL     OW11500   6.004   1.711   5.205
 3534SOL    HW111501   5.913   1.709   5.164
 3534SOL    HW211502   6.057   1.787   5.167
 3535SOL     OW11503   6.718   5.890   6.932
 3535SOL    HW111504   6.791   5.918   6.869
 3535SOL    HW211505   6.741   5.801   6.972
 3536SOL     OW11506   1.414   3.450   3.482
 3536SOL    HW111507   1.338   3.494   3.435
 3536SOL    HW211508   1.387   3.358   3.510
 3537SOL     OW11509   2.909   4.983   1.013
 3537SOL    HW111510   2.993   4.967   1.066
 3537SOL    HW211511   2.930   5.038   0.932
 3538SOL     OW11512   3.127   0.753   3.897
 3538SOL    HW111513   3.059   0.826   3.908
 3538SOL    HW211514   3.184   0.748   3.979
 3539SOL     OW11515   5.917   3.397   5.371
 3539SOL    HW111516   5.951   3.307   5.397
 3539SOL    HW211517   5.880   3.443   5.452
 3540SOL     OW11518   1.693   3.209   6.910
 3540SOL    HW111519   1.627   3.202   6.985
 3540SOL    HW211520   1.691   3.301   6.872
 3541SOL     OW11521   2.466   2.725   0.070
 3541SOL    HW111522   2.368   2.718   0.089
 3541SOL    HW211523   2.486   2.814   0.029
 3542SOL     OW11524   5.780   2.777   0.241
 3542SOL    HW111525   5.874   2.764   0.208
 3542SOL    HW211526   5.777   2.761   0.340
 3543SOL     OW11527   1.365   3.197   3.533
 3543SOL    HW111528   1.404   3.106   3.547
 3543SOL    HW211529   1.274   3.200   3.573
 3544SOL     OW11530   3.262   4.347   6.807
 3544SOL    HW111531   3.316   4.294   6.743
 3544SOL    HW211532   3.287   4.322   6.901
 3545SOL     OW11533   3.706   5.580   0.599
 3545SOL    HW111534   3.624   5.563   0.654
 3545SOL    HW211535   3.680   5.592   0.503
 3546SOL     OW11536   6.368   4.484   3.287
 3546SOL    HW111537   6.438   4.464   3.219
 3546SOL    HW211538   6.281   4.504   3.242
 3547SOL     OW11539   6.721   3.290   4.628
 3547SOL    HW111540   6.672   3.331   4.705
 3547SOL    HW211541   6.752   3.363   4.567
 3548SOL     OW11542   4.940   1.410   6.095
 3548SOL    HW111543   4.916   1.359   6.178
 3548SOL    HW211544   4.920   1.507   6.109
 3549SOL     OW11545   2.032   5.309   6.543
 3549SOL    HW111546   2.035   5.209   6.547
 3549SOL    HW211547   1.937   5.340   6.547
 3550SOL     OW11548   5.133   2.157   5.037
 3550SOL    HW111549   5.099   2.196   4.951
 3550SOL    HW211550   5.055   2.127   5.092
 3551SOL     OW11551   3.423   1.752   5.129
 3551SOL    HW111552   3.393   1.657   5.123
 3551SOL    HW211553   3.362   1.809   5.074
 3552SOL     OW11554   6.165   5.329   1.652
 3552SOL    HW111555   6.238   5.264   1.671
 3552SOL    HW211556   6.198   5.422   1.668
 3553SOL     OW11557   3.232   6.091   6.296
 3553SOL    HW111558   3.321   6.091   6.342
 3553SOL    HW211559   3.226   6.171   6.236
 3554SOL     OW11560   3.491   3.832   0.973
 3554SOL    HW111561   3.460   3.923   0.947
 3554SOL    HW211562   3.558   3.839   1.047
 3555SOL     OW11563   1.679   2.200   4.562
 3555SOL    HW111564   1.746   2.273   4.558
 3555SOL    HW211565   1.678   2.151   4.475
 3556SOL     OW11566   3.561   1.031   4.865
 3556SOL    HW111567   3.657   1.033   4.892
 3556SOL    HW211568   3.536   1.119   4.825
 3557SOL     OW11569   0.578   0.517   2.578
 3557SOL    HW111570   0.622   0.430   2.601
 3557SOL    HW211571   0.646   0.589   2.578
 3558SOL     OW11572   2.460   6.199   0.465
 3558SOL    HW111573   2.414   6.275   0.419
 3558SOL    HW211574   2.395   6.124   0.480
 3559SOL     OW11575   2.657   6.601   4.863
 3559SOL    HW111576   2.715   6.593   4.944
 3559SOL    HW211577   2.700   6.662   4.796
 3560SOL     OW11578   1.738   4.854   4.449
 3560SOL    HW111579   1.811   4.918   4.426
 3560SOL    HW211580   1.725   4.852   4.548
 3561SOL     OW11581   5.962   4.081   5.190
 3561SOL    HW111582   5.950   4.159   5.129
 3561SOL    HW211583   5.885   4.076   5.254
 3562SOL     OW11584   2.852   1.690   4.375
 3562SOL    HW111585   2.815   1.749   4.303
 3562SOL    HW211586   2.844   1.594   4.347
 3563SOL     OW11587   6.086   2.529   6.253
 3563SOL    HW111588   6.075   2.527   6.154
 3563SOL    HW211589   6.177   2.497   6.278
 3564SOL     OW11590   0.325   4.965   2.866
 3564SOL    HW111591   0.334   4.999   2.959
 3564SOL    HW211592   0.406   4.990   2.813
 3565SOL     OW11593   3.603   4.943   2.721
 3565SOL    HW111594   3.677   4.889   2.762
 3565SOL    HW211595   3.582   4.907   2.631
 3566SOL     OW11596   7.017   0.951   5.367
 3566SOL    HW111597   6.983   0.956   5.273
 3566SOL    HW211598   6.939   0.949   5.430
 3567SOL     OW11599   0.704   3.280   6.415
 3567SOL    HW111600   0.746   3.234   6.337
 3567SOL    HW211601   0.638   3.219   6.459
 3568SOL     OW11602   6.710   3.766   5.750
 3568SOL    HW111603   6.749   3.679   5.720
 3568SOL    HW211604   6.673   3.756   5.843
 3569SOL     OW11605   2.071   1.567   5.633
 3569SOL    HW111606   2.011   1.549   5.556
 3569SOL    HW211607   2.035   1.645   5.685
 3570SOL     OW11608   5.389   0.540   5.590
 3570SOL    HW111609   5.323   0.562   5.518
 3570SOL    HW211610   5.339   0.516   5.674
 3571SOL     OW11611   0.165   5.807   0.207
 3571SOL    HW111612   0.265   5.794   0.207
 3571SOL    HW211613   0.128   5.780   0.119
 3572SOL     OW11614   5.458   3.843   4.160
 3572SOL    HW111615   5.442   3.925   4.105
 3572SOL    HW211616   5.516   3.866   4.238
 3573SOL     OW11617   0.612   3.947   4.093
 3573SOL    HW111618   0.562   3.861   4.102
 3573SOL    HW211619   0.619   3.991   4.183
 3574SOL     OW11620   0.521   5.011   0.164
 3574SOL    HW111621   0.482   5.000   0.256
 3574SOL    HW211622   0.507   4.927   0.111
 3575SOL     OW11623   5.580   5.342   3.351
 3575SOL    HW111624   5.591   5.248   3.383
 3575SOL    HW211625   5.547   5.340   3.256
 3576SOL     OW11626   1.521   1.531   5.768
 3576SOL    HW111627   1.515   1.458   5.700
 3576SOL    HW211628   1.435   1.535   5.820
 3577SOL     OW11629   1.317   2.614   6.313
 3577SOL    HW111630   1.294   2.646   6.405
 3577SOL    HW211631   1.368   2.684   6.265
 3578SOL     OW11632   3.610   3.505   6.692
 3578SOL    HW111633   3.643   3.590   6.732
 3578SOL    HW211634   3.674   3.431   6.714
 3579SOL     OW11635   0.235   4.004   4.604
 3579SOL    HW111636   0.174   3.947   4.549
 3579SOL    HW211637   0.193   4.021   4.693
 3580SOL     OW11638   6.098   1.459   0.820
 3580SOL    HW111639   6.047   1.530   0.869
 3580SOL    HW211640   6.175   1.501   0.771
 3581SOL     OW11641   6.582   0.381   3.662
 3581SOL    HW111642   6.679   0.396   3.644
 3581SOL    HW211643   6.562   0.407   3.757
 3582SOL     OW11644   0.501   2.365   6.208
 3582SOL    HW111645   0.557   2.289   6.176
 3582SOL    HW211646   0.541   2.452   6.177
 3583SOL     OW11647   0.547   4.165   6.853
 3583SOL    HW111648   0.449   4.172   6.838
 3583SOL    HW211649   0.564   4.115   6.939
 3584SOL     OW11650   6.182   6.102   6.233
 3584SOL    HW111651   6.226   6.155   6.160
 3584SOL    HW211652   6.210   6.006   6.226
 3585SOL     OW11653   3.398   5.269   5.885
 3585SOL    HW111654   3.440   5.301   5.971
 3585SOL    HW211655   3.341   5.341   5.847
 3586SOL     OW11656   6.522   2.739   5.477
 3586SOL    HW111657   6.604   2.769   5.525
 3586SOL    HW211658   6.460   2.816   5.464
 3587SOL     OW11659   2.540   5.718   0.509
 3587SOL    HW111660   2.564   5.810   0.476
 3587SOL    HW211661   2.620   5.675   0.550
 3588SOL     OW11662   0.904   2.864   5.637
 3588SOL    HW111663   0.927   2.798   5.566
 3588SOL    HW211664   0.970   2.938   5.637
 3589SOL     OW11665   3.378   0.985   4.267
 3589SOL    HW111666   3.379   1.029   4.356
 3589SOL    HW211667   3.472   0.981   4.231
 3590SOL     OW11668   6.993   4.402   6.543
 3590SOL    HW111669   0.070   4.425   6.552
 3590SOL    HW211670   6.973   4.378   6.448
 3591SOL     OW11671   4.944   3.589   6.664
 3591SOL    HW111672   5.042   3.602   6.675
 3591SOL    HW211673   4.905   3.554   6.749
 3592SOL     OW11674   5.445   3.699   3.395
 3592SOL    HW111675   5.444   3.664   3.301
 3592SOL    HW211676   5.401   3.788   3.398
 3593SOL     OW11677   2.449   6.136   4.627
 3593SOL    HW111678   2.500   6.220   4.643
 3593SOL    HW211679   2.382   6.151   4.554
 3594SOL     OW11680   3.997   1.143   2.388
 3594SOL    HW111681   4.053   1.064   2.364
 3594SOL    HW211682   3.929   1.116   2.457
 3595SOL     OW11683   2.002   6.162   6.187
 3595SOL    HW111684   2.101   6.173   6.184
 3595SOL    HW211685   1.973   6.141   6.280
 3596SOL     OW11686   6.757   1.339   2.887
 3596SOL    HW111687   6.778   1.278   2.810
 3596SOL    HW211688   6.670   1.385   2.870
 3597SOL     OW11689   2.815   6.246   5.025
 3597SOL    HW111690   2.863   6.223   4.940
 3597SOL    HW211691   2.830   6.342   5.047
 3598SOL     OW11692   1.248   0.499   5.783
 3598SOL    HW111693   1.155   0.528   5.804
 3598SOL    HW211694   1.263   0.407   5.821
 3599SOL     OW11695   0.847   2.026   5.710
 3599SOL    HW111696   0.843   1.983   5.800
 3599SOL    HW211697   0.917   1.981   5.654
 3600SOL     OW11698   0.043   3.655   0.531
 3600SOL    HW111699   7.002   3.699   0.465
 3600SOL    HW211700   0.019   3.684   0.624
 3601SOL     OW11701   6.572   4.025   0.702
 3601SOL    HW111702   6.631   3.945   0.705
 3601SOL    HW211703   6.560   4.061   0.794
 3602SOL     OW11704   2.064   1.266   1.139
 3602SOL    HW111705   2.075   1.299   1.233
 3602SOL    HW211706   2.154   1.259   1.095
 3603SOL     OW11707   3.702   6.306   3.839
 3603SOL    HW111708   3.683   6.276   3.746
 3603SOL    HW211709   3.631   6.369   3.869
 3604SOL     OW11710   6.477   3.819   3.852
 3604SOL    HW111711   6.505   3.865   3.767
 3604SOL    HW211712   6.487   3.883   3.928
 3605SOL     OW11713   6.004   4.627   5.821
 3605SOL    HW111714   5.995   4.532   5.791
 3605SOL    HW211715   5.955   4.640   5.907
 3606SOL     OW11716   6.567   4.678   5.533
 3606SOL    HW111717   6.633   4.610   5.499
 3606SOL    HW211718   6.617   4.760   5.561
 3607SOL     OW11719   5.191   6.526   0.963
 3607SOL    HW111720   5.288   6.523   0.988
 3607SOL    HW211721   5.143   6.450   1.007
 3608SOL     OW11722   6.737   1.942   2.181
 3608SOL    HW111723   6.678   1.932   2.262
 3608SOL    HW211724   6.792   1.859   2.170
 3609SOL     OW11725   0.234   0.721   4.298
 3609SOL    HW111726   0.221   0.716   4.397
 3609SOL    HW211727   0.221   0.630   4.258
 3610SOL     OW11728   0.950   0.505   5.396
 3610SOL    HW111729   1.034   0.451   5.408
 3610SOL    HW211730   0.967   0.578   5.330
 3611SOL     OW11731   3.653   4.683   5.458
 3611SOL    HW111732   3.625   4.735   5.378
 3611SOL    HW211733   3.573   4.664   5.515
 3612SOL     OW11734   6.685   6.966   5.626
 3612SOL    HW111735   6.709   6.894   5.691
 3612SOL    HW211736   6.713   6.939   5.534
 3613SOL     OW11737   5.202   5.217   1.277
 3613SOL    HW111738   5.132   5.146   1.272
 3613SOL    HW211739   5.282   5.189   1.224
 3614SOL     OW11740   3.696   3.181   3.737
 3614SOL    HW111741   3.753   3.119   3.791
 3614SOL    HW211742   3.739   3.271   3.733
 3615SOL     OW11743   5.666   6.476   6.234
 3615SOL    HW111744   5.756   6.490   6.275
 3615SOL    HW211745   5.641   6.379   6.242
 3616SOL     OW11746   6.970   1.394   6.201
 3616SOL    HW111747   6.953   1.427   6.108
 3616SOL    HW211748   7.016   1.466   6.254
 3617SOL     OW11749   5.235   1.425   6.299
 3617SOL    HW111750   5.234   1.334   6.258
 3617SOL    HW211751   5.173   1.427   6.377
 3618SOL     OW11752   1.481   1.998   5.690
 3618SOL    HW111753   1.484   2.020   5.787
 3618SOL    HW211754   1.574   1.976   5.658
 3619SOL     OW11755   6.453   2.143   3.450
 3619SOL    HW111756   6.529   2.192   3.494
 3619SOL    HW211757   6.395   2.209   3.402
 3620SOL     OW11758   6.070   5.462   5.527
 3620SOL    HW111759   6.027   5.486   5.614
 3620SOL    HW211760   6.001   5.433   5.461
 3621SOL     OW11761   2.599   2.142   5.750
 3621SOL    HW111762   2.671   2.073   5.744
 3621SOL    HW211763   2.581   2.180   5.659
 3622SOL     OW11764   2.417   2.181   3.205
 3622SOL    HW111765   2.439   2.275   3.231
 3622SOL    HW211766   2.500   2.125   3.209
 3623SOL     OW11767   5.887   5.699   4.133
 3623SOL    HW111768   5.957   5.640   4.174
 3623SOL    HW211769   5.907   5.795   4.155
 3624SOL     OW11770   2.166   6.812   2.434
 3624SOL    HW111771   2.250   6.781   2.477
 3624SOL    HW211772   2.169   6.792   2.336
 3625SOL     OW11773   6.322   3.190   7.012
 3625SOL    HW111774   6.395   3.157   0.052
 3625SOL    HW211775   6.306   3.124   6.939
 3626SOL     OW11776   1.572   3.778   5.236
 3626SOL    HW111777   1.544   3.686   5.208
 3626SOL    HW211778   1.662   3.799   5.197
 3627SOL     OW11779   3.715   2.944   3.531
 3627SOL    HW111780   3.789   2.939   3.464
 3627SOL    HW211781   3.745   2.996   3.611
 3628SOL     OW11782   1.827   0.002   1.576
 3628SOL    HW111783   1.847   0.023   1.671
 3628SOL    HW211784   1.891   6.952   1.543
 3629SOL     OW11785   6.038   2.202   4.383
 3629SOL    HW111786   6.104   2.267   4.345
 3629SOL    HW211787   6.083   2.114   4.400
 3630SOL     OW11788   5.689   2.891   3.272
 3630SOL    HW111789   5.777   2.926   3.240
 3630SOL    HW211790   5.685   2.896   3.372
 3631SOL     OW11791   1.923   0.182   3.638
 3631SOL    HW111792   1.955   0.276   3.634
 3631SOL    HW211793   1.823   0.180   3.640
 3632SOL     OW11794   4.956   0.237   0.443
 3632SOL    HW111795   4.973   0.314   0.383
 3632SOL    HW211796   4.909   0.269   0.526
 3633SOL     OW11797   2.998   1.628   5.901
 3633SOL    HW111798   3.073   1.678   5.857
 3633SOL    HW211799   2.921   1.620   5.838
 3634SOL     OW11800   0.561   5.471   5.395
 3634SOL    HW111801   0.618   5.481   5.476
 3634SOL    HW211802   0.613   5.500   5.314
 3635SOL     OW11803   2.612   0.154   5.745
 3635SOL    HW111804   2.528   0.102   5.763
 3635SOL    HW211805   2.591   0.230   5.684
 3636SOL     OW11806   1.003   6.064   6.345
 3636SOL    HW111807   1.010   5.977   6.394
 3636SOL    HW211808   0.972   6.047   6.251
 3637SOL     OW11809   6.908   2.084   1.575
 3637SOL    HW111810   6.821   2.040   1.552
 3637SOL    HW211811   6.893   2.151   1.649
 3638SOL     OW11812   0.328   4.270   4.611
 3638SOL    HW111813   0.303   4.175   4.591
 3638SOL    HW211814   0.424   4.273   4.639
 3639SOL     OW11815   4.068   3.953   0.731
 3639SOL    HW111816   4.146   3.912   0.779
 3639SOL    HW211817   4.041   4.037   0.779
 3640SOL     OW11818   3.664   6.905   6.653
 3640SOL    HW111819   3.704   6.987   6.695
 3640SOL    HW211820   3.630   6.928   6.562
 3641SOL     OW11821   4.664   2.772   4.065
 3641SOL    HW111822   4.632   2.690   4.112
 3641SOL    HW211823   4.653   2.760   3.966
 3642SOL     OW11824   4.582   0.953   0.236
 3642SOL    HW111825   4.555   1.002   0.319
 3642SOL    HW211826   4.582   1.017   0.159
 3643SOL     OW11827   2.576   5.433   5.382
 3643SOL    HW111828   2.675   5.416   5.382
 3643SOL    HW211829   2.536   5.393   5.465
 3644SOL     OW11830   6.893   1.222   1.470
 3644SOL    HW111831   6.950   1.298   1.500
 3644SOL    HW211832   6.875   1.160   1.546
 3645SOL     OW11833   6.242   1.422   3.938
 3645SOL    HW111834   6.295   1.360   3.882
 3645SOL    HW211835   6.146   1.392   3.941
 3646SOL     OW11836   6.601   4.540   6.322
 3646SOL    HW111837   6.615   4.596   6.240
 3646SOL    HW211838   6.665   4.569   6.394
 3647SOL     OW11839   2.232   3.386   0.105
 3647SOL    HW111840   2.222   3.432   0.016
 3647SOL    HW211841   2.161   3.420   0.168
 3648SOL     OW11842   3.105   5.357   2.999
 3648SOL    HW111843   3.200   5.363   3.031
 3648SOL    HW211844   3.054   5.438   3.031
 3649SOL     OW11845   4.899   3.068   1.740
 3649SOL    HW111846   4.840   3.048   1.818
 3649SOL    HW211847   4.985   3.018   1.750
 3650SOL     OW11848   0.223   5.345   6.836
 3650SOL    HW111849   0.200   5.383   6.925
 3650SOL    HW211850   0.249   5.249   6.846
 3651SOL     OW11851   0.585   6.356   3.128
 3651SOL    HW111852   0.507   6.403   3.168
 3651SOL    HW211853   0.559   6.316   3.040
 3652SOL     OW11854   5.859   6.060   3.167
 3652SOL    HW111855   5.958   6.053   3.158
 3652SOL    HW211856   5.835   6.146   3.211
 3653SOL     OW11857   6.934   0.232   3.383
 3653SOL    HW111858   6.942   0.325   3.347
 3653SOL    HW211859   6.875   0.178   3.323
 3654SOL     OW11860   2.194   6.745   0.531
 3654SOL    HW111861   2.279   6.724   0.579
 3654SOL    HW211862   2.134   6.797   0.593
 3655SOL     OW11863   1.382   0.240   3.684
 3655SOL    HW111864   1.333   0.170   3.737
 3655SOL    HW211865   1.350   0.331   3.712
 3656SOL     OW11866   1.353   3.444   2.005
 3656SOL    HW111867   1.413   3.429   2.084
 3656SOL    HW211868   1.362   3.539   1.975
 3657SOL     OW11869   5.119   5.563   5.943
 3657SOL    HW111870   5.034   5.516   5.971
 3657SOL    HW211871   5.147   5.529   5.854
 3658SOL     OW11872   1.586   5.944   3.811
 3658SOL    HW111873   1.532   6.014   3.764
 3658SOL    HW211874   1.682   5.954   3.787
 3659SOL     OW11875   2.684   3.252   5.535
 3659SOL    HW111876   2.702   3.192   5.457
 3659SOL    HW211877   2.735   3.337   5.525
 3660SOL     OW11878   4.639   6.905   2.681
 3660SOL    HW111879   4.686   6.941   2.600
 3660SOL    HW211880   4.613   6.981   2.741
 3661SOL     OW11881   4.716   1.716   5.969
 3661SOL    HW111882   4.762   1.702   6.056
 3661SOL    HW211883   4.693   1.812   5.958
 3662SOL     OW11884   4.855   0.730   3.311
 3662SOL    HW111885   4.818   0.700   3.399
 3662SOL    HW211886   4.901   0.653   3.267
 3663SOL     OW11887   2.108   1.984   0.744
 3663SOL    HW111888   2.140   2.051   0.811
 3663SOL    HW211889   2.027   2.020   0.697
 3664SOL     OW11890   4.468   2.329   1.231
 3664SOL    HW111891   4.370   2.309   1.231
 3664SOL    HW211892   4.518   2.254   1.275
 3665SOL     OW11893   1.122   5.900   5.725
 3665SOL    HW111894   1.204   5.955   5.740
 3665SOL    HW211895   1.098   5.901   5.628
 3666SOL     OW11896   1.990   3.765   2.970
 3666SOL    HW111897   1.920   3.706   2.930
 3666SOL    HW211898   1.991   3.854   2.923
 3667SOL     OW11899   6.462   0.660   0.595
 3667SOL    HW111900   6.495   0.571   0.628
 3667SOL    HW211901   6.506   0.733   0.646
 3668SOL     OW11902   1.582   0.580   2.169
 3668SOL    HW111903   1.676   0.575   2.136
 3668SOL    HW211904   1.549   0.675   2.164
 3669SOL     OW11905   6.088   0.831   4.081
 3669SOL    HW111906   6.136   0.868   4.002
 3669SOL    HW211907   6.130   0.866   4.165
 3670SOL     OW11908   2.500   4.119   0.707
 3670SOL    HW111909   2.491   4.092   0.803
 3670SOL    HW211910   2.595   4.144   0.688
 3671SOL     OW11911   6.384   0.120   4.076
 3671SOL    HW111912   6.339   0.084   4.157
 3671SOL    HW211913   6.335   0.089   3.994
 3672SOL     OW11914   5.363   1.627   1.253
 3672SOL    HW111915   5.382   1.546   1.197
 3672SOL    HW211916   5.312   1.694   1.198
 3673SOL     OW11917   3.801   0.075   5.755
 3673SOL    HW111918   3.827   0.100   5.848
 3673SOL    HW211919   3.871   0.105   5.691
 3674SOL     OW11920   0.315   0.086   4.861
 3674SOL    HW111921   0.311   0.127   4.952
 3674SOL    HW211922   0.223   0.076   4.824
 3675SOL     OW11923   1.910   3.098   4.921
 3675SOL    HW111924   1.964   3.087   4.838
 3675SOL    HW211925   1.861   3.185   4.918
 3676SOL     OW11926   4.573   4.785   4.729
 3676SOL    HW111927   4.545   4.803   4.824
 3676SOL    HW211928   4.597   4.689   4.720
 3677SOL     OW11929   1.695   6.819   3.362
 3677SOL    HW111930   1.635   6.852   3.435
 3677SOL    HW211931   1.738   6.733   3.390
 3678SOL     OW11932   0.902   3.676   3.582
 3678SOL    HW111933   0.839   3.662   3.506
 3678SOL    HW211934   0.870   3.625   3.662
 3679SOL     OW11935   1.949   0.778   3.170
 3679SOL    HW111936   1.939   0.744   3.077
 3679SOL    HW211937   2.047   0.790   3.190
 3680SOL     OW11938   5.789   1.999   3.538
 3680SOL    HW111939   5.855   2.069   3.511
 3680SOL    HW211940   5.754   2.020   3.629
 3681SOL     OW11941   0.670   0.844   4.795
 3681SOL    HW111942   0.605   0.775   4.763
 3681SOL    HW211943   0.720   0.882   4.717
 3682SOL     OW11944   5.566   2.705   6.813
 3682SOL    HW111945   5.480   2.664   6.780
 3682SOL    HW211946   5.563   2.712   6.913
 3683SOL     OW11947   6.863   6.530   3.808
 3683SOL    HW111948   6.837   6.621   3.774
 3683SOL    HW211949   6.845   6.462   3.737
 3684SOL     OW11950   1.746   3.508   6.940
 3684SOL    HW111951   1.799   3.534   6.860
 3684SOL    HW211952   1.653   3.544   6.931
 3685SOL     OW11953   6.510   6.545   6.526
 3685SOL    HW111954   6.425   6.591   6.501
 3685SOL    HW211955   6.526   6.555   6.625
 3686SOL     OW11956   6.685   5.802   3.740
 3686SOL    HW111957   6.621   5.833   3.810
 3686SOL    HW211958   6.644   5.812   3.650
 3687SOL     OW11959   3.786   6.318   5.834
 3687SOL    HW111960   3.725   6.290   5.908
 3687SOL    HW211961   3.777   6.416   5.818
 3688SOL     OW11962   0.748   3.466   6.630
 3688SOL    HW111963   0.765   3.391   6.566
 3688SOL    HW211964   0.753   3.553   6.581
 3689SOL     OW11965   1.642   0.570   6.636
 3689SOL    HW111966   1.710   0.638   6.611
 3689SOL    HW211967   1.684   0.501   6.695
 3690SOL     OW11968   4.394   0.321   6.242
 3690SOL    HW111969   4.468   0.272   6.287
 3690SOL    HW211970   4.307   0.274   6.260
 3691SOL     OW11971   2.551   2.162   0.153
 3691SOL    HW111972   2.649   2.180   0.167
 3691SOL    HW211973   2.499   2.203   0.227
 3692SOL     OW11974   0.582   5.882   4.997
 3692SOL    HW111975   0.675   5.906   4.969
 3692SOL    HW211976   0.543   5.817   4.932
 3693SOL     OW11977   2.152   2.763   2.785
 3693SOL    HW111978   2.057   2.738   2.806
 3693SOL    HW211979   2.214   2.701   2.831
 3694SOL     OW11980   1.960   5.505   3.184
 3694SOL    HW111981   2.001   5.484   3.096
 3694SOL    HW211982   1.860   5.506   3.176
 3695SOL     OW11983   6.259   2.631   2.699
 3695SOL    HW111984   6.302   2.716   2.668
 3695SOL    HW211985   6.264   2.562   2.627
 3696SOL     OW11986   3.530   5.922   5.206
 3696SOL    HW111987   3.592   5.978   5.261
 3696SOL    HW211988   3.472   5.981   5.151
 3697SOL     OW11989   0.403   5.785   3.055
 3697SOL    HW111990   0.384   5.870   3.103
 3697SOL    HW211991   0.320   5.729   3.050
 3698SOL     OW11992   2.948   6.789   5.125
 3698SOL    HW111993   2.937   6.832   5.035
 3698SOL    HW211994   3.042   6.800   5.156
 3699SOL     OW11995   6.974   3.410   3.115
 3699SOL    HW111996   0.009   3.430   3.033
 3699SOL    HW211997   6.996   3.318   3.148
 3700SOL     OW11998   0.406   0.490   4.889
 3700SOL    HW111999   0.446   0.401   4.907
 3700SOL    HW212000   0.306   0.482   4.888
 3701SOL     OW12001   0.507   0.774   3.409
 3701SOL    HW112002   0.451   0.752   3.489
 3701SOL    HW212003   0.466   0.850   3.359
 3702SOL     OW12004   5.491   6.524   2.547
 3702SOL    HW112005   5.394   6.513   2.568
 3702SOL    HW212006   5.539   6.439   2.567
 3703SOL     OW12007   4.575   2.325   6.510
 3703SOL    HW112008   4.507   2.310   6.581
 3703SOL    HW212009   4.646   2.387   6.543
 3704SOL     OW12010   3.145   0.921   1.506
 3704SOL    HW112011   3.088   0.855   1.555
 3704SOL    HW212012   3.090   0.967   1.436
 3705SOL     OW12013   5.503   5.387   3.952
 3705SOL    HW112014   5.460   5.325   3.887
 3705SOL    HW212015   5.520   5.476   3.908
 3706SOL     OW12016   0.906   3.284   5.081
 3706SOL    HW112017   0.964   3.267   5.000
 3706SOL    HW212018   0.811   3.293   5.052
 3707SOL     OW12019   6.240   3.468   5.328
 3707SOL    HW112020   6.161   3.421   5.289
 3707SOL    HW212021   6.231   3.566   5.314
 3708SOL     OW12022   6.422   0.806   6.002
 3708SOL    HW112023   6.451   0.842   6.091
 3708SOL    HW212024   6.465   0.716   5.987
 3709SOL     OW12025   3.920   0.711   0.086
 3709SOL    HW112026   3.875   0.768   0.154
 3709SOL    HW212027   3.928   0.617   0.121
 3710SOL     OW12028   6.897   6.179   0.702
 3710SOL    HW112029   6.839   6.135   0.634
 3710SOL    HW212030   6.973   6.225   0.656
 3711SOL     OW12031   6.956   6.405   1.975
 3711SOL    HW112032   0.022   6.355   1.964
 3711SOL    HW212033   6.962   6.492   1.926
 3712SOL     OW12034   6.438   6.302   6.932
 3712SOL    HW112035   6.350   6.340   6.904
 3712SOL    HW212036   6.465   6.229   6.869
 3713SOL     OW12037   1.757   6.284   4.559
 3713SOL    HW112038   1.687   6.287   4.487
 3713SOL    HW212039   1.760   6.192   4.598
 3714SOL     OW12040   4.780   5.290   5.357
 3714SOL    HW112041   4.794   5.247   5.446
 3714SOL    HW212042   4.723   5.371   5.368
 3715SOL     OW12043   5.983   3.640   3.751
 3715SOL    HW112044   6.025   3.603   3.668
 3715SOL    HW212045   6.055   3.662   3.817
 3716SOL     OW12046   5.766   6.542   5.459
 3716SOL    HW112047   5.675   6.513   5.429
 3716SOL    HW212048   5.790   6.627   5.413
 3717SOL     OW12049   5.670   5.536   6.122
 3717SOL    HW112050   5.675   5.633   6.096
 3717SOL    HW212051   5.616   5.526   6.205
 3718SOL     OW12052   2.136   0.399   6.254
 3718SOL    HW112053   2.129   0.481   6.199
 3718SOL    HW212054   2.181   0.326   6.202
 3719SOL     OW12055   5.571   4.943   1.322
 3719SOL    HW112056   5.640   4.907   1.259
 3719SOL    HW212057   5.504   4.996   1.270
 3720SOL     OW12058   6.291   2.106   5.448
 3720SOL    HW112059   6.210   2.152   5.484
 3720SOL    HW212060   6.354   2.085   5.523
 3721SOL     OW12061   5.157   4.779   1.439
 3721SOL    HW112062   5.075   4.808   1.390
 3721SOL    HW212063   5.131   4.717   1.514
 3722SOL     OW12064   6.302   6.761   2.222
 3722SOL    HW112065   6.371   6.774   2.151
 3722SOL    HW212066   6.211   6.769   2.183
 3723SOL     OW12067   5.831   6.534   2.200
 3723SOL    HW112068   5.783   6.555   2.285
 3723SOL    HW212069   5.773   6.561   2.123
 3724SOL     OW12070   1.933   4.988   6.125
 3724SOL    HW112071   2.002   5.060   6.139
 3724SOL    HW212072   1.889   5.000   6.036
 3725SOL     OW12073   5.428   5.747   0.747
 3725SOL    HW112074   5.332   5.745   0.775
 3725SOL    HW212075   5.480   5.804   0.812
 3726SOL     OW12076   6.698   5.544   0.548
 3726SOL    HW112077   6.602   5.572   0.544
 3726SOL    HW212078   6.704   5.446   0.567
 3727SOL     OW12079   0.095   2.965   6.193
 3727SOL    HW112080   0.173   2.945   6.133
 3727SOL    HW212081   0.098   2.905   6.273
 3728SOL     OW12082   1.517   3.747   0.330
 3728SOL    HW112083   1.465   3.819   0.283
 3728SOL    HW212084   1.577   3.789   0.398
 3729SOL     OW12085   1.602   2.202   3.571
 3729SOL    HW112086   1.672   2.130   3.562
 3729SOL    HW212087   1.571   2.205   3.666
 3730SOL     OW12088   2.690   5.333   6.381
 3730SOL    HW112089   2.623   5.322   6.308
 3730SOL    HW212090   2.782   5.315   6.345
 3731SOL     OW12091   4.249   0.087   0.723
 3731SOL    HW112092   4.171   0.066   0.664
 3731SOL    HW212093   4.332   0.096   0.668
 3732SOL     OW12094   1.350   2.370   6.524
 3732SOL    HW112095   1.412   2.444   6.551
 3732SOL    HW212096   1.332   2.311   6.602
 3733SOL     OW12097   1.525   3.615   1.594
 3733SOL    HW112098   1.457   3.559   1.547
 3733SOL    HW212099   1.561   3.565   1.673
 3734SOL     OW12100   4.265   1.446   1.719
 3734SOL    HW112101   4.340   1.512   1.734
 3734SOL    HW212102   4.240   1.405   1.807
 3735SOL     OW12103   2.191   0.985   3.453
 3735SOL    HW112104   2.230   0.953   3.366
 3735SOL    HW212105   2.196   1.084   3.458
 3736SOL     OW12106   6.780   3.049   1.228
 3736SOL    HW112107   6.696   3.086   1.269
 3736SOL    HW212108   6.859   3.096   1.268
 3737SOL     OW12109   5.269   0.459   2.859
 3737SOL    HW112110   5.301   0.553   2.875
 3737SOL    HW212111   5.325   0.395   2.911
 3738SOL     OW12112   0.131   5.629   2.305
 3738SOL    HW112113   0.206   5.594   2.361
 3738SOL    HW212114   0.055   5.655   2.364
 3739SOL     OW12115   2.199   5.068   1.708
 3739SOL    HW112116   2.266   5.097   1.777
 3739SOL    HW212117   2.109   5.060   1.751
 3740SOL     OW12118   4.577   0.037   0.344
 3740SOL    HW112119   4.677   0.037   0.348
 3740SOL    HW212120   4.547   6.997   0.270
 3741SOL     OW12121   4.632   3.278   1.417
 3741SOL    HW112122   4.689   3.206   1.456
 3741SOL    HW212123   4.543   3.279   1.463
 3742SOL     OW12124   2.532   2.259   6.341
 3742SOL    HW112125   2.524   2.295   6.434
 3742SOL    HW212126   2.444   2.221   6.312
 3743SOL     OW12127   5.293   4.336   0.976
 3743SOL    HW112128   5.351   4.255   0.966
 3743SOL    HW212129   5.198   4.308   0.985
 3744SOL     OW12130   0.424   6.050   2.756
 3744SOL    HW112131   0.375   5.964   2.770
 3744SOL    HW212132   0.461   6.054   2.663
 3745SOL     OW12133   3.553   4.873   2.432
 3745SOL    HW112134   3.651   4.853   2.422
 3745SOL    HW212135   3.512   4.886   2.342
 3746SOL     OW12136   5.228   1.969   2.573
 3746SOL    HW112137   5.185   1.904   2.510
 3746SOL    HW212138   5.238   1.927   2.663
 3747SOL     OW12139   3.271   0.022   5.677
 3747SOL    HW112140   3.367   0.029   5.651
 3747SOL    HW212141   3.244   0.101   5.731
 3748SOL     OW12142   5.091   0.799   1.453
 3748SOL    HW112143   5.142   0.764   1.374
 3748SOL    HW212144   5.151   0.856   1.509
 3749SOL     OW12145   1.841   6.435   4.168
 3749SOL    HW112146   1.886   6.382   4.240
 3749SOL    HW212147   1.879   6.410   4.079
 3750SOL     OW12148   1.544   4.124   0.726
 3750SOL    HW112149   1.495   4.036   0.731
 3750SOL    HW212150   1.609   4.122   0.651
 3751SOL     OW12151   6.434   3.575   2.391
 3751SOL    HW112152   6.372   3.642   2.350
 3751SOL    HW212153   6.393   3.540   2.476
 3752SOL     OW12154   5.001   0.585   5.712
 3752SOL    HW112155   5.048   0.657   5.762
 3752SOL    HW212156   4.992   0.504   5.770
 3753SOL     OW12157   6.092   0.712   5.102
 3753SOL    HW112158   6.100   0.674   5.195
 3753SOL    HW212159   6.020   0.781   5.101
 3754SOL     OW12160   2.629   0.353   2.135
 3754SOL    HW112161   2.640   0.436   2.190
 3754SOL    HW212162   2.597   0.378   2.044
 3755SOL     OW12163   3.843   5.390   4.984
 3755SOL    HW112164   3.837   5.346   4.895
 3755SOL    HW212165   3.761   5.445   5.000
 3756SOL     OW12166   2.425   5.714   6.818
 3756SOL    HW112167   2.522   5.708   6.842
 3756SOL    HW212168   2.380   5.627   6.839
 3757SOL     OW12169   6.332   5.131   1.695
 3757SOL    HW112170   6.376   5.085   1.618
 3757SOL    HW212171   6.282   5.064   1.749
 3758SOL     OW12172   1.897   1.509   4.280
 3758SOL    HW112173   1.848   1.594   4.258
 3758SOL    HW212174   1.872   1.480   4.372
 3759SOL     OW12175   4.777   0.470   5.000
 3759SOL    HW112176   4.739   0.493   5.089
 3759SOL    HW212177   4.738   0.530   4.930
 3760SOL     OW12178   0.974   1.426   3.384
 3760SOL    HW112179   0.989   1.336   3.341
 3760SOL    HW212180   1.043   1.441   3.455
 3761SOL     OW12181   6.566   0.817   4.868
 3761SOL    HW112182   6.633   0.885   4.899
 3761SOL    HW212183   6.478   0.836   4.911
 3762SOL     OW12184   1.593   4.271   1.351
 3762SOL    HW112185   1.530   4.278   1.273
 3762SOL    HW212186   1.580   4.184   1.397
 3763SOL     OW12187   6.442   4.392   0.842
 3763SOL    HW112188   6.536   4.426   0.841
 3763SOL    HW212189   6.442   4.297   0.874
 3764SOL     OW12190   1.933   6.698   2.725
 3764SOL    HW112191   1.903   6.773   2.665
 3764SOL    HW212192   1.961   6.620   2.669
 3765SOL     OW12193   6.233   1.606   1.213
 3765SOL    HW112194   6.326   1.609   1.177
 3765SOL    HW212195   6.171   1.650   1.147
 3766SOL     OW12196   2.326   2.150   4.224
 3766SOL    HW112197   2.328   2.249   4.240
 3766SOL    HW212198   2.271   2.106   4.295
 3767SOL     OW12199   3.149   4.103   6.506
 3767SOL    HW112200   3.054   4.134   6.513
 3767SOL    HW212201   3.152   4.013   6.462
 3768SOL     OW12202   0.861   0.492   4.785
 3768SOL    HW112203   0.902   0.504   4.695
 3768SOL    HW212204   0.852   0.581   4.830
 3769SOL     OW12205   6.167   5.265   5.216
 3769SOL    HW112206   6.104   5.197   5.180
 3769SOL    HW212207   6.249   5.270   5.158
 3770SOL     OW12208   1.084   0.935   0.034
 3770SOL    HW112209   1.112   0.880   0.113
 3770SOL    HW212210   1.120   1.027   0.043
 3771SOL     OW12211   5.912   4.216   6.899
 3771SOL    HW112212   5.830   4.249   6.944
 3771SOL    HW212213   5.922   4.260   6.809
 3772SOL     OW12214   0.300   0.698   0.238
 3772SOL    HW112215   0.387   0.708   0.190
 3772SOL    HW212216   0.232   0.657   0.176
 3773SOL     OW12217   6.252   3.142   5.896
 3773SOL    HW112218   6.184   3.207   5.861
 3773SOL    HW212219   6.319   3.122   5.825
 3774SOL     OW12220   5.442   5.664   1.593
 3774SOL    HW112221   5.491   5.737   1.640
 3774SOL    HW212222   5.345   5.687   1.588
 3775SOL     OW12223   4.203   4.901   3.938
 3775SOL    HW112224   4.163   4.870   4.024
 3775SOL    HW212225   4.143   4.876   3.862
 3776SOL     OW12226   3.880   2.499   6.268
 3776SOL    HW112227   3.849   2.430   6.333
 3776SOL    HW212228   3.931   2.454   6.195
 3777SOL     OW12229   2.361   5.786   4.012
 3777SOL    HW112230   2.415   5.712   4.052
 3777SOL    HW212231   2.383   5.872   4.059
 3778SOL     OW12232   2.390   5.731   3.549
 3778SOL    HW112233   2.489   5.746   3.539
 3778SOL    HW212234   2.340   5.792   3.489
 3779SOL     OW12235   0.685   5.076   0.853
 3779SOL    HW112236   0.745   5.025   0.915
 3779SOL    HW212237   0.618   5.127   0.906
 3780SOL     OW12238   6.929   3.837   3.980
 3780SOL    HW112239   6.843   3.787   3.975
 3780SOL    HW212240   6.986   3.799   4.053
 3781SOL     OW12241   0.657   0.306   4.452
 3781SOL    HW112242   0.584   0.295   4.519
 3781SOL    HW212243   0.709   0.389   4.471
 3782SOL     OW12244   3.501   6.527   2.251
 3782SOL    HW112245   3.566   6.562   2.319
 3782SOL    HW212246   3.435   6.598   2.229
 3783SOL     OW12247   6.726   5.619   4.147
 3783SOL    HW112248   6.782   5.690   4.104
 3783SOL    HW212249   6.785   5.561   4.204
 3784SOL     OW12250   5.209   2.440   2.514
 3784SOL    HW112251   5.246   2.350   2.538
 3784SOL    HW212252   5.265   2.512   2.554
 3785SOL     OW12253   1.717   3.318   4.924
 3785SOL    HW112254   1.649   3.336   4.853
 3785SOL    HW212255   1.683   3.244   4.983
 3786SOL     OW12256   2.175   3.921   3.268
 3786SOL    HW112257   2.093   3.865   3.249
 3786SOL    HW212258   2.207   3.962   3.182
 3787SOL     OW12259   5.395   0.838   2.610
 3787SOL    HW112260   5.365   0.814   2.518
 3787SOL    HW212261   5.459   0.916   2.606
 3788SOL     OW12262   6.083   4.509   5.173
 3788SOL    HW112263   6.047   4.599   5.198
 3788SOL    HW212264   6.178   4.501   5.204
 3789SOL     OW12265   0.190   3.739   3.093
 3789SOL    HW112266   0.289   3.735   3.076
 3789SOL    HW212267   0.167   3.680   3.171
 3790SOL     OW12268   0.690   4.967   6.340
 3790SOL    HW112269   0.759   4.908   6.299
 3790SOL    HW212270   0.682   5.051   6.286
 3791SOL     OW12271   5.180   1.849   6.762
 3791SOL    HW112272   5.156   1.764   6.716
 3791SOL    HW212273   5.153   1.927   6.705
 3792SOL     OW12274   1.245   1.345   4.455
 3792SOL    HW112275   1.215   1.263   4.407
 3792SOL    HW212276   1.170   1.411   4.461
 3793SOL     OW12277   5.632   6.456   1.833
 3793SOL    HW112278   5.715   6.493   1.791
 3793SOL    HW212279   5.553   6.480   1.776
 3794SOL     OW12280   2.517   2.946   1.700
 3794SOL    HW112281   2.451   3.007   1.744
 3794SOL    HW212282   2.563   2.995   1.625
 3795SOL     OW12283   4.051   4.990   1.202
 3795SOL    HW112284   3.964   4.942   1.188
 3795SOL    HW212285   4.110   4.935   1.261
 3796SOL     OW12286   3.988   2.015   1.195
 3796SOL    HW112287   3.899   2.060   1.184
 3796SOL    HW212288   3.974   1.919   1.218
 3797SOL     OW12289   1.011   3.838   2.929
 3797SOL    HW112290   0.949   3.775   2.880
 3797SOL    HW212291   0.993   3.932   2.898
 3798SOL     OW12292   3.114   6.316   2.295
 3798SOL    HW112293   3.156   6.357   2.214
 3798SOL    HW212294   3.021   6.351   2.306
 3799SOL     OW12295   6.986   2.874   3.820
 3799SOL    HW112296   0.007   2.956   3.778
 3799SOL    HW212297   7.018   2.793   3.770
 3800SOL     OW12298   5.255   2.236   3.819
 3800SOL    HW112299   5.262   2.137   3.832
 3800SOL    HW212300   5.279   2.259   3.725
 3801SOL     OW12301   5.444   6.498   2.140
 3801SOL    HW112302   5.505   6.565   2.098
 3801SOL    HW212303   5.353   6.538   2.150
 3802SOL     OW12304   0.275   1.118   2.431
 3802SOL    HW112305   0.201   1.082   2.487
 3802SOL    HW212306   0.289   1.058   2.352
 3803SOL     OW12307   4.113   3.237   3.370
 3803SOL    HW112308   4.148   3.248   3.463
 3803SOL    HW212309   4.126   3.323   3.320
 3804SOL     OW12310   4.043   1.153   3.521
 3804SOL    HW112311   4.061   1.137   3.424
 3804SOL    HW212312   3.968   1.219   3.530
 3805SOL     OW12313   1.520   2.455   2.089
 3805SOL    HW112314   1.573   2.403   2.022
 3805SOL    HW212315   1.428   2.473   2.053
 3806SOL     OW12316   3.150   3.635   5.661
 3806SOL    HW112317   3.176   3.557   5.604
 3806SOL    HW212318   3.129   3.714   5.603
 3807SOL     OW12319   2.278   5.264   3.759
 3807SOL    HW112320   2.315   5.357   3.759
 3807SOL    HW212321   2.196   5.261   3.815
 3808SOL     OW12322   4.287   0.984   6.913
 3808SOL    HW112323   4.309   0.919   6.985
 3808SOL    HW212324   4.210   1.040   6.941
 3809SOL     OW12325   5.513   2.808   1.550
 3809SOL    HW112326   5.547   2.766   1.634
 3809SOL    HW212327   5.580   2.794   1.476
 3810SOL     OW12328   6.375   2.405   3.386
 3810SOL    HW112329   6.452   2.468   3.368
 3810SOL    HW212330   6.323   2.439   3.464
 3811SOL     OW12331   0.237   6.431   4.507
 3811SOL    HW112332   0.216   6.359   4.573
 3811SOL    HW212333   0.171   6.505   4.516
 3812SOL     OW12334   3.456   4.588   5.638
 3812SOL    HW112335   3.408   4.509   5.599
 3812SOL    HW212336   3.396   4.667   5.638
 3813SOL     OW12337   5.621   3.724   0.610
 3813SOL    HW112338   5.600   3.727   0.512
 3813SOL    HW212339   5.536   3.732   0.662
 3814SOL     OW12340   6.757   7.009   4.499
 3814SOL    HW112341   6.816   6.940   4.542
 3814SOL    HW212342   6.662   6.978   4.502
 3815SOL     OW12343   3.768   3.207   0.912
 3815SOL    HW112344   3.864   3.180   0.922
 3815SOL    HW212345   3.758   3.263   0.830
 3816SOL     OW12346   0.966   5.239   6.203
 3816SOL    HW112347   0.902   5.183   6.149
 3816SOL    HW212348   1.058   5.228   6.167
 3817SOL     OW12349   4.912   3.894   2.457
 3817SOL    HW112350   4.916   3.839   2.373
 3817SOL    HW212351   4.970   3.975   2.447
 3818SOL     OW12352   6.953   0.932   1.050
 3818SOL    HW112353   6.985   0.998   1.117
 3818SOL    HW212354   0.008   0.871   1.025
 3819SOL     OW12355   5.423   4.646   2.594
 3819SOL    HW112356   5.393   4.571   2.652
 3819SOL    HW212357   5.518   4.632   2.568
 3820SOL     OW12358   5.941   6.685   3.475
 3820SOL    HW112359   5.980   6.622   3.542
 3820SOL    HW212360   5.912   6.634   3.393
 3821SOL     OW12361   1.244   0.885   2.143
 3821SOL    HW112362   1.180   0.959   2.121
 3821SOL    HW212363   1.269   0.837   2.059
 3822SOL     OW12364   2.036   6.749   6.746
 3822SOL    HW112365   2.089   6.695   6.810
 3822SOL    HW212366   1.950   6.778   6.789
 3823SOL     OW12367   3.861   3.411   6.433
 3823SOL    HW112368   3.788   3.415   6.364
 3823SOL    HW212369   3.856   3.324   6.482
 3824SOL     OW12370   0.973   2.592   0.701
 3824SOL    HW112371   0.879   2.621   0.685
 3824SOL    HW212372   1.036   2.658   0.660
 3825SOL     OW12373   1.000   4.623   0.308
 3825SOL    HW112374   1.093   4.658   0.322
 3825SOL    HW212375   0.985   4.604   0.211
 3826SOL     OW12376   0.134   3.732   1.279
 3826SOL    HW112377   0.149   3.816   1.226
 3826SOL    HW212378   0.071   3.751   1.354
 3827SOL     OW12379   0.795   1.285   1.494
 3827SOL    HW112380   0.882   1.274   1.542
 3827SOL    HW212381   0.777   1.383   1.482
 3828SOL     OW12382   3.630   3.852   4.005
 3828SOL    HW112383   3.612   3.937   3.955
 3828SOL    HW212384   3.646   3.874   4.102
 3829SOL     OW12385   0.416   4.799   2.109
 3829SOL    HW112386   0.331   4.756   2.078
 3829SOL    HW212387   0.400   4.897   2.123
 3830SOL     OW12388   0.339   1.254   5.584
 3830SOL    HW112389   0.329   1.319   5.509
 3830SOL    HW212390   0.410   1.287   5.647
 3831SOL     OW12391   4.430   2.461   2.369
 3831SOL    HW112392   4.464   2.490   2.279
 3831SOL    HW212393   4.459   2.526   2.439
 3832SOL     OW12394   0.266   0.471   2.282
 3832SOL    HW112395   0.323   0.520   2.348
 3832SOL    HW212396   0.170   0.474   2.312
 3833SOL     OW12397   0.243   6.010   6.715
 3833SOL    HW112398   0.311   5.951   6.758
 3833SOL    HW212399   0.255   6.104   6.747
 3834SOL     OW12400   3.965   4.678   0.728
 3834SOL    HW112401   3.913   4.619   0.790
 3834SOL    HW212402   3.949   4.649   0.634
 3835SOL     OW12403   3.991   6.201   5.448
 3835SOL    HW112404   3.977   6.255   5.365
 3835SOL    HW212405   3.979   6.104   5.428
 3836SOL     OW12406   6.803   5.124   5.796
 3836SOL    HW112407   6.896   5.088   5.790
 3836SOL    HW212408   6.806   5.223   5.802
 3837SOL     OW12409   4.257   4.957   5.558
 3837SOL    HW112410   4.306   4.999   5.482
 3837SOL    HW212411   4.227   5.029   5.622
 3838SOL     OW12412   0.989   2.380   3.473
 3838SOL    HW112413   0.937   2.407   3.392
 3838SOL    HW212414   1.082   2.416   3.467
 3839SOL     OW12415   5.413   1.615   2.759
 3839SOL    HW112416   5.451   1.701   2.793
 3839SOL    HW212417   5.386   1.558   2.836
 3840SOL     OW12418   2.967   1.566   6.594
 3840SOL    HW112419   2.948   1.472   6.621
 3840SOL    HW212420   2.968   1.624   6.675
 3841SOL     OW12421   0.651   3.654   4.229
 3841SOL    HW112422   0.628   3.721   4.299
 3841SOL    HW212423   0.725   3.596   4.262
 3842SOL     OW12424   2.145   2.859   3.578
 3842SOL    HW112425   2.091   2.906   3.648
 3842SOL    HW212426   2.182   2.926   3.514
 3843SOL     OW12427   5.192   3.547   2.375
 3843SOL    HW112428   5.195   3.466   2.317
 3843SOL    HW212429   5.172   3.520   2.469
 3844SOL     OW12430   1.437   3.047   5.987
 3844SOL    HW112431   1.528   3.088   5.983
 3844SOL    HW212432   1.432   2.969   5.924
 3845SOL     OW12433   3.168   4.862   6.240
 3845SOL    HW112434   3.075   4.830   6.224
 3845SOL    HW212435   3.219   4.793   6.292
 3846SOL     OW12436   1.181   4.178   3.519
 3846SOL    HW112437   1.109   4.177   3.589
 3846SOL    HW212438   1.157   4.116   3.445
 3847SOL     OW12439   5.599   2.852   4.592
 3847SOL    HW112440   5.547   2.937   4.595
 3847SOL    HW212441   5.539   2.776   4.567
 3848SOL     OW12442   4.739   4.341   3.009
 3848SOL    HW112443   4.727   4.255   3.058
 3848SOL    HW212444   4.780   4.409   3.069
 3849SOL     OW12445   1.150   1.376   6.482
 3849SOL    HW112446   1.096   1.315   6.424
 3849SOL    HW212447   1.232   1.328   6.513
 3850SOL     OW12448   2.756   2.978   1.540
 3850SOL    HW112449   2.716   2.904   1.486
 3850SOL    HW212450   2.840   2.945   1.585
 3851SOL     OW12451   0.238   4.203   3.111
 3851SOL    HW112452   0.319   4.147   3.092
 3851SOL    HW212453   0.179   4.155   3.175
 3852SOL     OW12454   3.973   6.379   3.878
 3852SOL    HW112455   3.876   6.357   3.869
 3852SOL    HW212456   3.986   6.478   3.866
 3853SOL     OW12457   0.855   3.768   3.137
 3853SOL    HW112458   0.934   3.771   3.076
 3853SOL    HW212459   0.856   3.849   3.196
 3854SOL     OW12460   1.473   2.336   3.057
 3854SOL    HW112461   1.561   2.289   3.052
 3854SOL    HW212462   1.483   2.430   3.024
 3855SOL     OW12463   4.763   6.488   6.636
 3855SOL    HW112464   4.731   6.571   6.682
 3855SOL    HW212465   4.772   6.505   6.538
 3856SOL     OW12466   0.453   0.423   5.582
 3856SOL    HW112467   0.430   0.398   5.488
 3856SOL    HW212468   0.539   0.473   5.584
 3857SOL     OW12469   0.683   6.002   6.655
 3857SOL    HW112470   0.649   6.092   6.628
 3857SOL    HW212471   0.760   6.012   6.717
 3858SOL     OW12472   2.737   0.930   5.884
 3858SOL    HW112473   2.798   1.000   5.919
 3858SOL    HW212474   2.657   0.973   5.841
 3859SOL     OW12475   6.590   0.952   1.368
 3859SOL    HW112476   6.577   0.910   1.458
 3859SOL    HW212477   6.520   0.918   1.306
 3860SOL     OW12478   1.455   1.708   4.288
 3860SOL    HW112479   1.490   1.750   4.203
 3860SOL    HW212480   1.490   1.759   4.367
 3861SOL     OW12481   4.437   5.461   4.048
 3861SOL    HW112482   4.384   5.384   4.082
 3861SOL    HW212483   4.523   5.428   4.009
 3862SOL     OW12484   0.731   0.960   4.206
 3862SOL    HW112485   0.805   0.894   4.216
 3862SOL    HW212486   0.766   1.053   4.215
 3863SOL     OW12487   6.111   2.236   6.888
 3863SOL    HW112488   6.125   2.138   6.870
 3863SOL    HW212489   6.036   2.270   6.833
 3864SOL     OW12490   1.707   1.078   5.747
 3864SOL    HW112491   1.652   1.088   5.830
 3864SOL    HW212492   1.723   0.981   5.728
 3865SOL     OW12493   3.885   1.129   1.055
 3865SOL    HW112494   3.982   1.133   1.031
 3865SOL    HW212495   3.876   1.127   1.155
 3866SOL     OW12496   3.901   0.208   0.530
 3866SOL    HW112497   3.857   0.280   0.583
 3866SOL    HW212498   3.896   0.122   0.580
 3867SOL     OW12499   0.477   5.718   3.621
 3867SOL    HW112500   0.424   5.634   3.624
 3867SOL    HW212501   0.514   5.737   3.712
 3868SOL     OW12502   3.070   0.257   0.254
 3868SOL    HW112503   3.113   0.329   0.308
 3868SOL    HW212504   3.105   0.260   0.160
 3869SOL     OW12505   6.069   3.244   4.252
 3869SOL    HW112506   5.980   3.288   4.242
 3869SOL    HW212507   6.081   3.211   4.346
 3870SOL     OW12508   6.418   6.846   0.214
 3870SOL    HW112509   6.508   6.808   0.236
 3870SOL    HW212510   6.352   6.819   0.284
 3871SOL     OW12511   4.386   1.219   3.254
 3871SOL    HW112512   4.379   1.150   3.182
 3871SOL    HW212513   4.464   1.279   3.234
 3872SOL     OW12514   3.276   2.951   3.681
 3872SOL    HW112515   3.229   3.039   3.691
 3872SOL    HW212516   3.287   2.931   3.583
 3873SOL     OW12517   6.397   4.195   1.450
 3873SOL    HW112518   6.340   4.205   1.368
 3873SOL    HW212519   6.490   4.171   1.423
 3874SOL     OW12520   4.734   5.902   6.879
 3874SOL    HW112521   4.830   5.874   6.883
 3874SOL    HW212522   4.712   5.956   6.959
 3875SOL     OW12523   2.133   3.367   2.626
 3875SOL    HW112524   2.119   3.322   2.714
 3875SOL    HW212525   2.158   3.462   2.641
 3876SOL     OW12526   3.717   5.715   1.151
 3876SOL    HW112527   3.697   5.666   1.236
 3876SOL    HW212528   3.646   5.693   1.084
 3877SOL     OW12529   5.748   2.539   0.773
 3877SOL    HW112530   5.651   2.517   0.773
 3877SOL    HW212531   5.762   2.634   0.800
 3878SOL     OW12532   3.772   6.628   4.681
 3878SOL    HW112533   3.690   6.669   4.722
 3878SOL    HW212534   3.783   6.661   4.587
 3879SOL     OW12535   6.120   5.207   0.985
 3879SOL    HW112536   6.218   5.193   1.000
 3879SOL    HW212537   6.101   5.201   0.887
 3880SOL     OW12538   5.882   4.765   4.601
 3880SOL    HW112539   5.830   4.823   4.664
 3880SOL    HW212540   5.830   4.753   4.516
 3881SOL     OW12541   1.390   3.063   2.027
 3881SOL    HW112542   1.387   3.055   2.127
 3881SOL    HW212543   1.387   2.971   1.986
 3882SOL     OW12544   1.215   1.253   5.699
 3882SOL    HW112545   1.127   1.215   5.727
 3882SOL    HW212546   1.284   1.180   5.699
 3883SOL     OW12547   4.680   1.200   2.396
 3883SOL    HW112548   4.667   1.140   2.474
 3883SOL    HW212549   4.758   1.168   2.341
 3884SOL     OW12550   1.119   5.562   2.375
 3884SOL    HW112551   1.215   5.566   2.347
 3884SOL    HW212552   1.084   5.470   2.362
 3885SOL     OW12553   5.660   6.324   2.631
 3885SOL    HW112554   5.593   6.264   2.675
 3885SOL    HW212555   5.721   6.269   2.574
 3886SOL     OW12556   5.982   5.107   5.113
 3886SOL    HW112557   6.046   5.039   5.076
 3886SOL    HW212558   5.922   5.062   5.179
 3887SOL     OW12559   0.651   0.602   6.785
 3887SOL    HW112560   0.690   0.562   6.703
 3887SOL    HW212561   0.551   0.597   6.781
 3888SOL     OW12562   0.132   0.538   4.602
 3888SOL    HW112563   0.140   0.521   4.700
 3888SOL    HW212564   0.090   0.627   4.586
 3889SOL     OW12565   0.057   4.070   0.214
 3889SOL    HW112566   0.139   4.125   0.195
 3889SOL    HW212567   7.014   4.077   0.136
 3890SOL     OW12568   5.910   5.575   3.850
 3890SOL    HW112569   5.882   5.609   3.939
 3890SOL    HW212570   5.854   5.617   3.779
 3891SOL     OW12571   5.838   4.416   4.511
 3891SOL    HW112572   5.826   4.350   4.437
 3891SOL    HW212573   5.928   4.459   4.502
 3892SOL     OW12574   6.913   2.432   1.642
 3892SOL    HW112575   6.973   2.367   1.689
 3892SOL    HW212576   6.875   2.496   1.709
 3893SOL     OW12577   4.490   4.710   0.466
 3893SOL    HW112578   4.456   4.727   0.374
 3893SOL    HW212579   4.413   4.699   0.529
 3894SOL     OW12580   3.769   1.598   0.952
 3894SOL    HW112581   3.866   1.623   0.955
 3894SOL    HW212582   3.734   1.608   0.859
 3895SOL     OW12583   1.809   0.725   4.919
 3895SOL    HW112584   1.725   0.775   4.939
 3895SOL    HW212585   1.798   0.629   4.944
 3896SOL     OW12586   6.892   0.640   5.950
 3896SOL    HW112587   6.874   0.738   5.964
 3896SOL    HW212588   6.839   0.587   6.016
 3897SOL     OW12589   3.362   5.435   2.811
 3897SOL    HW112590   3.362   5.449   2.910
 3897SOL    HW212591   3.302   5.359   2.788
 3898SOL     OW12592   2.910   3.705   5.173
 3898SOL    HW112593   2.914   3.681   5.076
 3898SOL    HW212594   2.825   3.753   5.192
 3899SOL     OW12595   5.642   6.875   4.893
 3899SOL    HW112596   5.562   6.933   4.878
 3899SOL    HW212597   5.711   6.926   4.945
 3900SOL     OW12598   5.209   3.482   3.785
 3900SOL    HW112599   5.194   3.388   3.814
 3900SOL    HW212600   5.133   3.511   3.727
 3901SOL     OW12601   2.825   0.403   5.921
 3901SOL    HW112602   2.838   0.408   5.822
 3901SOL    HW212603   2.729   0.422   5.943
 3902SOL     OW12604   5.447   3.596   2.061
 3902SOL    HW112605   5.541   3.562   2.073
 3902SOL    HW212606   5.446   3.670   1.995
 3903SOL     OW12607   3.825   6.062   6.540
 3903SOL    HW112608   3.742   6.037   6.490
 3903SOL    HW212609   3.800   6.098   6.630
 3904SOL     OW12610   2.300   1.624   5.077
 3904SOL    HW112611   2.316   1.525   5.085
 3904SOL    HW212612   2.273   1.646   4.983
 3905SOL     OW12613   0.229   0.354   6.402
 3905SOL    HW112614   0.208   0.299   6.483
 3905SOL    HW212615   0.161   0.334   6.331
 3906SOL     OW12616   4.671   4.917   6.407
 3906SOL    HW112617   4.770   4.904   6.412
 3906SOL    HW212618   4.642   4.987   6.472
 3907SOL     OW12619   5.816   0.060   4.995
 3907SOL    HW112620   5.773   0.090   5.080
 3907SOL    HW212621   5.913   0.043   5.011
 3908SOL     OW12622   1.307   2.109   0.737
 3908SOL    HW112623   1.291   2.080   0.832
 3908SOL    HW212624   1.344   2.032   0.685
 3909SOL     OW12625   0.488   5.085   5.256
 3909SOL    HW112626   0.482   5.048   5.349
 3909SOL    HW212627   0.441   5.023   5.193
 3910SOL     OW12628   3.700   3.601   1.353
 3910SOL    HW112629   3.727   3.541   1.278
 3910SOL    HW212630   3.606   3.582   1.379
 3911SOL     OW12631   4.759   1.148   0.309
 3911SOL    HW112632   4.690   1.183   0.246
 3911SOL    HW212633   4.734   1.172   0.403
 3912SOL     OW12634   4.325   0.174   5.709
 3912SOL    HW112635   4.394   0.242   5.685
 3912SOL    HW212636   4.263   0.213   5.777
 3913SOL     OW12637   2.004   0.022   6.102
 3913SOL    HW112638   1.918   0.072   6.112
 3913SOL    HW212639   2.009   6.969   6.170
 3914SOL     OW12640   3.546   1.530   0.655
 3914SOL    HW112641   3.566   1.627   0.642
 3914SOL    HW212642   3.448   1.515   0.652
 3915SOL     OW12643   3.541   5.600   2.583
 3915SOL    HW112644   3.614   5.618   2.517
 3915SOL    HW212645   3.460   5.653   2.559
 3916SOL     OW12646   1.708   5.906   4.161
 3916SOL    HW112647   1.704   5.830   4.096
 3916SOL    HW212648   1.664   5.879   4.247
 3917SOL     OW12649   0.589   5.281   0.232
 3917SOL    HW112650   0.541   5.341   0.169
 3917SOL    HW212651   0.596   5.189   0.193
 3918SOL     OW12652   4.672   0.131   2.505
 3918SOL    HW112653   4.762   0.103   2.472
 3918SOL    HW212654   4.617   0.163   2.429
 3919SOL     OW12655   2.074   5.830   6.338
 3919SOL    HW112656   2.156   5.781   6.308
 3919SOL    HW212657   2.033   5.876   6.260
 3920SOL     OW12658   2.820   2.526   0.292
 3920SOL    HW112659   2.758   2.551   0.217
 3920SOL    HW212660   2.883   2.602   0.309
 3921SOL     OW12661   7.002   3.224   1.283
 3921SOL    HW112662   0.075   3.226   1.321
 3921SOL    HW212663   7.006   3.210   1.184
 3922SOL     OW12664   6.030   4.166   2.054
 3922SOL    HW112665   6.122   4.132   2.036
 3922SOL    HW212666   6.031   4.222   2.138
 3923SOL     OW12667   6.924   2.274   6.745
 3923SOL    HW112668   6.906   2.176   6.738
 3923SOL    HW212669   6.936   2.312   6.653
 3924SOL     OW12670   0.744   5.364   2.803
 3924SOL    HW112671   0.681   5.346   2.878
 3924SOL    HW212672   0.838   5.362   2.837
 3925SOL     OW12673   3.701   5.134   0.819
 3925SOL    HW112674   3.692   5.093   0.728
 3925SOL    HW212675   3.797   5.154   0.838
 3926SOL     OW12676   6.448   5.507   3.280
 3926SOL    HW112677   6.365   5.541   3.324
 3926SOL    HW212678   6.435   5.413   3.251
 3927SOL     OW12679   6.605   3.182   3.501
 3927SOL    HW112680   6.602   3.144   3.408
 3927SOL    HW212681   6.673   3.255   3.505
 3928SOL     OW12682   2.903   5.999   5.997
 3928SOL    HW112683   2.970   6.051   5.943
 3928SOL    HW212684   2.827   6.059   6.021
 3929SOL     OW12685   0.331   1.809   5.919
 3929SOL    HW112686   0.428   1.798   5.899
 3929SOL    HW212687   0.302   1.901   5.893
 3930SOL     OW12688   2.187   1.825   3.966
 3930SOL    HW112689   2.242   1.905   3.943
 3930SOL    HW212690   2.182   1.815   4.066
 3931SOL     OW12691   1.807   1.851   2.421
 3931SOL    HW112692   1.841   1.935   2.379
 3931SOL    HW212693   1.789   1.867   2.518
 3932SOL     OW12694   1.570   4.039   2.869
 3932SOL    HW112695   1.557   4.044   2.968
 3932SOL    HW212696   1.492   3.992   2.827
 3933SOL     OW12697   1.785   6.413   0.109
 3933SOL    HW112698   1.758   6.491   0.166
 3933SOL    HW212699   1.857   6.441   0.046
 3934SOL     OW12700   0.000   0.581   1.087
 3934SOL    HW112701   6.929   0.614   1.111
 3934SOL    HW212702   7.015   0.530   1.001
 3935SOL     OW12703   2.503   0.268   0.131
 3935SOL    HW112704   2.475   0.363   0.141
 3935SOL    HW212705   2.594   0.256   0.171
 3936SOL     OW12706   6.744   5.073   5.391
 3936SOL    HW112707   6.694   5.041   5.472
 3936SOL    HW212708   6.713   5.023   5.310
 3937SOL     OW12709   6.961   0.513   2.258
 3937SOL    HW112710   6.949   0.432   2.201
 3937SOL    HW212711   6.874   0.536   2.302
 3938SOL     OW12712   0.101   1.673   3.930
 3938SOL    HW112713   0.168   1.612   3.971
 3938SOL    HW212714   0.052   1.625   3.857
 3939SOL     OW12715   2.466   1.811   2.084
 3939SOL    HW112716   2.476   1.878   2.158
 3939SOL    HW212717   2.470   1.858   1.996
 3940SOL     OW12718   4.060   5.408   2.171
 3940SOL    HW112719   4.084   5.326   2.224
 3940SOL    HW212720   4.039   5.483   2.233
 3941SOL     OW12721   4.937   1.819   6.553
 3941SOL    HW112722   4.977   1.891   6.497
 3941SOL    HW212723   5.008   1.755   6.582
 3942SOL     OW12724   0.523   0.627   6.303
 3942SOL    HW112725   0.497   0.621   6.207
 3942SOL    HW212726   0.538   0.536   6.340
 3943SOL     OW12727   1.053   4.037   2.743
 3943SOL    HW112728   1.067   4.132   2.770
 3943SOL    HW212729   1.087   4.024   2.649
 3944SOL     OW12730   5.706   3.206   5.579
 3944SOL    HW112731   5.619   3.211   5.530
 3944SOL    HW212732   5.712   3.280   5.646
 3945SOL     OW12733   0.762   2.348   1.931
 3945SOL    HW112734   0.817   2.298   1.998
 3945SOL    HW212735   0.803   2.339   1.841
 3946SOL     OW12736   5.285   5.771   6.074
 3946SOL    HW112737   5.283   5.761   5.975
 3946SOL    HW212738   5.339   5.696   6.114
 3947SOL     OW12739   6.190   5.527   1.188
 3947SOL    HW112740   6.283   5.561   1.179
 3947SOL    HW212741   6.190   5.427   1.176
 3948SOL     OW12742   1.240   5.829   1.688
 3948SOL    HW112743   1.225   5.744   1.738
 3948SOL    HW212744   1.162   5.889   1.701
 3949SOL     OW12745   6.346   0.394   2.821
 3949SOL    HW112746   6.375   0.486   2.794
 3949SOL    HW212747   6.296   0.352   2.746
 3950SOL     OW12748   2.668   4.092   1.572
 3950SOL    HW112749   2.578   4.048   1.574
 3950SOL    HW212750   2.656   4.190   1.588
 3951SOL     OW12751   6.617   6.843   1.045
 3951SOL    HW112752   6.553   6.918   1.027
 3951SOL    HW212753   6.614   6.820   1.142
 3952SOL     OW12754   6.325   3.923   2.799
 3952SOL    HW112755   6.411   3.918   2.851
 3952SOL    HW212756   6.337   3.877   2.711
 3953SOL     OW12757   4.025   4.315   0.634
 3953SOL    HW112758   4.116   4.332   0.671
 3953SOL    HW212759   3.975   4.252   0.694
 3954SOL     OW12760   5.838   5.493   4.910
 3954SOL    HW112761   5.911   5.535   4.856
 3954SOL    HW212762   5.849   5.517   5.006
 3955SOL     OW12763   3.094   5.336   5.961
 3955SOL    HW112764   3.187   5.335   5.997
 3955SOL    HW212765   3.059   5.430   5.960
 3956SOL     OW12766   0.230   0.935   2.632
 3956SOL    HW112767   0.259   0.929   2.537
 3956SOL    HW212768   0.286   0.874   2.688
 3957SOL     OW12769   4.862   6.587   3.763
 3957SOL    HW112770   4.897   6.494   3.752
 3957SOL    HW212771   4.764   6.588   3.740
 3958SOL     OW12772   5.570   0.818   6.158
 3958SOL    HW112773   5.633   0.895   6.152
 3958SOL    HW212774   5.619   0.736   6.185
 3959SOL     OW12775   3.730   5.965   1.266
 3959SOL    HW112776   3.735   5.873   1.226
 3959SOL    HW212777   3.644   6.008   1.240
 3960SOL     OW12778   4.499   1.389   6.903
 3960SOL    HW112779   4.481   1.458   6.974
 3960SOL    HW212780   4.454   1.415   6.818
 3961SOL     OW12781   6.011   2.318   2.081
 3961SOL    HW112782   5.973   2.400   2.126
 3961SOL    HW212783   5.982   2.316   1.986
 3962SOL     OW12784   2.679   4.746   0.057
 3962SOL    HW112785   2.668   4.695   6.991
 3962SOL    HW212786   2.758   4.807   0.050
 3963SOL     OW12787   4.668   4.239   4.742
 3963SOL    HW112788   4.627   4.150   4.761
 3963SOL    HW212789   4.645   4.267   4.648
 3964SOL     OW12790   4.042   4.767   3.697
 3964SOL    HW112791   4.046   4.667   3.706
 3964SOL    HW212792   3.999   4.790   3.610
 3965SOL     OW12793   4.647   3.167   6.132
 3965SOL    HW112794   4.574   3.228   6.102
 3965SOL    HW212795   4.607   3.091   6.184
 3966SOL     OW12796   5.468   6.164   0.980
 3966SOL    HW112797   5.541   6.217   0.937
 3966SOL    HW212798   5.437   6.212   1.062
 3967SOL     OW12799   1.715   3.964   2.290
 3967SOL    HW112800   1.808   4.003   2.287
 3967SOL    HW212801   1.652   4.026   2.242
 3968SOL     OW12802   5.012   0.162   1.133
 3968SOL    HW112803   4.964   0.079   1.159
 3968SOL    HW212804   4.969   0.201   1.051
 3969SOL     OW12805   1.725   4.021   2.604
 3969SOL    HW112806   1.681   4.066   2.681
 3969SOL    HW212807   1.658   3.971   2.551
 3970SOL     OW12808   5.998   5.969   4.205
 3970SOL    HW112809   5.929   6.035   4.234
 3970SOL    HW212810   6.079   6.017   4.172
 3971SOL     OW12811   2.393   5.152   1.886
 3971SOL    HW112812   2.420   5.129   1.979
 3971SOL    HW212813   2.347   5.241   1.886
 3972SOL     OW12814   1.122   5.210   0.781
 3972SOL    HW112815   1.138   5.266   0.700
 3972SOL    HW212816   1.037   5.238   0.825
 3973SOL     OW12817   1.072   4.470   5.969
 3973SOL    HW112818   1.105   4.377   5.953
 3973SOL    HW212819   1.080   4.523   5.884
 3974SOL     OW12820   1.223   0.909   4.455
 3974SOL    HW112821   1.175   0.961   4.525
 3974SOL    HW212822   1.172   0.825   4.435
 3975SOL     OW12823   5.646   0.717   5.707
 3975SOL    HW112824   5.580   0.776   5.754
 3975SOL    HW212825   5.599   0.661   5.639
 3976SOL     OW12826   1.438   6.337   1.883
 3976SOL    HW112827   1.426   6.386   1.797
 3976SOL    HW212828   1.397   6.246   1.876
 3977SOL     OW12829   2.955   4.242   5.718
 3977SOL    HW112830   2.993   4.311   5.779
 3977SOL    HW212831   3.029   4.197   5.667
 3978SOL     OW12832   5.509   6.406   5.099
 3978SOL    HW112833   5.446   6.341   5.055
 3978SOL    HW212834   5.593   6.413   5.046
 3979SOL     OW12835   3.037   5.784   0.652
 3979SOL    HW112836   3.003   5.800   0.559
 3979SOL    HW212837   2.971   5.819   0.718
 3980SOL     OW12838   0.427   5.744   0.172
 3980SOL    HW112839   0.444   5.724   0.268
 3980SOL    HW212840   0.457   5.667   0.116
 3981SOL     OW12841   1.932   1.395   0.593
 3981SOL    HW112842   1.940   1.357   0.685
 3981SOL    HW212843   1.971   1.487   0.592
 3982SOL     OW12844   2.144   0.380   4.162
 3982SOL    HW112845   2.135   0.457   4.099
 3982SOL    HW212846   2.078   0.310   4.138
 3983SOL     OW12847   5.032   5.381   4.754
 3983SOL    HW112848   5.118   5.352   4.711
 3983SOL    HW212849   5.053   5.432   4.838
 3984SOL     OW12850   0.048   1.086   2.797
 3984SOL    HW112851   0.126   1.024   2.791
 3984SOL    HW212852   6.985   1.038   2.768
 3985SOL     OW12853   3.593   4.663   6.427
 3985SOL    HW112854   3.519   4.703   6.480
 3985SOL    HW212855   3.568   4.662   6.330
 3986SOL     OW12856   6.734   1.594   3.191
 3986SOL    HW112857   6.664   1.631   3.131
 3986SOL    HW212858   6.718   1.625   3.285
 3987SOL     OW12859   2.715   5.356   3.746
 3987SOL    HW112860   2.771   5.303   3.809
 3987SOL    HW212861   2.773   5.420   3.695
 3988SOL     OW12862   4.191   3.719   6.899
 3988SOL    HW112863   4.180   3.687   6.805
 3988SOL    HW212864   4.117   3.682   6.955
 3989SOL     OW12865   6.723   2.632   6.969
 3989SOL    HW112866   6.694   2.711   6.914
 3989SOL    HW212867   6.810   2.598   6.935
 3990SOL     OW12868   5.342   2.306   2.994
 3990SOL    HW112869   5.250   2.288   3.029
 3990SOL    HW212870   5.370   2.399   3.021
 3991SOL     OW12871   6.206   0.838   2.204
 3991SOL    HW112872   6.284   0.891   2.238
 3991SOL    HW212873   6.121   0.883   2.231
 3992SOL     OW12874   3.678   2.308   6.709
 3992SOL    HW112875   3.599   2.250   6.729
 3992SOL    HW212876   3.725   2.330   6.794
 3993SOL     OW12877   1.008   1.840   2.821
 3993SOL    HW112878   1.012   1.899   2.740
 3993SOL    HW212879   0.995   1.745   2.792
 3994SOL     OW12880   0.783   1.075   6.279
 3994SOL    HW112881   0.709   1.140   6.298
 3994SOL    HW212882   0.757   0.984   6.314
 3995SOL     OW12883   2.001   3.847   5.364
 3995SOL    HW112884   2.100   3.842   5.356
 3995SOL    HW212885   1.968   3.927   5.314
 3996SOL     OW12886   1.129   1.148   4.258
 3996SOL    HW112887   1.087   1.193   4.179
 3996SOL    HW212888   1.211   1.100   4.229
 3997SOL     OW12889   5.308   1.225   3.747
 3997SOL    HW112890   5.255   1.284   3.808
 3997SOL    HW212891   5.248   1.187   3.677
 3998SOL     OW12892   4.590   1.137   3.463
 3998SOL    HW112893   4.529   1.075   3.413
 3998SOL    HW212894   4.568   1.232   3.439
 3999SOL     OW12895   5.739   3.566   3.733
 3999SOL    HW112896   5.722   3.468   3.717
 3999SOL    HW212897   5.836   3.580   3.753
 4000SOL     OW12898   2.939   5.587   3.082
 4000SOL    HW112899   2.957   5.684   3.096
 4000SOL    HW212900   2.872   5.576   3.009
 4001SOL     OW12901   2.554   2.211   3.985
 4001SOL    HW112902   2.562   2.227   4.083
 4001SOL    HW212903   2.504   2.287   3.942
 4002SOL     OW12904   2.282   3.008   0.654
 4002SOL    HW112905   2.235   3.092   0.682
 4002SOL    HW212906   2.271   2.995   0.556
 4003SOL     OW12907   3.185   5.788   4.138
 4003SOL    HW112908   3.219   5.706   4.091
 4003SOL    HW212909   3.198   5.777   4.236
 4004SOL     OW12910   5.505   1.948   3.963
 4004SOL    HW112911   5.506   2.018   4.034
 4004SOL    HW212912   5.415   1.906   3.958
 4005SOL     OW12913   4.631   6.296   0.627
 4005SOL    HW112914   4.698   6.371   0.623
 4005SOL    HW212915   4.596   6.289   0.720
 4006SOL     OW12916   3.510   5.542   3.360
 4006SOL    HW112917   3.577   5.590   3.418
 4006SOL    HW212918   3.559   5.485   3.294
 4007SOL     OW12919   0.801   2.441   1.287
 4007SOL    HW112920   0.869   2.373   1.314
 4007SOL    HW212921   0.712   2.397   1.275
 4008SOL     OW12922   3.376   1.871   3.673
 4008SOL    HW112923   3.447   1.842   3.609
 4008SOL    HW212924   3.392   1.829   3.762
 4009SOL     OW12925   5.223   3.459   1.189
 4009SOL    HW112926   5.123   3.454   1.180
 4009SOL    HW212927   5.263   3.495   1.105
 4010SOL     OW12928   2.347   2.702   2.052
 4010SOL    HW112929   2.350   2.796   2.018
 4010SOL    HW212930   2.260   2.660   2.028
 4011SOL     OW12931   0.119   0.604   1.997
 4011SOL    HW112932   0.135   0.532   2.064
 4011SOL    HW212933   0.102   0.691   2.043
 4012SOL     OW12934   3.997   5.668   1.564
 4012SOL    HW112935   3.939   5.684   1.644
 4012SOL    HW212936   4.055   5.588   1.579
 4013SOL     OW12937   2.883   6.904   6.503
 4013SOL    HW112938   2.800   6.921   6.554
 4013SOL    HW212939   2.961   6.946   6.549
 4014SOL     OW12940   4.282   5.910   3.278
 4014SOL    HW112941   4.360   5.965   3.249
 4014SOL    HW212942   4.278   5.826   3.223
 4015SOL     OW12943   4.905   5.161   6.273
 4015SOL    HW112944   4.909   5.074   6.223
 4015SOL    HW212945   4.810   5.180   6.298
 4016SOL     OW12946   2.309   5.947   6.684
 4016SOL    HW112947   2.226   5.901   6.653
 4016SOL    HW212948   2.364   5.885   6.739
 4017SOL     OW12949   0.459   6.101   1.214
 4017SOL    HW112950   0.361   6.120   1.223
 4017SOL    HW212951   0.504   6.118   1.302
 4018SOL     OW12952   5.104   5.755   3.439
 4018SOL    HW112953   5.186   5.706   3.410
 4018SOL    HW212954   5.104   5.846   3.397
 4019SOL     OW12955   6.043   3.987   3.073
 4019SOL    HW112956   6.083   3.898   3.094
 4019SOL    HW212957   6.076   4.019   2.984
 4020SOL     OW12958   5.350   2.161   5.713
 4020SOL    HW112959   5.277   2.221   5.679
 4020SOL    HW212960   5.309   2.080   5.756
 4021SOL     OW12961   3.627   3.777   6.127
 4021SOL    HW112962   3.663   3.723   6.203
 4021SOL    HW212963   3.550   3.832   6.158
 4022SOL     OW12964   3.951   0.053   6.996
 4022SOL    HW112965   3.853   0.060   7.015
 4022SOL    HW212966   4.003   0.086   0.055
 4023SOL     OW12967   5.959   2.085   4.953
 4023SOL    HW112968   5.874   2.043   4.984
 4023SOL    HW212969   5.961   2.085   4.853
 4024SOL     OW12970   4.026   6.437   3.525
 4024SOL    HW112971   4.070   6.426   3.435
 4024SOL    HW212972   4.019   6.348   3.569
 4025SOL     OW12973   0.935   6.189   4.110
 4025SOL    HW112974   1.029   6.185   4.146
 4025SOL    HW212975   0.922   6.117   4.042
 4026SOL     OW12976   6.369   6.028   4.644
 4026SOL    HW112977   6.395   5.943   4.599
 4026SOL    HW212978   6.422   6.104   4.605
 4027SOL     OW12979   3.915   3.980   1.986
 4027SOL    HW112980   3.874   4.025   1.906
 4027SOL    HW212981   3.877   3.888   1.995
 4028SOL     OW12982   1.106   2.182   3.884
 4028SOL    HW112983   1.071   2.167   3.792
 4028SOL    HW212984   1.085   2.275   3.914
 4029SOL     OW12985   1.455   4.017   6.526
 4029SOL    HW112986   1.456   4.115   6.544
 4029SOL    HW212987   1.388   3.997   6.455
 4030SOL     OW12988   1.462   2.035   6.011
 4030SOL    HW112989   1.369   2.067   6.029
 4030SOL    HW212990   1.528   2.097   6.054
 4031SOL     OW12991   4.615   5.934   2.906
 4031SOL    HW112992   4.650   6.014   2.857
 4031SOL    HW212993   4.664   5.852   2.876
 4032SOL     OW12994   5.781   0.293   2.879
 4032SOL    HW112995   5.753   0.205   2.916
 4032SOL    HW212996   5.866   0.282   2.828
 4033SOL     OW12997   3.825   2.991   3.050
 4033SOL    HW112998   3.841   2.955   3.142
 4033SOL    HW212999   3.879   3.074   3.036
 4034SOL     OW13000   5.592   1.695   5.439
 4034SOL    HW113001   5.648   1.751   5.378
 4034SOL    HW213002   5.514   1.658   5.389
 4035SOL     OW13003   6.521   4.365   1.210
 4035SOL    HW113004   6.440   4.311   1.186
 4035SOL    HW213005   6.600   4.328   1.160
 4036SOL     OW13006   5.438   6.719   2.853
 4036SOL    HW113007   5.456   6.740   2.757
 4036SOL    HW213008   5.461   6.798   2.909
 4037SOL     OW13009   1.688   2.729   0.646
 4037SOL    HW113010   1.779   2.690   0.656
 4037SOL    HW213011   1.694   2.829   0.654
 4038SOL     OW13012   4.587   4.782   2.089
 4038SOL    HW113013   4.558   4.775   1.994
 4038SOL    HW213014   4.622   4.693   2.120
 4039SOL     OW13015   4.894   5.096   1.293
 4039SOL    HW113016   4.812   5.043   1.312
 4039SOL    HW213017   4.947   5.107   1.378
 4040SOL     OW13018   2.804   6.481   0.459
 4040SOL    HW113019   2.737   6.536   0.409
 4040SOL    HW213020   2.853   6.539   0.523
 4041SOL     OW13021   1.748   5.645   2.179
 4041SOL    HW113022   1.697   5.730   2.169
 4041SOL    HW213023   1.701   5.585   2.244
 4042SOL     OW13024   6.133   4.431   2.490
 4042SOL    HW113025   6.054   4.474   2.532
 4042SOL    HW213026   6.216   4.458   2.539
 4043SOL     OW13027   6.019   2.309   3.961
 4043SOL    HW113028   5.921   2.301   3.981
 4043SOL    HW213029   6.070   2.245   4.019
 4044SOL     OW13030   5.707   0.907   4.801
 4044SOL    HW113031   5.663   0.987   4.759
 4044SOL    HW213032   5.640   0.857   4.856
 4045SOL     OW13033   2.483   4.187   6.097
 4045SOL    HW113034   2.492   4.286   6.103
 4045SOL    HW213035   2.386   4.163   6.095
 4046SOL     OW13036   0.546   1.861   3.508
 4046SOL    HW113037   0.474   1.920   3.545
 4046SOL    HW213038   0.626   1.917   3.486
 4047SOL     OW13039   2.100   3.418   0.896
 4047SOL    HW113040   2.181   3.475   0.914
 4047SOL    HW213041   2.018   3.474   0.901
 4048SOL     OW13042   5.884   1.017   2.021
 4048SOL    HW113043   5.903   0.938   1.964
 4048SOL    HW213044   5.816   1.075   1.976
 4049SOL     OW13045   6.300   6.005   6.474
 4049SOL    HW113046   6.269   6.061   6.397
 4049SOL    HW213047   6.373   5.944   6.444
 4050SOL     OW13048   1.480   6.660   0.185
 4050SOL    HW113049   1.405   6.631   0.244
 4050SOL    HW213050   1.567   6.645   0.233
 4051SOL     OW13051   2.983   3.741   0.002
 4051SOL    HW113052   2.891   3.739   0.039
 4051SOL    HW213053   3.027   3.828   0.024
 4052SOL     OW13054   1.025   6.921   1.260
 4052SOL    HW113055   1.008   7.018   1.275
 4052SOL    HW213056   1.089   6.887   1.330
 4053SOL     OW13057   3.451   5.006   3.769
 4053SOL    HW113058   3.462   5.015   3.868
 4053SOL    HW213059   3.398   5.083   3.734
 4054SOL     OW13060   2.191   3.091   0.391
 4054SOL    HW113061   2.284   3.117   0.365
 4054SOL    HW213062   2.143   3.172   0.426
 4055SOL     OW13063   2.882   3.162   5.719
 4055SOL    HW113064   2.801   3.184   5.665
 4055SOL    HW213065   2.922   3.077   5.686
 4056SOL     OW13066   4.470   3.317   6.813
 4056SOL    HW113067   4.435   3.279   6.899
 4056SOL    HW213068   4.510   3.407   6.830
 4057SOL     OW13069   4.909   3.425   0.530
 4057SOL    HW113070   4.934   3.447   0.624
 4057SOL    HW213071   4.823   3.374   0.530
 4058SOL     OW13072   1.647   1.089   4.361
 4058SOL    HW113073   1.601   1.126   4.442
 4058SOL    HW213074   1.649   0.989   4.366
 4059SOL     OW13075   2.148   2.146   3.313
 4059SOL    HW113076   2.079   2.216   3.332
 4059SOL    HW213077   2.215   2.181   3.247
 4060SOL     OW13078   3.603   5.135   5.096
 4060SOL    HW113079   3.677   5.068   5.100
 4060SOL    HW213080   3.535   5.105   5.030
 4061SOL     OW13081   3.288   4.493   1.583
 4061SOL    HW113082   3.198   4.475   1.622
 4061SOL    HW213083   3.300   4.439   1.499
 4062SOL     OW13084   4.388   1.645   3.200
 4062SOL    HW113085   4.308   1.615   3.148
 4062SOL    HW213086   4.424   1.728   3.158
 4063SOL     OW13087   4.296   6.257   5.997
 4063SOL    HW113088   4.196   6.254   5.994
 4063SOL    HW213089   4.331   6.285   5.908
 4064SOL     OW13090   2.425   6.459   2.508
 4064SOL    HW113091   2.487   6.513   2.451
 4064SOL    HW213092   2.433   6.362   2.483
 4065SOL     OW13093   0.684   0.247   0.320
 4065SOL    HW113094   0.636   0.192   0.251
 4065SOL    HW213095   0.783   0.236   0.309
 4066SOL     OW13096   5.361   4.933   2.073
 4066SOL    HW113097   5.426   4.870   2.031
 4066SOL    HW213098   5.339   5.007   2.009
 4067SOL     OW13099   5.541   1.794   2.907
 4067SOL    HW113100   5.464   1.831   2.959
 4067SOL    HW213101   5.606   1.751   2.969
 4068SOL     OW13102   4.700   0.372   4.656
 4068SOL    HW113103   4.706   0.471   4.645
 4068SOL    HW213104   4.633   0.349   4.726
 4069SOL     OW13105   4.625   3.596   0.195
 4069SOL    HW113106   4.548   3.647   0.156
 4069SOL    HW213107   4.688   3.660   0.239
 4070SOL     OW13108   1.779   3.277   2.841
 4070SOL    HW113109   1.841   3.200   2.826
 4070SOL    HW213110   1.730   3.264   2.927
 4071SOL     OW13111   1.505   1.012   4.814
 4071SOL    HW113112   1.540   0.992   4.905
 4071SOL    HW213113   1.527   0.937   4.752
 4072SOL     OW13114   1.858   6.695   4.300
 4072SOL    HW113115   1.867   6.603   4.262
 4072SOL    HW213116   1.762   6.713   4.322
 4073SOL     OW13117   2.139   5.537   6.040
 4073SOL    HW113118   2.043   5.536   6.068
 4073SOL    HW213119   2.197   5.533   6.121
 4074SOL     OW13120   0.576   3.291   1.823
 4074SOL    HW113121   0.479   3.309   1.836
 4074SOL    HW213122   0.620   3.275   1.912
 4075SOL     OW13123   4.942   1.992   2.832
 4075SOL    HW113124   5.031   1.947   2.845
 4075SOL    HW213125   4.884   1.935   2.775
 4076SOL     OW13126   2.506   4.157   5.381
 4076SOL    HW113127   2.601   4.187   5.388
 4076SOL    HW213128   2.496   4.100   5.299
 4077SOL     OW13129   2.575   6.241   0.879
 4077SOL    HW113130   2.570   6.142   0.869
 4077SOL    HW213131   2.608   6.281   0.794
 4078SOL     OW13132   5.744   5.330   2.061
 4078SOL    HW113133   5.734   5.425   2.032
 4078SOL    HW213134   5.656   5.283   2.051
 4079SOL     OW13135   1.787   0.466   3.166
 4079SOL    HW113136   1.813   0.562   3.155
 4079SOL    HW213137   1.866   0.407   3.150
 4080SOL     OW13138   3.221   3.904   0.217
 4080SOL    HW113139   3.304   3.883   0.165
 4080SOL    HW213140   3.236   3.882   0.314
 4081SOL     OW13141   2.079   0.802   4.693
 4081SOL    HW113142   2.050   0.712   4.661
 4081SOL    HW213143   2.121   0.793   4.783
 4082SOL     OW13144   1.781   1.588   6.496
 4082SOL    HW113145   1.695   1.638   6.486
 4082SOL    HW213146   1.840   1.606   6.417
 4083SOL     OW13147   5.910   4.322   3.796
 4083SOL    HW113148   5.869   4.284   3.713
 4083SOL    HW213149   5.839   4.337   3.865
 4084SOL     OW13150   4.808   3.044   3.231
 4084SOL    HW113151   4.793   2.956   3.275
 4084SOL    HW213152   4.783   3.118   3.293
 4085SOL     OW13153   2.754   5.285   1.146
 4085SOL    HW113154   2.772   5.318   1.238
 4085SOL    HW213155   2.682   5.216   1.149
 4086SOL     OW13156   0.215   5.117   0.339
 4086SOL    HW113157   0.233   5.062   0.257
 4086SOL    HW213158   0.160   5.197   0.313
 4087SOL     OW13159   3.106   0.939   2.645
 4087SOL    HW113160   3.156   0.881   2.581
 4087SOL    HW213161   3.074   0.883   2.722
 4088SOL     OW13162   6.521   0.976   5.812
 4088SOL    HW113163   6.485   0.912   5.879
 4088SOL    HW213164   6.517   1.069   5.850
 4089SOL     OW13165   0.410   5.341   4.478
 4089SOL    HW113166   0.458   5.426   4.458
 4089SOL    HW213167   0.469   5.263   4.457
 4090SOL     OW13168   1.969   6.290   5.215
 4090SOL    HW113169   2.004   6.198   5.198
 4090SOL    HW213170   1.967   6.308   5.313
 4091SOL     OW13171   1.117   5.061   0.180
 4091SOL    HW113172   1.170   5.055   0.096
 4091SOL    HW213173   1.137   5.147   0.227
 4092SOL     OW13174   4.972   3.382   4.979
 4092SOL    HW113175   4.914   3.457   5.013
 4092SOL    HW213176   4.914   3.311   4.940
 4093SOL     OW13177   5.934   5.868   2.026
 4093SOL    HW113178   5.966   5.875   2.120
 4093SOL    HW213179   5.950   5.776   1.991
 4094SOL     OW13180   0.733   4.860   6.848
 4094SOL    HW113181   0.706   4.853   6.752
 4094SOL    HW213182   0.828   4.892   6.853
 4095SOL     OW13183   0.767   3.361   0.412
 4095SOL    HW113184   0.756   3.293   0.485
 4095SOL    HW213185   0.713   3.442   0.434
 4096SOL     OW13186   2.190   1.052   6.437
 4096SOL    HW113187   2.174   0.954   6.425
 4096SOL    HW213188   2.206   1.095   6.348
 4097SOL     OW13189   6.013   4.485   5.460
 4097SOL    HW113190   6.003   4.493   5.361
 4097SOL    HW213191   6.094   4.430   5.482
 4098SOL     OW13192   2.039   3.161   1.648
 4098SOL    HW113193   1.985   3.089   1.692
 4098SOL    HW213194   2.035   3.244   1.702
 4099SOL     OW13195   3.614   5.043   6.971
 4099SOL    HW113196   3.563   4.994   0.022
 4099SOL    HW213197   3.642   5.132   7.006
 4100SOL     OW13198   1.183   0.757   3.775
 4100SOL    HW113199   1.135   0.838   3.811
 4100SOL    HW213200   1.269   0.784   3.734
 4101SOL     OW13201   6.720   1.047   6.375
 4101SOL    HW113202   6.810   1.043   6.332
 4101SOL    HW213203   6.713   0.973   6.443
 4102SOL     OW13204   1.943   0.558   0.896
 4102SOL    HW113205   1.999   0.509   0.829
 4102SOL    HW213206   1.857   0.588   0.852
 4103SOL     OW13207   0.174   6.948   2.319
 4103SOL    HW113208   0.103   6.993   2.373
 4103SOL    HW213209   0.253   6.929   2.377
 4104SOL     OW13210   0.243   5.102   3.120
 4104SOL    HW113211   0.210   5.069   3.209
 4104SOL    HW213212   0.183   5.176   3.088
 4105SOL     OW13213   4.813   1.258   1.718
 4105SOL    HW113214   4.829   1.337   1.658
 4105SOL    HW213215   4.889   1.249   1.782
 4106SOL     OW13216   6.806   2.278   3.901
 4106SOL    HW113217   6.835   2.187   3.929
 4106SOL    HW213218   6.816   2.342   3.977
 4107SOL     OW13219   0.230   6.249   6.868
 4107SOL    HW113220   0.317   6.230   6.914
 4107SOL    HW213221   0.155   6.232   6.932
 4108SOL     OW13222   0.863   5.801   4.219
 4108SOL    HW113223   0.814   5.718   4.246
 4108SOL    HW213224   0.861   5.810   4.120
 4109SOL     OW13225   5.783   5.997   3.695
 4109SOL    HW113226   5.765   6.049   3.779
 4109SOL    HW213227   5.859   5.934   3.710
 4110SOL     OW13228   4.054   2.931   6.581
 4110SOL    HW113229   4.117   2.978   6.519
 4110SOL    HW213230   4.039   2.838   6.550
 4111SOL     OW13231   5.808   4.995   6.239
 4111SOL    HW113232   5.794   5.055   6.318
 4111SOL    HW213233   5.774   4.903   6.260
 4112SOL     OW13234   5.039   0.027   4.898
 4112SOL    HW113235   5.094   0.051   4.978
 4112SOL    HW213236   5.020   0.110   4.845
 4113SOL     OW13237   4.592   5.164   4.864
 4113SOL    HW113238   4.505   5.115   4.872
 4113SOL    HW213239   4.600   5.229   4.940
 4114SOL     OW13240   6.287   1.621   3.374
 4114SOL    HW113241   6.365   1.576   3.417
 4114SOL    HW213242   6.287   1.718   3.398
 4115SOL     OW13243   2.854   4.803   3.204
 4115SOL    HW113244   2.795   4.746   3.262
 4115SOL    HW213245   2.946   4.765   3.201
 4116SOL     OW13246   5.380   2.794   3.488
 4116SOL    HW113247   5.342   2.728   3.423
 4116SOL    HW213248   5.479   2.779   3.498
 4117SOL     OW13249   1.432   2.118   2.437
 4117SOL    HW113250   1.497   2.135   2.511
 4117SOL    HW213251   1.460   2.037   2.387
 4118SOL     OW13252   6.301   6.692   6.386
 4118SOL    HW113253   6.343   6.674   6.298
 4118SOL    HW213254   6.326   6.784   6.417
 4119SOL     OW13255   3.141   0.595   3.086
 4119SOL    HW113256   3.161   0.693   3.085
 4119SOL    HW213257   3.162   0.558   3.177
 4120SOL     OW13258   4.337   1.317   6.196
 4120SOL    HW113259   4.424   1.356   6.168
 4120SOL    HW213260   4.273   1.391   6.219
 4121SOL     OW13261   6.580   6.249   2.391
 4121SOL    HW113262   6.631   6.331   2.418
 4121SOL    HW213263   6.533   6.211   2.471
 4122SOL     OW13264   0.695   6.215   4.759
 4122SOL    HW113265   0.676   6.255   4.849
 4122SOL    HW213266   0.610   6.212   4.706
 4123SOL     OW13267   4.470   5.591   4.576
 4123SOL    HW113268   4.477   5.494   4.601
 4123SOL    HW213269   4.481   5.647   4.657
 4124SOL     OW13270   6.459   6.603   1.241
 4124SOL    HW113271   6.390   6.584   1.311
 4124SOL    HW213272   6.417   6.651   1.164
 4125SOL     OW13273   4.715   2.853   2.714
 4125SOL    HW113274   4.751   2.893   2.798
 4125SOL    HW213275   4.765   2.769   2.693
 4126SOL     OW13276   1.814   2.945   2.328
 4126SOL    HW113277   1.778   2.878   2.264
 4126SOL    HW213278   1.739   2.996   2.370
 4127SOL     OW13279   4.174   2.176   4.671
 4127SOL    HW113280   4.090   2.184   4.726
 4127SOL    HW213281   4.150   2.175   4.574
 4128SOL     OW13282   0.372   3.200   2.101
 4128SOL    HW113283   0.367   3.239   2.193
 4128SOL    HW213284   0.460   3.152   2.091
 4129SOL     OW13285   3.342   2.179   0.332
 4129SOL    HW113286   3.332   2.172   0.232
 4129SOL    HW213287   3.283   2.113   0.377
 4130SOL     OW13288   6.317   2.657   0.679
 4130SOL    HW113289   6.236   2.673   0.623
 4130SOL    HW213290   6.297   2.676   0.775
 4131SOL     OW13291   6.550   0.710   2.705
 4131SOL    HW113292   6.488   0.734   2.780
 4131SOL    HW213293   6.644   0.731   2.732
 4132SOL     OW13294   5.844   4.090   4.023
 4132SOL    HW113295   5.820   3.995   4.006
 4132SOL    HW213296   5.934   4.109   3.984
 4133SOL     OW13297   4.655   6.286   1.355
 4133SOL    HW113298   4.753   6.280   1.335
 4133SOL    HW213299   4.611   6.199   1.333
 4134SOL     OW13300   2.544   3.416   0.715
 4134SOL    HW113301   2.490   3.417   0.800
 4134SOL    HW213302   2.491   3.374   0.642
 4135SOL     OW13303   0.314   2.189   2.894
 4135SOL    HW113304   0.387   2.192   2.962
 4135SOL    HW213305   0.351   2.158   2.807
 4136SOL     OW13306   1.093   3.753   1.550
 4136SOL    HW113307   1.048   3.732   1.463
 4136SOL    HW213308   1.041   3.713   1.625
 4137SOL     OW13309   1.000   2.696   6.927
 4137SOL    HW113310   1.026   2.789   6.900
 4137SOL    HW213311   1.054   2.630   6.875
 4138SOL     OW13312   4.191   5.219   1.107
 4138SOL    HW113313   4.118   5.153   1.125
 4138SOL    HW213314   4.215   5.267   1.191
 4139SOL     OW13315   1.350   2.023   3.997
 4139SOL    HW113316   1.344   1.924   4.007
 4139SOL    HW213317   1.262   2.059   3.966
 4140SOL     OW13318   3.424   2.138   3.827
 4140SOL    HW113319   3.477   2.085   3.893
 4140SOL    HW213320   3.479   2.216   3.795
 4141SOL     OW13321   4.590   0.273   6.781
 4141SOL    HW113322   4.637   0.342   6.836
 4141SOL    HW213323   4.652   0.198   6.761
 4142SOL     OW13324   6.945   4.174   1.765
 4142SOL    HW113325   6.863   4.129   1.802
 4142SOL    HW213326   0.005   4.150   1.820
 4143SOL     OW13327   5.527   3.490   0.844
 4143SOL    HW113328   5.430   3.503   0.865
 4143SOL    HW213329   5.539   3.491   0.745
 4144SOL     OW13330   5.218   1.709   0.311
 4144SOL    HW113331   5.185   1.672   0.398
 4144SOL    HW213332   5.314   1.686   0.299
 4145SOL     OW13333   1.109   6.189   0.767
 4145SOL    HW113334   1.127   6.281   0.733
 4145SOL    HW213335   1.195   6.139   0.774
 4146SOL     OW13336   6.030   0.259   4.023
 4146SOL    HW113337   6.073   0.169   4.011
 4146SOL    HW213338   6.020   0.278   4.121
 4147SOL     OW13339   5.843   4.611   6.035
 4147SOL    HW113340   5.901   4.653   6.105
 4147SOL    HW213341   5.797   4.531   6.074
 4148SOL     OW13342   2.850   0.397   5.644
 4148SOL    HW113343   2.892   0.455   5.574
 4148SOL    HW213344   2.750   0.400   5.634
 4149SOL     OW13345   0.380   3.483   1.604
 4149SOL    HW113346   0.429   3.451   1.523
 4149SOL    HW213347   0.293   3.435   1.612
 4150SOL     OW13348   6.555   2.344   5.185
 4150SOL    HW113349   6.562   2.244   5.185
 4150SOL    HW213350   6.646   2.384   5.176
 4151SOL     OW13351   1.852   0.093   5.020
 4151SOL    HW113352   1.950   0.113   5.017
 4151SOL    HW213353   1.809   0.147   5.093
 4152SOL     OW13354   3.952   5.979   1.737
 4152SOL    HW113355   3.909   5.908   1.792
 4152SOL    HW213356   3.944   5.955   1.640
 4153SOL     OW13357   6.889   5.044   1.734
 4153SOL    HW113358   6.836   5.022   1.816
 4153SOL    HW213359   6.856   5.129   1.694
 4154SOL     OW13360   0.637   5.767   3.224
 4154SOL    HW113361   0.558   5.780   3.164
 4154SOL    HW213362   0.720   5.763   3.168
 4155SOL     OW13363   6.514   2.300   1.133
 4155SOL    HW113364   6.509   2.398   1.114
 4155SOL    HW213365   6.466   2.280   1.219
 4156SOL     OW13366   6.706   5.194   4.796
 4156SOL    HW113367   6.634   5.129   4.771
 4156SOL    HW213368   6.672   5.287   4.788
 4157SOL     OW13369   6.179   6.062   2.753
 4157SOL    HW113370   6.215   6.066   2.847
 4157SOL    HW213371   6.127   6.145   2.734
 4158SOL     OW13372   1.788   2.664   1.958
 4158SOL    HW113373   1.860   2.595   1.967
 4158SOL    HW213374   1.820   2.739   1.900
 4159SOL     OW13375   2.782   2.047   3.266
 4159SOL    HW113376   2.760   1.991   3.186
 4159SOL    HW213377   2.844   1.995   3.326
 4160SOL     OW13378   5.499   0.240   0.269
 4160SOL    HW113379   5.507   0.183   0.188
 4160SOL    HW213380   5.537   0.330   0.251
 4161SOL     OW13381   1.702   2.310   1.570
 4161SOL    HW113382   1.670   2.297   1.476
 4161SOL    HW213383   1.752   2.396   1.576
 4162SOL     OW13384   6.316   5.676   1.500
 4162SOL    HW113385   6.304   5.658   1.598
 4162SOL    HW213386   6.374   5.605   1.460
 4163SOL     OW13387   5.609   1.387   2.860
 4163SOL    HW113388   5.510   1.376   2.867
 4163SOL    HW213389   5.642   1.443   2.936
 4164SOL     OW13390   0.927   6.790   5.465
 4164SOL    HW113391   0.839   6.752   5.494
 4164SOL    HW213392   0.911   6.874   5.414
 4165SOL     OW13393   4.425   6.775   5.974
 4165SOL    HW113394   4.419   6.848   5.906
 4165SOL    HW213395   4.481   6.701   5.938
 4166SOL     OW13396   5.805   1.216   1.570
 4166SOL    HW113397   5.901   1.189   1.577
 4166SOL    HW213398   5.762   1.163   1.497
 4167SOL     OW13399   2.767   5.031   6.287
 4167SOL    HW113400   2.723   5.028   6.198
 4167SOL    HW213401   2.864   5.052   6.275
 4168SOL     OW13402   0.088   4.129   0.492
 4168SOL    HW113403   0.078   4.106   0.396
 4168SOL    HW213404   0.084   4.228   0.504
 4169SOL     OW13405   5.991   3.853   5.359
 4169SOL    HW113406   5.912   3.809   5.318
 4169SOL    HW213407   5.991   3.951   5.336
 4170SOL     OW13408   4.820   2.862   4.854
 4170SOL    HW113409   4.831   2.765   4.874
 4170SOL    HW213410   4.804   2.874   4.756
 4171SOL     OW13411   1.115   5.374   1.243
 4171SOL    HW113412   1.055   5.318   1.184
 4171SOL    HW213413   1.184   5.315   1.285
 4172SOL     OW13414   2.629   3.058   0.218
 4172SOL    HW113415   2.722   3.094   0.211
 4172SOL    HW213416   2.570   3.125   0.264
 4173SOL     OW13417   4.817   2.848   5.820
 4173SOL    HW113418   4.795   2.761   5.777
 4173SOL    HW213419   4.746   2.916   5.799
 4174SOL     OW13420   5.091   1.745   2.463
 4174SOL    HW113421   5.177   1.694   2.471
 4174SOL    HW213422   5.023   1.706   2.526
 4175SOL     OW13423   1.654   4.509   4.833
 4175SOL    HW113424   1.712   4.428   4.819
 4175SOL    HW213425   1.703   4.575   4.890
 4176SOL     OW13426   3.939   6.553   1.589
 4176SOL    HW113427   4.019   6.552   1.529
 4176SOL    HW213428   3.892   6.465   1.584
 4177SOL     OW13429   5.279   4.708   5.172
 4177SOL    HW113430   5.250   4.658   5.091
 4177SOL    HW213431   5.199   4.737   5.224
 4178SOL     OW13432   4.536   6.990   2.927
 4178SOL    HW113433   4.543   6.892   2.912
 4178SOL    HW213434   4.440   7.016   2.935
 4179SOL     OW13435   5.094   4.031   3.228
 4179SOL    HW113436   5.153   4.035   3.147
 4179SOL    HW213437   5.143   3.986   3.303
 4180SOL     OW13438   5.063   2.752   0.998
 4180SOL    HW113439   5.104   2.843   0.988
 4180SOL    HW213440   5.015   2.729   0.913
 4181SOL     OW13441   4.916   1.083   6.824
 4181SOL    HW113442   4.986   1.124   6.765
 4181SOL    HW213443   4.919   1.127   6.914
 4182SOL     OW13444   0.522   5.110   3.133
 4182SOL    HW113445   0.423   5.112   3.125
 4182SOL    HW213446   0.555   5.016   3.120
 4183SOL     OW13447   2.733   1.196   0.532
 4183SOL    HW113448   2.645   1.209   0.485
 4183SOL    HW213449   2.789   1.131   0.480
 4184SOL     OW13450   3.756   0.346   2.149
 4184SOL    HW113451   3.836   0.330   2.091
 4184SOL    HW213452   3.688   0.275   2.132
 4185SOL     OW13453   0.780   4.008   2.760
 4185SOL    HW113454   0.879   4.026   2.757
 4185SOL    HW213455   0.742   4.018   2.669
 4186SOL     OW13456   2.346   6.010   6.421
 4186SOL    HW113457   2.383   5.926   6.379
 4186SOL    HW213458   2.345   5.999   6.520
 4187SOL     OW13459   2.532   3.175   6.523
 4187SOL    HW113460   2.626   3.166   6.556
 4187SOL    HW213461   2.472   3.201   6.598
 4188SOL     OW13462   5.364   0.989   5.056
 4188SOL    HW113463   5.402   1.077   5.084
 4188SOL    HW213464   5.335   0.993   4.961
 4189SOL     OW13465   3.722   5.002   4.308
 4189SOL    HW113466   3.644   4.953   4.349
 4189SOL    HW213467   3.742   4.962   4.218
 4190SOL     OW13468   0.556   6.916   0.724
 4190SOL    HW113469   0.634   6.887   0.779
 4190SOL    HW213470   0.579   7.002   0.677
 4191SOL     OW13471   5.461   3.619   5.222
 4191SOL    HW113472   5.524   3.682   5.178
 4191SOL    HW213473   5.437   3.654   5.313
 4192SOL     OW13474   1.169   1.637   2.137
 4192SOL    HW113475   1.227   1.604   2.063
 4192SOL    HW213476   1.094   1.690   2.099
 4193SOL     OW13477   5.096   0.623   0.817
 4193SOL    HW113478   5.155   0.581   0.747
 4193SOL    HW213479   5.110   0.577   0.905
 4194SOL     OW13480   5.243   0.079   4.393
 4194SOL    HW113481   5.172   0.053   4.328
 4194SOL    HW213482   5.330   0.037   4.366
 4195SOL     OW13483   4.308   5.196   1.822
 4195SOL    HW113484   4.252   5.175   1.902
 4195SOL    HW213485   4.298   5.293   1.799
 4196SOL     OW13486   6.960   2.187   2.794
 4196SOL    HW113487   7.015   2.177   2.877
 4196SOL    HW213488   6.908   2.272   2.798
 4197SOL     OW13489   4.380   5.359   5.455
 4197SOL    HW113490   4.454   5.426   5.450
 4197SOL    HW213491   4.294   5.403   5.431
 4198SOL     OW13492   6.537   1.601   1.202
 4198SOL    HW113493   6.615   1.538   1.208
 4198SOL    HW213494   6.570   1.695   1.214
 4199SOL     OW13495   1.092   2.411   5.282
 4199SOL    HW113496   1.043   2.326   5.300
 4199SOL    HW213497   1.161   2.426   5.352
 4200SOL     OW13498   2.902   0.508   6.327
 4200SOL    HW113499   2.916   0.433   6.263
 4200SOL    HW213500   2.896   0.595   6.277
 4201SOL     OW13501   6.250   0.172   3.423
 4201SOL    HW113502   6.349   0.182   3.427
 4201SOL    HW213503   6.224   0.128   3.338
 4202SOL     OW13504   2.301   5.683   6.259
 4202SOL    HW113505   2.269   5.603   6.310
 4202SOL    HW213506   2.396   5.703   6.284
 4203SOL     OW13507   5.081   4.474   0.588
 4203SOL    HW113508   5.164   4.530   0.593
 4203SOL    HW213509   5.036   4.472   0.677
 4204SOL     OW13510   3.957   3.564   4.793
 4204SOL    HW113511   3.871   3.575   4.743
 4204SOL    HW213512   4.030   3.609   4.743
 4205SOL     OW13513   4.241   6.194   4.707
 4205SOL    HW113514   4.169   6.213   4.774
 4205SOL    HW213515   4.286   6.279   4.680
 4206SOL     OW13516   6.404   1.821   5.150
 4206SOL    HW113517   6.322   1.872   5.174
 4206SOL    HW213518   6.481   1.853   5.205
 4207SOL     OW13519   2.249   2.949   1.923
 4207SOL    HW113520   2.234   3.021   1.855
 4207SOL    HW213521   2.244   2.989   2.015
 4208SOL     OW13522   0.037   3.634   5.844
 4208SOL    HW113523   0.005   3.555   5.792
 4208SOL    HW213524   0.086   3.696   5.783
 4209SOL     OW13525   0.171   6.259   3.552
 4209SOL    HW113526   0.150   6.204   3.471
 4209SOL    HW213527   0.267   6.285   3.550
 4210SOL     OW13528   3.417   3.049   2.613
 4210SOL    HW113529   3.478   3.127   2.622
 4210SOL    HW213530   3.427   2.989   2.693
 4211SOL     OW13531   3.775   0.524   5.360
 4211SOL    HW113532   3.681   0.545   5.387
 4211SOL    HW213533   3.813   0.455   5.422
 4212SOL     OW13534   6.150   1.908   3.117
 4212SOL    HW113535   6.122   1.933   3.025
 4212SOL    HW213536   6.230   1.962   3.144
 4213SOL     OW13537   3.051   0.245   2.534
 4213SOL    HW113538   3.003   0.283   2.613
 4213SOL    HW213539   2.989   0.185   2.484
 4214SOL     OW13540   0.280   5.635   5.360
 4214SOL    HW113541   0.232   5.551   5.336
 4214SOL    HW213542   0.378   5.623   5.347
 4215SOL     OW13543   5.159   6.854   5.254
 4215SOL    HW113544   5.225   6.832   5.326
 4215SOL    HW213545   5.197   6.831   5.165
 4216SOL     OW13546   1.510   1.193   3.113
 4216SOL    HW113547   1.575   1.209   3.188
 4216SOL    HW213548   1.500   1.276   3.059
 4217SOL     OW13549   1.002   1.061   2.776
 4217SOL    HW113550   0.920   1.081   2.830
 4217SOL    HW213551   1.035   0.969   2.799
 4218SOL     OW13552   3.143   0.628   1.558
 4218SOL    HW113553   3.142   0.535   1.595
 4218SOL    HW213554   3.236   0.663   1.558
 4219SOL     OW13555   4.399   5.821   4.423
 4219SOL    HW113556   4.434   5.730   4.442
 4219SOL    HW213557   4.405   5.878   4.505
 4220SOL     OW13558   6.514   3.345   2.222
 4220SOL    HW113559   6.515   3.420   2.289
 4220SOL    HW213560   6.541   3.380   2.133
 4221SOL     OW13561   5.719   4.250   5.707
 4221SOL    HW113562   5.652   4.177   5.700
 4221SOL    HW213563   5.674   4.333   5.740
 4222SOL     OW13564   6.848   0.933   2.863
 4222SOL    HW113565   6.863   0.945   2.961
 4222SOL    HW213566   6.839   0.836   2.841
 4223SOL     OW13567   3.557   3.755   0.710
 4223SOL    HW113568   3.578   3.791   0.801
 4223SOL    HW213569   3.468   3.710   0.711
 4224SOL     OW13570   5.670   5.009   4.724
 4224SOL    HW113571   5.595   5.065   4.691
 4224SOL    HW213572   5.665   5.001   4.824
 4225SOL     OW13573   2.263   2.597   5.144
 4225SOL    HW113574   2.214   2.672   5.100
 4225SOL    HW213575   2.220   2.576   5.232
 4226SOL     OW13576   0.897   6.252   2.893
 4226SOL    HW113577   0.868   6.189   2.965
 4226SOL    HW213578   0.996   6.246   2.882
 4227SOL     OW13579   3.595   5.634   2.073
 4227SOL    HW113580   3.523   5.613   2.006
 4227SOL    HW213581   3.680   5.590   2.045
 4228SOL     OW13582   0.578   6.339   5.722
 4228SOL    HW113583   0.490   6.356   5.679
 4228SOL    HW213584   0.648   6.394   5.678
 4229SOL     OW13585   4.746   5.833   6.023
 4229SOL    HW113586   4.833   5.819   5.975
 4229SOL    HW213587   4.764   5.879   6.110
 4230SOL     OW13588   1.963   6.255   3.203
 4230SOL    HW113589   1.883   6.274   3.147
 4230SOL    HW213590   1.998   6.164   3.183
 4231SOL     OW13591   5.061   0.022   6.131
 4231SOL    HW113592   4.998   0.100   6.131
 4231SOL    HW213593   5.019   6.964   6.084
 4232SOL     OW13594   1.394   4.457   3.099
 4232SOL    HW113595   1.461   4.492   3.033
 4232SOL    HW213596   1.371   4.362   3.076
 4233SOL     OW13597   6.300   0.831   4.945
 4233SOL    HW113598   6.312   0.929   4.930
 4233SOL    HW213599   6.206   0.813   4.973
 4234SOL     OW13600   1.954   5.154   5.311
 4234SOL    HW113601   2.035   5.144   5.369
 4234SOL    HW213602   1.921   5.248   5.315
 4235SOL     OW13603   6.552   4.158   5.841
 4235SOL    HW113604   6.522   4.063   5.847
 4235SOL    HW213605   6.626   4.165   5.774
 4236SOL     OW13606   6.216   3.768   2.269
 4236SOL    HW113607   6.261   3.755   2.181
 4236SOL    HW213608   6.130   3.818   2.256
 4237SOL     OW13609   6.156   5.170   4.032
 4237SOL    HW113610   6.129   5.085   3.986
 4237SOL    HW213611   6.096   5.244   4.002
 4238SOL     OW13612   1.444   6.501   3.246
 4238SOL    HW113613   1.449   6.598   3.222
 4238SOL    HW213614   1.349   6.473   3.258
 4239SOL     OW13615   4.992   1.455   3.253
 4239SOL    HW113616   4.966   1.524   3.185
 4239SOL    HW213617   4.961   1.365   3.222
 4240SOL     OW13618   2.030   5.624   0.561
 4240SOL    HW113619   2.116   5.674   0.557
 4240SOL    HW213620   2.021   5.578   0.649
 4241SOL     OW13621   5.459   1.103   0.971
 4241SOL    HW113622   5.419   1.164   0.903
 4241SOL    HW213623   5.492   1.158   1.049
 4242SOL     OW13624   3.270   2.139   4.141
 4242SOL    HW113625   3.198   2.156   4.074
 4242SOL    HW213626   3.251   2.190   4.225
 4243SOL     OW13627   5.365   2.558   3.115
 4243SOL    HW113628   5.405   2.641   3.077
 4243SOL    HW213629   5.435   2.509   3.168
 4244SOL     OW13630   4.380   4.329   1.360
 4244SOL    HW113631   4.419   4.240   1.335
 4244SOL    HW213632   4.353   4.328   1.456
 4245SOL     OW13633   6.586   1.930   6.115
 4245SOL    HW113634   6.654   1.980   6.168
 4245SOL    HW213635   6.500   1.926   6.166
 4246SOL     OW13636   6.675   3.674   2.890
 4246SOL    HW113637   6.703   3.658   2.984
 4246SOL    HW213638   6.671   3.773   2.873
 4247SOL     OW13639   2.302   6.043   3.588
 4247SOL    HW113640   2.352   5.994   3.658
 4247SOL    HW213641   2.352   6.126   3.563
 4248SOL     OW13642   3.184   1.487   3.872
 4248SOL    HW113643   3.205   1.389   3.862
 4248SOL    HW213644   3.167   1.527   3.782
 4249SOL     OW13645   6.768   2.880   5.187
 4249SOL    HW113646   6.758   2.968   5.235
 4249SOL    HW213647   6.832   2.890   5.111
 4250SOL     OW13648   6.412   4.369   2.874
 4250SOL    HW113649   6.409   4.425   2.791
 4250SOL    HW213650   6.506   4.367   2.910
 4251SOL     OW13651   5.897   4.776   0.986
 4251SOL    HW113652   5.879   4.818   1.074
 4251SOL    HW213653   5.937   4.686   0.999
 4252SOL     OW13654   5.980   6.364   5.430
 4252SOL    HW113655   5.895   6.409   5.457
 4252SOL    HW213656   6.023   6.322   5.510
 4253SOL     OW13657   3.171   6.554   0.950
 4253SOL    HW113658   3.148   6.646   0.918
 4253SOL    HW213659   3.112   6.531   1.027
 4254SOL     OW13660   0.812   2.565   2.504
 4254SOL    HW113661   0.820   2.472   2.467
 4254SOL    HW213662   0.857   2.570   2.592
 4255SOL     OW13663   5.716   3.579   3.444
 4255SOL    HW113664   5.716   3.560   3.542
 4255SOL    HW213665   5.638   3.636   3.421
 4256SOL     OW13666   1.411   0.160   0.856
 4256SOL    HW113667   1.422   0.088   0.925
 4256SOL    HW213668   1.322   0.151   0.812
 4257SOL     OW13669   3.776   0.304   3.854
 4257SOL    HW113670   3.867   0.264   3.857
 4257SOL    HW213671   3.742   0.318   3.946
 4258SOL     OW13672   5.472   6.162   1.648
 4258SOL    HW113673   5.389   6.154   1.703
 4258SOL    HW213674   5.522   6.244   1.676
 4259SOL     OW13675   2.689   1.054   6.982
 4259SOL    HW113676   2.684   1.074   6.884
 4259SOL    HW213677   2.774   1.006   7.001
 4260SOL     OW13678   4.666   0.080   6.225
 4260SOL    HW113679   4.709   0.039   6.305
 4260SOL    HW213680   4.570   0.054   6.221
 4261SOL     OW13681   1.864   0.129   1.861
 4261SOL    HW113682   1.794   0.200   1.854
 4261SOL    HW213683   1.953   0.171   1.878
 4262SOL     OW13684   0.451   4.265   5.360
 4262SOL    HW113685   0.422   4.174   5.329
 4262SOL    HW213686   0.550   4.267   5.370
 4263SOL     OW13687   2.754   6.411   3.395
 4263SOL    HW113688   2.839   6.457   3.421
 4263SOL    HW213689   2.717   6.453   3.312
 4264SOL     OW13690   0.262   2.478   2.784
 4264SOL    HW113691   0.237   2.390   2.744
 4264SOL    HW213692   0.238   2.479   2.881
 4265SOL     OW13693   5.502   1.495   0.775
 4265SOL    HW113694   5.455   1.410   0.751
 4265SOL    HW213695   5.579   1.510   0.712
 4266SOL     OW13696   2.063   4.869   0.257
 4266SOL    HW113697   2.116   4.935   0.309
 4266SOL    HW213698   1.984   4.915   0.216
 4267SOL     OW13699   2.027   3.439   4.655
 4267SOL    HW113700   2.051   3.532   4.683
 4267SOL    HW213701   1.936   3.438   4.614
 4268SOL     OW13702   1.043   6.363   6.363
 4268SOL    HW113703   1.108   6.344   6.437
 4268SOL    HW213704   0.980   6.287   6.353
 4269SOL     OW13705   2.248   1.373   1.685
 4269SOL    HW113706   2.201   1.286   1.702
 4269SOL    HW213707   2.344   1.355   1.664
 4270SOL     OW13708   3.754   3.462   3.720
 4270SOL    HW113709   3.830   3.516   3.758
 4270SOL    HW213710   3.757   3.467   3.620
 4271SOL     OW13711   0.293   1.274   7.000
 4271SOL    HW113712   0.336   1.347   6.947
 4271SOL    HW213713   0.211   1.310   0.026
 4272SOL     OW13714   0.362   3.358   4.840
 4272SOL    HW113715   0.357   3.458   4.846
 4272SOL    HW213716   0.310   3.317   4.914
 4273SOL     OW13717   4.614   5.798   5.390
 4273SOL    HW113718   4.588   5.889   5.359
 4273SOL    HW213719   4.603   5.792   5.490
 4274SOL     OW13720   1.767   0.194   2.207
 4274SOL    HW113721   1.688   0.175   2.148
 4274SOL    HW213722   1.803   0.108   2.243
 4275SOL     OW13723   6.497   1.225   4.953
 4275SOL    HW113724   6.407   1.183   4.941
 4275SOL    HW213725   6.554   1.203   4.874
 4276SOL     OW13726   2.017   4.669   3.778
 4276SOL    HW113727   2.078   4.657   3.857
 4276SOL    HW213728   2.043   4.752   3.728
 4277SOL     OW13729   6.224   4.848   4.248
 4277SOL    HW113730   6.161   4.807   4.183
 4277SOL    HW213731   6.176   4.865   4.335
 4278SOL     OW13732   0.285   0.848   4.590
 4278SOL    HW113733   0.301   0.872   4.685
 4278SOL    HW213734   0.340   0.908   4.531
 4279SOL     OW13735   3.695   0.117   4.963
 4279SOL    HW113736   3.784   0.162   4.965
 4279SOL    HW213737   3.630   0.174   4.914
 4280SOL     OW13738   5.298   0.838   5.578
 4280SOL    HW113739   5.358   0.766   5.543
 4280SOL    HW213740   5.261   0.809   5.667
 4281SOL     OW13741   1.229   5.175   4.016
 4281SOL    HW113742   1.271   5.159   4.105
 4281SOL    HW213743   1.218   5.273   4.002
 4282SOL     OW13744   3.658   3.638   6.382
 4282SOL    HW113745   3.597   3.559   6.374
 4282SOL    HW213746   3.687   3.648   6.477
 4283SOL     OW13747   2.571   0.839   3.330
 4283SOL    HW113748   2.657   0.836   3.380
 4283SOL    HW213749   2.495   0.843   3.395
 4284SOL     OW13750   4.347   5.307   1.335
 4284SOL    HW113751   4.408   5.350   1.269
 4284SOL    HW213752   4.401   5.251   1.398
 4285SOL     OW13753   0.674   0.901   6.088
 4285SOL    HW113754   0.655   0.965   6.162
 4285SOL    HW213755   0.592   0.845   6.071
 4286SOL     OW13756   4.789   5.890   6.282
 4286SOL    HW113757   4.721   5.962   6.297
 4286SOL    HW213758   4.830   5.865   6.370
 4287SOL     OW13759   5.629   1.116   6.661
 4287SOL    HW113760   5.632   1.214   6.680
 4287SOL    HW213761   5.594   1.101   6.569
 4288SOL     OW13762   1.207   5.778   3.360
 4288SOL    HW113763   1.173   5.810   3.448
 4288SOL    HW213764   1.144   5.710   3.323
 4289SOL     OW13765   6.654   3.212   0.606
 4289SOL    HW113766   6.739   3.263   0.590
 4289SOL    HW213767   6.673   3.114   0.604
 4290SOL     OW13768   2.289   0.164   2.728
 4290SOL    HW113769   2.352   0.227   2.774
 4290SOL    HW213770   2.216   0.138   2.791
 4291SOL     OW13771   3.746   3.985   1.033
 4291SOL    HW113772   3.759   4.074   1.076
 4291SOL    HW213773   3.741   3.914   1.103
 4292SOL     OW13774   6.189   4.394   6.222
 4292SOL    HW113775   6.197   4.358   6.129
 4292SOL    HW213776   6.193   4.494   6.220
 4293SOL     OW13777   0.826   3.259   0.870
 4293SOL    HW113778   0.857   3.189   0.805
 4293SOL    HW213779   0.893   3.267   0.944
 4294SOL     OW13780   2.993   2.939   0.117
 4294SOL    HW113781   2.926   2.901   0.052
 4294SOL    HW213782   2.996   3.038   0.106
 4295SOL     OW13783   4.094   5.891   4.558
 4295SOL    HW113784   4.094   5.793   4.542
 4295SOL    HW213785   4.181   5.918   4.601
 4296SOL     OW13786   4.221   0.659   0.377
 4296SOL    HW113787   4.262   0.750   0.375
 4296SOL    HW213788   4.139   0.661   0.434
 4297SOL     OW13789   5.443   0.910   6.678
 4297SOL    HW113790   5.359   0.927   6.731
 4297SOL    HW213791   5.504   0.989   6.687
 4298SOL     OW13792   3.171   5.572   0.072
 4298SOL    HW113793   3.161   5.658   0.022
 4298SOL    HW213794   3.254   5.525   0.043
 4299SOL     OW13795   1.225   3.055   0.189
 4299SOL    HW113796   1.193   3.007   0.271
 4299SOL    HW213797   1.302   3.005   0.150
 4300SOL     OW13798   3.716   0.954   0.284
 4300SOL    HW113799   3.637   0.974   0.342
 4300SOL    HW213800   3.799   0.955   0.340
 4301SOL     OW13801   3.326   1.738   0.927
 4301SOL    HW113802   3.334   1.806   0.854
 4301SOL    HW213803   3.383   1.767   1.004
 4302SOL     OW13804   1.449   6.737   5.738
 4302SOL    HW113805   1.512   6.785   5.677
 4302SOL    HW213806   1.447   6.640   5.713
 4303SOL     OW13807   6.013   4.764   4.112
 4303SOL    HW113808   5.963   4.844   4.080
 4303SOL    HW213809   6.050   4.714   4.033
 4304SOL     OW13810   3.134   4.054   3.461
 4304SOL    HW113811   3.176   4.123   3.520
 4304SOL    HW213812   3.163   4.067   3.367
 4305SOL     OW13813   6.494   0.794   4.579
 4305SOL    HW113814   6.528   0.786   4.672
 4305SOL    HW213815   6.510   0.708   4.530
 4306SOL     OW13816   6.571   3.456   6.792
 4306SOL    HW113817   6.610   3.365   6.775
 4306SOL    HW213818   6.485   3.446   6.842
 4307SOL     OW13819   4.454   3.309   6.016
 4307SOL    HW113820   4.469   3.407   6.005
 4307SOL    HW213821   4.364   3.293   6.056
 4308SOL     OW13822   5.485   5.561   6.312
 4308SOL    HW113823   5.400   5.563   6.259
 4308SOL    HW213824   5.466   5.592   6.406
 4309SOL     OW13825   1.316   1.593   0.633
 4309SOL    HW113826   1.244   1.549   0.579
 4309SOL    HW213827   1.294   1.690   0.644
 4310SOL     OW13828   1.623   2.610   3.242
 4310SOL    HW113829   1.633   2.511   3.255
 4310SOL    HW213830   1.580   2.628   3.154
 4311SOL     OW13831   1.859   5.947   3.731
 4311SOL    HW113832   1.903   5.958   3.642
 4311SOL    HW213833   1.891   5.863   3.774
 4312SOL     OW13834   1.426   4.988   0.579
 4312SOL    HW113835   1.346   4.941   0.540
 4312SOL    HW213836   1.431   4.968   0.677
 4313SOL     OW13837   4.932   1.413   1.401
 4313SOL    HW113838   4.868   1.478   1.443
 4313SOL    HW213839   4.887   1.367   1.324
 4314SOL     OW13840   5.950   1.713   4.145
 4314SOL    HW113841   5.879   1.733   4.076
 4314SOL    HW213842   6.037   1.750   4.114
 4315SOL     OW13843   2.763   6.751   2.144
 4315SOL    HW113844   2.709   6.683   2.095
 4315SOL    HW213845   2.709   6.834   2.158
 4316SOL     OW13846   4.968   6.894   1.211
 4316SOL    HW113847   5.013   6.882   1.299
 4316SOL    HW213848   4.962   6.805   1.164
 4317SOL     OW13849   4.218   1.888   5.157
 4317SOL    HW113850   4.196   1.807   5.102
 4317SOL    HW213851   4.135   1.923   5.200
 4318SOL     OW13852   0.839   3.525   3.789
 4318SOL    HW113853   0.810   3.578   3.869
 4318SOL    HW213854   0.834   3.427   3.810
 4319SOL     OW13855   2.201   2.740   0.119
 4319SOL    HW113856   2.207   2.813   0.051
 4319SOL    HW213857   2.122   2.757   0.179
 4320SOL     OW13858   6.626   5.990   2.319
 4320SOL    HW113859   6.724   5.978   2.300
 4320SOL    HW213860   6.612   6.077   2.364
 4321SOL     OW13861   6.660   6.698   4.829
 4321SOL    HW113862   6.709   6.618   4.792
 4321SOL    HW213863   6.562   6.679   4.829
 4322SOL     OW13864   6.149   1.933   6.845
 4322SOL    HW113865   6.149   1.943   6.746
 4322SOL    HW213866   6.167   1.838   6.869
 4323SOL     OW13867   5.082   4.111   1.293
 4323SOL    HW113868   5.020   4.099   1.371
 4323SOL    HW213869   5.093   4.025   1.245
 4324SOL     OW13870   5.477   3.829   6.261
 4324SOL    HW113871   5.548   3.797   6.324
 4324SOL    HW213872   5.519   3.883   6.188
 4325SOL     OW13873   2.151   0.829   1.322
 4325SOL    HW113874   2.103   0.916   1.321
 4325SOL    HW213875   2.243   0.841   1.286
 4326SOL     OW13876   5.579   3.397   5.111
 4326SOL    HW113877   5.511   3.452   5.158
 4326SOL    HW213878   5.667   3.445   5.112
 4327SOL     OW13879   5.936   5.226   2.218
 4327SOL    HW113880   5.856   5.259   2.167
 4327SOL    HW213881   5.949   5.129   2.200
 4328SOL     OW13882   4.128   3.265   5.919
 4328SOL    HW113883   4.045   3.319   5.900
 4328SOL    HW213884   4.137   3.253   6.018
 4329SOL     OW13885   4.177   1.716   5.699
 4329SOL    HW113886   4.208   1.806   5.668
 4329SOL    HW213887   4.185   1.711   5.799
 4330SOL     OW13888   2.695   0.801   5.094
 4330SOL    HW113889   2.689   0.778   4.997
 4330SOL    HW213890   2.662   0.725   5.149
 4331SOL     OW13891   5.028   2.935   0.620
 4331SOL    HW113892   4.968   3.011   0.644
 4331SOL    HW213893   4.974   2.862   0.579
 4332SOL     OW13894   5.140   4.800   2.448
 4332SOL    HW113895   5.222   4.745   2.464
 4332SOL    HW213896   5.083   4.801   2.530
 4333SOL     OW13897   4.365   0.712   5.258
 4333SOL    HW113898   4.378   0.623   5.215
 4333SOL    HW213899   4.340   0.700   5.354
 4334SOL     OW13900   1.668   1.993   2.721
 4334SOL    HW113901   1.625   2.082   2.734
 4334SOL    HW213902   1.768   2.004   2.723
 4335SOL     OW13903   3.541   3.838   2.685
 4335SOL    HW113904   3.558   3.937   2.688
 4335SOL    HW213905   3.491   3.816   2.602
 4336SOL     OW13906   1.341   6.704   6.286
 4336SOL    HW113907   1.352   6.610   6.254
 4336SOL    HW213908   1.376   6.712   6.379
 4337SOL     OW13909   0.865   4.445   0.485
 4337SOL    HW113910   0.815   4.489   0.560
 4337SOL    HW213911   0.912   4.515   0.431
 4338SOL     OW13912   4.853   5.759   4.592
 4338SOL    HW113913   4.801   5.675   4.608
 4338SOL    HW213914   4.830   5.796   4.502
 4339SOL     OW13915   6.397   3.185   5.244
 4339SOL    HW113916   6.360   3.229   5.326
 4339SOL    HW213917   6.496   3.202   5.240
 4340SOL     OW13918   6.375   4.633   1.522
 4340SOL    HW113919   6.470   4.604   1.516
 4340SOL    HW213920   6.319   4.560   1.563
 4341SOL     OW13921   0.787   5.846   2.290
 4341SOL    HW113922   0.792   5.850   2.389
 4341SOL    HW213923   0.725   5.772   2.262
 4342SOL     OW13924   6.280   3.579   4.252
 4342SOL    HW113925   6.246   3.542   4.339
 4342SOL    HW213926   6.282   3.679   4.256
 4343SOL     OW13927   2.580   6.127   6.341
 4343SOL    HW113928   2.495   6.131   6.395
 4343SOL    HW213929   2.561   6.086   6.252
 4344SOL     OW13930   1.681   5.502   3.144
 4344SOL    HW113931   1.593   5.549   3.131
 4344SOL    HW213932   1.664   5.412   3.184
 4345SOL     OW13933   2.165   2.885   5.091
 4345SOL    HW113934   2.257   2.900   5.055
 4345SOL    HW213935   2.165   2.901   5.190
 4346SOL     OW13936   1.793   3.263   2.195
 4346SOL    HW113937   1.808   3.329   2.122
 4346SOL    HW213938   1.753   3.309   2.274
 4347SOL     OW13939   5.799   0.024   2.929
 4347SOL    HW113940   5.847   6.980   2.869
 4347SOL    HW213941   5.813   7.016   3.025
 4348SOL     OW13942   6.654   4.321   3.210
 4348SOL    HW113943   6.754   4.312   3.205
 4348SOL    HW213944   6.624   4.311   3.305
 4349SOL     OW13945   6.795   2.340   2.468
 4349SOL    HW113946   6.880   2.357   2.517
 4349SOL    HW213947   6.813   2.282   2.389
 4350SOL     OW13948   5.208   1.911   3.873
 4350SOL    HW113949   5.136   1.842   3.874
 4350SOL    HW213950   5.216   1.950   3.781
 4351SOL     OW13951   1.746   6.580   1.044
 4351SOL    HW113952   1.753   6.673   1.008
 4351SOL    HW213953   1.820   6.565   1.110
 4352SOL     OW13954   0.591   2.806   2.614
 4352SOL    HW113955   0.669   2.818   2.552
 4352SOL    HW213956   0.568   2.708   2.619
 4353SOL     OW13957   3.302   3.670   6.934
 4353SOL    HW113958   3.401   3.668   6.926
 4353SOL    HW213959   3.275   3.658   0.010
 4354SOL     OW13960   2.451   6.864   6.081
 4354SOL    HW113961   2.441   6.954   6.039
 4354SOL    HW213962   2.454   6.794   6.010
 4355SOL     OW13963   3.443   0.434   2.450
 4355SOL    HW113964   3.377   0.484   2.395
 4355SOL    HW213965   3.534   0.474   2.439
 4356SOL     OW13966   5.066   4.273   1.080
 4356SOL    HW113967   5.031   4.201   1.020
 4356SOL    HW213968   5.088   4.232   1.169
 4357SOL     OW13969   5.834   0.120   0.254
 4357SOL    HW113970   5.906   0.092   0.191
 4357SOL    HW213971   5.745   0.108   0.210
 4358SOL     OW13972   0.154   6.417   0.169
 4358SOL    HW113973   0.251   6.441   0.181
 4358SOL    HW213974   0.099   6.500   0.167
 4359SOL     OW13975   2.251   2.097   6.160
 4359SOL    HW113976   2.196   2.024   6.119
 4359SOL    HW213977   2.302   2.145   6.089
 4360SOL     OW13978   1.275   2.407   4.171
 4360SOL    HW113979   1.282   2.507   4.179
 4360SOL    HW213980   1.201   2.384   4.108
 4361SOL     OW13981   2.693   3.334   1.399
 4361SOL    HW113982   2.717   3.398   1.326
 4361SOL    HW213983   2.777   3.294   1.437
 4362SOL     OW13984   6.156   4.947   2.891
 4362SOL    HW113985   6.157   4.987   2.983
 4362SOL    HW213986   6.244   4.961   2.847
 4363SOL     OW13987   5.028   2.907   0.051
 4363SOL    HW113988   4.995   2.843   7.001
 4363SOL    HW213989   4.951   2.951   0.096
 4364SOL     OW13990   3.337   3.509   5.492
 4364SOL    HW113991   3.278   3.517   5.412
 4364SOL    HW213992   3.433   3.507   5.462
 4365SOL     OW13993   2.118   2.556   2.023
 4365SOL    HW113994   2.151   2.477   1.972
 4365SOL    HW213995   2.072   2.525   2.106
 4366SOL     OW13996   5.690   6.097   0.297
 4366SOL    HW113997   5.655   6.166   0.360
 4366SOL    HW213998   5.774   6.129   0.255
 4367SOL     OW13999   1.972   4.558   4.721
 4367SOL    HW114000   1.876   4.553   4.692
 4367SOL    HW214001   1.977   4.597   4.812
 4368SOL     OW14002   4.233   4.605   0.846
 4368SOL    HW114003   4.273   4.516   0.828
 4368SOL    HW214004   4.138   4.607   0.813
 4369SOL     OW14005   3.784   5.656   3.940
 4369SOL    HW114006   3.734   5.581   3.897
 4369SOL    HW214007   3.843   5.700   3.871
 4370SOL     OW14008   4.975   5.180   2.962
 4370SOL    HW114009   5.049   5.244   2.941
 4370SOL    HW214010   5.007   5.086   2.948
 4371SOL     OW14011   0.432   1.002   1.456
 4371SOL    HW114012   0.517   0.960   1.425
 4371SOL    HW214013   0.362   0.994   1.385
 4372SOL     OW14014   3.976   1.261   2.884
 4372SOL    HW114015   4.007   1.166   2.895
 4372SOL    HW214016   3.998   1.313   2.966
 4373SOL     OW14017   0.283   2.203   6.886
 4373SOL    HW114018   0.205   2.248   6.929
 4373SOL    HW214019   0.364   2.261   6.893
 4374SOL     OW14020   1.252   1.965   2.152
 4374SOL    HW114021   1.171   1.907   2.147
 4374SOL    HW214022   1.330   1.910   2.182
 4375SOL     OW14023   3.891   0.632   3.356
 4375SOL    HW114024   3.960   0.588   3.298
 4375SOL    HW214025   3.872   0.572   3.434
 4376SOL     OW14026   6.509   7.006   2.659
 4376SOL    HW114027   6.578   7.006   2.587
 4376SOL    HW214028   6.551   0.017   2.745
 4377SOL     OW14029   5.435   4.259   0.527
 4377SOL    HW114030   5.398   4.340   0.481
 4377SOL    HW214031   5.480   4.287   0.612
 4378SOL     OW14032   2.169   1.290   2.824
 4378SOL    HW114033   2.083   1.277   2.776
 4378SOL    HW214034   2.177   1.223   2.899
 4379SOL     OW14035   2.120   0.979   2.607
 4379SOL    HW114036   2.150   1.072   2.586
 4379SOL    HW214037   2.022   0.979   2.627
 4380SOL     OW14038   1.661   6.708   2.794
 4380SOL    HW114039   1.645   6.771   2.718
 4380SOL    HW214040   1.759   6.688   2.801
 4381SOL     OW14041   0.635   6.256   5.353
 4381SOL    HW114042   0.602   6.197   5.427
 4381SOL    HW214043   0.557   6.293   5.303
 4382SOL     OW14044   1.020   3.506   5.224
 4382SOL    HW114045   0.939   3.565   5.228
 4382SOL    HW214046   0.995   3.418   5.182
 4383SOL     OW14047   0.694   3.160   0.044
 4383SOL    HW114048   0.703   3.181   6.966
 4383SOL    HW214049   0.600   3.131   0.064
 4384SOL     OW14050   6.069   0.393   4.726
 4384SOL    HW114051   6.146   0.451   4.752
 4384SOL    HW214052   6.080   0.302   4.766
 4385SOL     OW14053   4.791   2.578   4.851
 4385SOL    HW114054   4.852   2.499   4.852
 4385SOL    HW214055   4.732   2.574   4.771
 4386SOL     OW14056   1.891   3.365   5.939
 4386SOL    HW114057   1.818   3.414   5.891
 4386SOL    HW214058   1.979   3.407   5.918
 4387SOL     OW14059   6.465   2.786   1.395
 4387SOL    HW114060   6.555   2.790   1.439
 4387SOL    HW214061   6.449   2.872   1.346
 4388SOL     OW14062   4.220   2.187   5.822
 4388SOL    HW114063   4.122   2.204   5.821
 4388SOL    HW214064   4.245   2.124   5.749
 4389SOL     OW14065   6.432   3.348   1.199
 4389SOL    HW114066   6.383   3.316   1.280
 4389SOL    HW214067   6.525   3.310   1.198
 4390SOL     OW14068   3.586   6.684   1.667
 4390SOL    HW114069   3.640   6.721   1.742
 4390SOL    HW214070   3.527   6.611   1.700
 4391SOL     OW14071   2.244   5.584   0.124
 4391SOL    HW114072   2.258   5.558   0.028
 4391SOL    HW214073   2.150   5.616   0.136
 4392SOL     OW14074   0.909   2.507   5.083
 4392SOL    HW114075   0.976   2.488   5.155
 4392SOL    HW214076   0.871   2.421   5.050
 4393SOL     OW14077   6.499   0.842   1.612
 4393SOL    HW114078   6.519   0.762   1.668
 4393SOL    HW214079   6.427   0.896   1.656
 4394SOL     OW14080   6.586   5.455   2.404
 4394SOL    HW114081   6.624   5.488   2.490
 4394SOL    HW214082   6.612   5.516   2.329
 4395SOL     OW14083   1.801   0.595   1.808
 4395SOL    HW114084   1.856   0.582   1.890
 4395SOL    HW214085   1.860   0.611   1.730
 4396SOL     OW14086   1.850   1.402   3.855
 4396SOL    HW114087   1.762   1.429   3.816
 4396SOL    HW214088   1.839   1.388   3.954
 4397SOL     OW14089   1.795   2.399   4.037
 4397SOL    HW114090   1.705   2.360   4.056
 4397SOL    HW214091   1.833   2.355   3.955
 4398SOL     OW14092   1.492   3.501   5.849
 4398SOL    HW114093   1.476   3.561   5.771
 4398SOL    HW214094   1.422   3.429   5.851
 4399SOL     OW14095   3.736   6.017   2.472
 4399SOL    HW114096   3.716   6.115   2.461
 4399SOL    HW214097   3.784   5.984   2.391
 4400SOL     OW14098   2.458   6.844   4.658
 4400SOL    HW114099   2.521   6.909   4.700
 4400SOL    HW214100   2.405   6.797   4.729
 4401SOL     OW14101   3.086   6.934   5.518
 4401SOL    HW114102   2.995   6.945   5.559
 4401SOL    HW214103   3.154   6.979   5.577
 4402SOL     OW14104   1.566   0.213   2.828
 4402SOL    HW114105   1.533   0.278   2.760
 4402SOL    HW214106   1.665   0.224   2.839
 4403SOL     OW14107   0.991   6.989   0.060
 4403SOL    HW114108   0.988   0.051   0.001
 4403SOL    HW214109   0.938   6.916   0.018
 4404SOL     OW14110   1.323   6.109   5.715
 4404SOL    HW114111   1.347   6.167   5.638
 4404SOL    HW214112   1.406   6.081   5.763
 4405SOL     OW14113   2.012   4.658   1.531
 4405SOL    HW114114   1.920   4.696   1.527
 4405SOL    HW214115   2.038   4.621   1.441
 4406SOL     OW14116   0.718   2.734   0.614
 4406SOL    HW114117   0.655   2.784   0.555
 4406SOL    HW214118   0.732   2.785   0.699
 4407SOL     OW14119   6.841   5.601   1.278
 4407SOL    HW114120   6.841   5.503   1.300
 4407SOL    HW214121   6.934   5.636   1.287
 4408SOL     OW14122   2.377   0.168   0.368
 4408SOL    HW114123   2.393   0.184   0.271
 4408SOL    HW214124   2.324   0.085   0.380
 4409SOL     OW14125   4.481   1.602   1.839
 4409SOL    HW114126   4.531   1.681   1.803
 4409SOL    HW214127   4.408   1.633   1.900
 4410SOL     OW14128   0.739   4.706   0.078
 4410SOL    HW114129   0.674   4.716   0.002
 4410SOL    HW214130   0.779   4.795   0.099
 4411SOL     OW14131   3.845   4.162   4.844
 4411SOL    HW114132   3.787   4.237   4.875
 4411SOL    HW214133   3.801   4.115   4.768
 4412SOL     OW14134   5.047   6.127   4.435
 4412SOL    HW114135   4.984   6.122   4.512
 4412SOL    HW214136   5.133   6.082   4.460
 4413SOL     OW14137   5.871   5.167   3.899
 4413SOL    HW114138   5.859   5.072   3.928
 4413SOL    HW214139   5.871   5.227   3.979
 4414SOL     OW14140   3.284   5.937   1.254
 4414SOL    HW114141   3.281   5.865   1.184
 4414SOL    HW214142   3.361   5.998   1.235
 4415SOL     OW14143   4.643   3.096   7.018
 4415SOL    HW114144   4.548   3.077   6.994
 4415SOL    HW214145   4.653   3.193   0.020
 4416SOL     OW14146   4.241   1.912   4.122
 4416SOL    HW114147   4.218   1.827   4.169
 4416SOL    HW214148   4.321   1.954   4.166
 4417SOL     OW14149   5.778   3.827   3.993
 4417SOL    HW114150   5.717   3.782   4.058
 4417SOL    HW214151   5.835   3.759   3.948
 4418SOL     OW14152   6.289   1.617   2.685
 4418SOL    HW114153   6.196   1.654   2.676
 4418SOL    HW214154   6.291   1.551   2.760
 4419SOL     OW14155   6.363   0.350   5.535
 4419SOL    HW114156   6.430   0.278   5.553
 4419SOL    HW214157   6.273   0.309   5.522
 4420SOL     OW14158   3.996   1.576   1.939
 4420SOL    HW114159   4.026   1.671   1.951
 4420SOL    HW214160   3.917   1.558   1.997
 4421SOL     OW14161   2.021   1.841   5.018
 4421SOL    HW114162   2.090   1.913   5.013
 4421SOL    HW214163   2.062   1.753   4.991
 4422SOL     OW14164   1.002   4.652   6.719
 4422SOL    HW114165   0.955   4.718   6.661
 4422SOL    HW214166   1.037   4.698   6.801
 4423SOL     OW14167   0.162   3.771   5.620
 4423SOL    HW114168   0.217   3.842   5.663
 4423SOL    HW214169   0.114   3.809   5.540
 4424SOL     OW14170   5.559   0.254   4.376
 4424SOL    HW114171   5.502   0.329   4.407
 4424SOL    HW214172   5.501   0.177   4.348
 4425SOL     OW14173   3.332   4.958   0.413
 4425SOL    HW114174   3.313   4.881   0.473
 4425SOL    HW214175   3.258   4.968   0.346
 4426SOL     OW14176   0.605   1.207   3.956
 4426SOL    HW114177   0.626   1.256   3.871
 4426SOL    HW214178   0.593   1.110   3.936
 4427SOL     OW14179   5.653   0.030   2.593
 4427SOL    HW114180   5.724   7.004   2.647
 4427SOL    HW214181   5.609   0.100   2.648
 4428SOL     OW14182   4.085   0.755   3.930
 4428SOL    HW114183   4.178   0.792   3.920
 4428SOL    HW214184   4.089   0.655   3.926
 4429SOL     OW14185   3.228   6.976   2.520
 4429SOL    HW114186   3.255   0.047   2.554
 4429SOL    HW214187   3.157   6.985   2.451
 4430SOL     OW14188   5.433   4.940   5.148
 4430SOL    HW114189   5.387   4.991   5.075
 4430SOL    HW214190   5.381   4.857   5.168
 4431SOL     OW14191   3.036   0.758   2.847
 4431SOL    HW114192   3.047   0.809   2.931
 4431SOL    HW214193   3.125   0.727   2.814
 4432SOL     OW14194   2.610   3.451   6.171
 4432SOL    HW114195   2.692   3.490   6.129
 4432SOL    HW214196   2.575   3.378   6.113
 4433SOL     OW14197   6.413   2.529   4.471
 4433SOL    HW114198   6.506   2.495   4.484
 4433SOL    HW214199   6.413   2.602   4.402
 4434SOL     OW14200   5.733   1.562   3.013
 4434SOL    HW114201   5.784   1.559   3.100
 4434SOL    HW214202   5.797   1.567   2.937
 4435SOL     OW14203   4.060   3.511   0.996
 4435SOL    HW114204   3.964   3.489   0.975
 4435SOL    HW214205   4.117   3.431   0.978
 4436SOL     OW14206   4.657   1.085   1.575
 4436SOL    HW114207   4.710   1.128   1.649
 4436SOL    HW214208   4.710   1.010   1.536
 4437SOL     OW14209   1.226   2.982   2.656
 4437SOL    HW114210   1.285   3.063   2.650
 4437SOL    HW214211   1.208   2.947   2.565
 4438SOL     OW14212   4.674   6.771   6.362
 4438SOL    HW114213   4.605   6.811   6.301
 4438SOL    HW214214   4.728   6.844   6.404
 4439SOL     OW14215   6.956   4.599   1.614
 4439SOL    HW114216   6.865   4.602   1.655
 4439SOL    HW214217   7.010   4.527   1.656
 4440SOL     OW14218   3.324   4.778   0.640
 4440SOL    HW114219   3.316   4.806   0.736
 4440SOL    HW214220   3.326   4.678   0.634
 4441SOL     OW14221   0.042   1.714   1.548
 4441SOL    HW114222   6.983   1.755   1.502
 4441SOL    HW214223   0.022   1.704   1.646
 4442SOL     OW14224   1.536   4.969   4.852
 4442SOL    HW114225   1.470   4.953   4.779
 4442SOL    HW214226   1.621   4.921   4.832
 4443SOL     OW14227   1.739   3.506   5.763
 4443SOL    HW114228   1.753   3.501   5.664
 4443SOL    HW214229   1.643   3.491   5.785
 4444SOL     OW14230   4.060   4.057   6.788
 4444SOL    HW114231   4.052   3.988   6.860
 4444SOL    HW214232   3.984   4.122   6.794
 4445SOL     OW14233   1.432   6.236   0.400
 4445SOL    HW114234   1.352   6.294   0.417
 4445SOL    HW214235   1.414   6.144   0.435
 4446SOL     OW14236   5.219   2.141   0.712
 4446SOL    HW114237   5.154   2.217   0.726
 4446SOL    HW214238   5.312   2.176   0.718
 4447SOL     OW14239   6.366   4.138   4.980
 4447SOL    HW114240   6.369   4.235   4.957
 4447SOL    HW214241   6.458   4.106   5.003
 4448SOL     OW14242   2.286   5.546   1.133
 4448SOL    HW114243   2.358   5.486   1.168
 4448SOL    HW214244   2.248   5.599   1.209
 4449SOL     OW14245   5.269   1.128   6.187
 4449SOL    HW114246   5.316   1.162   6.106
 4449SOL    HW214247   5.233   1.037   6.169
 4450SOL     OW14248   3.133   1.767   6.441
 4450SOL    HW114249   3.219   1.717   6.428
 4450SOL    HW214250   3.070   1.711   6.494
 4451SOL     OW14251   4.908   5.080   4.396
 4451SOL    HW114252   4.816   5.119   4.402
 4451SOL    HW214253   4.944   5.065   4.488
 4452SOL     OW14254   5.653   5.576   4.136
 4452SOL    HW114255   5.740   5.626   4.145
 4452SOL    HW214256   5.629   5.569   4.040
 4453SOL     OW14257   1.350   2.810   1.853
 4453SOL    HW114258   1.412   2.732   1.851
 4453SOL    HW214259   1.303   2.818   1.765
 4454SOL     OW14260   1.394   1.780   6.999
 4454SOL    HW114261   1.315   1.752   6.943
 4454SOL    HW214262   1.385   1.742   0.071
 4455SOL     OW14263   5.722   5.565   5.616
 4455SOL    HW114264   5.815   5.575   5.651
 4455SOL    HW214265   5.670   5.649   5.633
 4456SOL     OW14266   2.685   6.313   2.930
 4456SOL    HW114267   2.658   6.319   2.834
 4456SOL    HW214268   2.775   6.355   2.942
 4457SOL     OW14269   3.466   1.592   3.345
 4457SOL    HW114270   3.465   1.575   3.246
 4457SOL    HW214271   3.387   1.548   3.387
 4458SOL     OW14272   2.389   3.186   1.091
 4458SOL    HW114273   2.481   3.178   1.053
 4458SOL    HW214274   2.381   3.127   1.172
 4459SOL     OW14275   4.137   2.164   4.415
 4459SOL    HW114276   4.051   2.122   4.387
 4459SOL    HW214277   4.199   2.170   4.337
 4460SOL     OW14278   1.005   2.958   0.312
 4460SOL    HW114279   1.016   2.998   0.403
 4460SOL    HW214280   0.908   2.961   0.286
 4461SOL     OW14281   1.615   0.856   1.313
 4461SOL    HW114282   1.544   0.883   1.248
 4461SOL    HW214283   1.694   0.821   1.262
 4462SOL     OW14284   5.689   4.936   2.208
 4462SOL    HW114285   5.601   4.931   2.257
 4462SOL    HW214286   5.673   4.971   2.116
 4463SOL     OW14287   4.512   1.292   0.794
 4463SOL    HW114288   4.483   1.376   0.841
 4463SOL    HW214289   4.488   1.213   0.850
 4464SOL     OW14290   0.457   5.863   0.536
 4464SOL    HW114291   0.535   5.883   0.596
 4464SOL    HW214292   0.398   5.796   0.580
 4465SOL     OW14293   3.467   5.530   0.714
 4465SOL    HW114294   3.459   5.434   0.690
 4465SOL    HW214295   3.377   5.573   0.715
 4466SOL     OW14296   1.203   1.876   3.017
 4466SOL    HW114297   1.137   1.855   2.945
 4466SOL    HW214298   1.159   1.868   3.106
 4467SOL     OW14299   2.426   5.083   3.247
 4467SOL    HW114300   2.519   5.065   3.215
 4467SOL    HW214301   2.364   5.013   3.212
 4468SOL     OW14302   2.041   4.295   0.728
 4468SOL    HW114303   2.069   4.320   0.635
 4468SOL    HW214304   1.979   4.365   0.764
 4469SOL     OW14305   3.241   0.838   1.101
 4469SOL    HW114306   3.255   0.739   1.114
 4469SOL    HW214307   3.330   0.884   1.097
 4470SOL     OW14308   0.859   1.608   2.531
 4470SOL    HW114309   0.809   1.523   2.517
 4470SOL    HW214310   0.880   1.620   2.628
 4471SOL     OW14311   1.031   2.956   6.844
 4471SOL    HW114312   1.033   3.029   6.912
 4471SOL    HW214313   1.033   2.996   6.752
 4472SOL     OW14314   0.224   2.534   1.475
 4472SOL    HW114315   0.139   2.482   1.484
 4472SOL    HW214316   0.231   2.600   1.549
 4473SOL     OW14317   5.815   2.854   4.417
 4473SOL    HW114318   5.733   2.872   4.471
 4473SOL    HW214319   5.789   2.841   4.321
 4474SOL     OW14320   3.363   6.525   1.722
 4474SOL    HW114321   3.374   6.430   1.752
 4474SOL    HW214322   3.275   6.560   1.756
 4475SOL     OW14323   1.307   3.735   1.883
 4475SOL    HW114324   1.398   3.720   1.844
 4475SOL    HW214325   1.312   3.804   1.955
 4476SOL     OW14326   6.467   0.897   3.778
 4476SOL    HW114327   6.439   0.942   3.863
 4476SOL    HW214328   6.502   0.805   3.798
 4477SOL     OW14329   1.960   0.463   4.933
 4477SOL    HW114330   1.969   0.365   4.914
 4477SOL    HW214331   1.924   0.475   5.026
 4478SOL     OW14332   2.675   6.586   2.391
 4478SOL    HW114333   2.757   6.529   2.381
 4478SOL    HW214334   2.677   6.630   2.481
 4479SOL     OW14335   0.295   1.990   1.609
 4479SOL    HW114336   0.297   2.089   1.620
 4479SOL    HW214337   0.209   1.954   1.646
 4480SOL     OW14338   0.109   4.043   4.848
 4480SOL    HW114339   0.049   4.092   4.913
 4480SOL    HW214340   0.066   3.956   4.823
 4481SOL     OW14341   2.362   5.089   5.213
 4481SOL    HW114342   2.388   5.076   5.117
 4481SOL    HW214343   2.326   5.182   5.225
 4482SOL     OW14344   2.246   2.987   5.330
 4482SOL    HW114345   2.341   2.991   5.299
 4482SOL    HW214346   2.199   3.071   5.304
 4483SOL     OW14347   6.901   2.637   2.162
 4483SOL    HW114348   6.882   2.704   2.091
 4483SOL    HW214349   6.830   2.566   2.159
 4484SOL     OW14350   3.144   2.466   6.594
 4484SOL    HW114351   3.172   2.498   6.503
 4484SOL    HW214352   3.085   2.386   6.584
 4485SOL     OW14353   5.813   2.416   4.905
 4485SOL    HW114354   5.743   2.351   4.935
 4485SOL    HW214355   5.776   2.509   4.910
 4486SOL     OW14356   6.342   4.979   4.595
 4486SOL    HW114357   6.428   4.978   4.543
 4486SOL    HW214358   6.274   5.034   4.547
 4487SOL     OW14359   2.866   2.726   6.969
 4487SOL    HW114360   2.795   2.657   6.982
 4487SOL    HW214361   2.891   2.730   6.872
 4488SOL     OW14362   1.060   3.220   4.863
 4488SOL    HW114363   1.120   3.142   4.877
 4488SOL    HW214364   1.112   3.297   4.827
 4489SOL     OW14365   4.533   5.301   5.084
 4489SOL    HW114366   4.499   5.395   5.092
 4489SOL    HW214367   4.618   5.292   5.136
 4490SOL     OW14368   5.449   1.972   1.336
 4490SOL    HW114369   5.363   1.984   1.288
 4490SOL    HW214370   5.431   1.956   1.433
 4491SOL     OW14371   0.186   3.546   3.670
 4491SOL    HW114372   0.243   3.618   3.709
 4491SOL    HW214373   0.092   3.558   3.702
 4492SOL     OW14374   5.887   3.344   1.580
 4492SOL    HW114375   5.884   3.251   1.545
 4492SOL    HW214376   5.982   3.375   1.583
 4493SOL     OW14377   4.883   6.367   4.873
 4493SOL    HW114378   4.824   6.440   4.909
 4493SOL    HW214379   4.841   6.278   4.892
 4494SOL     OW14380   0.423   0.751   6.004
 4494SOL    HW114381   0.339   0.696   6.012
 4494SOL    HW214382   0.403   0.834   5.953
 4495SOL     OW14383   4.682   0.224   3.987
 4495SOL    HW114384   4.698   0.224   4.085
 4495SOL    HW214385   4.764   0.191   3.940
 4496SOL     OW14386   5.358   6.258   0.688
 4496SOL    HW114387   5.324   6.188   0.751
 4496SOL    HW214388   5.422   6.318   0.736
 4497SOL     OW14389   4.529   2.068   6.426
 4497SOL    HW114390   4.502   2.123   6.505
 4497SOL    HW214391   4.459   2.075   6.355
 4498SOL     OW14392   6.793   4.612   6.504
 4498SOL    HW114393   6.862   4.541   6.517
 4498SOL    HW214394   6.805   4.683   6.573
 4499SOL     OW14395   6.284   3.203   3.334
 4499SOL    HW114396   6.260   3.119   3.383
 4499SOL    HW214397   6.297   3.181   3.237
 4500SOL     OW14398   3.552   4.240   6.355
 4500SOL    HW114399   3.632   4.299   6.348
 4500SOL    HW214400   3.581   4.144   6.348
 4501SOL     OW14401   6.684   3.427   3.072
 4501SOL    HW114402   6.780   3.407   3.090
 4501SOL    HW214403   6.659   3.394   2.980
 4502SOL     OW14404   1.199   3.726   0.190
 4502SOL    HW114405   1.155   3.727   0.280
 4502SOL    HW214406   1.209   3.632   0.159
 4503SOL     OW14407   3.906   6.765   2.233
 4503SOL    HW114408   3.920   6.669   2.208
 4503SOL    HW214409   3.954   6.823   2.168
 4504SOL     OW14410   0.146   1.641   4.254
 4504SOL    HW114411   0.067   1.674   4.203
 4504SOL    HW214412   0.129   1.648   4.352
 4505SOL     OW14413   6.255   4.696   1.895
 4505SOL    HW114414   6.343   4.707   1.940
 4505SOL    HW214415   6.235   4.599   1.883
 4506SOL     OW14416   4.843   2.824   3.650
 4506SOL    HW114417   4.933   2.823   3.694
 4506SOL    HW214418   4.855   2.831   3.551
 4507SOL     OW14419   6.779   3.325   3.815
 4507SOL    HW114420   6.725   3.406   3.836
 4507SOL    HW214421   6.789   3.316   3.716
 4508SOL     OW14422   1.389   5.083   6.762
 4508SOL    HW114423   1.359   5.178   6.754
 4508SOL    HW214424   1.488   5.081   6.774
 4509SOL     OW14425   4.901   1.938   3.311
 4509SOL    HW114426   4.884   1.948   3.410
 4509SOL    HW214427   4.816   1.909   3.266
 4510SOL     OW14428   4.131   1.442   4.304
 4510SOL    HW114429   4.127   1.388   4.388
 4510SOL    HW214430   4.150   1.382   4.226
 4511SOL     OW14431   6.046   3.538   6.864
 4511SOL    HW114432   6.141   3.525   6.837
 4511SOL    HW214433   6.023   3.635   6.859
 4512SOL     OW14434   3.405   1.027   5.795
 4512SOL    HW114435   3.431   1.046   5.700
 4512SOL    HW214436   3.485   1.035   5.854
 4513SOL     OW14437   0.931   5.548   6.893
 4513SOL    HW114438   0.940   5.476   6.825
 4513SOL    HW214439   0.875   5.516   6.969
 4514SOL     OW14440   3.488   2.463   6.323
 4514SOL    HW114441   3.390   2.442   6.322
 4514SOL    HW214442   3.501   2.558   6.351
 4515SOL     OW14443   6.078   1.902   5.536
 4515SOL    HW114444   6.170   1.939   5.551
 4515SOL    HW214445   6.027   1.964   5.475
 4516SOL     OW14446   2.454   0.123   6.920
 4516SOL    HW114447   2.425   0.179   6.842
 4516SOL    HW214448   2.476   0.183   6.997
 4517SOL     OW14449   4.687   6.711   6.735
 4517SOL    HW114450   4.611   6.751   6.786
 4517SOL    HW214451   4.741   6.784   6.693
 4518SOL     OW14452   0.395   6.458   1.838
 4518SOL    HW114453   0.345   6.385   1.792
 4518SOL    HW214454   0.486   6.467   1.797
 4519SOL     OW14455   5.427   6.691   0.616
 4519SOL    HW114456   5.359   6.716   0.685
 4519SOL    HW214457   5.518   6.688   0.658
 4520SOL     OW14458   4.122   5.814   6.301
 4520SOL    HW114459   4.110   5.754   6.380
 4520SOL    HW214460   4.048   5.798   6.235
 4521SOL     OW14461   5.355   1.963   5.150
 4521SOL    HW114462   5.381   2.050   5.191
 4521SOL    HW214463   5.364   1.890   5.218
 4522SOL     OW14464   5.864   4.466   3.381
 4522SOL    HW114465   5.944   4.520   3.405
 4522SOL    HW214466   5.857   4.460   3.281
 4523SOL     OW14467   1.318   4.144   0.042
 4523SOL    HW114468   1.242   4.097   0.089
 4523SOL    HW214469   1.282   4.193   6.983
 4524SOL     OW14470   6.360   3.593   2.650
 4524SOL    HW114471   6.293   3.654   2.606
 4524SOL    HW214472   6.355   3.605   2.749
 4525SOL     OW14473   3.978   2.040   5.558
 4525SOL    HW114474   3.905   2.080   5.613
 4525SOL    HW214475   3.981   1.941   5.571
 4526SOL     OW14476   6.337   0.338   0.032
 4526SOL    HW114477   6.260   0.346   0.094
 4526SOL    HW214478   6.396   0.263   0.062
 4527SOL     OW14479   6.478   6.696   2.559
 4527SOL    HW114480   6.528   6.781   2.576
 4527SOL    HW214481   6.543   6.622   2.540
 4528SOL     OW14482   4.289   0.978   6.642
 4528SOL    HW114483   4.256   0.992   6.735
 4528SOL    HW214484   4.300   0.880   6.625
 4529SOL     OW14485   2.377   1.175   5.365
 4529SOL    HW114486   2.448   1.104   5.360
 4529SOL    HW214487   2.376   1.215   5.456
 4530SOL     OW14488   2.433   5.686   3.130
 4530SOL    HW114489   2.526   5.723   3.137
 4530SOL    HW214490   2.437   5.587   3.143
 4531SOL     OW14491   0.746   3.138   6.172
 4531SOL    HW114492   0.697   3.122   6.086
 4531SOL    HW214493   0.841   3.107   6.163
 4532SOL     OW14494   6.126   1.029   2.674
 4532SOL    HW114495   6.068   1.095   2.625
 4532SOL    HW214496   6.156   0.958   2.610
 4533SOL     OW14497   2.366   0.691   2.807
 4533SOL    HW114498   2.431   0.631   2.759
 4533SOL    HW214499   2.283   0.640   2.828
 4534SOL     OW14500   5.059   2.880   5.445
 4534SOL    HW114501   5.082   2.899   5.540
 4534SOL    HW214502   4.960   2.878   5.433
 4535SOL     OW14503   3.873   1.381   1.742
 4535SOL    HW114504   3.934   1.447   1.785
 4535SOL    HW214505   3.858   1.304   1.804
 4536SOL     OW14506   3.550   1.602   4.768
 4536SOL    HW114507   3.502   1.546   4.701
 4536SOL    HW214508   3.498   1.687   4.783
 4537SOL     OW14509   4.303   3.366   1.474
 4537SOL    HW114510   4.315   3.270   1.448
 4537SOL    HW214511   4.249   3.372   1.557
 4538SOL     OW14512   2.491   0.727   2.278
 4538SOL    HW114513   2.396   0.706   2.253
 4538SOL    HW214514   2.541   0.641   2.292
 4539SOL     OW14515   3.108   5.406   5.349
 4539SOL    HW114516   3.184   5.367   5.297
 4539SOL    HW214517   3.099   5.503   5.330
 4540SOL     OW14518   2.244   1.028   0.513
 4540SOL    HW114519   2.172   1.081   0.469
 4540SOL    HW214520   2.223   1.018   0.610
 4541SOL     OW14521   5.303   1.501   6.924
 4541SOL    HW114522   5.226   1.533   6.979
 4541SOL    HW214523   5.341   1.578   6.872
 4542SOL     OW14524   0.129   2.627   1.986
 4542SOL    HW114525   0.070   2.596   2.061
 4542SOL    HW214526   0.225   2.618   2.014
 4543SOL     OW14527   4.771   2.178   1.220
 4543SOL    HW114528   4.741   2.213   1.131
 4543SOL    HW214529   4.701   2.119   1.258
 4544SOL     OW14530   3.803   5.056   0.272
 4544SOL    HW114531   3.791   5.095   0.363
 4544SOL    HW214532   3.817   5.130   0.206
 4545SOL     OW14533   6.934   3.510   5.089
 4545SOL    HW114534   6.864   3.579   5.109
 4545SOL    HW214535   0.005   3.545   5.117
 4546SOL     OW14536   3.012   6.311   4.084
 4546SOL    HW114537   3.052   6.229   4.044
 4546SOL    HW214538   3.021   6.387   4.020
 4547SOL     OW14539   6.446   1.473   0.377
 4547SOL    HW114540   6.457   1.572   0.380
 4547SOL    HW214541   6.412   1.441   0.465
 4548SOL     OW14542   2.764   2.307   3.801
 4548SOL    HW114543   2.709   2.263   3.871
 4548SOL    HW214544   2.705   2.356   3.737
 4549SOL     OW14545   5.469   3.520   2.415
 4549SOL    HW114546   5.374   3.515   2.383
 4549SOL    HW214547   5.500   3.615   2.415
 4550SOL     OW14548   1.194   4.312   2.736
 4550SOL    HW114549   1.251   4.266   2.668
 4550SOL    HW214550   1.181   4.408   2.711
 4551SOL     OW14551   0.937   3.936   4.933
 4551SOL    HW114552   0.945   3.840   4.905
 4551SOL    HW214553   0.856   3.947   4.990
 4552SOL     OW14554   5.307   2.263   1.074
 4552SOL    HW114555   5.270   2.355   1.059
 4552SOL    HW214556   5.371   2.264   1.150
 4553SOL     OW14557   5.027   4.032   6.562
 4553SOL    HW114558   4.934   4.005   6.535
 4553SOL    HW214559   5.038   4.017   6.660
 4554SOL     OW14560   6.398   0.030   1.449
 4554SOL    HW114561   6.357   0.013   1.360
 4554SOL    HW214562   6.360   6.986   1.517
 4555SOL     OW14563   1.379   1.080   5.562
 4555SOL    HW114564   1.476   1.062   5.542
 4555SOL    HW214565   1.329   0.993   5.561
 4556SOL     OW14566   6.225   3.454   4.489
 4556SOL    HW114567   6.308   3.402   4.468
 4556SOL    HW214568   6.163   3.397   4.543
 4557SOL     OW14569   4.994   5.122   4.129
 4557SOL    HW114570   4.958   5.107   4.221
 4557SOL    HW214571   5.027   5.035   4.091
 4558SOL     OW14572   6.812   3.840   4.663
 4558SOL    HW114573   6.742   3.815   4.596
 4558SOL    HW214574   6.903   3.820   4.627
 4559SOL     OW14575   6.935   3.270   2.556
 4559SOL    HW114576   6.864   3.330   2.517
 4559SOL    HW214577   6.970   3.210   2.484
 4560SOL     OW14578   5.745   3.952   1.790
 4560SOL    HW114579   5.747   3.965   1.691
 4560SOL    HW214580   5.750   3.855   1.811
 4561SOL     OW14581   3.487   2.098   3.305
 4561SOL    HW114582   3.516   2.117   3.211
 4561SOL    HW214583   3.558   2.129   3.369
 4562SOL     OW14584   0.970   0.169   0.433
 4562SOL    HW114585   0.926   0.091   0.478
 4562SOL    HW214586   0.993   0.238   0.501
 4563SOL     OW14587   0.151   3.508   0.893
 4563SOL    HW114588   0.225   3.576   0.896
 4563SOL    HW214589   0.134   3.474   0.985
 4564SOL     OW14590   6.623   6.080   1.752
 4564SOL    HW114591   6.673   6.140   1.814
 4564SOL    HW214592   6.677   6.066   1.669
 4565SOL     OW14593   1.641   1.113   3.900
 4565SOL    HW114594   1.557   1.161   3.924
 4565SOL    HW214595   1.709   1.127   3.971
 4566SOL     OW14596   6.807   3.876   1.537
 4566SOL    HW114597   6.786   3.943   1.466
 4566SOL    HW214598   6.903   3.851   1.532
 4567SOL     OW14599   0.058   1.574   6.379
 4567SOL    HW114600   0.068   1.554   6.476
 4567SOL    HW214601   7.010   1.646   6.366
 4568SOL     OW14602   1.887   3.536   5.501
 4568SOL    HW114603   1.943   3.606   5.544
 4568SOL    HW214604   1.851   3.570   5.413
 4569SOL     OW14605   2.914   0.602   3.372
 4569SOL    HW114606   2.878   0.644   3.289
 4569SOL    HW214607   2.893   0.661   3.450
 4570SOL     OW14608   6.258   6.204   2.350
 4570SOL    HW114609   6.235   6.300   2.366
 4570SOL    HW214610   6.308   6.168   2.429
 4571SOL     OW14611   4.895   2.761   6.897
 4571SOL    HW114612   4.828   2.722   6.960
 4571SOL    HW214613   4.903   2.703   6.817
 4572SOL     OW14614   2.226   0.764   6.460
 4572SOL    HW114615   2.143   0.708   6.460
 4572SOL    HW214616   2.258   0.775   6.554
 4573SOL     OW14617   6.891   6.927   0.499
 4573SOL    HW114618   6.929   6.867   0.569
 4573SOL    HW214619   6.832   6.875   0.438
 4574SOL     OW14620   5.397   4.472   0.363
 4574SOL    HW114621   5.482   4.452   0.315
 4574SOL    HW214622   5.319   4.445   0.305
 4575SOL     OW14623   5.615   0.439   5.334
 4575SOL    HW114624   5.615   0.535   5.363
 4575SOL    HW214625   5.532   0.420   5.281
 4576SOL     OW14626   2.853   5.286   5.415
 4576SOL    HW114627   2.938   5.336   5.398
 4576SOL    HW214628   2.827   5.235   5.333
 4577SOL     OW14629   1.192   3.091   3.962
 4577SOL    HW114630   1.211   3.121   4.056
 4577SOL    HW214631   1.172   2.993   3.962
 4578SOL     OW14632   0.769   1.675   4.445
 4578SOL    HW114633   0.713   1.754   4.468
 4578SOL    HW214634   0.779   1.669   4.345
 4579SOL     OW14635   4.861   1.122   2.219
 4579SOL    HW114636   4.839   1.080   2.131
 4579SOL    HW214637   4.876   1.220   2.205
 4580SOL     OW14638   5.475   3.999   0.658
 4580SOL    HW114639   5.454   4.091   0.625
 4580SOL    HW214640   5.569   3.996   0.691
 4581SOL     OW14641   2.228   6.090   2.140
 4581SOL    HW114642   2.185   6.176   2.116
 4581SOL    HW214643   2.179   6.048   2.217
 4582SOL     OW14644   4.793   0.619   3.578
 4582SOL    HW114645   4.812   0.716   3.593
 4582SOL    HW214646   4.719   0.590   3.639
 4583SOL     OW14647   2.953   1.278   6.647
 4583SOL    HW114648   2.878   1.219   6.677
 4583SOL    HW214649   3.013   1.228   6.586
 4584SOL     OW14650   1.488   5.218   5.291
 4584SOL    HW114651   1.407   5.172   5.256
 4584SOL    HW214652   1.464   5.310   5.322
 4585SOL     OW14653   2.343   4.704   3.294
 4585SOL    HW114654   2.362   4.737   3.386
 4585SOL    HW214655   2.269   4.759   3.254
 4586SOL     OW14656   4.212   3.717   0.288
 4586SOL    HW114657   4.142   3.779   0.320
 4586SOL    HW214658   4.251   3.666   0.365
 4587SOL     OW14659   3.468   3.769   3.707
 4587SOL    HW114660   3.551   3.813   3.672
 4587SOL    HW214661   3.402   3.839   3.734
 4588SOL     OW14662   3.166   2.639   5.987
 4588SOL    HW114663   3.192   2.687   5.903
 4588SOL    HW214664   3.073   2.664   6.012
 4589SOL     OW14665   5.391   0.402   1.574
 4589SOL    HW114666   5.434   0.314   1.591
 4589SOL    HW214667   5.314   0.415   1.637
 4590SOL     OW14668   4.228   4.876   1.367
 4590SOL    HW114669   4.248   4.778   1.375
 4590SOL    HW214670   4.260   4.924   1.449
 4591SOL     OW14671   2.110   0.180   4.969
 4591SOL    HW114672   2.131   0.116   5.043
 4591SOL    HW214673   2.174   0.165   4.893
 4592SOL     OW14674   3.656   0.623   2.780
 4592SOL    HW114675   3.587   0.553   2.798
 4592SOL    HW214676   3.631   0.673   2.697
 4593SOL     OW14677   6.354   6.403   2.017
 4593SOL    HW114678   6.340   6.316   1.970
 4593SOL    HW214679   6.266   6.440   2.046
 4594SOL     OW14680   3.489   0.541   3.096
 4594SOL    HW114681   3.412   0.581   3.145
 4594SOL    HW214682   3.533   0.611   3.040
 4595SOL     OW14683   4.950   3.126   5.932
 4595SOL    HW114684   4.858   3.140   5.969
 4595SOL    HW214685   4.950   3.042   5.877
 4596SOL     OW14686   6.867   0.232   2.466
 4596SOL    HW114687   6.848   0.294   2.390
 4596SOL    HW214688   6.881   0.286   2.549
 4597SOL     OW14689   2.422   5.569   6.570
 4597SOL    HW114690   2.469   5.482   6.580
 4597SOL    HW214691   2.433   5.623   6.654
 4598SOL     OW14692   1.352   5.398   1.472
 4598SOL    HW114693   1.416   5.403   1.548
 4598SOL    HW214694   1.379   5.463   1.401
 4599SOL     OW14695   1.666   4.514   1.265
 4599SOL    HW114696   1.607   4.591   1.241
 4599SOL    HW214697   1.618   4.455   1.330
 4600SOL     OW14698   0.403   6.485   5.534
 4600SOL    HW114699   0.383   6.562   5.595
 4600SOL    HW214700   0.320   6.429   5.523
 4601SOL     OW14701   0.849   1.659   5.424
 4601SOL    HW114702   0.878   1.605   5.344
 4601SOL    HW214703   0.844   1.600   5.504
 4602SOL     OW14704   2.940   6.696   0.630
 4602SOL    HW114705   2.884   6.776   0.610
 4602SOL    HW214706   2.897   6.642   0.703
 4603SOL     OW14707   3.595   5.831   0.591
 4603SOL    HW114708   3.661   5.757   0.607
 4603SOL    HW214709   3.559   5.824   0.498
 4604SOL     OW14710   4.843   0.302   6.652
 4604SOL    HW114711   4.877   0.276   6.562
 4604SOL    HW214712   4.840   0.401   6.659
 4605SOL     OW14713   2.004   6.893   1.412
 4605SOL    HW114714   1.965   6.842   1.335
 4605SOL    HW214715   2.084   6.944   1.382
 4606SOL     OW14716   0.477   6.735   2.422
 4606SOL    HW114717   0.482   6.635   2.427
 4606SOL    HW214718   0.496   6.765   2.329
 4607SOL     OW14719   1.871   3.085   3.245
 4607SOL    HW114720   1.864   2.985   3.252
 4607SOL    HW214721   1.901   3.110   3.153
 4608SOL     OW14722   6.781   4.192   3.688
 4608SOL    HW114723   6.734   4.270   3.731
 4608SOL    HW214724   6.807   4.215   3.595
 4609SOL     OW14725   5.044   4.782   6.987
 4609SOL    HW114726   5.089   4.837   0.039
 4609SOL    HW214727   4.985   4.842   6.932
 4610SOL     OW14728   4.310   1.873   0.150
 4610SOL    HW114729   4.316   1.781   0.187
 4610SOL    HW214730   4.402   1.908   0.133
 4611SOL     OW14731   0.539   0.083   6.206
 4611SOL    HW114732   0.513   0.148   6.134
 4611SOL    HW214733   0.596   0.130   6.274
 4612SOL     OW14734   2.449   6.948   0.580
 4612SOL    HW114735   2.388   6.947   0.500
 4612SOL    HW214736   2.527   7.007   0.561
 4613SOL     OW14737   1.640   5.738   2.778
 4613SOL    HW114738   1.711   5.782   2.833
 4613SOL    HW214739   1.573   5.806   2.748
 4614SOL     OW14740   6.096   2.836   3.509
 4614SOL    HW114741   6.169   2.893   3.546
 4614SOL    HW214742   6.082   2.858   3.413
 4615SOL     OW14743   1.139   1.358   0.765
 4615SOL    HW114744   1.086   1.396   0.841
 4615SOL    HW214745   1.093   1.380   0.679
 4616SOL     OW14746   5.526   1.742   4.231
 4616SOL    HW114747   5.547   1.691   4.314
 4616SOL    HW214748   5.502   1.679   4.158
 4617SOL     OW14749   1.749   2.353   2.597
 4617SOL    HW114750   1.711   2.377   2.507
 4617SOL    HW214751   1.680   2.303   2.649
 4618SOL     OW14752   2.232   3.690   5.522
 4618SOL    HW114753   2.267   3.758   5.457
 4618SOL    HW214754   2.135   3.708   5.539
 4619SOL     OW14755   2.939   6.171   3.552
 4619SOL    HW114756   2.875   6.237   3.511
 4619SOL    HW214757   2.896   6.128   3.631
 4620SOL     OW14758   0.906   4.556   1.200
 4620SOL    HW114759   0.969   4.623   1.241
 4620SOL    HW214760   0.902   4.571   1.101
 4621SOL     OW14761   5.432   1.102   2.225
 4621SOL    HW114762   5.517   1.079   2.177
 4621SOL    HW214763   5.355   1.054   2.182
 4622SOL     OW14764   3.837   5.466   0.943
 4622SOL    HW114765   3.904   5.439   0.874
 4622SOL    HW214766   3.869   5.549   0.990
 4623SOL     OW14767   4.465   5.427   1.131
 4623SOL    HW114768   4.484   5.524   1.140
 4623SOL    HW214769   4.441   5.406   1.036
 4624SOL     OW14770   3.471   0.440   2.768
 4624SOL    HW114771   3.474   0.345   2.799
 4624SOL    HW214772   3.476   0.443   2.668
 4625SOL     OW14773   1.673   5.320   2.011
 4625SOL    HW114774   1.643   5.413   2.033
 4625SOL    HW214775   1.722   5.282   2.089
 4626SOL     OW14776   4.612   4.468   1.787
 4626SOL    HW114777   4.601   4.415   1.872
 4626SOL    HW214778   4.538   4.444   1.724
 4627SOL     OW14779   1.017   5.300   5.303
 4627SOL    HW114780   1.051   5.393   5.285
 4627SOL    HW214781   0.921   5.305   5.330
 4628SOL     OW14782   4.613   4.529   4.810
 4628SOL    HW114783   4.525   4.528   4.858
 4628SOL    HW214784   4.657   4.439   4.820
 4629SOL     OW14785   2.194   4.864   5.194
 4629SOL    HW114786   2.113   4.845   5.249
 4629SOL    HW214787   2.221   4.960   5.204
 4630SOL     OW14788   2.220   5.366   2.181
 4630SOL    HW114789   2.296   5.311   2.218
 4630SOL    HW214790   2.251   5.461   2.171
 4631SOL     OW14791   0.995   6.620   3.715
 4631SOL    HW114792   0.958   6.540   3.667
 4631SOL    HW214793   1.047   6.590   3.794
 4632SOL     OW14794   2.398   4.414   2.930
 4632SOL    HW114795   2.403   4.321   2.893
 4632SOL    HW214796   2.361   4.411   3.023
 4633SOL     OW14797   5.709   1.282   4.729
 4633SOL    HW114798   5.725   1.240   4.819
 4633SOL    HW214799   5.797   1.313   4.692
 4634SOL     OW14800   2.680   3.895   5.319
 4634SOL    HW114801   2.655   3.845   5.402
 4634SOL    HW214802   2.598   3.936   5.279
 4635SOL     OW14803   4.327   4.336   1.616
 4635SOL    HW114804   4.369   4.287   1.692
 4635SOL    HW214805   4.246   4.385   1.648
 4636SOL     OW14806   2.142   4.338   0.464
 4636SOL    HW114807   2.202   4.379   0.395
 4636SOL    HW214808   2.090   4.263   0.423
 4637SOL     OW14809   0.794   6.802   1.212
 4637SOL    HW114810   0.823   6.707   1.201
 4637SOL    HW214811   0.873   6.860   1.228
 4638SOL     OW14812   3.649   5.786   6.728
 4638SOL    HW114813   3.572   5.820   6.674
 4638SOL    HW214814   3.735   5.810   6.682
 4639SOL     OW14815   2.909   2.748   6.356
 4639SOL    HW114816   2.874   2.841   6.352
 4639SOL    HW214817   2.851   2.692   6.415
 4640SOL     OW14818   5.810   3.469   4.349
 4640SOL    HW114819   5.763   3.402   4.405
 4640SOL    HW214820   5.846   3.542   4.407
 4641SOL     OW14821   2.507   0.453   4.184
 4641SOL    HW114822   2.571   0.512   4.134
 4641SOL    HW214823   2.508   0.362   4.143
 4642SOL     OW14824   1.754   6.466   2.918
 4642SOL    HW114825   1.838   6.476   2.971
 4642SOL    HW214826   1.713   6.556   2.904
 4643SOL     OW14827   6.942   2.069   0.069
 4643SOL    HW114828   6.976   2.163   0.070
 4643SOL    HW214829   7.003   2.011   0.122
 4644SOL     OW14830   6.819   0.212   5.604
 4644SOL    HW114831   6.767   0.130   5.626
 4644SOL    HW214832   6.819   0.273   5.684
 4645SOL     OW14833   2.218   1.217   4.113
 4645SOL    HW114834   2.145   1.169   4.162
 4645SOL    HW214835   2.256   1.157   4.043
 4646SOL     OW14836   2.392   5.529   3.751
 4646SOL    HW114837   2.402   5.604   3.686
 4646SOL    HW214838   2.478   5.514   3.800
 4647SOL     OW14839   1.989   0.395   2.793
 4647SOL    HW114840   1.894   0.415   2.769
 4647SOL    HW214841   1.992   0.330   2.869
 4648SOL     OW14842   3.180   1.200   3.984
 4648SOL    HW114843   3.262   1.227   4.035
 4648SOL    HW214844   3.195   1.111   3.942
 4649SOL     OW14845   6.216   0.610   0.525
 4649SOL    HW114846   6.315   0.621   0.533
 4649SOL    HW214847   6.171   0.699   0.531
 4650SOL     OW14848   4.729   5.287   2.192
 4650SOL    HW114849   4.811   5.240   2.159
 4650SOL    HW214850   4.649   5.228   2.179
 4651SOL     OW14851   6.322   3.453   6.927
 4651SOL    HW114852   6.353   3.499   7.010
 4651SOL    HW214853   6.308   3.356   6.945
 4652SOL     OW14854   6.188   6.321   5.233
 4652SOL    HW114855   6.276   6.313   5.280
 4652SOL    HW214856   6.115   6.324   5.300
 4653SOL     OW14857   4.870   5.977   1.015
 4653SOL    HW114858   4.802   5.903   1.019
 4653SOL    HW214859   4.905   5.985   0.922
 4654SOL     OW14860   0.480   5.858   6.070
 4654SOL    HW114861   0.533   5.941   6.088
 4654SOL    HW214862   0.404   5.880   6.008
 4655SOL     OW14863   5.511   4.210   1.512
 4655SOL    HW114864   5.468   4.181   1.598
 4655SOL    HW214865   5.594   4.158   1.496
 4656SOL     OW14866   1.143   1.080   1.735
 4656SOL    HW114867   1.120   1.014   1.664
 4656SOL    HW214868   1.226   1.129   1.709
 4657SOL     OW14869   4.549   5.493   1.956
 4657SOL    HW114870   4.561   5.395   1.936
 4657SOL    HW214871   4.502   5.503   2.043
 4658SOL     OW14872   3.084   1.698   4.783
 4658SOL    HW114873   3.118   1.760   4.712
 4658SOL    HW214874   3.003   1.738   4.826
 4659SOL     OW14875   2.759   4.366   6.810
 4659SOL    HW114876   2.770   4.267   6.810
 4659SOL    HW214877   2.732   4.397   6.901
 4660SOL     OW14878   1.466   6.455   4.520
 4660SOL    HW114879   1.508   6.437   4.431
 4660SOL    HW214880   1.371   6.422   4.520
 4661SOL     OW14881   2.726   4.855   5.723
 4661SOL    HW114882   2.740   4.933   5.663
 4661SOL    HW214883   2.812   4.832   5.769
 4662SOL     OW14884   3.031   0.209   5.672
 4662SOL    HW114885   2.947   0.263   5.663
 4662SOL    HW214886   3.089   0.250   5.743
 4663SOL     OW14887   0.444   0.688   1.056
 4663SOL    HW114888   0.515   0.747   1.018
 4663SOL    HW214889   0.479   0.595   1.064
 4664SOL     OW14890   0.649   0.868   0.311
 4664SOL    HW114891   0.683   0.774   0.307
 4664SOL    HW214892   0.700   0.918   0.381
 4665SOL     OW14893   2.571   0.169   6.036
 4665SOL    HW114894   2.637   0.168   6.110
 4665SOL    HW214895   2.619   0.162   5.948
 4666SOL     OW14896   1.939   1.991   6.782
 4666SOL    HW114897   1.994   2.073   6.799
 4666SOL    HW214898   1.996   1.910   6.791
 4667SOL     OW14899   6.244   3.998   1.963
 4667SOL    HW114900   6.294   4.013   1.878
 4667SOL    HW214901   6.303   3.950   2.028
 4668SOL     OW14902   4.818   1.651   4.235
 4668SOL    HW114903   4.785   1.559   4.257
 4668SOL    HW214904   4.910   1.663   4.271
 4669SOL     OW14905   5.431   6.704   6.528
 4669SOL    HW114906   5.333   6.717   6.546
 4669SOL    HW214907   5.460   6.769   6.458
 4670SOL     OW14908   0.927   2.745   6.604
 4670SOL    HW114909   1.001   2.702   6.656
 4670SOL    HW214910   0.951   2.840   6.585
 4671SOL     OW14911   0.884   3.720   6.614
 4671SOL    HW114912   0.882   3.631   6.658
 4671SOL    HW214913   0.964   3.772   6.646
 4672SOL     OW14914   3.920   4.752   6.095
 4672SOL    HW114915   3.828   4.786   6.077
 4672SOL    HW214916   3.930   4.732   6.192
 4673SOL     OW14917   4.877   6.935   0.920
 4673SOL    HW114918   4.936   6.901   0.847
 4673SOL    HW214919   4.931   6.984   0.988
 4674SOL     OW14920   5.550   1.468   0.470
 4674SOL    HW114921   5.501   1.525   0.404
 4674SOL    HW214922   5.634   1.514   0.497
 4675SOL     OW14923   3.542   0.486   0.051
 4675SOL    HW114924   3.627   0.539   0.044
 4675SOL    HW214925   3.523   0.468   0.148
 4676SOL     OW14926   0.472   6.781   4.735
 4676SOL    HW114927   0.545   6.797   4.801
 4676SOL    HW214928   0.384   6.778   4.783
 4677SOL     OW14929   2.804   0.548   0.167
 4677SOL    HW114930   2.724   0.488   0.166
 4677SOL    HW214931   2.885   0.495   0.140
 4678SOL     OW14932   2.317   4.671   2.213
 4678SOL    HW114933   2.242   4.694   2.150
 4678SOL    HW214934   2.339   4.751   2.269
 4679SOL     OW14935   3.731   1.342   6.946
 4679SOL    HW114936   3.698   1.428   6.906
 4679SOL    HW214937   3.748   1.275   6.874
 4680SOL     OW14938   1.974   0.368   2.188
 4680SOL    HW114939   2.057   0.319   2.215
 4680SOL    HW214940   1.895   0.309   2.200
 4681SOL     OW14941   6.239   5.698   5.556
 4681SOL    HW114942   6.195   5.618   5.515
 4681SOL    HW214943   6.258   5.679   5.653
 4682SOL     OW14944   4.888   4.588   6.861
 4682SOL    HW114945   4.930   4.557   6.775
 4682SOL    HW214946   4.936   4.670   6.894
 4683SOL     OW14947   4.965   4.615   2.865
 4683SOL    HW114948   5.011   4.559   2.934
 4683SOL    HW214949   4.992   4.585   2.774
 4684SOL     OW14950   6.841   1.910   4.290
 4684SOL    HW114951   6.844   1.814   4.263
 4684SOL    HW214952   6.830   1.917   4.389
 4685SOL     OW14953   0.489   6.197   4.559
 4685SOL    HW114954   0.501   6.243   4.471
 4685SOL    HW214955   0.395   6.211   4.591
 4686SOL     OW14956   5.155   5.790   0.294
 4686SOL    HW114957   5.084   5.742   0.344
 4686SOL    HW214958   5.244   5.773   0.337
 4687SOL     OW14959   6.708   5.022   5.121
 4687SOL    HW114960   6.761   5.093   5.074
 4687SOL    HW214961   6.613   5.026   5.091
 4688SOL     OW14962   0.180   3.211   6.060
 4688SOL    HW114963   0.269   3.188   6.098
 4688SOL    HW214964   0.110   3.201   6.131
 4689SOL     OW14965   5.454   0.425   7.004
 4689SOL    HW114966   5.454   0.325   7.003
 4689SOL    HW214967   5.442   0.460   6.911
 4690SOL     OW14968   1.214   1.815   0.273
 4690SOL    HW114969   1.294   1.757   0.284
 4690SOL    HW214970   1.243   1.908   0.251
 4691SOL     OW14971   3.272   4.186   1.583
 4691SOL    HW114972   3.194   4.125   1.600
 4691SOL    HW214973   3.292   4.238   1.667
 4692SOL     OW14974   6.585   5.153   2.374
 4692SOL    HW114975   6.534   5.209   2.309
 4692SOL    HW214976   6.678   5.139   2.340
 4693SOL     OW14977   0.915   0.479   4.060
 4693SOL    HW114978   0.998   0.528   4.034
 4693SOL    HW214979   0.893   0.500   4.156
 4694SOL     OW14980   2.778   0.632   6.892
 4694SOL    HW114981   2.779   0.628   6.991
 4694SOL    HW214982   2.824   0.715   6.861
 4695SOL     OW14983   2.910   3.276   1.054
 4695SOL    HW114984   2.957   3.218   0.988
 4695SOL    HW214985   2.971   3.297   1.130
 4696SOL     OW14986   0.630   4.454   5.543
 4696SOL    HW114987   0.724   4.486   5.546
 4696SOL    HW214988   0.610   4.399   5.624
 4697SOL     OW14989   1.290   3.261   0.880
 4697SOL    HW114990   1.299   3.237   0.977
 4697SOL    HW214991   1.230   3.341   0.871
 4698SOL     OW14992   4.247   5.658   3.191
 4698SOL    HW114993   4.280   5.613   3.108
 4698SOL    HW214994   4.289   5.614   3.271
 4699SOL     OW14995   1.186   6.702   2.276
 4699SOL    HW114996   1.203   6.768   2.350
 4699SOL    HW214997   1.237   6.729   2.194
 4700SOL     OW14998   6.208   1.511   2.326
 4700SOL    HW114999   6.296   1.483   2.363
 4700SOL    HW215000   6.209   1.504   2.227
 4701SOL     OW15001   1.130   2.659   0.446
 4701SOL    HW115002   1.122   2.683   0.349
 4701SOL    HW215003   1.047   2.612   0.476
 4702SOL     OW15004   5.944   5.115   6.638
 4702SOL    HW115005   6.041   5.090   6.631
 4702SOL    HW215006   5.919   5.172   6.560
 4703SOL     OW15007   1.248   2.495   2.054
 4703SOL    HW115008   1.226   2.411   2.104
 4703SOL    HW215009   1.178   2.511   1.984
 4704SOL     OW15010   0.129   6.705   6.741
 4704SOL    HW115011   0.169   6.774   6.800
 4704SOL    HW215012   0.177   6.618   6.755
 4705SOL     OW15013   3.772   3.541   2.743
 4705SOL    HW115014   3.677   3.571   2.747
 4705SOL    HW215015   3.801   3.509   2.833
 4706SOL     OW15016   3.767   6.129   6.794
 4706SOL    HW115017   3.756   6.088   6.885
 4706SOL    HW215018   3.832   6.205   6.799
 4707SOL     OW15019   2.121   6.071   0.719
 4707SOL    HW115020   2.172   6.072   0.633
 4707SOL    HW215021   2.025   6.054   0.700
 4708SOL     OW15022   1.663   2.291   6.832
 4708SOL    HW115023   1.619   2.300   6.921
 4708SOL    HW215024   1.607   2.233   6.773
 4709SOL     OW15025   3.571   5.081   5.380
 4709SOL    HW115026   3.549   5.133   5.298
 4709SOL    HW215027   3.494   5.084   5.443
 4710SOL     OW15028   3.651   1.137   5.642
 4710SOL    HW115029   3.639   1.229   5.605
 4710SOL    HW215030   3.633   1.137   5.740
 4711SOL     OW15031   4.838   0.296   2.316
 4711SOL    HW115032   4.827   0.361   2.392
 4711SOL    HW215033   4.920   0.241   2.331
 4712SOL     OW15034   2.982   4.466   0.593
 4712SOL    HW115035   2.941   4.551   0.560
 4712SOL    HW215036   2.948   4.446   0.685
 4713SOL     OW15037   2.730   3.805   1.006
 4713SOL    HW115038   2.759   3.709   1.007
 4713SOL    HW215039   2.786   3.857   0.941
 4714SOL     OW15040   1.895   1.761   0.092
 4714SOL    HW115041   1.823   1.815   0.137
 4714SOL    HW215042   1.858   1.719   0.009
 4715SOL     OW15043   6.752   3.963   1.802
 4715SOL    HW115044   6.816   3.898   1.844
 4715SOL    HW215045   6.725   3.929   1.712
 4716SOL     OW15046   3.921   5.839   6.652
 4716SOL    HW115047   3.891   5.921   6.603
 4716SOL    HW215048   3.933   5.765   6.587
 4717SOL     OW15049   0.651   6.225   3.367
 4717SOL    HW115050   0.740   6.181   3.353
 4717SOL    HW215051   0.614   6.254   3.279
 4718SOL     OW15052   5.419   1.962   6.486
 4718SOL    HW115053   5.472   2.007   6.413
 4718SOL    HW215054   5.462   1.875   6.509
 4719SOL     OW15055   4.899   3.131   2.803
 4719SOL    HW115056   4.947   3.148   2.889
 4719SOL    HW215057   4.801   3.131   2.818
 4720SOL     OW15058   2.419   5.806   5.531
 4720SOL    HW115059   2.389   5.738   5.598
 4720SOL    HW215060   2.437   5.893   5.577
 4721SOL     OW15061   6.419   2.267   1.382
 4721SOL    HW115062   6.429   2.344   1.445
 4721SOL    HW215063   6.355   2.201   1.420
 4722SOL     OW15064   1.409   6.282   6.981
 4722SOL    HW115065   1.478   6.351   6.958
 4722SOL    HW215066   1.441   6.228   0.039
 4723SOL     OW15067   1.845   4.886   5.511
 4723SOL    HW115068   1.910   4.957   5.487
 4723SOL    HW215069   1.752   4.921   5.502
 4724SOL     OW15070   4.704   5.672   2.871
 4724SOL    HW115071   4.643   5.661   2.792
 4724SOL    HW215072   4.782   5.610   2.861
 4725SOL     OW15073   5.776   6.551   2.782
 4725SOL    HW115074   5.876   6.541   2.784
 4725SOL    HW215075   5.738   6.488   2.714
 4726SOL     OW15076   1.720   3.218   6.506
 4726SOL    HW115077   1.720   3.123   6.474
 4726SOL    HW215078   1.767   3.276   6.439
 4727SOL     OW15079   6.614   6.499   0.012
 4727SOL    HW115080   6.682   6.446   6.980
 4727SOL    HW215081   6.524   6.457   0.002
 4728SOL     OW15082   4.790   1.846   1.339
 4728SOL    HW115083   4.728   1.882   1.270
 4728SOL    HW215084   4.884   1.853   1.306
 4729SOL     OW15085   2.925   1.334   2.364
 4729SOL    HW115086   2.952   1.341   2.460
 4729SOL    HW215087   2.826   1.325   2.358
 4730SOL     OW15088   2.271   5.747   5.327
 4730SOL    HW115089   2.195   5.802   5.291
 4730SOL    HW215090   2.308   5.790   5.409
 4731SOL     OW15091   4.343   0.732   6.361
 4731SOL    HW115092   4.367   0.660   6.295
 4731SOL    HW215093   4.421   0.793   6.373
 4732SOL     OW15094   0.028   3.485   6.271
 4732SOL    HW115095   6.961   3.500   6.318
 4732SOL    HW215096   0.052   3.388   6.275
 4733SOL     OW15097   1.045   4.110   3.121
 4733SOL    HW115098   0.946   4.100   3.121
 4733SOL    HW215099   1.084   4.065   3.202
 4734SOL     OW15100   4.828   3.493   6.884
 4734SOL    HW115101   4.844   3.395   6.890
 4734SOL    HW215102   4.730   3.511   6.878
 4735SOL     OW15103   0.746   5.552   4.231
 4735SOL    HW115104   0.696   5.491   4.170
 4735SOL    HW215105   0.832   5.508   4.257
 4736SOL     OW15106   0.568   1.841   6.370
 4736SOL    HW115107   0.502   1.878   6.303
 4736SOL    HW215108   0.596   1.914   6.432
 4737SOL     OW15109   1.109   5.099   2.190
 4737SOL    HW115110   1.191   5.155   2.195
 4737SOL    HW215111   1.081   5.088   2.095
 4738SOL     OW15112   6.862   5.690   3.057
 4738SOL    HW115113   6.807   5.676   3.139
 4738SOL    HW215114   6.831   5.771   3.008
 4739SOL     OW15115   4.614   6.671   3.026
 4739SOL    HW115116   4.592   6.705   3.117
 4739SOL    HW215117   4.712   6.682   3.009
 4740SOL     OW15118   0.203   1.163   1.691
 4740SOL    HW115119   0.215   1.260   1.669
 4740SOL    HW215120   0.249   1.107   1.621
 4741SOL     OW15121   3.321   2.417   1.720
 4741SOL    HW115122   3.317   2.325   1.759
 4741SOL    HW215123   3.230   2.459   1.724
 4742SOL     OW15124   1.918   6.872   5.885
 4742SOL    HW115125   1.852   6.798   5.899
 4742SOL    HW215126   1.952   6.905   5.973
 4743SOL     OW15127   2.122   3.410   2.935
 4743SOL    HW115128   2.083   3.495   2.971
 4743SOL    HW215129   2.214   3.427   2.901
 4744SOL     OW15130   2.327   4.995   1.183
 4744SOL    HW115131   2.316   4.899   1.210
 4744SOL    HW215132   2.267   5.015   1.106
 4745SOL     OW15133   3.399   3.970   6.812
 4745SOL    HW115134   3.438   3.953   6.902
 4745SOL    HW215135   3.419   3.893   6.751
 4746SOL     OW15136   4.480   6.347   3.805
 4746SOL    HW115137   4.524   6.257   3.808
 4746SOL    HW215138   4.383   6.337   3.826
 4747SOL     OW15139   0.599   3.963   0.570
 4747SOL    HW115140   0.610   3.911   0.655
 4747SOL    HW215141   0.598   3.899   0.492
 4748SOL     OW15142   1.680   6.766   1.308
 4748SOL    HW115143   1.757   6.721   1.354
 4748SOL    HW215144   1.606   6.701   1.293
 4749SOL     OW15145   1.699   0.164   6.453
 4749SOL    HW115146   1.726   0.074   6.418
 4749SOL    HW215147   1.601   0.165   6.470
 4750SOL     OW15148   6.329   3.314   5.513
 4750SOL    HW115149   6.290   3.390   5.460
 4750SOL    HW215150   6.401   3.349   5.573
 4751SOL     OW15151   4.617   2.658   2.946
 4751SOL    HW115152   4.688   2.598   2.909
 4751SOL    HW215153   4.528   2.631   2.908
 4752SOL     OW15154   4.591   0.573   0.233
 4752SOL    HW115155   4.536   0.631   0.172
 4752SOL    HW215156   4.531   0.507   0.279
 4753SOL     OW15157   0.818   6.741   3.928
 4753SOL    HW115158   0.897   6.711   3.875
 4753SOL    HW215159   0.849   6.791   4.009
 4754SOL     OW15160   5.021   3.724   5.119
 4754SOL    HW115161   4.945   3.668   5.087
 4754SOL    HW215162   5.010   3.743   5.216
 4755SOL     OW15163   2.545   0.589   0.745
 4755SOL    HW115164   2.459   0.638   0.756
 4755SOL    HW215165   2.584   0.607   0.655
 4756SOL     OW15166   6.506   3.680   5.583
 4756SOL    HW115167   6.568   3.749   5.621
 4756SOL    HW215168   6.430   3.665   5.647
 4757SOL     OW15169   1.731   2.873   1.466
 4757SOL    HW115170   1.826   2.904   1.462
 4757SOL    HW215171   1.690   2.904   1.552
 4758SOL     OW15172   1.267   7.003   3.337
 4758SOL    HW115173   1.279   0.064   3.279
 4758SOL    HW215174   1.300   0.005   3.430
 4759SOL     OW15175   0.778   5.775   6.571
 4759SOL    HW115176   0.703   5.709   6.569
 4759SOL    HW215177   0.740   5.868   6.569
 4760SOL     OW15178   1.959   1.407   0.880
 4760SOL    HW115179   1.944   1.309   0.863
 4760SOL    HW215180   1.890   1.440   0.943
 4761SOL     OW15181   1.478   0.968   0.828
 4761SOL    HW115182   1.459   1.066   0.834
 4761SOL    HW215183   1.409   0.924   0.770
 4762SOL     OW15184   1.613   5.866   2.025
 4762SOL    HW115185   1.526   5.901   2.059
 4762SOL    HW215186   1.612   5.863   1.926
 4763SOL     OW15187   4.716   0.747   2.626
 4763SOL    HW115188   4.743   0.739   2.722
 4763SOL    HW215189   4.718   0.656   2.584
 4764SOL     OW15190   4.502   3.475   5.332
 4764SOL    HW115191   4.573   3.525   5.282
 4764SOL    HW215192   4.491   3.514   5.423
 4765SOL     OW15193   4.000   0.984   5.790
 4765SOL    HW115194   3.936   0.908   5.792
 4765SOL    HW215195   4.046   0.992   5.878
 4766SOL     OW15196   6.071   6.551   4.205
 4766SOL    HW115197   6.052   6.615   4.279
 4766SOL    HW215198   6.142   6.487   4.233
 4767SOL     OW15199   2.769   5.069   5.555
 4767SOL    HW115200   2.777   5.168   5.540
 4767SOL    HW215201   2.716   5.028   5.481
 4768SOL     OW15202   3.728   3.009   5.767
 4768SOL    HW115203   3.688   2.921   5.743
 4768SOL    HW215204   3.828   3.003   5.765
 4769SOL     OW15205   3.389   5.963   0.135
 4769SOL    HW115206   3.461   6.019   0.178
 4769SOL    HW215207   3.309   6.020   0.117
 4770SOL     OW15208   6.988   2.166   4.806
 4770SOL    HW115209   7.009   2.081   4.758
 4770SOL    HW215210   6.898   2.157   4.851
 4771SOL     OW15211   2.508   6.633   6.256
 4771SOL    HW115212   2.535   6.653   6.350
 4771SOL    HW215213   2.500   6.718   6.205
 4772SOL     OW15214   3.284   4.778   1.453
 4772SOL    HW115215   3.191   4.787   1.490
 4772SOL    HW215216   3.285   4.703   1.386
 4773SOL     OW15217   0.948   6.086   4.599
 4773SOL    HW115218   0.914   5.998   4.630
 4773SOL    HW215219   0.896   6.160   4.643
 4774SOL     OW15220   1.143   4.298   1.469
 4774SOL    HW115221   1.139   4.207   1.510
 4774SOL    HW215222   1.106   4.295   1.376
 4775SOL     OW15223   5.007   0.402   4.280
 4775SOL    HW115224   4.989   0.446   4.368
 4775SOL    HW215225   5.098   0.360   4.283
 4776SOL     OW15226   0.948   1.051   4.856
 4776SOL    HW115227   0.970   1.077   4.951
 4776SOL    HW215228   0.917   1.132   4.806
 4777SOL     OW15229   1.644   5.603   0.997
 4777SOL    HW115230   1.638   5.550   1.082
 4777SOL    HW215231   1.668   5.542   0.922
 4778SOL     OW15232   0.090   2.987   4.878
 4778SOL    HW115233   0.034   2.974   4.796
 4778SOL    HW215234   0.078   2.909   4.939
 4779SOL     OW15235   5.492   6.703   4.038
 4779SOL    HW115236   5.541   6.687   4.124
 4779SOL    HW215237   5.527   6.786   3.995
 4780SOL     OW15238   6.004   2.363   6.557
 4780SOL    HW115239   6.073   2.422   6.599
 4780SOL    HW215240   5.933   2.420   6.515
 4781SOL     OW15241   2.783   5.239   2.064
 4781SOL    HW115242   2.765   5.141   2.065
 4781SOL    HW215243   2.868   5.257   2.114
 4782SOL     OW15244   6.487   5.702   6.317
 4782SOL    HW115245   6.479   5.615   6.366
 4782SOL    HW215246   6.551   5.762   6.366
 4783SOL     OW15247   5.718   3.814   0.122
 4783SOL    HW115248   5.784   3.746   0.091
 4783SOL    HW215249   5.767   3.898   0.147
 4784SOL     OW15250   5.963   2.092   6.169
 4784SOL    HW115251   6.052   2.132   6.192
 4784SOL    HW215252   5.976   1.998   6.139
 4785SOL     OW15253   0.371   6.900   2.835
 4785SOL    HW115254   0.375   6.999   2.826
 4785SOL    HW215255   0.377   6.875   2.932
 4786SOL     OW15256   2.438   6.841   0.214
 4786SOL    HW115257   2.432   6.829   0.115
 4786SOL    HW215258   2.355   6.885   0.247
 4787SOL     OW15259   3.856   1.918   3.437
 4787SOL    HW115260   3.821   1.852   3.371
 4787SOL    HW215261   3.903   1.870   3.511
 4788SOL     OW15262   6.194   6.188   0.629
 4788SOL    HW115263   6.146   6.242   0.699
 4788SOL    HW215264   6.292   6.189   0.648
 4789SOL     OW15265   4.939   1.613   1.697
 4789SOL    HW115266   4.885   1.610   1.781
 4789SOL    HW215267   4.988   1.527   1.686
 4790SOL     OW15268   5.578   2.137   5.575
 4790SOL    HW115269   5.626   2.225   5.567
 4790SOL    HW215270   5.498   2.148   5.635
 4791SOL     OW15271   6.977   3.012   1.793
 4791SOL    HW115272   0.047   3.050   1.819
 4791SOL    HW215273   6.969   3.014   1.693
 4792SOL     OW15274   2.443   4.431   4.490
 4792SOL    HW115275   2.359   4.451   4.542
 4792SOL    HW215276   2.520   4.479   4.532
 4793SOL     OW15277   1.798   3.722   5.130
 4793SOL    HW115278   1.834   3.685   5.044
 4793SOL    HW215279   1.873   3.744   5.191
 4794SOL     OW15280   4.244   6.730   4.247
 4794SOL    HW115281   4.309   6.711   4.320
 4794SOL    HW215282   4.255   6.661   4.174
 4795SOL     OW15283   6.735   1.645   4.584
 4795SOL    HW115284   6.791   1.572   4.545
 4795SOL    HW215285   6.642   1.613   4.599
 4796SOL     OW15286   3.695   0.209   6.369
 4796SOL    HW115287   3.625   0.162   6.316
 4796SOL    HW215288   3.691   0.307   6.350
 4797SOL     OW15289   0.517   5.965   4.415
 4797SOL    HW115290   0.515   6.057   4.455
 4797SOL    HW215291   0.592   5.913   4.455
 4798SOL     OW15292   5.719   5.172   5.695
 4798SOL    HW115293   5.726   5.227   5.612
 4798SOL    HW215294   5.711   5.076   5.670
 4799SOL     OW15295   4.188   1.425   0.128
 4799SOL    HW115296   4.116   1.356   0.118
 4799SOL    HW215297   4.199   1.474   0.041
 4800SOL     OW15298   1.359   3.957   6.835
 4800SOL    HW115299   1.404   4.044   6.818
 4800SOL    HW215300   1.427   3.883   6.837
 4801SOL     OW15301   3.775   2.830   6.695
 4801SOL    HW115302   3.741   2.899   6.631
 4801SOL    HW215303   3.821   2.757   6.643
 4802SOL     OW15304   6.576   6.507   1.874
 4802SOL    HW115305   6.583   6.445   1.795
 4802SOL    HW215306   6.552   6.454   1.955
 4803SOL     OW15307   6.496   4.926   1.119
 4803SOL    HW115308   6.519   4.829   1.109
 4803SOL    HW215309   6.438   4.938   1.200
 4804SOL     OW15310   5.529   0.052   0.873
 4804SOL    HW115311   5.511   0.071   0.777
 4804SOL    HW215312   5.625   0.071   0.894
 4805SOL     OW15313   6.462   0.708   2.427
 4805SOL    HW115314   6.481   0.796   2.383
 4805SOL    HW215315   6.496   0.709   2.521
 4806SOL     OW15316   1.238   3.665   2.620
 4806SOL    HW115317   1.317   3.700   2.569
 4806SOL    HW215318   1.177   3.740   2.643
 4807SOL     OW15319   1.448   3.691   6.749
 4807SOL    HW115320   1.461   3.752   6.671
 4807SOL    HW215321   1.424   3.599   6.717
 4808SOL     OW15322   4.400   5.409   0.526
 4808SOL    HW115323   4.458   5.483   0.492
 4808SOL    HW215324   4.453   5.324   0.529
 4809SOL     OW15325   4.072   4.125   1.608
 4809SOL    HW115326   4.069   4.225   1.603
 4809SOL    HW215327   4.130   4.089   1.535
 4810SOL     OW15328   1.626   4.917   3.436
 4810SOL    HW115329   1.548   4.951   3.489
 4810SOL    HW215330   1.690   4.871   3.497
 4811SOL     OW15331   3.949   3.843   3.517
 4811SOL    HW115332   3.851   3.846   3.499
 4811SOL    HW215333   3.996   3.902   3.452
 4812SOL     OW15334   0.254   6.731   2.143
 4812SOL    HW115335   0.350   6.760   2.140
 4812SOL    HW215336   0.197   6.806   2.176
 4813SOL     OW15337   6.348   1.947   6.252
 4813SOL    HW115338   6.382   2.016   6.316
 4813SOL    HW215339   6.308   1.870   6.303
 4814SOL     OW15340   0.075   3.609   2.048
 4814SOL    HW115341   0.151   3.552   2.018
 4814SOL    HW215342   0.047   3.581   2.140
 4815SOL     OW15343   5.057   4.925   2.906
 4815SOL    HW115344   5.001   4.913   2.824
 4815SOL    HW215345   5.072   4.837   2.950
 4816SOL     OW15346   2.324   5.873   1.082
 4816SOL    HW115347   2.279   5.796   1.037
 4816SOL    HW215348   2.350   5.846   1.175
 4817SOL     OW15349   3.080   1.093   1.805
 4817SOL    HW115350   2.985   1.104   1.774
 4817SOL    HW215351   3.140   1.085   1.725
 4818SOL     OW15352   1.001   1.485   4.144
 4818SOL    HW115353   1.071   1.546   4.179
 4818SOL    HW215354   0.911   1.524   4.162
 4819SOL     OW15355   3.208   1.931   1.755
 4819SOL    HW115356   3.276   1.998   1.784
 4819SOL    HW215357   3.133   1.928   1.821
 4820SOL     OW15358   6.384   2.412   0.634
 4820SOL    HW115359   6.350   2.493   0.683
 4820SOL    HW215360   6.316   2.383   0.566
 4821SOL     OW15361   6.339   6.588   1.505
 4821SOL    HW115362   6.262   6.582   1.442
 4821SOL    HW215363   6.347   6.502   1.556
 4822SOL     OW15364   1.765   2.905   3.947
 4822SOL    HW115365   1.783   2.870   4.038
 4822SOL    HW215366   1.849   2.905   3.893
 4823SOL     OW15367   6.942   1.030   3.966
 4823SOL    HW115368   7.018   1.095   3.973
 4823SOL    HW215369   6.855   1.081   3.961
 4824SOL     OW15370   5.832   1.694   3.735
 4824SOL    HW115371   5.877   1.606   3.718
 4824SOL    HW215372   5.899   1.760   3.768
 4825SOL     OW15373   2.334   2.784   4.367
 4825SOL    HW115374   2.262   2.716   4.349
 4825SOL    HW215375   2.390   2.753   4.444
 4826SOL     OW15376   0.686   0.512   0.042
 4826SOL    HW115377   0.703   0.414   0.036
 4826SOL    HW215378   0.674   0.549   6.969
 4827SOL     OW15379   6.030   0.547   1.581
 4827SOL    HW115380   6.043   0.498   1.667
 4827SOL    HW215381   6.113   0.599   1.559
 4828SOL     OW15382   5.678   3.628   1.033
 4828SOL    HW115383   5.683   3.570   1.114
 4828SOL    HW215384   5.665   3.571   0.952
 4829SOL     OW15385   3.924   6.364   6.805
 4829SOL    HW115386   3.881   6.433   6.863
 4829SOL    HW215387   3.948   6.404   6.717
 4830SOL     OW15388   5.527   5.679   3.911
 4830SOL    HW115389   5.445   5.727   3.881
 4830SOL    HW215390   5.594   5.677   3.836
 4831SOL     OW15391   6.549   5.383   6.024
 4831SOL    HW115392   6.590   5.392   6.115
 4831SOL    HW215393   6.531   5.286   6.005
 4832SOL     OW15394   2.806   2.662   5.803
 4832SOL    HW115395   2.846   2.695   5.888
 4832SOL    HW215396   2.844   2.572   5.781
 4833SOL     OW15397   5.052   1.630   2.800
 4833SOL    HW115398   4.963   1.667   2.776
 4833SOL    HW215399   5.076   1.556   2.738
 4834SOL     OW15400   3.555   0.469   0.335
 4834SOL    HW115401   3.546   0.374   0.365
 4834SOL    HW215402   3.559   0.529   0.415
 4835SOL     OW15403   1.342   0.821   6.887
 4835SOL    HW115404   1.427   0.771   6.869
 4835SOL    HW215405   1.323   0.820   6.985
 4836SOL     OW15406   4.659   2.709   3.801
 4836SOL    HW115407   4.599   2.643   3.755
 4836SOL    HW215408   4.715   2.756   3.733
 4837SOL     OW15409   4.097   2.999   1.393
 4837SOL    HW115410   4.049   3.030   1.475
 4837SOL    HW215411   4.133   2.907   1.408
 4838SOL     OW15412   2.666   5.016   1.666
 4838SOL    HW115413   2.695   5.064   1.748
 4838SOL    HW215414   2.626   4.928   1.691
 4839SOL     OW15415   1.951   3.779   5.618
 4839SOL    HW115416   1.964   3.832   5.533
 4839SOL    HW215417   1.961   3.840   5.696
 4840SOL     OW15418   0.455   6.838   6.256
 4840SOL    HW115419   0.492   6.919   6.211
 4840SOL    HW215420   0.358   6.854   6.278
 4841SOL     OW15421   2.802   5.823   1.274
 4841SOL    HW115422   2.707   5.852   1.260
 4841SOL    HW215423   2.827   5.756   1.203
 4842SOL     OW15424   3.356   4.859   1.812
 4842SOL    HW115425   3.365   4.959   1.821
 4842SOL    HW215426   3.424   4.814   1.869
 4843SOL     OW15427   6.114   3.951   0.795
 4843SOL    HW115428   6.131   3.890   0.717
 4843SOL    HW215429   6.193   3.948   0.857
 4844SOL     OW15430   6.798   3.541   5.601
 4844SOL    HW115431   6.887   3.496   5.591
 4844SOL    HW215432   6.731   3.498   5.541
 4845SOL     OW15433   6.737   5.869   4.569
 4845SOL    HW115434   6.777   5.870   4.477
 4845SOL    HW215435   6.784   5.937   4.626
 4846SOL     OW15436   6.655   3.116   2.269
 4846SOL    HW115437   6.744   3.132   2.228
 4846SOL    HW215438   6.604   3.202   2.273
 4847SOL     OW15439   3.582   1.965   5.721
 4847SOL    HW115440   3.482   1.964   5.731
 4847SOL    HW215441   3.619   1.878   5.752
 4848SOL     OW15442   1.962   0.873   3.463
 4848SOL    HW115443   2.052   0.907   3.491
 4848SOL    HW215444   1.969   0.832   3.372
 4849SOL     OW15445   1.182   0.132   6.765
 4849SOL    HW115446   1.085   0.140   6.743
 4849SOL    HW215447   1.215   0.042   6.737
 4850SOL     OW15448   4.471   1.378   2.391
 4850SOL    HW115449   4.444   1.397   2.296
 4850SOL    HW215450   4.555   1.323   2.392
 4851SOL     OW15451   3.357   5.822   4.918
 4851SOL    HW115452   3.326   5.848   5.009
 4851SOL    HW215453   3.279   5.789   4.864
 4852SOL     OW15454   0.894   0.237   6.679
 4852SOL    HW115455   0.954   0.301   6.631
 4852SOL    HW215456   0.800   0.252   6.650
 4853SOL     OW15457   3.136   1.130   2.280
 4853SOL    HW115458   3.112   1.051   2.224
 4853SOL    HW215459   3.053   1.174   2.313
 4854SOL     OW15460   5.000   6.105   2.443
 4854SOL    HW115461   5.016   6.119   2.541
 4854SOL    HW215462   4.919   6.155   2.415
 4855SOL     OW15463   5.999   2.589   2.365
 4855SOL    HW115464   6.092   2.590   2.329
 4855SOL    HW215465   5.937   2.556   2.294
 4856SOL     OW15466   2.033   3.996   2.820
 4856SOL    HW115467   2.096   3.983   2.745
 4856SOL    HW215468   1.963   4.063   2.794
 4857SOL     OW15469   2.153   2.401   5.564
 4857SOL    HW115470   2.241   2.355   5.574
 4857SOL    HW215471   2.103   2.399   5.651
 4858SOL     OW15472   1.932   0.871   4.469
 4858SOL    HW115473   1.932   0.937   4.394
 4858SOL    HW215474   2.018   0.878   4.520
 4859SOL     OW15475   1.243   0.519   4.477
 4859SOL    HW115476   1.166   0.527   4.540
 4859SOL    HW215477   1.305   0.596   4.490
 4860SOL     OW15478   3.717   4.987   1.814
 4860SOL    HW115479   3.675   4.902   1.844
 4860SOL    HW215480   3.797   4.967   1.756
 4861SOL     OW15481   5.038   5.171   0.173
 4861SOL    HW115482   5.081   5.081   0.162
 4861SOL    HW215483   5.091   5.225   0.238
 4862SOL     OW15484   2.989   4.903   4.933
 4862SOL    HW115485   2.935   4.859   5.005
 4862SOL    HW215486   2.937   4.904   4.848
 4863SOL     OW15487   5.905   4.323   1.660
 4863SOL    HW115488   5.828   4.370   1.703
 4863SOL    HW215489   5.944   4.380   1.588
 4864SOL     OW15490   3.849   1.335   3.600
 4864SOL    HW115491   3.769   1.361   3.547
 4864SOL    HW215492   3.827   1.340   3.697
 4865SOL     OW15493   1.945   0.669   5.580
 4865SOL    HW115494   1.848   0.672   5.601
 4865SOL    HW215495   1.995   0.729   5.642
 4866SOL     OW15496   6.747   3.214   0.945
 4866SOL    HW115497   6.733   3.214   0.846
 4866SOL    HW215498   6.690   3.144   0.987
 4867SOL     OW15499   4.001   5.374   3.497
 4867SOL    HW115500   4.082   5.389   3.552
 4867SOL    HW215501   3.993   5.447   3.429
 4868SOL     OW15502   6.614   5.003   2.604
 4868SOL    HW115503   6.582   5.045   2.689
 4868SOL    HW215504   6.601   5.068   2.529
 4869SOL     OW15505   1.711   1.672   1.861
 4869SOL    HW115506   1.645   1.624   1.802
 4869SOL    HW215507   1.722   1.766   1.829
 4870SOL     OW15508   0.620   6.301   2.021
 4870SOL    HW115509   0.638   6.342   1.931
 4870SOL    HW215510   0.681   6.342   2.089
 4871SOL     OW15511   0.880   1.080   3.362
 4871SOL    HW115512   0.862   1.104   3.266
 4871SOL    HW215513   0.844   0.989   3.381
 4872SOL     OW15514   5.856   0.262   3.216
 4872SOL    HW115515   5.888   0.206   3.292
 4872SOL    HW215516   5.932   0.283   3.155
 4873SOL     OW15517   6.911   5.318   4.058
 4873SOL    HW115518   6.941   5.387   3.992
 4873SOL    HW215519   6.914   5.228   4.016
 4874SOL     OW15520   5.314   3.864   2.398
 4874SOL    HW115521   5.290   3.775   2.358
 4874SOL    HW215522   5.413   3.869   2.411
 4875SOL     OW15523   6.308   1.268   0.250
 4875SOL    HW115524   6.367   1.343   0.280
 4875SOL    HW215525   6.362   1.202   0.198
 4876SOL     OW15526   6.633   1.749   3.397
 4876SOL    HW115527   6.653   1.841   3.363
 4876SOL    HW215528   6.564   1.754   3.469
 4877SOL     OW15529   0.450   1.638   5.595
 4877SOL    HW115530   0.442   1.605   5.501
 4877SOL    HW215531   0.427   1.735   5.599
 4878SOL     OW15532   6.529   1.275   1.651
 4878SOL    HW115533   6.560   1.209   1.719
 4878SOL    HW215534   6.601   1.343   1.635
 4879SOL     OW15535   4.271   1.731   1.957
 4879SOL    HW115536   4.189   1.773   1.997
 4879SOL    HW215537   4.330   1.803   1.920
 4880SOL     OW15538   5.559   3.386   0.032
 4880SOL    HW115539   5.466   3.349   0.033
 4880SOL    HW215540   5.555   3.483   0.008
 4881SOL     OW15541   1.610   1.459   0.060
 4881SOL    HW115542   1.705   1.427   0.061
 4881SOL    HW215543   1.556   1.402   0.122
 4882SOL     OW15544   4.767   0.998   4.877
 4882SOL    HW115545   4.729   1.054   4.950
 4882SOL    HW215546   4.866   0.993   4.887
 4883SOL     OW15547   4.960   4.447   1.401
 4883SOL    HW115548   5.046   4.396   1.407
 4883SOL    HW215549   4.893   4.406   1.463
 4884SOL     OW15550   2.888   5.893   1.507
 4884SOL    HW115551   2.988   5.906   1.509
 4884SOL    HW215552   2.861   5.863   1.415
 4885SOL     OW15553   2.220   5.342   0.975
 4885SOL    HW115554   2.255   5.416   1.033
 4885SOL    HW215555   2.297   5.294   0.933
 4886SOL     OW15556   2.176   6.382   1.727
 4886SOL    HW115557   2.206   6.364   1.634
 4886SOL    HW215558   2.084   6.422   1.725
 4887SOL     OW15559   6.937   6.685   1.333
 4887SOL    HW115560   6.851   6.635   1.343
 4887SOL    HW215561   6.959   6.693   1.236
 4888SOL     OW15562   2.895   0.004   4.158
 4888SOL    HW115563   2.970   6.961   4.136
 4888SOL    HW215564   2.923   0.098   4.139
 4889SOL     OW15565   0.122   1.598   5.098
 4889SOL    HW115566   0.038   1.623   5.145
 4889SOL    HW215567   0.152   1.674   5.041
 4890SOL     OW15568   6.983   1.221   5.508
 4890SOL    HW115569   6.920   1.185   5.438
 4890SOL    HW215570   0.027   1.285   5.465
 4891SOL     OW15571   2.223   4.726   0.073
 4891SOL    HW115572   2.192   4.784   0.148
 4891SOL    HW215573   2.227   4.779   7.008
 4892SOL     OW15574   4.005   5.706   2.262
 4892SOL    HW115575   4.015   5.709   2.162
 4892SOL    HW215576   4.085   5.747   2.305
 4893SOL     OW15577   5.794   2.928   1.984
 4893SOL    HW115578   5.811   2.894   1.891
 4893SOL    HW215579   5.874   2.908   2.042
 4894SOL     OW15580   3.767   0.848   2.952
 4894SOL    HW115581   3.701   0.922   2.959
 4894SOL    HW215582   3.733   0.779   2.889
 4895SOL     OW15583   0.784   4.693   4.085
 4895SOL    HW115584   0.736   4.764   4.136
 4895SOL    HW215585   0.779   4.713   3.987
 4896SOL     OW15586   2.212   4.430   2.243
 4896SOL    HW115587   2.243   4.525   2.236
 4896SOL    HW215588   2.242   4.379   2.162
 4897SOL     OW15589   1.587   5.012   5.499
 4897SOL    HW115590   1.571   5.101   5.457
 4897SOL    HW215591   1.508   4.953   5.484
 4898SOL     OW15592   4.321   1.041   4.957
 4898SOL    HW115593   4.261   1.103   5.008
 4898SOL    HW215594   4.384   0.996   5.021
 4899SOL     OW15595   5.895   5.293   3.109
 4899SOL    HW115596   5.832   5.226   3.149
 4899SOL    HW215597   5.848   5.380   3.096
 4900SOL     OW15598   3.870   6.174   5.111
 4900SOL    HW115599   3.918   6.178   5.024
 4900SOL    HW215600   3.883   6.260   5.161
 4901SOL     OW15601   2.127   1.742   5.287
 4901SOL    HW115602   2.172   1.743   5.198
 4901SOL    HW215603   2.063   1.819   5.293
 4902SOL     OW15604   1.733   1.500   4.573
 4902SOL    HW115605   1.641   1.465   4.555
 4902SOL    HW215606   1.800   1.443   4.526
 4903SOL     OW15607   3.886   5.498   6.923
 4903SOL    HW115608   3.967   5.524   6.976
 4903SOL    HW215609   3.811   5.561   6.944
 4904SOL     OW15610   1.838   0.032   5.720
 4904SOL    HW115611   1.903   0.104   5.696
 4904SOL    HW215612   1.877   6.993   5.791
 4905SOL     OW15613   3.621   0.690   3.289
 4905SOL    HW115614   3.718   0.672   3.302
 4905SOL    HW215615   3.567   0.613   3.323
 4906SOL     OW15616   5.056   2.012   6.361
 4906SOL    HW115617   4.960   2.020   6.334
 4906SOL    HW215618   5.115   2.044   6.286
 4907SOL     OW15619   4.615   6.777   1.872
 4907SOL    HW115620   4.640   6.685   1.901
 4907SOL    HW215621   4.610   6.837   1.953
 4908SOL     OW15622   5.617   6.558   6.821
 4908SOL    HW115623   5.550   6.484   6.834
 4908SOL    HW215624   5.707   6.518   6.806
 4909SOL     OW15625   0.059   5.589   3.316
 4909SOL    HW115626   0.154   5.588   3.284
 4909SOL    HW215627   0.031   5.684   3.332
 4910SOL     OW15628   5.314   0.859   4.356
 4910SOL    HW115629   5.256   0.898   4.284
 4910SOL    HW215630   5.408   0.852   4.322
 4911SOL     OW15631   1.712   3.972   3.209
 4911SOL    HW115632   1.640   4.032   3.176
 4911SOL    HW215633   1.689   3.939   3.301
 4912SOL     OW15634   5.830   1.664   6.302
 4912SOL    HW115635   5.814   1.648   6.400
 4912SOL    HW215636   5.745   1.690   6.258
 4913SOL     OW15637   3.993   3.107   4.939
 4913SOL    HW115638   3.960   3.051   5.014
 4913SOL    HW215639   4.015   3.049   4.861
 4914SOL     OW15640   4.659   6.538   4.965
 4914SOL    HW115641   4.587   6.549   4.897
 4914SOL    HW215642   4.626   6.570   5.054
 4915SOL     OW15643   2.441   6.066   5.683
 4915SOL    HW115644   2.464   6.049   5.779
 4915SOL    HW215645   2.424   6.164   5.670
 4916SOL     OW15646   0.779   0.922   3.760
 4916SOL    HW115647   0.721   0.990   3.716
 4916SOL    HW215648   0.737   0.831   3.751
 4917SOL     OW15649   2.575   5.611   1.302
 4917SOL    HW115650   2.529   5.523   1.290
 4917SOL    HW215651   2.664   5.596   1.347
 4918SOL     OW15652   5.470   6.070   2.215
 4918SOL    HW115653   5.507   6.141   2.155
 4918SOL    HW215654   5.426   6.112   2.294
 4919SOL     OW15655   2.655   3.192   1.020
 4919SOL    HW115656   2.739   3.245   1.027
 4919SOL    HW215657   2.676   3.102   0.982
 4920SOL     OW15658   5.548   0.055   4.642
 4920SOL    HW115659   5.630   0.011   4.605
 4920SOL    HW215660   5.567   0.151   4.662
 4921SOL     OW15661   1.277   5.895   0.050
 4921SOL    HW115662   1.249   5.824   7.004
 4921SOL    HW215663   1.358   5.864   0.100
 4922SOL     OW15664   2.949   2.264   4.271
 4922SOL    HW115665   2.954   2.262   4.171
 4922SOL    HW215666   2.994   2.183   4.308
 4923SOL     OW15667   3.356   0.860   2.431
 4923SOL    HW115668   3.380   0.954   2.409
 4923SOL    HW215669   3.407   0.798   2.372
 4924SOL     OW15670   3.432   1.282   4.103
 4924SOL    HW115671   3.485   1.213   4.053
 4924SOL    HW215672   3.493   1.340   4.156
 4925SOL     OW15673   5.587   0.557   2.245
 4925SOL    HW115674   5.681   0.561   2.279
 4925SOL    HW215675   5.546   0.649   2.249
 4926SOL     OW15676   5.903   1.830   1.428
 4926SOL    HW115677   5.908   1.732   1.408
 4926SOL    HW215678   5.820   1.849   1.480
 4927SOL     OW15679   2.932   3.799   4.665
 4927SOL    HW115680   2.883   3.742   4.730
 4927SOL    HW215681   2.984   3.869   4.714
 4928SOL     OW15682   1.559   1.043   0.221
 4928SOL    HW115683   1.512   0.996   0.295
 4928SOL    HW215684   1.652   1.006   0.212
 4929SOL     OW15685   6.562   0.263   4.767
 4929SOL    HW115686   6.541   0.260   4.864
 4929SOL    HW215687   6.492   0.213   4.716
 4930SOL     OW15688   5.634   0.529   2.856
 4930SOL    HW115689   5.681   0.442   2.842
 4930SOL    HW215690   5.611   0.539   2.953
 4931SOL     OW15691   6.150   6.558   1.294
 4931SOL    HW115692   6.203   6.575   1.211
 4931SOL    HW215693   6.079   6.490   1.274
 4932SOL     OW15694   4.048   3.173   2.807
 4932SOL    HW115695   4.009   3.260   2.778
 4932SOL    HW215696   4.026   3.102   2.739
 4933SOL     OW15697   2.569   6.935   2.517
 4933SOL    HW115698   2.634   7.008   2.495
 4933SOL    HW215699   2.615   6.865   2.572
 4934SOL     OW15700   3.433   5.979   3.012
 4934SOL    HW115701   3.430   6.003   2.915
 4934SOL    HW215702   3.528   5.962   3.039
 4935SOL     OW15703   1.696   1.898   6.342
 4935SOL    HW115704   1.779   1.868   6.295
 4935SOL    HW215705   1.716   1.913   6.439
 4936SOL     OW15706   3.592   5.117   1.461
 4936SOL    HW115707   3.657   5.094   1.389
 4936SOL    HW215708   3.542   5.200   1.436
 4937SOL     OW15709   6.006   3.303   5.832
 4937SOL    HW115710   5.933   3.234   5.832
 4937SOL    HW215711   6.000   3.358   5.915
 4938SOL     OW15712   1.640   5.447   5.758
 4938SOL    HW115713   1.679   5.417   5.845
 4938SOL    HW215714   1.669   5.541   5.739
 4939SOL     OW15715   5.313   1.937   4.861
 4939SOL    HW115716   5.297   1.966   4.955
 4939SOL    HW215717   5.229   1.897   4.824
 4940SOL     OW15718   0.734   1.267   4.621
 4940SOL    HW115719   0.823   1.293   4.659
 4940SOL    HW215720   0.678   1.349   4.609
 4941SOL     OW15721   4.459   2.023   6.113
 4941SOL    HW115722   4.545   2.023   6.062
 4941SOL    HW215723   4.433   1.929   6.134
 4942SOL     OW15724   5.204   3.108   5.624
 4942SOL    HW115725   5.120   3.156   5.598
 4942SOL    HW215726   5.184   3.042   5.696
 4943SOL     OW15727   3.936   3.301   0.399
 4943SOL    HW115728   3.984   3.387   0.421
 4943SOL    HW215729   4.003   3.230   0.378
 4944SOL     OW15730   2.307   4.206   2.779
 4944SOL    HW115731   2.323   4.184   2.683
 4944SOL    HW215732   2.212   4.238   2.791
 4945SOL     OW15733   1.013   0.957   3.887
 4945SOL    HW115734   1.020   1.056   3.899
 4945SOL    HW215735   0.928   0.935   3.838
 4946SOL     OW15736   0.247   3.173   1.361
 4946SOL    HW115737   0.280   3.158   1.454
 4946SOL    HW215738   0.270   3.093   1.305
 4947SOL     OW15739   1.353   0.876   1.075
 4947SOL    HW115740   1.391   0.889   0.984
 4947SOL    HW215741   1.300   0.956   1.101
 4948SOL     OW15742   2.416   0.368   2.841
 4948SOL    HW115743   2.513   0.365   2.866
 4948SOL    HW215744   2.364   0.407   2.917
 4949SOL     OW15745   4.708   6.844   5.243
 4949SOL    HW115746   4.688   6.918   5.306
 4949SOL    HW215747   4.790   6.795   5.274
 4950SOL     OW15748   3.013   5.504   4.041
 4950SOL    HW115749   2.952   5.550   4.106
 4950SOL    HW215750   2.984   5.410   4.028
 4951SOL     OW15751   5.401   1.653   4.983
 4951SOL    HW115752   5.418   1.748   4.956
 4951SOL    HW215753   5.482   1.597   4.962
 4952SOL     OW15754   0.354   0.958   4.877
 4952SOL    HW115755   0.446   0.990   4.857
 4952SOL    HW215756   0.356   0.892   4.953
 4953SOL     OW15757   1.832   6.538   2.100
 4953SOL    HW115758   1.837   6.491   2.189
 4953SOL    HW215759   1.764   6.493   2.043
 4954SOL     OW15760   4.735   4.193   6.761
 4954SOL    HW115761   4.673   4.204   6.683
 4954SOL    HW215762   4.689   4.141   6.833
 4955SOL     OW15763   1.700   6.922   6.279
 4955SOL    HW115764   1.752   6.846   6.240
 4955SOL    HW215765   1.606   6.919   6.244
 4956SOL     OW15766   2.934   6.935   4.897
 4956SOL    HW115767   2.898   0.008   4.907
 4956SOL    HW215768   2.870   6.881   4.842
 4957SOL     OW15769   0.267   1.065   3.429
 4957SOL    HW115770   0.234   0.970   3.427
 4957SOL    HW215771   0.305   1.085   3.519
 4958SOL     OW15772   6.913   6.347   5.709
 4958SOL    HW115773   6.846   6.273   5.702
 4958SOL    HW215774   6.910   6.386   5.801
 4959SOL     OW15775   6.726   1.317   6.276
 4959SOL    HW115776   6.721   1.219   6.295
 4959SOL    HW215777   6.821   1.343   6.256
 4960SOL     OW15778   3.447   6.028   3.698
 4960SOL    HW115779   3.544   6.034   3.674
 4960SOL    HW215780   3.421   6.109   3.751
 4961SOL     OW15781   5.289   1.681   5.584
 4961SOL    HW115782   5.310   1.732   5.668
 4961SOL    HW215783   5.263   1.587   5.608
 4962SOL     OW15784   5.960   3.109   1.468
 4962SOL    HW115785   5.988   3.026   1.518
 4962SOL    HW215786   5.987   3.101   1.372
 4963SOL     OW15787   5.808   5.945   0.566
 4963SOL    HW115788   5.745   5.958   0.489
 4963SOL    HW215789   5.883   5.885   0.538
 4964SOL     OW15790   3.504   6.394   3.457
 4964SOL    HW115791   3.579   6.410   3.393
 4964SOL    HW215792   3.424   6.359   3.407
 4965SOL     OW15793   0.061   0.197   3.944
 4965SOL    HW115794   0.065   0.148   3.857
 4965SOL    HW215795   0.153   0.217   3.976
 4966SOL     OW15796   2.164   7.001   5.140
 4966SOL    HW115797   2.094   6.948   5.188
 4966SOL    HW215798   2.254   6.966   5.163
 4967SOL     OW15799   3.795   3.177   6.028
 4967SOL    HW115800   3.771   3.128   5.944
 4967SOL    HW215801   3.869   3.241   6.009
 4968SOL     OW15802   5.356   3.099   3.166
 4968SOL    HW115803   5.386   3.158   3.240
 4968SOL    HW215804   5.274   3.049   3.194
 4969SOL     OW15805   2.057   1.105   2.042
 4969SOL    HW115806   1.981   1.146   1.991
 4969SOL    HW215807   2.143   1.123   1.994
 4970SOL     OW15808   1.483   2.314   4.729
 4970SOL    HW115809   1.543   2.390   4.752
 4970SOL    HW215810   1.508   2.277   4.640
 4971SOL     OW15811   6.438   6.064   3.434
 4971SOL    HW115812   6.403   6.157   3.423
 4971SOL    HW215813   6.361   6.002   3.448
 4972SOL     OW15814   1.649   3.014   0.596
 4972SOL    HW115815   1.721   3.035   0.662
 4972SOL    HW215816   1.624   3.098   0.547
 4973SOL     OW15817   6.779   7.004   1.710
 4973SOL    HW115818   6.785   6.906   1.691
 4973SOL    HW215819   6.775   0.000   1.808
 4974SOL     OW15820   6.204   4.463   0.933
 4974SOL    HW115821   6.153   4.423   0.857
 4974SOL    HW215822   6.302   4.455   0.916
 4975SOL     OW15823   5.902   5.968   6.725
 4975SOL    HW115824   5.890   5.890   6.786
 4975SOL    HW215825   5.837   5.961   6.649
 4976SOL     OW15826   3.328   0.241   4.551
 4976SOL    HW115827   3.388   0.261   4.474
 4976SOL    HW215828   3.296   0.326   4.591
 4977SOL     OW15829   4.584   4.069   0.805
 4977SOL    HW115830   4.643   4.135   0.851
 4977SOL    HW215831   4.625   3.978   0.808
 4978SOL     OW15832   6.967   3.345   5.967
 4978SOL    HW115833   0.022   3.281   5.986
 4978SOL    HW215834   6.993   3.437   5.998
 4979SOL     OW15835   6.820   1.256   5.229
 4979SOL    HW115836   6.757   1.182   5.207
 4979SOL    HW215837   6.788   1.305   5.310
 4980SOL     OW15838   4.602   6.959   3.560
 4980SOL    HW115839   4.689   6.920   3.591
 4980SOL    HW215840   4.600   0.037   3.581
 4981SOL     OW15841   4.748   5.493   5.897
 4981SOL    HW115842   4.756   5.558   5.973
 4981SOL    HW215843   4.656   5.497   5.859
 4982SOL     OW15844   2.454   1.676   6.976
 4982SOL    HW115845   2.510   1.758   6.964
 4982SOL    HW215846   2.500   1.614   0.021
 4983SOL     OW15847   5.106   3.004   4.475
 4983SOL    HW115848   5.049   2.941   4.529
 4983SOL    HW215849   5.071   3.097   4.484
 4984SOL     OW15850   5.456   3.616   4.038
 4984SOL    HW115851   5.457   3.703   4.087
 4984SOL    HW215852   5.548   3.576   4.039
 4985SOL     OW15853   6.883   5.999   3.702
 4985SOL    HW115854   6.827   5.920   3.679
 4985SOL    HW215855   6.824   6.077   3.724
 4986SOL     OW15856   6.775   4.683   3.291
 4986SOL    HW115857   6.784   4.593   3.250
 4986SOL    HW215858   6.837   4.747   3.245
 4987SOL     OW15859   0.563   2.301   1.257
 4987SOL    HW115860   0.492   2.303   1.187
 4987SOL    HW215861   0.525   2.330   1.345
 4988SOL     OW15862   6.770   1.389   3.597
 4988SOL    HW115863   6.828   1.401   3.516
 4988SOL    HW215864   6.675   1.410   3.573
 4989SOL     OW15865   5.947   0.797   1.248
 4989SOL    HW115866   5.930   0.781   1.150
 4989SOL    HW215867   6.040   0.831   1.260
 4990SOL     OW15868   1.218   1.469   6.203
 4990SOL    HW115869   1.146   1.452   6.135
 4990SOL    HW215870   1.189   1.435   6.292
 4991SOL     OW15871   0.770   4.153   3.623
 4991SOL    HW115872   0.765   4.249   3.596
 4991SOL    HW215873   0.677   4.116   3.632
 4992SOL     OW15874   5.117   0.472   3.944
 4992SOL    HW115875   5.181   0.548   3.943
 4992SOL    HW215876   5.049   0.487   4.016
 4993SOL     OW15877   2.709   4.763   3.804
 4993SOL    HW115878   2.808   4.755   3.815
 4993SOL    HW215879   2.689   4.808   3.717
 4994SOL     OW15880   1.193   0.386   2.179
 4994SOL    HW115881   1.286   0.381   2.217
 4994SOL    HW215882   1.150   0.471   2.208
 4995SOL     OW15883   6.627   3.035   5.989
 4995SOL    HW115884   6.568   2.954   5.979
 4995SOL    HW215885   6.628   3.086   5.903
 4996SOL     OW15886   1.794   0.612   2.498
 4996SOL    HW115887   1.800   0.513   2.490
 4996SOL    HW215888   1.877   0.648   2.540
 4997SOL     OW15889   6.174   2.268   2.815
 4997SOL    HW115890   6.076   2.287   2.818
 4997SOL    HW215891   6.214   2.286   2.904
 4998SOL     OW15892   2.121   3.798   4.920
 4998SOL    HW115893   2.200   3.842   4.962
 4998SOL    HW215894   2.133   3.699   4.922
 4999SOL     OW15895   5.217   5.873   1.084
 4999SOL    HW115896   5.293   5.823   1.125
 4999SOL    HW215897   5.186   5.945   1.145
 5000SOL     OW15898   1.208   0.325   4.265
 5000SOL    HW115899   1.218   0.377   4.349
 5000SOL    HW215900   1.296   0.318   4.219
 5001SOL     OW15901   1.720   4.168   5.859
 5001SOL    HW115902   1.685   4.245   5.912
 5001SOL    HW215903   1.712   4.084   5.913
 5002SOL     OW15904   1.369   2.968   3.178
 5002SOL    HW115905   1.311   3.046   3.155
 5002SOL    HW215906   1.462   2.985   3.145
 5003SOL     OW15907   0.945   6.184   3.327
 5003SOL    HW115908   0.915   6.124   3.252
 5003SOL    HW215909   0.998   6.131   3.393
 5004SOL     OW15910   2.484   5.346   5.625
 5004SOL    HW115911   2.542   5.392   5.693
 5004SOL    HW215912   2.462   5.254   5.658
 5005SOL     OW15913   3.239   2.344   0.638
 5005SOL    HW115914   3.319   2.293   0.605
 5005SOL    HW215915   3.269   2.413   0.703
 5006SOL     OW15916   5.291   6.986   6.317
 5006SOL    HW115917   5.323   6.901   6.274
 5006SOL    HW215918   5.229   0.014   6.256
 5007SOL     OW15919   2.400   0.340   6.374
 5007SOL    HW115920   2.393   0.439   6.383
 5007SOL    HW215921   2.325   0.307   6.316
 5008SOL     OW15922   6.888   6.843   4.054
 5008SOL    HW115923   6.875   6.916   4.121
 5008SOL    HW215924   6.982   6.810   4.059
 5009SOL     OW15925   2.066   6.848   1.830
 5009SOL    HW115926   1.979   6.805   1.804
 5009SOL    HW215927   2.062   6.876   1.926
 5010SOL     OW15928   3.149   3.407   3.516
 5010SOL    HW115929   3.051   3.415   3.497
 5010SOL    HW215930   3.182   3.493   3.555
 5011SOL     OW15931   2.088   3.644   2.254
 5011SOL    HW115932   2.128   3.727   2.292
 5011SOL    HW215933   2.151   3.605   2.186
 5012SOL     OW15934   5.481   3.048   0.056
 5012SOL    HW115935   5.408   3.115   0.041
 5012SOL    HW215936   5.532   3.035   6.991
 5013SOL     OW15937   5.126   0.958   0.033
 5013SOL    HW115938   5.031   0.978   0.056
 5013SOL    HW215939   5.187   1.022   0.081
 5014SOL     OW15940   5.483   5.484   0.820
 5014SOL    HW115941   5.451   5.573   0.785
 5014SOL    HW215942   5.543   5.499   0.899
 5015SOL     OW15943   4.341   1.842   3.703
 5015SOL    HW115944   4.313   1.769   3.766
 5015SOL    HW215945   4.351   1.804   3.611
 5016SOL     OW15946   2.707   1.671   2.072
 5016SOL    HW115947   2.745   1.646   2.161
 5016SOL    HW215948   2.615   1.708   2.085
 5017SOL     OW15949   1.957   2.637   0.683
 5017SOL    HW115950   1.986   2.565   0.748
 5017SOL    HW215951   1.993   2.615   0.592
 5018SOL     OW15952   0.784   4.926   1.098
 5018SOL    HW115953   0.685   4.933   1.084
 5018SOL    HW215954   0.802   4.881   1.186
 5019SOL     OW15955   2.798   4.297   0.132
 5019SOL    HW115956   2.889   4.336   0.145
 5019SOL    HW215957   2.777   4.236   0.208
 5020SOL     OW15958   4.972   6.512   5.468
 5020SOL    HW115959   4.896   6.466   5.424
 5020SOL    HW215960   4.953   6.610   5.474
 5021SOL     OW15961   1.381   2.949   5.526
 5021SOL    HW115962   1.385   2.954   5.426
 5021SOL    HW215963   1.402   2.856   5.555
 5022SOL     OW15964   1.605   0.585   1.086
 5022SOL    HW115965   1.656   0.567   1.171
 5022SOL    HW215966   1.551   0.669   1.097
 5023SOL     OW15967   6.745   3.485   1.005
 5023SOL    HW115968   6.752   3.386   0.995
 5023SOL    HW215969   6.651   3.514   0.983
 5024SOL     OW15970   6.672   4.363   2.933
 5024SOL    HW115971   6.681   4.373   3.032
 5024SOL    HW215972   6.721   4.436   2.887
 5025SOL     OW15973   4.403   1.950   1.900
 5025SOL    HW115974   4.477   2.012   1.924
 5025SOL    HW215975   4.317   2.001   1.898
 5026SOL     OW15976   5.850   5.861   6.201
 5026SOL    HW115977   5.846   5.959   6.217
 5026SOL    HW215978   5.774   5.834   6.142
 5027SOL     OW15979   0.652   0.078   2.464
 5027SOL    HW115980   0.704   0.141   2.521
 5027SOL    HW215981   0.684   0.084   2.369
 5028SOL     OW15982   0.248   6.423   2.083
 5028SOL    HW115983   0.325   6.425   2.020
 5028SOL    HW215984   0.224   6.517   2.109
 5029SOL     OW15985   7.014   3.126   3.148
 5029SOL    HW115986   0.077   3.070   3.158
 5029SOL    HW215987   6.971   3.106   3.060
 5030SOL     OW15988   6.501   0.565   0.042
 5030SOL    HW115989   6.468   0.471   0.034
 5030SOL    HW215990   6.431   0.628   0.007
 5031SOL     OW15991   5.605   1.484   4.954
 5031SOL    HW115992   5.658   1.444   5.030
 5031SOL    HW215993   5.668   1.509   4.880
 5032SOL     OW15994   1.333   4.124   1.029
 5032SOL    HW115995   1.269   4.140   0.954
 5032SOL    HW215996   1.353   4.026   1.036
 5033SOL     OW15997   1.662   4.706   0.048
 5033SOL    HW115998   1.708   4.737   6.984
 5033SOL    HW215999   1.708   4.624   0.083
 5034SOL     OW16000   6.814   3.511   2.132
 5034SOL    HW116001   6.761   3.591   2.105
 5034SOL    HW216002   6.788   3.484   2.225
 5035SOL     OW16003   5.836   4.883   1.232
 5035SOL    HW116004   5.888   4.853   1.312
 5035SOL    HW216005   5.868   4.974   1.204
 5036SOL     OW16006   0.450   5.632   6.859
 5036SOL    HW116007   0.469   5.724   6.824
 5036SOL    HW216008   0.383   5.587   6.800
 5037SOL     OW16009   4.568   2.620   2.560
 5037SOL    HW116010   4.540   2.576   2.645
 5037SOL    HW216011   4.607   2.709   2.580
 5038SOL     OW16012   1.790   5.012   5.889
 5038SOL    HW116013   1.721   4.947   5.857
 5038SOL    HW216014   1.792   5.091   5.828
 5039SOL     OW16015   2.183   3.580   5.174
 5039SOL    HW116016   2.271   3.563   5.219
 5039SOL    HW216017   2.183   3.538   5.083
 5040SOL     OW16018   2.626   4.059   6.566
 5040SOL    HW116019   2.593   3.990   6.501
 5040SOL    HW216020   2.549   4.104   6.610
 5041SOL     OW16021   0.753   3.864   1.241
 5041SOL    HW116022   0.817   3.939   1.259
 5041SOL    HW216023   0.704   3.841   1.324
 5042SOL     OW16024   0.386   2.848   0.033
 5042SOL    HW116025   0.315   2.871   6.985
 5042SOL    HW216026   0.347   2.789   0.103
 5043SOL     OW16027   3.242   0.911   5.473
 5043SOL    HW116028   3.310   0.984   5.472
 5043SOL    HW216029   3.250   0.858   5.558
 5044SOL     OW16030   6.276   6.852   3.310
 5044SOL    HW116031   6.220   6.894   3.381
 5044SOL    HW216032   6.299   6.758   3.336
 5045SOL     OW16033   5.012   3.712   0.470
 5045SOL    HW116034   4.984   3.624   0.432
 5045SOL    HW216035   5.074   3.758   0.406
 5046SOL     OW16036   3.816   2.975   4.606
 5046SOL    HW116037   3.862   3.063   4.614
 5046SOL    HW216038   3.796   2.939   4.697
 5047SOL     OW16039   6.385   2.086   2.662
 5047SOL    HW116040   6.325   2.103   2.741
 5047SOL    HW216041   6.479   2.072   2.694
 5048SOL     OW16042   6.156   2.331   1.186
 5048SOL    HW116043   6.058   2.343   1.172
 5048SOL    HW216044   6.186   2.386   1.264
 5049SOL     OW16045   6.851   0.826   3.270
 5049SOL    HW116046   6.897   0.815   3.358
 5049SOL    HW216047   6.789   0.748   3.255
 5050SOL     OW16048   0.364   1.434   2.389
 5050SOL    HW116049   0.333   1.340   2.403
 5050SOL    HW216050   0.355   1.458   2.292
 5051SOL     OW16051   3.961   2.949   0.330
 5051SOL    HW116052   3.968   2.878   0.261
 5051SOL    HW216053   3.890   3.015   0.303
 5052SOL     OW16054   2.537   5.013   6.400
 5052SOL    HW116055   2.626   5.033   6.361
 5052SOL    HW216056   2.468   5.008   6.328
 5053SOL     OW16057   1.910   3.774   3.218
 5053SOL    HW116058   1.837   3.842   3.219
 5053SOL    HW216059   1.928   3.745   3.124
 5054SOL     OW16060   3.863   5.818   4.951
 5054SOL    HW116061   3.816   5.791   5.035
 5054SOL    HW216062   3.952   5.771   4.946
 5055SOL     OW16063   6.931   1.473   4.447
 5055SOL    HW116064   6.874   1.450   4.368
 5055SOL    HW216065   6.922   1.401   4.516
 5056SOL     OW16066   6.394   3.902   6.137
 5056SOL    HW116067   6.491   3.902   6.161
 5056SOL    HW216068   6.345   3.965   6.197
 5057SOL     OW16069   1.309   5.385   3.650
 5057SOL    HW116070   1.328   5.411   3.556
 5057SOL    HW216071   1.391   5.343   3.691
 5058SOL     OW16072   3.444   3.743   6.656
 5058SOL    HW116073   3.365   3.710   6.708
 5058SOL    HW216074   3.485   3.667   6.605
 5059SOL     OW16075   5.230   3.369   4.875
 5059SOL    HW116076   5.141   3.375   4.921
 5059SOL    HW216077   5.243   3.276   4.840
 5060SOL     OW16078   0.037   2.584   5.278
 5060SOL    HW116079   0.023   2.666   5.333
 5060SOL    HW216080   0.030   2.608   5.181
 5061SOL     OW16081   2.907   3.530   3.726
 5061SOL    HW116082   2.901   3.504   3.629
 5061SOL    HW216083   2.986   3.486   3.768
 5062SOL     OW16084   5.984   1.305   2.146
 5062SOL    HW116085   5.938   1.217   2.138
 5062SOL    HW216086   5.936   1.362   2.213
 5063SOL     OW16087   1.085   6.095   1.436
 5063SOL    HW116088   1.032   6.159   1.381
 5063SOL    HW216089   1.049   6.095   1.530
 5064SOL     OW16090   4.688   5.716   1.032
 5064SOL    HW116091   4.667   5.692   1.127
 5064SOL    HW216092   4.697   5.632   0.978
 5065SOL     OW16093   1.344   0.502   2.779
 5065SOL    HW116094   1.330   0.536   2.872
 5065SOL    HW216095   1.298   0.413   2.768
 5066SOL     OW16096   2.532   4.358   1.245
 5066SOL    HW116097   2.587   4.335   1.325
 5066SOL    HW216098   2.563   4.445   1.206
 5067SOL     OW16099   4.526   2.049   2.212
 5067SOL    HW116100   4.566   2.070   2.123
 5067SOL    HW216101   4.431   2.081   2.214
 5068SOL     OW16102   2.985   5.941   0.075
 5068SOL    HW116103   2.902   5.886   0.072
 5068SOL    HW216104   2.965   6.030   0.116
 5069SOL     OW16105   2.017   3.023   5.768
 5069SOL    HW116106   2.009   2.958   5.843
 5069SOL    HW216107   2.087   3.090   5.789
 5070SOL     OW16108   5.753   4.072   4.564
 5070SOL    HW116109   5.810   4.123   4.499
 5070SOL    HW216110   5.799   4.066   4.652
 5071SOL     OW16111   4.333   2.253   3.333
 5071SOL    HW116112   4.404   2.183   3.332
 5071SOL    HW216113   4.330   2.299   3.244
 5072SOL     OW16114   2.224   1.629   1.802
 5072SOL    HW116115   2.223   1.533   1.774
 5072SOL    HW216116   2.301   1.675   1.758
 5073SOL     OW16117   1.756   5.553   1.564
 5073SOL    HW116118   1.702   5.536   1.647
 5073SOL    HW216119   1.848   5.583   1.590
 5074SOL     OW16120   3.853   1.814   1.671
 5074SOL    HW116121   3.850   1.877   1.748
 5074SOL    HW216122   3.827   1.862   1.587
 5075SOL     OW16123   0.676   2.431   0.110
 5075SOL    HW116124   0.744   2.359   0.122
 5075SOL    HW216125   0.721   2.516   0.084
 5076SOL     OW16126   5.211   0.148   6.759
 5076SOL    HW116127   5.303   0.187   6.751
 5076SOL    HW216128   5.146   0.219   6.786
 5077SOL     OW16129   0.760   3.650   6.033
 5077SOL    HW116130   0.670   3.688   6.014
 5077SOL    HW216131   0.755   3.590   6.113
 5078SOL     OW16132   0.423   1.002   4.424
 5078SOL    HW116133   0.430   1.083   4.482
 5078SOL    HW216134   0.369   1.023   4.342
 5079SOL     OW16135   2.336   2.945   5.759
 5079SOL    HW116136   2.276   3.016   5.724
 5079SOL    HW216137   2.428   2.982   5.771
 5080SOL     OW16138   5.858   5.592   5.162
 5080SOL    HW116139   5.883   5.518   5.225
 5080SOL    HW216140   5.907   5.676   5.188
 5081SOL     OW16141   3.036   4.758   5.595
 5081SOL    HW116142   3.068   4.761   5.501
 5081SOL    HW216143   2.955   4.700   5.601
 5082SOL     OW16144   4.606   6.878   0.083
 5082SOL    HW116145   4.655   6.943   0.025
 5082SOL    HW216146   4.668   6.807   0.116
 5083SOL     OW16147   3.604   0.136   0.815
 5083SOL    HW116148   3.617   0.040   0.841
 5083SOL    HW216149   3.675   0.192   0.858
 5084SOL     OW16150   0.630   4.860   4.215
 5084SOL    HW116151   0.547   4.866   4.270
 5084SOL    HW216152   0.685   4.943   4.227
 5085SOL     OW16153   1.428   3.283   5.581
 5085SOL    HW116154   1.503   3.236   5.626
 5085SOL    HW216155   1.445   3.287   5.482
 5086SOL     OW16156   0.195   4.549   2.348
 5086SOL    HW116157   0.118   4.485   2.339
 5086SOL    HW216158   0.275   4.500   2.380
 5087SOL     OW16159   6.710   5.538   2.620
 5087SOL    HW116160   6.661   5.617   2.583
 5087SOL    HW216161   6.701   5.537   2.719
 5088SOL     OW16162   4.395   6.740   3.851
 5088SOL    HW116163   4.323   6.786   3.800
 5088SOL    HW216164   4.452   6.807   3.899
 5089SOL     OW16165   5.615   4.534   4.635
 5089SOL    HW116166   5.710   4.533   4.606
 5089SOL    HW216167   5.560   4.478   4.573
 5090SOL     OW16168   2.694   1.108   2.624
 5090SOL    HW116169   2.699   1.042   2.549
 5090SOL    HW216170   2.615   1.087   2.681
 5091SOL     OW16171   5.848   0.600   0.967
 5091SOL    HW116172   5.780   0.593   1.039
 5091SOL    HW216173   5.814   0.553   0.885
 5092SOL     OW16174   3.329   3.211   3.382
 5092SOL    HW116175   3.264   3.283   3.403
 5092SOL    HW216176   3.416   3.230   3.428
 5093SOL     OW16177   2.956   1.748   1.326
 5093SOL    HW116178   3.027   1.680   1.308
 5093SOL    HW216179   2.962   1.778   1.421
 5094SOL     OW16180   2.079   5.848   6.615
 5094SOL    HW116181   2.064   5.850   6.517
 5094SOL    HW216182   1.991   5.842   6.663
 5095SOL     OW16183   0.592   2.016   2.806
 5095SOL    HW116184   0.687   2.046   2.803
 5095SOL    HW216185   0.588   1.920   2.834
 5096SOL     OW16186   4.935   4.858   6.438
 5096SOL    HW116187   4.943   4.804   6.522
 5096SOL    HW216188   5.016   4.916   6.428
 5097SOL     OW16189   0.034   0.095   7.005
 5097SOL    HW116190   6.996   0.113   0.066
 5097SOL    HW216191   0.102   0.168   6.996
 5098SOL     OW16192   3.690   2.216   0.968
 5098SOL    HW116193   3.685   2.169   1.056
 5098SOL    HW216194   3.758   2.171   0.911
 5099SOL     OW16195   7.006   6.037   1.899
 5099SOL    HW116196   6.989   5.943   1.867
 5099SOL    HW216197   6.981   6.101   1.827
 5100SOL     OW16198   2.910   5.529   3.682
 5100SOL    HW116199   2.902   5.601   3.751
 5100SOL    HW216200   2.998   5.539   3.634
 5101SOL     OW16201   5.109   0.223   5.187
 5101SOL    HW116202   5.015   0.194   5.203
 5101SOL    HW216203   5.146   0.264   5.270
 5102SOL     OW16204   5.571   6.350   4.235
 5102SOL    HW116205   5.515   6.303   4.304
 5102SOL    HW216206   5.582   6.446   4.261
 5103SOL     OW16207   0.995   1.536   4.525
 5103SOL    HW116208   0.915   1.591   4.500
 5103SOL    HW216209   1.076   1.595   4.527
 5104SOL     OW16210   2.585   5.984   1.225
 5104SOL    HW116211   2.550   6.044   1.296
 5104SOL    HW216212   2.510   5.933   1.183
 5105SOL     OW16213   3.179   2.672   6.395
 5105SOL    HW116214   3.222   2.742   6.339
 5105SOL    HW216215   3.082   2.693   6.405
 5106SOL     OW16216   3.649   1.460   1.147
 5106SOL    HW116217   3.643   1.364   1.120
 5106SOL    HW216218   3.704   1.509   1.080
 5107SOL     OW16219   5.157   2.616   1.335
 5107SOL    HW116220   5.129   2.712   1.321
 5107SOL    HW216221   5.105   2.557   1.273
 5108SOL     OW16222   3.975   3.859   5.073
 5108SOL    HW116223   4.016   3.941   5.114
 5108SOL    HW216224   4.018   3.777   5.111
 5109SOL     OW16225   1.337   2.678   0.601
 5109SOL    HW116226   1.248   2.662   0.559
 5109SOL    HW216227   1.386   2.591   0.608
 5110SOL     OW16228   0.279   0.678   6.401
 5110SOL    HW116229   0.374   0.673   6.373
 5110SOL    HW216230   0.266   0.626   6.486
 5111SOL     OW16231   0.909   6.858   4.153
 5111SOL    HW116232   0.834   6.915   4.186
 5111SOL    HW216233   0.956   6.817   4.231
 5112SOL     OW16234   1.117   0.335   2.551
 5112SOL    HW116235   1.026   0.363   2.521
 5112SOL    HW216236   1.114   0.312   2.648
 5113SOL     OW16237   1.605   5.730   1.359
 5113SOL    HW116238   1.516   5.695   1.329
 5113SOL    HW216239   1.647   5.665   1.422
 5114SOL     OW16240   3.610   6.511   6.668
 5114SOL    HW116241   3.667   6.528   6.748
 5114SOL    HW216242   3.587   6.414   6.663
 5115SOL     OW16243   1.586   4.517   2.374
 5115SOL    HW116244   1.674   4.509   2.326
 5115SOL    HW216245   1.547   4.607   2.356
 5116SOL     OW16246   1.797   6.587   0.308
 5116SOL    HW116247   1.896   6.591   0.318
 5116SOL    HW216248   1.759   6.679   0.322
 5117SOL     OW16249   0.526   4.023   3.629
 5117SOL    HW116250   0.488   4.026   3.536
 5117SOL    HW216251   0.519   3.930   3.664
 5118SOL     OW16252   5.582   0.974   0.137
 5118SOL    HW116253   5.587   0.913   0.058
 5118SOL    HW216254   5.655   0.951   0.202
 5119SOL     OW16255   4.477   1.612   1.473
 5119SOL    HW116256   4.418   1.670   1.529
 5119SOL    HW216257   4.566   1.603   1.518
 5120SOL     OW16258   4.638   6.375   5.331
 5120SOL    HW116259   4.713   6.318   5.297
 5120SOL    HW216260   4.624   6.451   5.269
 5121SOL     OW16261   3.083   3.221   6.595
 5121SOL    HW116262   3.078   3.187   6.689
 5121SOL    HW216263   3.144   3.300   6.591
 5122SOL     OW16264   3.230   5.783   3.062
 5122SOL    HW116265   3.282   5.866   3.044
 5122SOL    HW216266   3.249   5.715   2.991
 5123SOL     OW16267   6.115   2.105   4.116
 5123SOL    HW116268   6.016   2.096   4.130
 5123SOL    HW216269   6.161   2.023   4.150
 5124SOL     OW16270   2.435   5.975   4.174
 5124SOL    HW116271   2.485   6.019   4.248
 5124SOL    HW216272   2.343   6.012   4.169
 5125SOL     OW16273   6.886   2.070   3.617
 5125SOL    HW116274   6.944   1.990   3.633
 5125SOL    HW216275   6.794   2.052   3.651
 5126SOL     OW16276   0.485   6.201   6.943
 5126SOL    HW116277   0.510   6.111   6.980
 5126SOL    HW216278   0.564   6.262   6.947
 5127SOL     OW16279   0.329   5.111   6.853
 5127SOL    HW116280   0.371   5.055   6.924
 5127SOL    HW216281   0.335   5.064   6.765
 5128SOL     OW16282   6.916   6.466   0.730
 5128SOL    HW116283   6.938   6.502   0.821
 5128SOL    HW216284   6.885   6.372   0.738
 5129SOL     OW16285   5.066   6.714   2.776
 5129SOL    HW116286   5.127   6.640   2.805
 5129SOL    HW216287   5.078   6.792   2.837
 5130SOL     OW16288   6.747   5.478   2.897
 5130SOL    HW116289   6.744   5.398   2.957
 5130SOL    HW216290   6.809   5.546   2.935
 5131SOL     OW16291   2.139   3.706   4.617
 5131SOL    HW116292   2.189   3.743   4.695
 5131SOL    HW216293   2.043   3.734   4.623
 5132SOL     OW16294   4.514   2.916   5.924
 5132SOL    HW116295   4.551   2.948   6.011
 5132SOL    HW216296   4.466   2.830   5.938
 5133SOL     OW16297   2.605   5.040   0.171
 5133SOL    HW116298   2.527   5.087   0.130
 5133SOL    HW216299   2.623   4.955   0.122
 5134SOL     OW16300   6.487   2.545   1.899
 5134SOL    HW116301   6.472   2.447   1.906
 5134SOL    HW216302   6.404   2.594   1.924
 5135SOL     OW16303   6.616   2.619   4.827
 5135SOL    HW116304   6.707   2.655   4.806
 5135SOL    HW216305   6.561   2.690   4.872
 5136SOL     OW16306   4.819   6.968   5.894
 5136SOL    HW116307   4.795   0.042   5.920
 5136SOL    HW216308   4.803   6.907   5.971
 5137SOL     OW16309   5.601   3.493   6.529
 5137SOL    HW116310   5.610   3.410   6.583
 5137SOL    HW216311   5.579   3.570   6.589
 5138SOL     OW16312   3.203   2.450   5.771
 5138SOL    HW116313   3.173   2.480   5.862
 5138SOL    HW216314   3.207   2.528   5.709
 5139SOL     OW16315   1.377   6.768   3.681
 5139SOL    HW116316   1.455   6.830   3.676
 5139SOL    HW216317   1.405   6.677   3.650
 5140SOL     OW16318   3.390   1.608   6.964
 5140SOL    HW116319   3.382   1.689   0.003
 5140SOL    HW216320   3.306   1.596   6.911
 5141SOL     OW16321   6.928   4.023   0.688
 5141SOL    HW116322   6.995   4.039   0.760
 5141SOL    HW216323   6.957   4.069   0.604
 5142SOL     OW16324   6.266   1.144   4.199
 5142SOL    HW116325   6.220   1.158   4.112
 5142SOL    HW216326   6.223   1.068   4.248
 5143SOL     OW16327   0.727   4.740   3.823
 5143SOL    HW116328   0.774   4.777   3.743
 5143SOL    HW216329   0.632   4.769   3.822
 5144SOL     OW16330   0.652   5.552   6.694
 5144SOL    HW116331   0.591   5.613   6.744
 5144SOL    HW216332   0.607   5.463   6.682
 5145SOL     OW16333   1.764   4.521   6.315
 5145SOL    HW116334   1.844   4.461   6.310
 5145SOL    HW216335   1.785   4.609   6.271
 5146SOL     OW16336   3.775   3.461   5.247
 5146SOL    HW116337   3.822   3.436   5.332
 5146SOL    HW216338   3.823   3.538   5.205
 5147SOL     OW16339   6.808   4.894   2.446
 5147SOL    HW116340   6.723   4.921   2.491
 5147SOL    HW216341   6.796   4.806   2.401
 5148SOL     OW16342   0.894   6.572   1.131
 5148SOL    HW116343   0.936   6.513   1.062
 5148SOL    HW216344   0.824   6.520   1.181
 5149SOL     OW16345   6.155   5.794   4.308
 5149SOL    HW116346   6.195   5.758   4.223
 5149SOL    HW216347   6.085   5.862   4.285
 5150SOL     OW16348   2.008   5.241   2.531
 5150SOL    HW116349   1.982   5.330   2.569
 5150SOL    HW216350   2.028   5.178   2.606
 5151SOL     OW16351   5.310   1.919   0.539
 5151SOL    HW116352   5.284   1.825   0.561
 5151SOL    HW216353   5.285   1.979   0.615
 5152SOL     OW16354   2.261   4.465   6.680
 5152SOL    HW116355   2.314   4.546   6.707
 5152SOL    HW216356   2.318   4.384   6.691
 5153SOL     OW16357   2.326   0.726   6.714
 5153SOL    HW116358   2.402   0.662   6.724
 5153SOL    HW216359   2.239   0.676   6.717
 5154SOL     OW16360   1.759   2.940   6.776
 5154SOL    HW116361   1.776   3.035   6.804
 5154SOL    HW216362   1.818   2.879   6.828
 5155SOL     OW16363   3.653   6.852   2.335
 5155SOL    HW116364   3.740   6.825   2.294
 5155SOL    HW216365   3.660   6.843   2.435
 5156SOL     OW16366   0.007   3.364   5.580
 5156SOL    HW116367   0.098   3.404   5.587
 5156SOL    HW216368   7.007   3.340   5.485
 5157SOL     OW16369   4.315   2.326   3.615
 5157SOL    HW116370   4.342   2.352   3.523
 5157SOL    HW216371   4.221   2.293   3.615
 5158SOL     OW16372   3.204   1.257   1.317
 5158SOL    HW116373   3.283   1.262   1.257
 5158SOL    HW216374   3.234   1.231   1.409
 5159SOL     OW16375   0.322   3.002   4.280
 5159SOL    HW116376   0.311   2.963   4.188
 5159SOL    HW216377   0.363   2.933   4.341
 5160SOL     OW16378   0.627   4.474   3.059
 5160SOL    HW116379   0.568   4.438   2.987
 5160SOL    HW216380   0.570   4.503   3.137
 5161SOL     OW16381   1.777   3.706   4.255
 5161SOL    HW116382   1.700   3.763   4.283
 5161SOL    HW216383   1.789   3.713   4.156
 5162SOL     OW16384   1.184   4.886   3.983
 5162SOL    HW116385   1.222   4.923   3.898
 5162SOL    HW216386   1.255   4.882   4.052
 5163SOL     OW16387   3.870   5.350   1.324
 5163SOL    HW116388   3.816   5.328   1.243
 5163SOL    HW216389   3.939   5.279   1.339
 5164SOL     OW16390   5.345   2.624   6.684
 5164SOL    HW116391   5.306   2.715   6.696
 5164SOL    HW216392   5.274   2.555   6.695
 5165SOL     OW16393   6.245   3.724   5.269
 5165SOL    HW116394   6.266   3.721   5.171
 5165SOL    HW216395   6.180   3.797   5.286
 5166SOL     OW16396   0.971   6.168   1.984
 5166SOL    HW116397   0.916   6.170   2.068
 5166SOL    HW216398   1.045   6.235   1.991
 5167SOL     OW16399   6.177   6.569   5.702
 5167SOL    HW116400   6.122   6.652   5.696
 5167SOL    HW216401   6.238   6.563   5.623
 5168SOL     OW16402   5.166   2.954   3.320
 5168SOL    HW116403   5.203   3.012   3.393
 5168SOL    HW216404   5.072   2.929   3.343
 5169SOL     OW16405   3.730   2.111   5.211
 5169SOL    HW116406   3.668   2.052   5.262
 5169SOL    HW216407   3.728   2.086   5.114
 5170SOL     OW16408   6.646   3.739   6.021
 5170SOL    HW116409   6.642   3.718   6.119
 5170SOL    HW216410   6.715   3.810   6.005
 5171SOL     OW16411   2.039   4.974   4.125
 5171SOL    HW116412   2.084   5.029   4.055
 5171SOL    HW216413   1.953   4.939   4.090
 5172SOL     OW16414   6.601   2.734   2.097
 5172SOL    HW116415   6.545   2.668   2.046
 5172SOL    HW216416   6.672   2.771   2.037
 5173SOL     OW16417   5.733   4.836   5.898
 5173SOL    HW116418   5.782   4.752   5.919
 5173SOL    HW216419   5.645   4.837   5.946
 5174SOL     OW16420   2.051   4.937   3.668
 5174SOL    HW116421   2.033   4.969   3.574
 5174SOL    HW216422   2.143   4.965   3.695
 5175SOL     OW16423   2.574   4.167   6.946
 5175SOL    HW116424   2.551   4.240   7.010
 5175SOL    HW216425   2.666   4.133   6.966
 5176SOL     OW16426   4.396   3.427   0.184
 5176SOL    HW116427   4.464   3.500   0.172
 5176SOL    HW216428   4.326   3.436   0.113
 5177SOL     OW16429   4.644   0.165   5.789
 5177SOL    HW116430   4.599   0.254   5.781
 5177SOL    HW216431   4.630   0.113   5.705
 5178SOL     OW16432   1.925   3.093   1.248
 5178SOL    HW116433   1.878   3.180   1.263
 5178SOL    HW216434   1.965   3.093   1.156
 5179SOL     OW16435   4.125   6.048   5.161
 5179SOL    HW116436   4.057   6.121   5.151
 5179SOL    HW216437   4.216   6.088   5.173
 5180SOL     OW16438   3.051   2.929   6.679
 5180SOL    HW116439   3.017   2.840   6.709
 5180SOL    HW216440   3.091   2.920   6.587
 5181SOL     OW16441   5.076   2.085   2.057
 5181SOL    HW116442   5.132   2.092   2.139
 5181SOL    HW216443   5.055   2.177   2.023
 5182SOL     OW16444   4.273   5.051   1.591
 5182SOL    HW116445   4.365   5.055   1.553
 5182SOL    HW216446   4.274   5.089   1.684
 5183SOL     OW16447   3.998   0.837   2.553
 5183SOL    HW116448   4.094   0.861   2.536
 5183SOL    HW216449   3.954   0.912   2.602
 5184SOL     OW16450   0.979   2.119   4.117
 5184SOL    HW116451   1.043   2.125   4.040
 5184SOL    HW216452   0.965   2.210   4.156
 5185SOL     OW16453   4.951   0.008   3.405
 5185SOL    HW116454   4.951   6.929   3.388
 5185SOL    HW216455   4.876   0.051   3.355
 5186SOL     OW16456   5.346   3.799   0.740
 5186SOL    HW116457   5.386   3.805   0.831
 5186SOL    HW216458   5.367   3.882   0.688
 5187SOL     OW16459   6.805   0.621   3.831
 5187SOL    HW116460   6.804   0.699   3.894
 5187SOL    HW216461   6.757   0.646   3.747
 5188SOL     OW16462   0.956   5.029   0.587
 5188SOL    HW116463   0.909   4.996   0.506
 5188SOL    HW216464   0.945   5.128   0.594
 5189SOL     OW16465   4.934   4.783   1.226
 5189SOL    HW116466   4.912   4.836   1.145
 5189SOL    HW216467   4.968   4.693   1.199
 5190SOL     OW16468   0.570   2.512   4.192
 5190SOL    HW116469   0.586   2.611   4.189
 5190SOL    HW216470   0.587   2.473   4.101
 5191SOL     OW16471   4.300   0.346   2.062
 5191SOL    HW116472   4.370   0.414   2.042
 5191SOL    HW216473   4.209   0.388   2.058
 5192SOL     OW16474   3.303   5.928   2.703
 5192SOL    HW116475   3.265   5.838   2.724
 5192SOL    HW216476   3.403   5.922   2.702
 5193SOL     OW16477   4.851   5.191   3.871
 5193SOL    HW116478   4.757   5.162   3.856
 5193SOL    HW216479   4.890   5.140   3.949
 5194SOL     OW16480   4.495   0.756   6.659
 5194SOL    HW116481   4.557   0.775   6.584
 5194SOL    HW216482   4.516   0.816   6.736
 5195SOL     OW16483   0.094   5.985   4.205
 5195SOL    HW116484   0.180   6.036   4.201
 5195SOL    HW216485   0.111   5.889   4.184
 5196SOL     OW16486   1.041   3.303   1.054
 5196SOL    HW116487   1.122   3.251   1.084
 5196SOL    HW216488   1.070   3.392   1.019
 5197SOL     OW16489   1.694   5.867   4.759
 5197SOL    HW116490   1.723   5.799   4.826
 5197SOL    HW216491   1.732   5.956   4.784
 5198SOL     OW16492   3.976   0.286   3.629
 5198SOL    HW116493   4.014   0.195   3.615
 5198SOL    HW216494   4.013   0.326   3.713
 5199SOL     OW16495   1.774   5.898   0.253
 5199SOL    HW116496   1.799   5.893   0.350
 5199SOL    HW216497   1.784   5.992   0.222
 5200SOL     OW16498   0.986   1.772   5.166
 5200SOL    HW116499   0.947   1.683   5.140
 5200SOL    HW216500   1.076   1.758   5.208
 5201SOL     OW16501   5.428   5.794   4.370
 5201SOL    HW116502   5.482   5.844   4.438
 5201SOL    HW216503   5.449   5.696   4.375
 5202SOL     OW16504   5.941   3.724   6.482
 5202SOL    HW116505   5.961   3.645   6.539
 5202SOL    HW216506   5.988   3.716   6.395
 5203SOL     OW16507   1.886   0.665   6.855
 5203SOL    HW116508   1.983   0.687   6.859
 5203SOL    HW216509   1.835   0.744   6.818
 5204SOL     OW16510   3.447   6.297   0.264
 5204SOL    HW116511   3.464   6.329   0.357
 5204SOL    HW216512   3.351   6.274   0.253
 5205SOL     OW16513   6.881   5.622   0.331
 5205SOL    HW116514   6.971   5.646   0.368
 5205SOL    HW216515   6.816   5.607   0.405
 5206SOL     OW16516   0.673   4.874   5.988
 5206SOL    HW116517   0.702   4.911   5.899
 5206SOL    HW216518   0.732   4.799   6.014
 5207SOL     OW16519   0.775   0.857   3.445
 5207SOL    HW116520   0.680   0.828   3.455
 5207SOL    HW216521   0.833   0.802   3.505
 5208SOL     OW16522   4.446   2.698   0.297
 5208SOL    HW116523   4.479   2.775   0.353
 5208SOL    HW216524   4.410   2.733   0.211
 5209SOL     OW16525   5.823   0.864   1.777
 5209SOL    HW116526   5.895   0.872   1.707
 5209SOL    HW216527   5.733   0.865   1.732
 5210SOL     OW16528   5.165   3.941   1.100
 5210SOL    HW116529   5.108   3.996   1.039
 5210SOL    HW216530   5.132   3.847   1.102
 5211SOL     OW16531   5.300   1.930   4.543
 5211SOL    HW116532   5.387   1.916   4.589
 5211SOL    HW216533   5.307   1.898   4.448
 5212SOL     OW16534   1.339   2.497   0.996
 5212SOL    HW116535   1.379   2.447   0.919
 5212SOL    HW216536   1.240   2.498   0.987
 5213SOL     OW16537   4.141   3.685   1.230
 5213SOL    HW116538   4.129   3.778   1.194
 5213SOL    HW216539   4.082   3.622   1.180
 5214SOL     OW16540   5.482   3.312   5.412
 5214SOL    HW116541   5.384   3.333   5.419
 5214SOL    HW216542   5.502   3.279   5.320
 5215SOL     OW16543   0.586   4.562   4.425
 5215SOL    HW116544   0.491   4.588   4.409
 5215SOL    HW216545   0.613   4.492   4.359
 5216SOL     OW16546   4.811   5.488   1.290
 5216SOL    HW116547   4.900   5.480   1.245
 5216SOL    HW216548   4.745   5.526   1.226
 5217SOL     OW16549   4.042   5.564   4.960
 5217SOL    HW116550   4.085   5.596   5.045
 5217SOL    HW216551   3.993   5.479   4.977
 5218SOL     OW16552   0.041   1.069   1.280
 5218SOL    HW116553   6.989   1.116   1.331
 5218SOL    HW216554   0.080   0.996   1.336
 5219SOL     OW16555   3.687   1.829   4.095
 5219SOL    HW116556   3.616   1.772   4.138
 5219SOL    HW216557   3.659   1.925   4.098
 5220SOL     OW16558   1.969   4.983   2.666
 5220SOL    HW116559   2.006   4.891   2.652
 5220SOL    HW216560   1.968   5.004   2.764
 5221SOL     OW16561   6.802   0.053   1.975
 5221SOL    HW116562   6.889   0.031   2.019
 5221SOL    HW216563   6.727   0.011   2.026
 5222SOL     OW16564   3.571   5.807   2.321
 5222SOL    HW116565   3.631   5.750   2.377
 5222SOL    HW216566   3.586   5.786   2.225
 5223SOL     OW16567   0.525   2.523   0.767
 5223SOL    HW116568   0.485   2.614   0.755
 5223SOL    HW216569   0.475   2.458   0.710
 5224SOL     OW16570   6.987   2.036   4.072
 5224SOL    HW116571   0.020   2.107   4.119
 5224SOL    HW216572   6.918   2.000   4.134
 5225SOL     OW16573   6.951   0.710   3.513
 5225SOL    HW116574   7.000   0.635   3.558
 5225SOL    HW216575   6.854   0.707   3.538
 5226SOL     OW16576   0.463   5.976   3.408
 5226SOL    HW116577   0.505   5.903   3.461
 5226SOL    HW216578   0.528   6.051   3.396
 5227SOL     OW16579   6.786   3.772   5.427
 5227SOL    HW116580   6.743   3.859   5.450
 5227SOL    HW216581   6.778   3.710   5.505
 5228SOL     OW16582   0.307   2.224   0.235
 5228SOL    HW116583   0.390   2.211   0.180
 5228SOL    HW216584   0.316   2.174   0.321
 5229SOL     OW16585   3.207   6.189   0.144
 5229SOL    HW116586   3.212   6.226   0.051
 5229SOL    HW216587   3.122   6.220   0.187
 5230SOL     OW16588   6.203   6.933   2.862
 5230SOL    HW116589   6.302   6.941   2.860
 5230SOL    HW216590   6.163   7.002   2.802
 5231SOL     OW16591   4.379   2.302   3.896
 5231SOL    HW116592   4.328   2.387   3.911
 5231SOL    HW216593   4.360   2.266   3.805
 5232SOL     OW16594   0.860   4.063   6.048
 5232SOL    HW116595   0.924   4.015   5.987
 5232SOL    HW216596   0.767   4.033   6.029
 5233SOL     OW16597   3.576   0.572   2.080
 5233SOL    HW116598   3.549   0.578   1.983
 5233SOL    HW216599   3.647   0.502   2.091
 5234SOL     OW16600   2.794   3.119   6.634
 5234SOL    HW116601   2.847   3.062   6.696
 5234SOL    HW216602   2.849   3.144   6.555
 5235SOL     OW16603   1.818   2.551   0.960
 5235SOL    HW116604   1.882   2.618   0.997
 5235SOL    HW216605   1.725   2.588   0.967
 5236SOL     OW16606   3.555   5.161   2.188
 5236SOL    HW116607   3.511   5.071   2.201
 5236SOL    HW216608   3.484   5.231   2.180
 5237SOL     OW16609   2.159   1.079   4.455
 5237SOL    HW116610   2.123   1.159   4.503
 5237SOL    HW216611   2.250   1.056   4.490
 5238SOL     OW16612   0.879   5.787   1.018
 5238SOL    HW116613   0.942   5.736   1.077
 5238SOL    HW216614   0.830   5.855   1.072
 5239SOL     OW16615   3.629   2.996   0.429
 5239SOL    HW116616   3.688   3.060   0.378
 5239SOL    HW216617   3.589   3.043   0.508
 5240SOL     OW16618   2.919   2.386   5.273
 5240SOL    HW116619   2.845   2.403   5.208
 5240SOL    HW216620   3.000   2.352   5.225
 5241SOL     OW16621   0.543   5.777   2.785
 5241SOL    HW116622   0.516   5.795   2.880
 5241SOL    HW216623   0.631   5.819   2.767
 5242SOL     OW16624   4.983   0.000   2.106
 5242SOL    HW116625   4.894   0.039   2.133
 5242SOL    HW216626   5.056   0.046   2.158
 5243SOL     OW16627   2.480   6.187   1.371
 5243SOL    HW116628   2.405   6.220   1.314
 5243SOL    HW216629   2.532   6.265   1.407
 5244SOL     OW16630   4.541   3.886   0.274
 5244SOL    HW116631   4.480   3.964   0.286
 5244SOL    HW216632   4.560   3.844   0.363
 5245SOL     OW16633   3.597   4.810   0.822
 5245SOL    HW116634   3.668   4.814   0.892
 5245SOL    HW216635   3.632   4.851   0.737
 5246SOL     OW16636   6.474   2.516   2.354
 5246SOL    HW116637   6.488   2.425   2.394
 5246SOL    HW216638   6.375   2.535   2.349
 5247SOL     OW16639   3.270   0.532   5.850
 5247SOL    HW116640   3.309   0.620   5.823
 5247SOL    HW216641   3.180   0.547   5.890
 5248SOL     OW16642   0.171   2.095   3.257
 5248SOL    HW116643   0.213   2.119   3.345
 5248SOL    HW216644   0.198   2.002   3.231
 5249SOL     OW16645   1.459   6.039   6.758
 5249SOL    HW116646   1.504   6.124   6.731
 5249SOL    HW216647   1.392   6.013   6.689
 5250SOL     OW16648   0.739   5.551   0.665
 5250SOL    HW116649   0.671   5.485   0.632
 5250SOL    HW216650   0.785   5.593   0.587
 5251SOL     OW16651   1.101   4.341   0.641
 5251SOL    HW116652   1.007   4.336   0.607
 5251SOL    HW216653   1.156   4.395   0.577
 5252SOL     OW16654   2.324   6.666   1.233
 5252SOL    HW116655   2.417   6.673   1.198
 5252SOL    HW216656   2.323   6.611   1.316
 5253SOL     OW16657   0.012   3.757   4.505
 5253SOL    HW116658   0.036   3.661   4.495
 5253SOL    HW216659   6.979   3.787   4.424
 5254SOL     OW16660   6.082   0.377   3.608
 5254SOL    HW116661   6.129   0.412   3.688
 5254SOL    HW216662   5.993   0.340   3.635
 5255SOL     OW16663   5.273   2.565   4.764
 5255SOL    HW116664   5.184   2.553   4.720
 5255SOL    HW216665   5.346   2.554   4.697
 5256SOL     OW16666   4.767   2.022   4.252
 5256SOL    HW116667   4.838   2.007   4.184
 5256SOL    HW216668   4.743   2.119   4.254
 5257SOL     OW16669   4.493   0.206   1.283
 5257SOL    HW116670   4.453   0.117   1.307
 5257SOL    HW216671   4.536   0.199   1.193
 5258SOL     OW16672   5.564   2.355   2.463
 5258SOL    HW116673   5.532   2.261   2.450
 5258SOL    HW216674   5.492   2.418   2.436
 5259SOL     OW16675   4.900   6.082   2.933
 5259SOL    HW116676   4.820   6.104   2.990
 5259SOL    HW216677   4.870   6.067   2.839
 5260SOL     OW16678   4.317   5.002   0.692
 5260SOL    HW116679   4.365   4.920   0.722
 5260SOL    HW216680   4.220   4.981   0.675
 5261SOL     OW16681   6.490   4.108   6.522
 5261SOL    HW116682   6.407   4.053   6.528
 5261SOL    HW216683   6.472   4.188   6.464
 5262SOL     OW16684   3.229   1.454   3.399
 5262SOL    HW116685   3.153   1.422   3.342
 5262SOL    HW216686   3.192   1.499   3.480
 5263SOL     OW16687   1.765   1.461   3.047
 5263SOL    HW116688   1.743   1.543   2.995
 5263SOL    HW216689   1.707   1.455   3.128
 5264SOL     OW16690   6.328   2.770   1.643
 5264SOL    HW116691   6.329   2.675   1.675
 5264SOL    HW216692   6.365   2.773   1.550
 5265SOL     OW16693   6.288   3.079   4.177
 5265SOL    HW116694   6.367   3.137   4.157
 5265SOL    HW216695   6.212   3.136   4.209
 5266SOL     OW16696   2.592   6.070   6.912
 5266SOL    HW116697   2.603   6.140   6.842
 5266SOL    HW216698   2.648   6.094   6.992
 5267SOL     OW16699   5.162   2.607   4.457
 5267SOL    HW116700   5.091   2.647   4.514
 5267SOL    HW216701   5.122   2.577   4.370
 5268SOL     OW16702   5.009   0.824   0.425
 5268SOL    HW116703   5.020   0.819   0.524
 5268SOL    HW216704   4.911   0.822   0.403
 5269SOL     OW16705   0.521   6.466   2.357
 5269SOL    HW116706   0.517   6.371   2.389
 5269SOL    HW216707   0.614   6.488   2.328
 5270SOL     OW16708   5.665   1.436   1.808
 5270SOL    HW116709   5.647   1.492   1.889
 5270SOL    HW216710   5.602   1.463   1.735
 5271SOL     OW16711   5.746   4.680   5.022
 5271SOL    HW116712   5.678   4.607   5.013
 5271SOL    HW216713   5.815   4.653   5.090
 5272SOL     OW16714   3.034   5.438   1.302
 5272SOL    HW116715   3.019   5.428   1.400
 5272SOL    HW216716   3.110   5.380   1.274
 5273SOL     OW16717   0.376   3.460   2.967
 5273SOL    HW116718   0.332   3.392   3.025
 5273SOL    HW216719   0.383   3.425   2.874
 5274SOL     OW16720   5.483   0.236   2.715
 5274SOL    HW116721   5.456   0.265   2.807
 5274SOL    HW216722   5.413   0.265   2.650
 5275SOL     OW16723   3.874   1.196   0.706
 5275SOL    HW116724   3.962   1.240   0.688
 5275SOL    HW216725   3.852   1.206   0.804
 5276SOL     OW16726   2.158   0.307   1.113
 5276SOL    HW116727   2.177   0.275   1.206
 5276SOL    HW216728   2.239   0.292   1.056
 5277SOL     OW16729   2.606   1.540   2.775
 5277SOL    HW116730   2.619   1.441   2.786
 5277SOL    HW216731   2.528   1.557   2.715
 5278SOL     OW16732   4.852   5.485   4.154
 5278SOL    HW116733   4.928   5.545   4.132
 5278SOL    HW216734   4.780   5.536   4.201
 5279SOL     OW16735   2.469   5.560   0.287
 5279SOL    HW116736   2.491   5.623   0.362
 5279SOL    HW216737   2.376   5.576   0.257
 5280SOL     OW16738   3.324   6.374   5.383
 5280SOL    HW116739   3.295   6.278   5.393
 5280SOL    HW216740   3.421   6.376   5.361
 5281SOL     OW16741   6.523   1.863   2.348
 5281SOL    HW116742   6.475   1.950   2.356
 5281SOL    HW216743   6.490   1.800   2.418
 5282SOL     OW16744   3.931   1.596   3.532
 5282SOL    HW116745   3.916   1.501   3.558
 5282SOL    HW216746   3.893   1.612   3.441
 5283SOL     OW16747   4.905   6.587   2.279
 5283SOL    HW116748   4.930   6.490   2.279
 5283SOL    HW216749   4.919   6.626   2.188
 5284SOL     OW16750   5.215   4.457   3.310
 5284SOL    HW116751   5.122   4.431   3.337
 5284SOL    HW216752   5.219   4.557   3.298
 5285SOL     OW16753   3.071   4.969   4.400
 5285SOL    HW116754   3.148   4.942   4.458
 5285SOL    HW216755   2.986   4.939   4.442
 5286SOL     OW16756   2.396   4.739   1.041
 5286SOL    HW116757   2.389   4.755   1.139
 5286SOL    HW216758   2.305   4.748   0.999
 5287SOL     OW16759   2.968   1.314   0.761
 5287SOL    HW116760   2.933   1.221   0.757
 5287SOL    HW216761   2.995   1.344   0.669
 5288SOL     OW16762   3.130   0.379   1.600
 5288SOL    HW116763   3.141   0.335   1.690
 5288SOL    HW216764   3.069   0.325   1.544
 5289SOL     OW16765   1.337   4.870   6.602
 5289SOL    HW116766   1.329   4.897   6.698
 5289SOL    HW216767   1.400   4.932   6.555
 5290SOL     OW16768   2.525   5.290   6.163
 5290SOL    HW116769   2.429   5.295   6.135
 5290SOL    HW216770   2.565   5.204   6.129
 5291SOL     OW16771   2.897   5.942   5.611
 5291SOL    HW116772   2.819   5.888   5.577
 5291SOL    HW216773   2.960   5.960   5.535
 5292SOL     OW16774   6.088   2.700   0.517
 5292SOL    HW116775   6.071   2.782   0.462
 5292SOL    HW216776   6.003   2.650   0.529
 5293SOL     OW16777   0.767   0.997   4.521
 5293SOL    HW116778   0.718   1.076   4.558
 5293SOL    HW216779   0.732   0.976   4.430
 5294SOL     OW16780   4.987   3.542   6.184
 5294SOL    HW116781   4.967   3.444   6.196
 5294SOL    HW216782   4.963   3.591   6.268
 5295SOL     OW16783   5.403   1.100   2.856
 5295SOL    HW116784   5.390   1.101   2.955
 5295SOL    HW216785   5.360   1.180   2.816
 5296SOL     OW16786   1.600   5.231   0.077
 5296SOL    HW116787   1.541   5.291   0.132
 5296SOL    HW216788   1.675   5.285   0.038
 5297SOL     OW16789   1.670   2.682   1.263
 5297SOL    HW116790   1.576   2.658   1.240
 5297SOL    HW216791   1.670   2.754   1.333
 5298SOL     OW16792   6.440   5.761   2.102
 5298SOL    HW116793   6.402   5.850   2.128
 5298SOL    HW216794   6.380   5.718   2.034
 5299SOL     OW16795   2.811   0.884   1.426
 5299SOL    HW116796   2.809   0.975   1.385
 5299SOL    HW216797   2.721   0.842   1.417
 5300SOL     OW16798   0.554   5.382   3.058
 5300SOL    HW116799   0.548   5.286   3.087
 5300SOL    HW216800   0.641   5.421   3.090
 5301SOL     OW16801   4.217   1.565   6.921
 5301SOL    HW116802   4.227   1.508   6.840
 5301SOL    HW216803   4.169   1.650   6.898
 5302SOL     OW16804   6.282   4.400   2.140
 5302SOL    HW116805   6.261   4.406   2.042
 5302SOL    HW216806   6.297   4.492   2.176
 5303SOL     OW16807   6.513   6.090   4.104
 5303SOL    HW116808   6.557   6.180   4.110
 5303SOL    HW216809   6.533   6.038   4.187
 5304SOL     OW16810   5.249   2.073   6.174
 5304SOL    HW116811   5.294   2.032   6.254
 5304SOL    HW216812   5.239   2.171   6.187
 5305SOL     OW16813   1.664   0.811   4.220
 5305SOL    HW116814   1.701   0.718   4.220
 5305SOL    HW216815   1.611   0.825   4.304
 5306SOL     OW16816   2.472   6.587   5.538
 5306SOL    HW116817   2.399   6.575   5.471
 5306SOL    HW216818   2.510   6.679   5.530
 5307SOL     OW16819   4.070   6.231   6.519
 5307SOL    HW116820   3.980   6.202   6.551
 5307SOL    HW216821   4.128   6.150   6.506
 5308SOL     OW16822   0.471   0.537   3.963
 5308SOL    HW116823   0.553   0.489   3.932
 5308SOL    HW216824   0.497   0.609   4.027
 5309SOL     OW16825   4.113   3.477   3.227
 5309SOL    HW116826   4.017   3.472   3.253
 5309SOL    HW216827   4.130   3.563   3.179
 5310SOL     OW16828   4.810   2.727   1.732
 5310SOL    HW116829   4.870   2.741   1.653
 5310SOL    HW216830   4.721   2.769   1.714
 5311SOL     OW16831   1.078   6.026   6.691
 5311SOL    HW116832   1.072   5.931   6.722
 5311SOL    HW216833   0.994   6.075   6.714
 5312SOL     OW16834   0.319   5.063   2.158
 5312SOL    HW116835   0.381   5.103   2.226
 5312SOL    HW216836   0.232   5.111   2.161
 5313SOL     OW16837   0.548   5.280   6.782
 5313SOL    HW116838   0.590   5.230   6.706
 5313SOL    HW216839   0.464   5.234   6.810
 5314SOL     OW16840   4.622   5.492   0.361
 5314SOL    HW116841   4.634   5.425   0.287
 5314SOL    HW216842   4.601   5.581   0.321
 5315SOL     OW16843   4.721   4.152   2.195
 5315SOL    HW116844   4.779   4.071   2.186
 5315SOL    HW216845   4.680   4.174   2.106
 5316SOL     OW16846   0.182   5.502   4.920
 5316SOL    HW116847   0.233   5.434   4.972
 5316SOL    HW216848   0.091   5.468   4.900
 5317SOL     OW16849   5.838   1.246   3.750
 5317SOL    HW116850   5.801   1.180   3.814
 5317SOL    HW216851   5.767   1.311   3.723
 5318SOL     OW16852   6.776   2.329   4.616
 5318SOL    HW116853   6.854   2.368   4.664
 5318SOL    HW216854   6.743   2.394   4.547
 5319SOL     OW16855   5.523   0.075   6.437
 5319SOL    HW116856   5.445   0.066   6.374
 5319SOL    HW216857   5.494   0.046   6.529
 5320SOL     OW16858   6.092   4.572   6.974
 5320SOL    HW116859   6.186   4.545   6.951
 5320SOL    HW216860   6.094   4.640   0.027
 5321SOL     OW16861   1.514   5.312   3.923
 5321SOL    HW116862   1.557   5.221   3.923
 5321SOL    HW216863   1.420   5.304   3.957
 5322SOL     OW16864   3.727   6.604   6.905
 5322SOL    HW116865   3.698   6.544   6.981
 5322SOL    HW216866   3.743   6.696   6.940
 5323SOL     OW16867   4.128   2.692   1.429
 5323SOL    HW116868   4.077   2.698   1.343
 5323SOL    HW216869   4.150   2.596   1.447
 5324SOL     OW16870   3.779   1.975   1.911
 5324SOL    HW116871   3.716   1.897   1.908
 5324SOL    HW216872   3.728   2.058   1.933
 5325SOL     OW16873   4.807   6.700   2.688
 5325SOL    HW116874   4.726   6.749   2.719
 5325SOL    HW216875   4.887   6.729   2.740
 5326SOL     OW16876   6.819   5.338   1.628
 5326SOL    HW116877   6.736   5.392   1.636
 5326SOL    HW216878   6.874   5.349   1.712
 5327SOL     OW16879   0.238   6.685   4.861
 5327SOL    HW116880   0.139   6.668   4.858
 5327SOL    HW216881   0.265   6.710   4.954
 5328SOL     OW16882   3.368   2.990   5.727
 5328SOL    HW116883   3.437   2.927   5.691
 5328SOL    HW216884   3.394   3.084   5.704
 5329SOL     OW16885   0.215   4.677   0.336
 5329SOL    HW116886   0.175   4.595   0.377
 5329SOL    HW216887   0.296   4.704   0.387
 5330SOL     OW16888   3.781   3.574   0.163
 5330SOL    HW116889   3.782   3.634   0.243
 5330SOL    HW216890   3.693   3.525   0.160
 5331SOL     OW16891   4.099   2.282   0.797
 5331SOL    HW116892   4.148   2.292   0.711
 5331SOL    HW216893   4.138   2.207   0.850
 5332SOL     OW16894   6.176   5.371   0.421
 5332SOL    HW116895   6.252   5.306   0.425
 5332SOL    HW216896   6.149   5.385   0.326
 5333SOL     OW16897   2.318   1.029   3.962
 5333SOL    HW116898   2.402   0.978   3.943
 5333SOL    HW216899   2.256   1.020   3.884
 5334SOL     OW16900   4.611   4.710   4.183
 5334SOL    HW116901   4.531   4.695   4.240
 5334SOL    HW216902   4.616   4.640   4.112
 5335SOL     OW16903   6.300   4.182   2.467
 5335SOL    HW116904   6.253   4.120   2.529
 5335SOL    HW216905   6.244   4.264   2.453
 5336SOL     OW16906   1.910   1.809   3.979
 5336SOL    HW116907   1.845   1.774   3.913
 5336SOL    HW216908   2.003   1.787   3.949
 5337SOL     OW16909   6.057   4.785   1.405
 5337SOL    HW116910   6.062   4.774   1.504
 5337SOL    HW216911   6.149   4.796   1.368
 5338SOL     OW16912   5.990   2.716   0.109
 5338SOL    HW116913   6.048   2.797   0.101
 5338SOL    HW216914   6.046   2.634   0.104
 5339SOL     OW16915   5.875   1.988   1.960
 5339SOL    HW116916   5.894   1.893   1.935
 5339SOL    HW216917   5.798   1.991   2.024
 5340SOL     OW16918   5.144   3.196   1.975
 5340SOL    HW116919   5.164   3.128   1.904
 5340SOL    HW216920   5.191   3.171   2.060
 5341SOL     OW16921   4.739   4.693   3.513
 5341SOL    HW116922   4.646   4.716   3.484
 5341SOL    HW216923   4.740   4.598   3.545
 5342SOL     OW16924   5.589   6.595   5.811
 5342SOL    HW116925   5.515   6.553   5.864
 5342SOL    HW216926   5.653   6.525   5.782
 5343SOL     OW16927   3.649   3.525   4.807
 5343SOL    HW116928   3.659   3.434   4.766
 5343SOL    HW216929   3.560   3.564   4.782
 5344SOL     OW16930   0.739   1.211   0.623
 5344SOL    HW116931   0.774   1.290   0.574
 5344SOL    HW216932   0.701   1.145   0.558
 5345SOL     OW16933   4.784   1.386   0.010
 5345SOL    HW116934   4.756   1.389   6.934
 5345SOL    HW216935   4.734   1.455   0.062
 5346SOL     OW16936   2.515   4.950   4.295
 5346SOL    HW116937   2.444   4.888   4.329
 5346SOL    HW216938   2.496   4.973   4.199
 5347SOL     OW16939   0.030   2.720   3.618
 5347SOL    HW116940   0.119   2.735   3.575
 5347SOL    HW216941   6.993   2.663   3.558
 5348SOL     OW16942   6.410   1.474   5.035
 5348SOL    HW116943   6.452   1.389   5.003
 5348SOL    HW216944   6.481   1.545   5.042
 5349SOL     OW16945   0.530   2.803   1.708
 5349SOL    HW116946   0.556   2.867   1.635
 5349SOL    HW216947   0.518   2.853   1.793
 5350SOL     OW16948   1.528   0.384   5.397
 5350SOL    HW116949   1.449   0.323   5.388
 5350SOL    HW216950   1.505   0.460   5.458
 5351SOL     OW16951   0.069   5.591   1.678
 5351SOL    HW116952   0.162   5.556   1.670
 5351SOL    HW216953   0.013   5.526   1.731
 5352SOL     OW16954   2.044   4.363   3.024
 5352SOL    HW116955   2.045   4.281   3.081
 5352SOL    HW216956   2.024   4.337   2.930
 5353SOL     OW16957   3.757   5.384   3.672
 5353SOL    HW116958   3.804   5.384   3.584
 5353SOL    HW216959   3.816   5.345   3.742
 5354SOL     OW16960   3.667   4.570   0.704
 5354SOL    HW116961   3.624   4.647   0.750
 5354SOL    HW216962   3.732   4.604   0.636
 5355SOL     OW16963   5.193   5.293   5.366
 5355SOL    HW116964   5.207   5.221   5.299
 5355SOL    HW216965   5.277   5.347   5.375
 5356SOL     OW16966   6.545   3.600   1.716
 5356SOL    HW116967   6.484   3.663   1.667
 5356SOL    HW216968   6.639   3.615   1.687
 5357SOL     OW16969   4.085   4.671   1.795
 5357SOL    HW116970   4.108   4.764   1.823
 5357SOL    HW216971   3.986   4.664   1.781
 5358SOL     OW16972   4.353   1.635   0.282
 5358SOL    HW116973   4.306   1.644   0.370
 5358SOL    HW216974   4.333   1.545   0.244
 5359SOL     OW16975   2.151   2.157   0.342
 5359SOL    HW116976   2.249   2.162   0.359
 5359SOL    HW216977   2.134   2.108   0.256
 5360SOL     OW16978   5.624   4.999   3.717
 5360SOL    HW116979   5.693   5.070   3.731
 5360SOL    HW216980   5.567   5.023   3.638
 5361SOL     OW16981   3.196   6.293   2.867
 5361SOL    HW116982   3.270   6.277   2.802
 5361SOL    HW216983   3.230   6.281   2.960
 5362SOL     OW16984   5.438   6.793   2.585
 5362SOL    HW116985   5.508   6.857   2.551
 5362SOL    HW216986   5.460   6.701   2.555
 5363SOL     OW16987   5.210   6.634   4.821
 5363SOL    HW116988   5.306   6.634   4.792
 5363SOL    HW216989   5.185   6.543   4.855
 5364SOL     OW16990   5.334   0.780   2.361
 5364SOL    HW116991   5.312   0.868   2.321
 5364SOL    HW216992   5.267   0.712   2.332
 5365SOL     OW16993   3.094   3.469   2.995
 5365SOL    HW116994   3.036   3.387   2.990
 5365SOL    HW216995   3.036   3.550   2.997
 5366SOL     OW16996   6.950   0.363   1.766
 5366SOL    HW116997   6.875   0.334   1.706
 5366SOL    HW216998   6.967   0.292   1.834
 5367SOL     OW16999   5.425   6.944   0.317
 5367SOL    HW117000   5.436   0.023   0.310
 5367SOL    HW217001   5.486   6.898   0.252
 5368SOL     OW17002   6.656   5.631   2.217
 5368SOL    HW117003   6.578   5.681   2.179
 5368SOL    HW217004   6.740   5.666   2.176
 5369SOL     OW17005   2.811   5.143   1.503
 5369SOL    HW117006   2.855   5.095   1.427
 5369SOL    HW217007   2.763   5.077   1.561
 5370SOL     OW17008   4.236   3.678   1.689
 5370SOL    HW117009   4.270   3.672   1.595
 5370SOL    HW217010   4.203   3.771   1.707
 5371SOL     OW17011   7.001   5.144   4.826
 5371SOL    HW117012   0.046   5.088   4.774
 5371SOL    HW217013   6.910   5.136   4.785
 5372SOL     OW17014   2.174   0.030   2.940
 5372SOL    HW117015   2.190   6.960   2.898
 5372SOL    HW217016   2.078   0.055   2.928
 5373SOL     OW17017   4.179   6.702   6.271
 5373SOL    HW117018   4.161   6.611   6.234
 5373SOL    HW217019   4.234   6.694   6.354
 5374SOL     OW17020   2.218   4.779   1.696
 5374SOL    HW117021   2.201   4.871   1.731
 5374SOL    HW217022   2.143   4.753   1.635
 5375SOL     OW17023   1.205   6.729   5.434
 5375SOL    HW117024   1.109   6.711   5.457
 5375SOL    HW217025   1.231   6.819   5.470
 5376SOL     OW17026   1.311   2.075   1.534
 5376SOL    HW117027   1.249   2.026   1.473
 5376SOL    HW217028   1.258   2.119   1.607
 5377SOL     OW17029   2.364   0.870   3.046
 5377SOL    HW117030   2.458   0.888   3.075
 5377SOL    HW217031   2.363   0.798   2.977
 5378SOL     OW17032   5.481   0.381   1.147
 5378SOL    HW117033   5.564   0.420   1.189
 5378SOL    HW217034   5.425   0.455   1.111
 5379SOL     OW17035   1.719   2.658   5.699
 5379SOL    HW117036   1.640   2.687   5.644
 5379SOL    HW217037   1.703   2.564   5.732
 5380SOL     OW17038   3.622   0.133   1.320
 5380SOL    HW117039   3.694   0.098   1.260
 5380SOL    HW217040   3.652   0.219   1.363
 5381SOL     OW17041   5.797   6.835   2.757
 5381SOL    HW117042   5.765   6.742   2.775
 5381SOL    HW217043   5.861   6.834   2.680
 5382SOL     OW17044   4.080   1.969   2.581
 5382SOL    HW117045   4.021   2.045   2.553
 5382SOL    HW217046   4.062   1.947   2.677
 5383SOL     OW17047   1.163   2.782   4.242
 5383SOL    HW117048   1.106   2.864   4.250
 5383SOL    HW217049   1.255   2.808   4.213
 5384SOL     OW17050   4.590   5.512   5.414
 5384SOL    HW117051   4.604   5.585   5.480
 5384SOL    HW217052   4.558   5.551   5.327
 5385SOL     OW17053   6.505   3.130   6.282
 5385SOL    HW117054   6.605   3.135   6.277
 5385SOL    HW217055   6.471   3.067   6.212
 5386SOL     OW17056   5.695   3.081   3.777
 5386SOL    HW117057   5.753   3.019   3.725
 5386SOL    HW217058   5.688   3.168   3.729
 5387SOL     OW17059   2.745   0.157   3.124
 5387SOL    HW117060   2.743   0.200   3.034
 5387SOL    HW217061   2.839   0.134   3.148
 5388SOL     OW17062   1.156   6.444   3.299
 5388SOL    HW117063   1.130   6.475   3.207
 5388SOL    HW217064   1.087   6.473   3.365
 5389SOL     OW17065   4.310   2.014   4.858
 5389SOL    HW117066   4.266   2.017   4.948
 5389SOL    HW217067   4.285   2.095   4.805
 5390SOL     OW17068   6.020   3.227   3.942
 5390SOL    HW117069   6.070   3.283   4.008
 5390SOL    HW217070   5.928   3.210   3.976
 5391SOL     OW17071   2.345   2.282   7.014
 5391SOL    HW117072   2.401   2.231   0.060
 5391SOL    HW217073   2.302   2.359   0.041
 5392SOL     OW17074   4.697   2.596   3.201
 5392SOL    HW117075   4.725   2.501   3.184
 5392SOL    HW217076   4.652   2.633   3.120
 5393SOL     OW17077   4.398   6.989   5.323
 5393SOL    HW117078   4.383   0.068   5.314
 5393SOL    HW217079   4.494   6.972   5.346
 5394SOL     OW17080   1.147   6.753   1.105
 5394SOL    HW117081   1.089   6.806   1.167
 5394SOL    HW217082   1.129   6.655   1.117
 5395SOL     OW17083   4.898   1.472   0.910
 5395SOL    HW117084   4.878   1.494   0.815
 5395SOL    HW217085   4.921   1.556   0.960
 5396SOL     OW17086   5.510   5.736   2.581
 5396SOL    HW117087   5.609   5.731   2.567
 5396SOL    HW217088   5.490   5.795   2.659
 5397SOL     OW17089   6.485   1.717   2.556
 5397SOL    HW117090   6.410   1.689   2.617
 5397SOL    HW217091   6.565   1.660   2.574
 5398SOL     OW17092   4.962   2.124   4.018
 5398SOL    HW117093   4.999   2.041   3.975
 5398SOL    HW217094   4.870   2.141   3.984
 5399SOL     OW17095   1.712   6.889   5.065
 5399SOL    HW117096   1.621   6.889   5.022
 5399SOL    HW217097   1.763   6.969   5.036
 5400SOL     OW17098   3.457   3.372   0.900
 5400SOL    HW117099   3.479   3.302   0.832
 5400SOL    HW217100   3.488   3.341   0.991
 5401SOL     OW17101   5.099   5.090   3.482
 5401SOL    HW117102   5.091   5.050   3.390
 5401SOL    HW217103   5.019   5.147   3.500
 5402SOL     OW17104   2.862   6.961   0.619
 5402SOL    HW117105   2.944   7.004   0.582
 5402SOL    HW217106   2.781   7.004   0.577
 5403SOL     OW17107   5.658   3.016   0.267
 5403SOL    HW117108   5.689   2.921   0.268
 5403SOL    HW217109   5.593   3.029   0.192
 5404SOL     OW17110   0.907   0.844   1.078
 5404SOL    HW117111   0.992   0.793   1.093
 5404SOL    HW217112   0.929   0.939   1.056
 5405SOL     OW17113   5.316   5.532   6.964
 5405SOL    HW117114   5.374   5.539   6.884
 5405SOL    HW217115   5.366   5.486   0.018
 5406SOL     OW17116   2.815   1.069   4.821
 5406SOL    HW117117   2.906   1.108   4.834
 5406SOL    HW217118   2.790   1.015   4.902
 5407SOL     OW17119   2.621   0.618   1.344
 5407SOL    HW117120   2.677   0.580   1.417
 5407SOL    HW217121   2.525   0.622   1.374
 5408SOL     OW17122   3.121   1.747   4.321
 5408SOL    HW117123   3.110   1.775   4.225
 5408SOL    HW217124   3.039   1.699   4.351
 5409SOL     OW17125   6.214   2.536   1.391
 5409SOL    HW117126   6.130   2.536   1.446
 5409SOL    HW217127   6.291   2.562   1.448
 5410SOL     OW17128   7.011   2.637   1.278
 5410SOL    HW117129   6.973   2.545   1.275
 5410SOL    HW217130   0.090   2.632   1.295
 5411SOL     OW17131   5.205   4.949   0.216
 5411SOL    HW117132   5.246   5.020   0.272
 5411SOL    HW217133   5.210   4.861   0.264
 5412SOL     OW17134   1.479   1.300   6.103
 5412SOL    HW117135   1.417   1.371   6.070
 5412SOL    HW217136   1.561   1.342   6.142
 5413SOL     OW17137   6.087   0.347   5.477
 5413SOL    HW117138   6.041   0.295   5.405
 5413SOL    HW217139   6.021   0.406   5.523
 5414SOL     OW17140   0.317   4.486   5.286
 5414SOL    HW117141   0.384   4.554   5.315
 5414SOL    HW217142   0.349   4.395   5.312
 5415SOL     OW17143   2.990   5.844   0.394
 5415SOL    HW117144   2.996   5.940   0.422
 5415SOL    HW217145   2.938   5.837   0.309
 5416SOL     OW17146   2.779   5.149   5.190
 5416SOL    HW117147   2.713   5.175   5.119
 5416SOL    HW217148   2.772   5.051   5.206
 5417SOL     OW17149   5.234   6.011   3.666
 5417SOL    HW117150   5.149   6.048   3.627
 5417SOL    HW217151   5.309   6.072   3.642
 5418SOL     OW17152   5.963   4.491   4.212
 5418SOL    HW117153   5.974   4.508   4.310
 5418SOL    HW217154   5.985   4.574   4.160
 5419SOL     OW17155   4.138   6.786   6.678
 5419SOL    HW117156   4.136   6.828   6.769
 5419SOL    HW217157   4.044   6.771   6.646
 5420SOL     OW17158   1.537   1.567   1.689
 5420SOL    HW117159   1.592   1.599   1.612
 5420SOL    HW217160   1.443   1.601   1.680
 5421SOL     OW17161   3.415   5.436   2.228
 5421SOL    HW117162   3.499   5.484   2.202
 5421SOL    HW217163   3.420   5.410   2.325
 5422SOL     OW17164   2.157   6.178   3.916
 5422SOL    HW117165   2.138   6.163   3.820
 5422SOL    HW217166   2.231   6.245   3.926
 5423SOL     OW17167   6.850   5.783   2.111
 5423SOL    HW117168   6.819   5.874   2.138
 5423SOL    HW217169   6.868   5.781   2.013
 5424SOL     OW17170   4.737   4.171   5.088
 5424SOL    HW117171   4.744   4.155   5.187
 5424SOL    HW217172   4.796   4.107   5.040
 5425SOL     OW17173   0.254   3.217   5.284
 5425SOL    HW117174   0.297   3.298   5.244
 5425SOL    HW217175   0.265   3.218   5.383
 5426SOL     OW17176   5.064   5.385   2.019
 5426SOL    HW117177   5.055   5.424   2.110
 5426SOL    HW217178   5.004   5.305   2.010
 5427SOL     OW17179   4.708   2.570   6.577
 5427SOL    HW117180   4.734   2.660   6.542
 5427SOL    HW217181   4.666   2.579   6.668
 5428SOL     OW17182   6.044   5.564   3.019
 5428SOL    HW117183   6.114   5.550   2.949
 5428SOL    HW217184   5.954   5.568   2.975
 5429SOL     OW17185   3.420   0.501   3.952
 5429SOL    HW117186   3.357   0.564   3.997
 5429SOL    HW217187   3.481   0.462   4.021
 5430SOL     OW17188   2.209   3.613   6.172
 5430SOL    HW117189   2.153   3.693   6.194
 5430SOL    HW217190   2.304   3.640   6.163
 5431SOL     OW17191   3.590   5.033   6.192
 5431SOL    HW117192   3.604   5.081   6.278
 5431SOL    HW217193   3.496   5.048   6.161
 5432SOL     OW17194   5.522   6.126   1.374
 5432SOL    HW117195   5.438   6.091   1.332
 5432SOL    HW217196   5.502   6.155   1.468
 5433SOL     OW17197   1.171   0.674   0.870
 5433SOL    HW117198   1.229   0.595   0.850
 5433SOL    HW217199   1.173   0.693   0.968
 5434SOL     OW17200   5.265   1.297   4.802
 5434SOL    HW117201   5.294   1.206   4.832
 5434SOL    HW217202   5.175   1.318   4.840
 5435SOL     OW17203   6.495   4.108   0.965
 5435SOL    HW117204   6.438   4.038   1.009
 5435SOL    HW217205   6.574   4.127   1.023
 5436SOL     OW17206   1.029   6.007   2.423
 5436SOL    HW117207   1.115   6.010   2.474
 5436SOL    HW217208   1.036   5.939   2.350
 5437SOL     OW17209   3.007   5.196   6.590
 5437SOL    HW117210   2.921   5.149   6.574
 5437SOL    HW217211   3.009   5.281   6.536
 5438SOL     OW17212   4.912   3.978   2.104
 5438SOL    HW117213   4.993   3.997   2.049
 5438SOL    HW217214   4.928   3.897   2.161
 5439SOL     OW17215   0.426   4.170   0.472
 5439SOL    HW117216   0.512   4.121   0.482
 5439SOL    HW217217   0.416   4.236   0.546
 5440SOL     OW17218   5.569   6.893   3.474
 5440SOL    HW117219   5.636   6.823   3.496
 5440SOL    HW217220   5.560   6.900   3.375
 5441SOL     OW17221   4.824   2.987   4.007
 5441SOL    HW117222   4.743   2.929   4.020
 5441SOL    HW217223   4.829   3.053   4.081
 5442SOL     OW17224   5.486   0.285   4.010
 5442SOL    HW117225   5.511   0.325   3.922
 5442SOL    HW217226   5.567   0.248   4.055
 5443SOL     OW17227   4.982   6.786   4.844
 5443SOL    HW117228   5.063   6.730   4.831
 5443SOL    HW217229   5.009   6.881   4.862
 5444SOL     OW17230   0.386   1.511   3.947
 5444SOL    HW117231   0.466   1.472   3.902
 5444SOL    HW217232   0.405   1.606   3.973
 5445SOL     OW17233   5.136   5.071   5.196
 5445SOL    HW117234   5.099   5.008   5.263
 5445SOL    HW217235   5.065   5.095   5.129
 5446SOL     OW17236   0.126   4.726   4.679
 5446SOL    HW117237   0.218   4.688   4.692
 5446SOL    HW217238   0.132   4.815   4.634
 5447SOL     OW17239   1.851   2.030   1.361
 5447SOL    HW117240   1.840   2.109   1.300
 5447SOL    HW217241   1.930   2.044   1.420
 5448SOL     OW17242   4.597   6.115   3.800
 5448SOL    HW117243   4.526   6.049   3.776
 5448SOL    HW217244   4.658   6.076   3.869
 5449SOL     OW17245   3.418   1.816   2.258
 5449SOL    HW117246   3.358   1.780   2.330
 5449SOL    HW217247   3.437   1.913   2.276
 5450SOL     OW17248   3.724   6.321   1.853
 5450SOL    HW117249   3.807   6.305   1.799
 5450SOL    HW217250   3.647   6.275   1.810
 5451SOL     OW17251   1.326   0.234   3.203
 5451SOL    HW117252   1.422   0.263   3.196
 5451SOL    HW217253   1.289   0.265   3.291
 5452SOL     OW17254   1.810   4.865   1.274
 5452SOL    HW117255   1.734   4.929   1.288
 5452SOL    HW217256   1.892   4.916   1.249
 5453SOL     OW17257   5.381   4.441   2.773
 5453SOL    HW117258   5.366   4.462   2.869
 5453SOL    HW217259   5.439   4.359   2.766
 5454SOL     OW17260   5.421   5.833   2.851
 5454SOL    HW117261   5.469   5.913   2.887
 5454SOL    HW217262   5.437   5.755   2.911
 5455SOL     OW17263   0.646   1.402   2.506
 5455SOL    HW117264   0.556   1.442   2.487
 5455SOL    HW217265   0.647   1.307   2.473
 5456SOL     OW17266   4.814   0.971   6.529
 5456SOL    HW117267   4.869   0.917   6.465
 5456SOL    HW217268   4.869   0.992   6.610
 5457SOL     OW17269   6.272   2.364   0.341
 5457SOL    HW117270   6.367   2.381   0.316
 5457SOL    HW217271   6.231   2.300   0.275
 5458SOL     OW17272   6.216   4.899   0.711
 5458SOL    HW117273   6.120   4.876   0.692
 5458SOL    HW217274   6.247   4.848   0.791
 5459SOL     OW17275   1.672   4.554   5.357
 5459SOL    HW117276   1.741   4.623   5.380
 5459SOL    HW217277   1.698   4.507   5.272
 5460SOL     OW17278   2.040   1.668   1.293
 5460SOL    HW117279   2.070   1.654   1.388
 5460SOL    HW217280   2.100   1.617   1.232
 5461SOL     OW17281   0.569   1.658   5.859
 5461SOL    HW117282   0.538   1.651   5.764
 5461SOL    HW217283   0.653   1.712   5.863
 5462SOL     OW17284   5.575   6.155   6.757
 5462SOL    HW117285   5.617   6.126   6.843
 5462SOL    HW217286   5.476   6.164   6.770
 5463SOL     OW17287   6.617   2.371   6.664
 5463SOL    HW117288   6.529   2.397   6.702
 5463SOL    HW217289   6.667   2.313   6.729
 5464SOL     OW17290   6.315   5.920   5.409
 5464SOL    HW117291   6.356   5.883   5.326
 5464SOL    HW217292   6.291   5.846   5.471
 5465SOL     OW17293   6.363   6.698   3.032
 5465SOL    HW117294   6.349   6.637   3.110
 5465SOL    HW217295   6.354   6.793   3.063
 5466SOL     OW17296   6.054   2.359   4.986
 5466SOL    HW117297   6.039   2.260   4.977
 5466SOL    HW217298   5.970   2.407   4.961
 5467SOL     OW17299   5.759   3.907   3.594
 5467SOL    HW117300   5.771   3.816   3.633
 5467SOL    HW217301   5.738   3.972   3.667
 5468SOL     OW17302   0.003   1.728   3.118
 5468SOL    HW117303   6.999   1.761   3.027
 5468SOL    HW217304   6.940   1.719   3.173
 5469SOL     OW17305   2.354   0.875   6.224
 5469SOL    HW117306   2.292   0.837   6.293
 5469SOL    HW217307   2.304   0.943   6.170
 5470SOL     OW17308   4.197   5.511   4.489
 5470SOL    HW117309   4.294   5.530   4.502
 5470SOL    HW217310   4.145   5.546   4.567
 5471SOL     OW17311   5.052   0.298   2.788
 5471SOL    HW117312   5.123   0.363   2.816
 5471SOL    HW217313   5.000   0.336   2.712
 5472SOL     OW17314   3.258   2.155   6.276
 5472SOL    HW117315   3.296   2.122   6.362
 5472SOL    HW217316   3.195   2.231   6.294
 5473SOL     OW17317   1.690   4.510   0.405
 5473SOL    HW117318   1.736   4.453   0.473
 5473SOL    HW217319   1.740   4.596   0.396
 5474SOL     OW17320   1.168   5.493   3.285
 5474SOL    HW117321   1.261   5.470   3.313
 5474SOL    HW217322   1.165   5.507   3.186
 5475SOL     OW17323   1.464   2.016   0.458
 5475SOL    HW117324   1.542   1.955   0.444
 5475SOL    HW217325   1.496   2.111   0.450
 5476SOL     OW17326   2.172   5.043   5.468
 5476SOL    HW117327   2.219   4.957   5.445
 5476SOL    HW217328   2.237   5.108   5.507
 5477SOL     OW17329   1.728   4.412   3.053
 5477SOL    HW117330   1.826   4.425   3.072
 5477SOL    HW217331   1.714   4.323   3.011
 5478SOL     OW17332   5.198   5.722   6.469
 5478SOL    HW117333   5.262   5.793   6.443
 5478SOL    HW217334   5.183   5.660   6.392
 5479SOL     OW17335   4.192   1.285   4.097
 5479SOL    HW117336   4.150   1.321   4.013
 5479SOL    HW217337   4.199   1.186   4.091
 5480SOL     OW17338   6.233   4.515   4.808
 5480SOL    HW117339   6.216   4.560   4.720
 5480SOL    HW217340   6.176   4.558   4.878
 5481SOL     OW17341   4.288   0.538   5.874
 5481SOL    HW117342   4.342   0.552   5.790
 5481SOL    HW217343   4.197   0.507   5.850
 5482SOL     OW17344   3.723   3.783   2.031
 5482SOL    HW117345   3.633   3.744   2.051
 5482SOL    HW217346   3.763   3.736   1.953
 5483SOL     OW17347   6.430   3.050   5.710
 5483SOL    HW117348   6.529   3.063   5.716
 5483SOL    HW217349   6.401   3.052   5.614
 5484SOL     OW17350   6.365   6.432   3.565
 5484SOL    HW117351   6.330   6.507   3.622
 5484SOL    HW217352   6.313   6.349   3.582
 5485SOL     OW17353   2.827   0.263   4.424
 5485SOL    HW117354   2.781   0.322   4.359
 5485SOL    HW217355   2.922   0.250   4.397
 5486SOL     OW17356   1.625   0.237   3.937
 5486SOL    HW117357   1.558   0.164   3.919
 5486SOL    HW217358   1.606   0.315   3.877
 5487SOL     OW17359   6.258   3.748   0.008
 5487SOL    HW117360   6.287   3.731   0.102
 5487SOL    HW217361   6.329   3.717   6.964
 5488SOL     OW17362   4.627   1.580   0.147
 5488SOL    HW117363   4.691   1.655   0.137
 5488SOL    HW217364   4.536   1.616   0.169
 5489SOL     OW17365   1.364   4.146   1.871
 5489SOL    HW117366   1.345   4.114   1.964
 5489SOL    HW217367   1.413   4.075   1.821
 5490SOL     OW17368   3.278   6.785   0.255
 5490SOL    HW117369   3.354   6.744   0.304
 5490SOL    HW217370   3.306   6.807   0.161
 5491SOL     OW17371   1.406   4.316   6.573
 5491SOL    HW117372   1.334   4.294   6.506
 5491SOL    HW217373   1.406   4.414   6.591
 5492SOL     OW17374   1.068   0.903   5.833
 5492SOL    HW117375   1.022   0.966   5.771
 5492SOL    HW217376   1.018   0.900   5.920
 5493SOL     OW17377   3.475   2.882   4.864
 5493SOL    HW117378   3.395   2.893   4.924
 5493SOL    HW217379   3.445   2.873   4.769
 5494SOL     OW17380   6.381   3.008   0.444
 5494SOL    HW117381   6.399   2.944   0.519
 5494SOL    HW217382   6.377   3.101   0.480
 5495SOL     OW17383   3.241   3.184   1.116
 5495SOL    HW117384   3.203   3.186   1.208
 5495SOL    HW217385   3.198   3.111   1.064
 5496SOL     OW17386   3.319   6.181   1.515
 5496SOL    HW117387   3.388   6.109   1.510
 5496SOL    HW217388   3.328   6.230   1.601
 5497SOL     OW17389   0.283   2.152   3.492
 5497SOL    HW117390   0.277   2.141   3.592
 5497SOL    HW217391   0.365   2.205   3.470
 5498SOL     OW17392   4.701   0.730   0.626
 5498SOL    HW117393   4.621   0.786   0.647
 5498SOL    HW217394   4.718   0.733   0.527
 5499SOL     OW17395   0.960   1.747   3.592
 5499SOL    HW117396   0.960   1.650   3.566
 5499SOL    HW217397   0.996   1.802   3.516
 5500SOL     OW17398   2.025   6.058   6.944
 5500SOL    HW117399   2.120   6.052   6.974
 5500SOL    HW217400   1.978   5.972   6.962
 5501SOL     OW17401   3.185   0.066   1.479
 5501SOL    HW117402   3.257   0.009   1.440
 5501SOL    HW217403   3.218   0.108   1.564
 5502SOL     OW17404   5.939   4.154   6.157
 5502SOL    HW117405   6.005   4.225   6.131
 5502SOL    HW217406   5.965   4.068   6.113
 5503SOL     OW17407   0.822   4.854   2.819
 5503SOL    HW117408   0.781   4.795   2.750
 5503SOL    HW217409   0.864   4.798   2.891
 5504SOL     OW17410   2.586   1.019   5.199
 5504SOL    HW117411   2.604   1.009   5.297
 5504SOL    HW217412   2.636   0.949   5.148
 5505SOL     OW17413   2.505   5.568   4.906
 5505SOL    HW117414   2.469   5.660   4.919
 5505SOL    HW217415   2.500   5.518   4.992
 5506SOL     OW17416   6.517   6.912   5.378
 5506SOL    HW117417   6.597   6.870   5.337
 5506SOL    HW217418   6.533   7.011   5.388
 5507SOL     OW17419   2.725   6.692   3.243
 5507SOL    HW117420   2.679   6.778   3.223
 5507SOL    HW217421   2.682   6.618   3.191
 5508SOL     OW17422   2.494   0.531   0.191
 5508SOL    HW117423   2.478   0.542   0.290
 5508SOL    HW217424   2.424   0.583   0.141
 5509SOL     OW17425   0.459   6.164   0.849
 5509SOL    HW117426   0.435   6.162   0.752
 5509SOL    HW217427   0.393   6.110   0.901
 5510SOL     OW17428   5.290   6.497   0.306
 5510SOL    HW117429   5.358   6.502   0.233
 5510SOL    HW217430   5.268   6.590   0.337
 5511SOL     OW17431   2.247   0.762   3.784
 5511SOL    HW117432   2.202   0.849   3.762
 5511SOL    HW217433   2.346   0.775   3.788
 5512SOL     OW17434   6.143   2.321   0.567
 5512SOL    HW117435   6.175   2.352   0.478
 5512SOL    HW217436   6.079   2.245   0.555
 5513SOL     OW17437   4.881   4.221   5.515
 5513SOL    HW117438   4.933   4.155   5.570
 5513SOL    HW217439   4.848   4.176   5.432
 5514SOL     OW17440   5.004   5.637   2.788
 5514SOL    HW117441   4.938   5.648   2.713
 5514SOL    HW217442   5.083   5.585   2.756
 5515SOL     OW17443   6.887   3.946   1.098
 5515SOL    HW117444   6.877   3.853   1.132
 5515SOL    HW217445   6.984   3.968   1.088
 5516SOL     OW17446   1.222   3.234   0.603
 5516SOL    HW117447   1.254   3.148   0.564
 5516SOL    HW217448   1.251   3.241   0.698
 5517SOL     OW17449   2.708   2.263   2.323
 5517SOL    HW117450   2.666   2.294   2.408
 5517SOL    HW217451   2.733   2.342   2.267
 5518SOL     OW17452   6.590   5.745   6.033
 5518SOL    HW117453   6.589   5.811   5.958
 5518SOL    HW217454   6.500   5.703   6.042
 5519SOL     OW17455   4.884   3.603   3.063
 5519SOL    HW117456   4.807   3.554   3.023
 5519SOL    HW217457   4.944   3.537   3.109
 5520SOL     OW17458   0.989   4.659   2.923
 5520SOL    HW117459   0.942   4.614   2.847
 5520SOL    HW217460   0.991   4.598   3.002
 5521SOL     OW17461   4.151   6.020   2.561
 5521SOL    HW117462   4.204   5.935   2.573
 5521SOL    HW217463   4.071   6.017   2.621
 5522SOL     OW17464   1.456   3.863   1.087
 5522SOL    HW117465   1.503   3.790   1.138
 5522SOL    HW217466   1.522   3.934   1.063
 5523SOL     OW17467   3.233   6.666   3.083
 5523SOL    HW117468   3.309   6.606   3.111
 5523SOL    HW217469   3.256   6.760   3.105
 5524SOL     OW17470   6.789   5.969   5.037
 5524SOL    HW117471   6.815   6.003   5.127
 5524SOL    HW217472   6.749   5.878   5.046
 5525SOL     OW17473   6.617   4.477   0.426
 5525SOL    HW117474   6.577   4.401   0.476
 5525SOL    HW217475   6.689   4.443   0.364
 5526SOL     OW17476   6.004   3.567   4.926
 5526SOL    HW117477   5.943   3.577   4.847
 5526SOL    HW217478   5.949   3.547   5.008
 5527SOL     OW17479   0.807   3.462   3.208
 5527SOL    HW117480   0.776   3.544   3.256
 5527SOL    HW217481   0.874   3.488   3.138
 5528SOL     OW17482   1.195   2.326   6.023
 5528SOL    HW117483   1.130   2.250   6.021
 5528SOL    HW217484   1.210   2.355   6.118
 5529SOL     OW17485   2.503   0.267   4.417
 5529SOL    HW117486   2.511   0.186   4.358
 5529SOL    HW217487   2.529   0.242   4.511
 5530SOL     OW17488   0.311   2.387   2.262
 5530SOL    HW117489   0.378   2.430   2.201
 5530SOL    HW217490   0.240   2.453   2.285
 5531SOL     OW17491   4.100   3.725   4.000
 5531SOL    HW117492   4.046   3.642   4.015
 5531SOL    HW217493   4.197   3.701   3.995
 5532SOL     OW17494   1.362   1.436   1.334
 5532SOL    HW117495   1.458   1.431   1.304
 5532SOL    HW217496   1.347   1.370   1.408
 5533SOL     OW17497   2.846   0.956   2.405
 5533SOL    HW117498   2.938   0.920   2.421
 5533SOL    HW217499   2.779   0.884   2.422
 5534SOL     OW17500   1.065   3.476   6.171
 5534SOL    HW117501   1.065   3.457   6.073
 5534SOL    HW217502   1.123   3.555   6.190
 5535SOL     OW17503   0.265   3.318   3.360
 5535SOL    HW117504   0.319   3.267   3.293
 5535SOL    HW217505   0.175   3.275   3.370
 5536SOL     OW17506   3.184   0.721   4.158
 5536SOL    HW117507   3.115   0.681   4.218
 5536SOL    HW217508   3.207   0.813   4.191
 5537SOL     OW17509   3.577   0.766   4.425
 5537SOL    HW117510   3.634   0.832   4.475
 5537SOL    HW217511   3.500   0.813   4.383
 5538SOL     OW17512   3.544   0.159   5.240
 5538SOL    HW117513   3.516   0.237   5.185
 5538SOL    HW217514   3.641   0.140   5.225
 5539SOL     OW17515   0.798   2.090   0.902
 5539SOL    HW117516   0.781   2.161   0.834
 5539SOL    HW217517   0.734   2.014   0.887
 5540SOL     OW17518   4.969   3.635   2.622
 5540SOL    HW117519   4.939   3.683   2.539
 5540SOL    HW217520   4.977   3.537   2.603
 5541SOL     OW17521   5.700   2.417   6.098
 5541SOL    HW117522   5.609   2.394   6.063
 5541SOL    HW217523   5.712   2.516   6.100
 5542SOL     OW17524   5.942   5.988   5.861
 5542SOL    HW117525   5.967   6.064   5.922
 5542SOL    HW217526   6.024   5.953   5.817
 5543SOL     OW17527   1.761   5.148   6.306
 5543SOL    HW117528   1.818   5.074   6.270
 5543SOL    HW217529   1.738   5.130   6.402
 5544SOL     OW17530   5.119   5.494   5.635
 5544SOL    HW117531   5.057   5.421   5.665
 5544SOL    HW217532   5.069   5.558   5.576
 5545SOL     OW17533   4.888   1.142   2.788
 5545SOL    HW117534   4.974   1.152   2.737
 5545SOL    HW217535   4.903   1.080   2.865
 5546SOL     OW17536   1.197   6.400   4.499
 5546SOL    HW117537   1.175   6.429   4.593
 5546SOL    HW217538   1.119   6.350   4.461
 5547SOL     OW17539   4.375   0.482   5.016
 5547SOL    HW117540   4.288   0.529   4.998
 5547SOL    HW217541   4.434   0.490   4.936
 5548SOL     OW17542   6.469   3.438   5.112
 5548SOL    HW117543   6.446   3.358   5.056
 5548SOL    HW217544   6.388   3.465   5.165
 5549SOL     OW17545   3.878   4.573   1.236
 5549SOL    HW117546   3.782   4.548   1.220
 5549SOL    HW217547   3.920   4.600   1.149
 5550SOL     OW17548   2.316   4.359   1.973
 5550SOL    HW117549   2.369   4.444   1.980
 5550SOL    HW217550   2.324   4.322   1.881
 5551SOL     OW17551   1.274   6.132   3.145
 5551SOL    HW117552   1.297   6.224   3.114
 5551SOL    HW217553   1.333   6.108   3.223
 5552SOL     OW17554   6.400   0.866   6.687
 5552SOL    HW117555   6.350   0.953   6.687
 5552SOL    HW217556   6.391   0.822   6.776
 5553SOL     OW17557   5.038   6.228   6.279
 5553SOL    HW117558   4.956   6.243   6.225
 5553SOL    HW217559   5.113   6.284   6.243
 5554SOL     OW17560   4.817   2.164   6.946
 5554SOL    HW117561   4.870   2.136   0.006
 5554SOL    HW217562   4.820   2.091   6.877
 5555SOL     OW17563   0.937   3.781   2.226
 5555SOL    HW117564   0.969   3.687   2.213
 5555SOL    HW217565   1.012   3.844   2.206
 5556SOL     OW17566   6.208   1.293   3.530
 5556SOL    HW117567   6.180   1.330   3.442
 5556SOL    HW217568   6.160   1.207   3.547
 5557SOL     OW17569   4.039   6.107   2.335
 5557SOL    HW117570   4.055   6.074   2.428
 5557SOL    HW217571   3.987   6.038   2.284
 5558SOL     OW17572   2.769   3.724   6.308
 5558SOL    HW117573   2.807   3.780   6.234
 5558SOL    HW217574   2.684   3.766   6.341
 5559SOL     OW17575   2.057   0.172   1.362
 5559SOL    HW117576   1.976   0.147   1.308
 5559SOL    HW217577   2.031   0.235   1.435
 5560SOL     OW17578   0.321   5.249   1.500
 5560SOL    HW117579   0.399   5.311   1.512
 5560SOL    HW217580   0.323   5.179   1.570
 5561SOL     OW17581   2.046   1.030   4.215
 5561SOL    HW117582   2.107   1.017   4.292
 5561SOL    HW217583   2.033   0.943   4.167
 5562SOL     OW17584   4.176   2.532   6.357
 5562SOL    HW117585   4.124   2.541   6.272
 5562SOL    HW217586   4.267   2.496   6.337
 5563SOL     OW17587   3.087   4.894   2.422
 5563SOL    HW117588   3.041   4.827   2.364
 5563SOL    HW217589   3.034   4.910   2.504
 5564SOL     OW17590   4.697   0.128   0.789
 5564SOL    HW117591   4.734   0.037   0.772
 5564SOL    HW217592   4.628   0.150   0.720
 5565SOL     OW17593   4.410   2.335   5.957
 5565SOL    HW117594   4.342   2.262   5.956
 5565SOL    HW217595   4.364   2.423   5.973
 5566SOL     OW17596   1.292   4.318   6.846
 5566SOL    HW117597   1.192   4.315   6.846
 5566SOL    HW217598   1.327   4.285   6.759
 5567SOL     OW17599   6.933   3.602   0.797
 5567SOL    HW117600   0.000   3.562   0.825
 5567SOL    HW217601   6.869   3.601   0.874
 5568SOL     OW17602   5.109   1.140   3.529
 5568SOL    HW117603   5.048   1.091   3.467
 5568SOL    HW217604   5.088   1.238   3.527
 5569SOL     OW17605   1.884   1.171   2.278
 5569SOL    HW117606   1.915   1.167   2.373
 5569SOL    HW217607   1.963   1.186   2.218
 5570SOL     OW17608   6.888   3.814   4.259
 5570SOL    HW117609   6.928   3.729   4.226
 5570SOL    HW217610   6.830   3.854   4.189
 5571SOL     OW17611   6.197   6.246   1.465
 5571SOL    HW117612   6.220   6.187   1.388
 5571SOL    HW217613   6.279   6.264   1.519
 5572SOL     OW17614   1.459   3.702   4.549
 5572SOL    HW117615   1.489   3.727   4.458
 5572SOL    HW217616   1.421   3.609   4.548
 5573SOL     OW17617   1.733   5.714   4.992
 5573SOL    HW117618   1.801   5.647   4.962
 5573SOL    HW217619   1.645   5.667   5.006
 5574SOL     OW17620   0.326   1.689   2.557
 5574SOL    HW117621   0.303   1.719   2.464
 5574SOL    HW217622   0.375   1.602   2.552
 5575SOL     OW17623   0.235   1.317   0.819
 5575SOL    HW117624   0.265   1.251   0.887
 5575SOL    HW217625   0.250   1.410   0.854
 5576SOL     OW17626   0.964   4.738   1.757
 5576SOL    HW117627   0.923   4.731   1.666
 5576SOL    HW217628   0.901   4.701   1.825
 5577SOL     OW17629   2.715   2.944   6.344
 5577SOL    HW117630   2.623   2.935   6.383
 5577SOL    HW217631   2.737   3.040   6.331
 5578SOL     OW17632   3.225   3.455   1.779
 5578SOL    HW117633   3.227   3.539   1.834
 5578SOL    HW217634   3.233   3.478   1.682
 5579SOL     OW17635   0.279   3.718   0.723
 5579SOL    HW117636   0.205   3.657   0.693
 5579SOL    HW217637   0.283   3.797   0.661
 5580SOL     OW17638   5.038   2.362   5.247
 5580SOL    HW117639   5.042   2.309   5.163
 5580SOL    HW217640   5.123   2.349   5.299
 5581SOL     OW17641   1.667   0.364   1.847
 5581SOL    HW117642   1.718   0.450   1.851
 5581SOL    HW217643   1.585   0.370   1.903
 5582SOL     OW17644   2.928   3.529   6.112
 5582SOL    HW117645   2.889   3.615   6.145
 5582SOL    HW217646   2.998   3.549   6.043
 5583SOL     OW17647   5.291   0.734   2.863
 5583SOL    HW117648   5.295   0.792   2.944
 5583SOL    HW217649   5.331   0.782   2.785
 5584SOL     OW17650   6.632   4.800   4.259
 5584SOL    HW117651   6.604   4.707   4.237
 5584SOL    HW217652   6.707   4.827   4.199
 5585SOL     OW17653   5.237   5.579   3.277
 5585SOL    HW117654   5.247   5.480   3.267
 5585SOL    HW217655   5.217   5.620   3.188
 5586SOL     OW17656   0.453   2.764   5.859
 5586SOL    HW117657   0.431   2.774   5.956
 5586SOL    HW217658   0.517   2.688   5.847
 5587SOL     OW17659   4.215   6.592   1.441
 5587SOL    HW117660   4.294   6.627   1.491
 5587SOL    HW217661   4.197   6.652   1.363
 5588SOL     OW17662   2.662   5.097   2.905
 5588SOL    HW117663   2.690   5.190   2.931
 5588SOL    HW217664   2.675   5.035   2.982
 5589SOL     OW17665   6.680   3.140   5.756
 5589SOL    HW117666   6.641   3.227   5.727
 5589SOL    HW217667   6.778   3.149   5.768
 5590SOL     OW17668   0.414   6.308   3.889
 5590SOL    HW117669   0.425   6.354   3.801
 5590SOL    HW217670   0.316   6.303   3.912
 5591SOL     OW17671   5.570   1.406   1.489
 5591SOL    HW117672   5.650   1.354   1.517
 5591SOL    HW217673   5.492   1.343   1.478
 5592SOL     OW17674   0.998   5.865   2.133
 5592SOL    HW117675   0.995   5.965   2.133
 5592SOL    HW217676   0.914   5.829   2.173
 5593SOL     OW17677   0.971   3.107   0.650
 5593SOL    HW117678   1.051   3.148   0.606
 5593SOL    HW217679   0.890   3.123   0.593
 5594SOL     OW17680   4.463   1.338   6.492
 5594SOL    HW117681   4.430   1.342   6.398
 5594SOL    HW217682   4.483   1.242   6.516
 5595SOL     OW17683   0.085   1.041   4.609
 5595SOL    HW117684   0.107   1.115   4.545
 5595SOL    HW217685   0.157   0.972   4.607
 5596SOL     OW17686   4.725   1.026   2.601
 5596SOL    HW117687   4.693   0.934   2.622
 5596SOL    HW217688   4.785   1.058   2.674
 5597SOL     OW17689   5.131   2.893   4.961
 5597SOL    HW117690   5.116   2.801   4.997
 5597SOL    HW217691   5.052   2.951   4.982
 5598SOL     OW17692   5.390   4.088   4.044
 5598SOL    HW117693   5.314   4.153   4.039
 5598SOL    HW217694   5.477   4.138   4.038
 5599SOL     OW17695   1.042   1.978   2.559
 5599SOL    HW117696   1.070   1.907   2.495
 5599SOL    HW217697   1.101   2.058   2.547
 5600SOL     OW17698   1.623   1.707   1.479
 5600SOL    HW117699   1.587   1.801   1.479
 5600SOL    HW217700   1.712   1.705   1.434
 5601SOL     OW17701   2.061   0.741   6.182
 5601SOL    HW117702   2.112   0.690   6.113
 5601SOL    HW217703   2.052   0.685   6.265
 5602SOL     OW17704   6.972   2.081   1.322
 5602SOL    HW117705   6.896   2.094   1.259
 5602SOL    HW217706   6.938   2.080   1.416
 5603SOL     OW17707   5.632   2.865   0.646
 5603SOL    HW117708   5.550   2.808   0.650
 5603SOL    HW217709   5.691   2.845   0.724
 5604SOL     OW17710   5.989   2.429   4.669
 5604SOL    HW117711   6.089   2.420   4.674
 5604SOL    HW217712   5.948   2.389   4.751
 5605SOL     OW17713   0.070   1.362   5.279
 5605SOL    HW117714   0.121   1.432   5.228
 5605SOL    HW217715   6.995   1.358   5.245
 5606SOL     OW17716   4.743   6.775   0.396
 5606SOL    HW117717   4.821   6.715   0.414
 5606SOL    HW217718   4.776   6.860   0.354
 5607SOL     OW17719   5.221   1.238   2.714
 5607SOL    HW117720   5.156   1.312   2.697
 5607SOL    HW217721   5.283   1.230   2.636
 5608SOL     OW17722   5.653   0.547   3.819
 5608SOL    HW117723   5.648   0.624   3.882
 5608SOL    HW217724   5.684   0.466   3.867
 5609SOL     OW17725   3.008   5.993   1.186
 5609SOL    HW117726   3.099   6.005   1.224
 5609SOL    HW217727   2.954   5.932   1.244
 5610SOL     OW17728   4.355   5.998   0.371
 5610SOL    HW117729   4.326   5.998   0.467
 5610SOL    HW217730   4.276   5.983   0.312
 5611SOL     OW17731   1.376   5.859   2.736
 5611SOL    HW117732   1.347   5.777   2.786
 5611SOL    HW217733   1.387   5.935   2.800
 5612SOL     OW17734   3.958   2.210   5.841
 5612SOL    HW117735   3.889   2.210   5.768
 5612SOL    HW217736   3.911   2.213   5.930
 5613SOL     OW17737   6.228   4.188   3.633
 5613SOL    HW117738   6.139   4.162   3.596
 5613SOL    HW217739   6.299   4.128   3.594
 5614SOL     OW17740   4.654   2.280   4.265
 5614SOL    HW117741   4.728   2.344   4.285
 5614SOL    HW217742   4.567   2.318   4.298
 5615SOL     OW17743   0.174   1.928   3.942
 5615SOL    HW117744   0.106   1.967   4.005
 5615SOL    HW217745   0.146   1.836   3.916
 5616SOL     OW17746   2.482   2.057   4.445
 5616SOL    HW117747   2.522   1.968   4.465
 5616SOL    HW217748   2.503   2.083   4.350
 5617SOL     OW17749   2.659   6.231   5.899
 5617SOL    HW117750   2.613   6.273   5.976
 5617SOL    HW217751   2.656   6.293   5.820
 5618SOL     OW17752   0.241   4.674   3.499
 5618SOL    HW117753   0.268   4.620   3.420
 5618SOL    HW217754   0.291   4.643   3.580
 5619SOL     OW17755   3.340   3.789   4.842
 5619SOL    HW117756   3.373   3.715   4.783
 5619SOL    HW217757   3.272   3.843   4.793
 5620SOL     OW17758   3.887   3.781   0.850
 5620SOL    HW117759   3.828   3.838   0.907
 5620SOL    HW217760   3.947   3.839   0.795
 5621SOL     OW17761   2.242   2.482   0.159
 5621SOL    HW117762   2.243   2.582   0.155
 5621SOL    HW217763   2.267   2.452   0.252
 5622SOL     OW17764   4.582   0.453   5.816
 5622SOL    HW117765   4.612   0.534   5.765
 5622SOL    HW217766   4.560   0.479   5.910
 5623SOL     OW17767   3.368   5.440   5.584
 5623SOL    HW117768   3.423   5.401   5.510
 5623SOL    HW217769   3.272   5.418   5.568
 5624SOL     OW17770   1.302   4.398   3.614
 5624SOL    HW117771   1.302   4.455   3.532
 5624SOL    HW217772   1.242   4.320   3.600
 5625SOL     OW17773   5.459   1.201   5.635
 5625SOL    HW117774   5.467   1.152   5.548
 5625SOL    HW217775   5.540   1.259   5.648
 5626SOL     OW17776   2.361   5.673   4.446
 5626SOL    HW117777   2.410   5.735   4.385
 5626SOL    HW217778   2.425   5.634   4.512
 5627SOL     OW17779   0.467   5.667   6.439
 5627SOL    HW117780   0.423   5.747   6.479
 5627SOL    HW217781   0.447   5.664   6.341
 5628SOL     OW17782   1.242   1.999   0.993
 5628SOL    HW117783   1.305   2.039   1.060
 5628SOL    HW217784   1.257   1.900   0.990
 5629SOL     OW17785   3.528   3.700   2.250
 5629SOL    HW117786   3.469   3.744   2.317
 5629SOL    HW217787   3.507   3.602   2.246
 5630SOL     OW17788   1.281   3.446   6.996
 5630SOL    HW117789   1.376   3.476   6.989
 5630SOL    HW217790   1.229   3.484   6.919
 5631SOL     OW17791   4.590   1.927   1.159
 5631SOL    HW117792   4.573   1.975   1.073
 5631SOL    HW217793   4.599   1.829   1.142
 5632SOL     OW17794   3.221   2.483   6.228
 5632SOL    HW117795   3.206   2.554   6.296
 5632SOL    HW217796   3.221   2.524   6.136
 5633SOL     OW17797   6.032   4.153   4.475
 5633SOL    HW117798   6.018   4.205   4.559
 5633SOL    HW217799   6.079   4.210   4.407
 5634SOL     OW17800   2.300   4.628   4.679
 5634SOL    HW117801   2.216   4.678   4.658
 5634SOL    HW217802   2.276   4.542   4.725
 5635SOL     OW17803   1.764   4.364   5.153
 5635SOL    HW117804   1.840   4.374   5.089
 5635SOL    HW217805   1.799   4.332   5.242
 5636SOL     OW17806   4.771   6.632   4.268
 5636SOL    HW117807   4.839   6.580   4.318
 5636SOL    HW217808   4.741   6.579   4.188
 5637SOL     OW17809   5.600   0.280   3.280
 5637SOL    HW117810   5.537   0.212   3.242
 5637SOL    HW217811   5.682   0.284   3.224
 5638SOL     OW17812   6.070   3.610   1.142
 5638SOL    HW117813   6.143   3.618   1.074
 5638SOL    HW217814   6.070   3.517   1.181
 5639SOL     OW17815   0.468   0.903   2.080
 5639SOL    HW117816   0.513   0.977   2.030
 5639SOL    HW217817   0.497   0.815   2.042
 5640SOL     OW17818   3.361   0.094   3.566
 5640SOL    HW117819   3.437   0.128   3.621
 5640SOL    HW217820   3.286   0.067   3.627
 5641SOL     OW17821   0.844   4.776   5.389
 5641SOL    HW117822   0.838   4.840   5.465
 5641SOL    HW217823   0.838   4.683   5.423
 5642SOL     OW17824   1.627   6.486   5.420
 5642SOL    HW117825   1.632   6.564   5.359
 5642SOL    HW217826   1.580   6.410   5.375
 5643SOL     OW17827   4.238   0.864   5.489
 5643SOL    HW117828   4.229   0.952   5.535
 5643SOL    HW217829   4.166   0.803   5.520
 5644SOL     OW17830   3.157   0.214   5.437
 5644SOL    HW117831   3.091   0.241   5.367
 5644SOL    HW217832   3.112   0.211   5.526
 5645SOL     OW17833   6.578   4.683   3.889
 5645SOL    HW117834   6.642   4.666   3.815
 5645SOL    HW217835   6.546   4.778   3.885
 5646SOL     OW17836   1.831   5.253   3.489
 5646SOL    HW117837   1.909   5.300   3.530
 5646SOL    HW217838   1.761   5.238   3.560
 5647SOL     OW17839   4.522   5.711   1.808
 5647SOL    HW117840   4.541   5.643   1.879
 5647SOL    HW217841   4.594   5.706   1.738
 5648SOL     OW17842   1.925   6.168   2.375
 5648SOL    HW117843   1.875   6.148   2.291
 5648SOL    HW217844   2.019   6.192   2.353
 5649SOL     OW17845   0.737   6.749   4.459
 5649SOL    HW117846   0.687   6.792   4.384
 5649SOL    HW217847   0.825   6.715   4.427
 5650SOL     OW17848   0.435   5.331   1.238
 5650SOL    HW117849   0.363   5.306   1.303
 5650SOL    HW217850   0.508   5.379   1.287
 5651SOL     OW17851   1.803   1.000   1.490
 5651SOL    HW117852   1.787   0.926   1.424
 5651SOL    HW217853   1.721   1.057   1.495
 5652SOL     OW17854   5.959   6.780   1.739
 5652SOL    HW117855   5.984   6.811   1.830
 5652SOL    HW217856   5.999   6.841   1.670
 5653SOL     OW17857   5.918   6.422   6.315
 5653SOL    HW117858   5.980   6.463   6.249
 5653SOL    HW217859   5.965   6.411   6.403
 5654SOL     OW17860   0.871   6.533   4.854
 5654SOL    HW117861   0.831   6.482   4.778
 5654SOL    HW217862   0.859   6.631   4.838
 5655SOL     OW17863   0.643   2.975   3.937
 5655SOL    HW117864   0.681   3.065   3.912
 5655SOL    HW217865   0.544   2.977   3.924
 5656SOL     OW17866   0.049   3.976   6.575
 5656SOL    HW117867   0.037   3.888   6.530
 5656SOL    HW217868   0.146   3.995   6.587
 5657SOL     OW17869   5.924   3.030   6.526
 5657SOL    HW117870   5.994   2.959   6.539
 5657SOL    HW217871   5.953   3.093   6.454
 5658SOL     OW17872   3.173   3.004   6.452
 5658SOL    HW117873   3.214   3.020   6.363
 5658SOL    HW217874   3.153   3.091   6.496
 5659SOL     OW17875   3.409   3.313   5.743
 5659SOL    HW117876   3.408   3.345   5.838
 5659SOL    HW217877   3.448   3.384   5.685
 5660SOL     OW17878   4.418   7.006   6.299
 5660SOL    HW117879   4.359   7.006   6.380
 5660SOL    HW217880   4.360   7.006   6.217
 5661SOL     OW17881   2.015   5.792   4.766
 5661SOL    HW117882   1.965   5.845   4.697
 5661SOL    HW217883   2.083   5.851   4.810
 5662SOL     OW17884   2.959   6.812   3.327
 5662SOL    HW117885   2.875   6.759   3.311
 5662SOL    HW217886   3.007   6.774   3.405
 5663SOL     OW17887   2.500   2.344   0.742
 5663SOL    HW117888   2.469   2.373   0.832
 5663SOL    HW217889   2.599   2.330   0.744
 5664SOL     OW17890   6.780   3.365   4.222
 5664SOL    HW117891   6.788   3.278   4.270
 5664SOL    HW217892   6.849   3.370   4.150
 5665SOL     OW17893   1.620   0.732   0.518
 5665SOL    HW117894   1.711   0.723   0.477
 5665SOL    HW217895   1.625   0.714   0.616
 5666SOL     OW17896   6.577   7.005   3.542
 5666SOL    HW117897   6.566   0.054   3.470
 5666SOL    HW217898   6.597   0.032   3.629
 5667SOL     OW17899   1.208   4.606   4.810
 5667SOL    HW117900   1.296   4.596   4.856
 5667SOL    HW217901   1.176   4.701   4.820
 5668SOL     OW17902   5.509   3.168   2.950
 5668SOL    HW117903   5.595   3.118   2.943
 5668SOL    HW217904   5.462   3.141   3.035
 5669SOL     OW17905   6.473   3.784   1.279
 5669SOL    HW117906   6.533   3.706   1.294
 5669SOL    HW217907   6.461   3.833   1.365
 5670SOL     OW17908   1.365   3.661   3.926
 5670SOL    HW117909   1.345   3.704   4.014
 5670SOL    HW217910   1.445   3.705   3.885
 5671SOL     OW17911   6.068   5.985   5.538
 5671SOL    HW117912   6.020   5.910   5.492
 5671SOL    HW217913   6.155   6.002   5.491
 5672SOL     OW17914   4.657   3.878   6.467
 5672SOL    HW117915   4.721   3.869   6.542
 5672SOL    HW217916   4.685   3.954   6.408
 5673SOL     OW17917   1.692   6.852   0.965
 5673SOL    HW117918   1.747   6.933   0.945
 5673SOL    HW217919   1.608   6.879   1.011
 5674SOL     OW17920   1.388   4.838   5.445
 5674SOL    HW117921   1.310   4.895   5.419
 5674SOL    HW217922   1.386   4.753   5.393
 5675SOL     OW17923   4.783   2.806   6.507
 5675SOL    HW117924   4.750   2.846   6.422
 5675SOL    HW217925   4.863   2.857   6.538
 5676SOL     OW17926   2.368   1.898   2.816
 5676SOL    HW117927   2.323   1.943   2.893
 5676SOL    HW217928   2.314   1.912   2.733
 5677SOL     OW17929   1.279   0.845   0.684
 5677SOL    HW117930   1.217   0.924   0.684
 5677SOL    HW217931   1.261   0.788   0.764
 5678SOL     OW17932   3.956   0.059   2.899
 5678SOL    HW117933   3.894   0.031   2.826
 5678SOL    HW217934   3.943   7.019   2.978
 5679SOL     OW17935   6.162   1.078   3.947
 5679SOL    HW117936   6.088   1.144   3.933
 5679SOL    HW217937   6.194   1.045   3.859
 5680SOL     OW17938   1.656   5.182   6.586
 5680SOL    HW117939   1.673   5.170   6.683
 5680SOL    HW217940   1.702   5.264   6.553
 5681SOL     OW17941   0.604   3.850   1.827
 5681SOL    HW117942   0.647   3.896   1.905
 5681SOL    HW217943   0.505   3.847   1.841
 5682SOL     OW17944   2.010   5.263   4.455
 5682SOL    HW117945   1.934   5.309   4.408
 5682SOL    HW217946   2.097   5.292   4.414
 5683SOL     OW17947   3.974   1.531   5.893
 5683SOL    HW117948   4.051   1.534   5.830
 5683SOL    HW217949   4.004   1.498   5.982
 5684SOL     OW17950   2.483   3.907   6.367
 5684SOL    HW117951   2.456   3.811   6.361
 5684SOL    HW217952   2.528   3.935   6.282
 5685SOL     OW17953   2.695   1.206   3.536
 5685SOL    HW117954   2.669   1.139   3.605
 5685SOL    HW217955   2.676   1.298   3.570
 5686SOL     OW17956   3.078   1.885   5.655
 5686SOL    HW117957   3.153   1.886   5.721
 5686SOL    HW217958   3.109   1.844   5.569
 5687SOL     OW17959   0.550   5.297   5.930
 5687SOL    HW117960   0.518   5.342   5.847
 5687SOL    HW217961   0.477   5.240   5.968
 5688SOL     OW17962   1.460   2.505   2.636
 5688SOL    HW117963   1.367   2.489   2.602
 5688SOL    HW217964   1.481   2.603   2.629
 5689SOL     OW17965   2.618   1.210   1.852
 5689SOL    HW117966   2.684   1.137   1.840
 5689SOL    HW217967   2.665   1.294   1.878
 5690SOL     OW17968   1.623   5.988   6.965
 5690SOL    HW117969   1.637   6.050   0.023
 5690SOL    HW217970   1.551   6.025   6.906
 5691SOL     OW17971   3.924   0.558   1.787
 5691SOL    HW117972   4.023   0.564   1.769
 5691SOL    HW217973   3.897   0.635   1.845
 5692SOL     OW17974   5.805   4.476   0.808
 5692SOL    HW117975   5.766   4.525   0.729
 5692SOL    HW217976   5.731   4.432   0.859
 5693SOL     OW17977   4.424   1.375   2.115
 5693SOL    HW117978   4.330   1.340   2.118
 5693SOL    HW217979   4.470   1.341   2.033
 5694SOL     OW17980   1.241   0.709   2.653
 5694SOL    HW117981   1.287   0.622   2.667
 5694SOL    HW217982   1.308   0.778   2.625
 5695SOL     OW17983   1.513   1.898   3.579
 5695SOL    HW117984   1.607   1.918   3.609
 5695SOL    HW217985   1.512   1.882   3.480
 5696SOL     OW17986   0.726   0.154   3.848
 5696SOL    HW117987   0.822   0.160   3.873
 5696SOL    HW217988   0.717   0.125   3.753
 5697SOL     OW17989   5.987   2.225   1.796
 5697SOL    HW117990   6.080   2.218   1.760
 5697SOL    HW217991   5.958   2.135   1.830
 5698SOL     OW17992   0.769   4.409   3.594
 5698SOL    HW117993   0.838   4.465   3.640
 5698SOL    HW217994   0.737   4.456   3.512
 5699SOL     OW17995   1.029   2.667   2.657
 5699SOL    HW117996   1.053   2.646   2.752
 5699SOL    HW217997   1.049   2.763   2.639
 5700SOL     OW17998   6.512   6.734   4.061
 5700SOL    HW117999   6.540   6.823   4.096
 5700SOL    HW218000   6.414   6.734   4.045
 5701SOL     OW18001   0.782   0.146   1.461
 5701SOL    HW118002   0.822   0.086   1.531
 5701SOL    HW218003   0.684   0.131   1.455
 5702SOL     OW18004   2.506   5.505   4.623
 5702SOL    HW118005   2.590   5.531   4.575
 5702SOL    HW218006   2.526   5.494   4.721
 5703SOL     OW18007   6.236   4.545   0.556
 5703SOL    HW118008   6.279   4.554   0.467
 5703SOL    HW218009   6.306   4.537   0.627
 5704SOL     OW18010   5.009   4.290   3.374
 5704SOL    HW118011   5.061   4.227   3.316
 5704SOL    HW218012   4.937   4.334   3.320
 5705SOL     OW18013   5.067   6.175   6.847
 5705SOL    HW118014   4.986   6.212   6.802
 5705SOL    HW218015   5.061   6.075   6.849
 5706SOL     OW18016   5.587   2.743   2.428
 5706SOL    HW118017   5.508   2.761   2.486
 5706SOL    HW218018   5.581   2.799   2.345
 5707SOL     OW18019   5.926   0.115   1.052
 5707SOL    HW118020   5.877   0.195   1.018
 5707SOL    HW218021   5.862   0.039   1.062
 5708SOL     OW18022   5.151   5.699   2.351
 5708SOL    HW118023   5.197   5.773   2.301
 5708SOL    HW218024   5.122   5.733   2.440
 5709SOL     OW18025   1.111   1.108   2.401
 5709SOL    HW118026   1.150   1.050   2.329
 5709SOL    HW218027   1.142   1.202   2.389
 5710SOL     OW18028   3.482   2.410   0.336
 5710SOL    HW118029   3.414   2.337   0.328
 5710SOL    HW218030   3.453   2.476   0.406
 5711SOL     OW18031   5.080   1.275   1.961
 5711SOL    HW118032   5.174   1.289   1.992
 5711SOL    HW218033   5.017   1.323   2.022
 5712SOL     OW18034   6.048   6.689   0.170
 5712SOL    HW118035   6.114   6.746   0.121
 5712SOL    HW218036   6.008   6.741   0.245
 5713SOL     OW18037   2.495   3.750   1.728
 5713SOL    HW118038   2.505   3.651   1.724
 5713SOL    HW218039   2.530   3.790   1.643
 5714SOL     OW18040   6.631   6.347   1.099
 5714SOL    HW118041   6.730   6.356   1.108
 5714SOL    HW218042   6.587   6.386   1.180
 5715SOL     OW18043   0.225   0.179   2.581
 5715SOL    HW118044   0.161   0.111   2.546
 5715SOL    HW218045   0.315   0.164   2.539
 5716SOL     OW18046   1.173   5.383   5.956
 5716SOL    HW118047   1.269   5.371   5.983
 5716SOL    HW218048   1.118   5.406   6.037
 5717SOL     OW18049   1.840   5.232   0.640
 5717SOL    HW118050   1.870   5.201   0.731
 5717SOL    HW218051   1.920   5.241   0.581
 5718SOL     OW18052   1.012   3.956   0.857
 5718SOL    HW118053   0.934   3.988   0.911
 5718SOL    HW218054   1.047   3.871   0.896
 5719SOL     OW18055   2.398   3.275   0.265
 5719SOL    HW118056   2.319   3.302   0.209
 5719SOL    HW218057   2.482   3.291   0.214
 5720SOL     OW18058   1.689   6.570   4.700
 5720SOL    HW118059   1.604   6.619   4.722
 5720SOL    HW218060   1.671   6.504   4.628
 5721SOL     OW18061   5.660   4.302   1.042
 5721SOL    HW118062   5.619   4.220   1.081
 5721SOL    HW218063   5.750   4.317   1.082
 5722SOL     OW18064   6.709   2.589   5.155
 5722SOL    HW118065   6.787   2.551   5.106
 5722SOL    HW218066   6.721   2.688   5.165
 5723SOL     OW18067   3.783   3.135   0.246
 5723SOL    HW118068   3.823   3.148   0.155
 5723SOL    HW218069   3.807   3.214   0.304
 5724SOL     OW18070   5.764   2.550   4.086
 5724SOL    HW118071   5.726   2.466   4.047
 5724SOL    HW218072   5.830   2.590   4.023
 5725SOL     OW18073   6.153   4.941   3.852
 5725SOL    HW118074   6.089   4.872   3.818
 5725SOL    HW218075   6.227   4.895   3.901
 5726SOL     OW18076   0.139   5.724   4.204
 5726SOL    HW118077   0.126   5.692   4.110
 5726SOL    HW218078   0.139   5.646   4.266
 5727SOL     OW18079   5.736   2.579   4.581
 5727SOL    HW118080   5.739   2.618   4.489
 5727SOL    HW218081   5.811   2.515   4.593
 5728SOL     OW18082   4.822   6.619   5.682
 5728SOL    HW118083   4.869   6.707   5.685
 5728SOL    HW218084   4.888   6.546   5.666
 5729SOL     OW18085   1.684   0.662   0.183
 5729SOL    HW118086   1.672   0.657   0.084
 5729SOL    HW218087   1.597   0.646   0.228
 5730SOL     OW18088   5.235   4.886   6.241
 5730SOL    HW118089   5.254   4.960   6.305
 5730SOL    HW218090   5.247   4.798   6.287
 5731SOL     OW18091   7.015   0.258   3.034
 5731SOL    HW118092   6.964   0.198   2.972
 5731SOL    HW218093   0.091   0.263   3.004
 5732SOL     OW18094   0.848   5.768   3.937
 5732SOL    HW118095   0.748   5.772   3.934
 5732SOL    HW218096   0.882   5.737   3.848
 5733SOL     OW18097   3.255   6.808   5.179
 5733SOL    HW118098   3.301   6.870   5.115
 5733SOL    HW218099   3.244   6.718   5.137
 5734SOL     OW18100   1.245   0.390   5.478
 5734SOL    HW118101   1.248   0.325   5.554
 5734SOL    HW218102   1.267   0.482   5.511
 5735SOL     OW18103   3.598   1.806   1.082
 5735SOL    HW118104   3.667   1.752   1.034
 5735SOL    HW218105   3.536   1.745   1.131
 5736SOL     OW18106   6.070   4.143   0.305
 5736SOL    HW118107   6.075   4.054   0.351
 5736SOL    HW218108   6.157   4.191   0.315
 5737SOL     OW18109   5.855   6.583   0.464
 5737SOL    HW118110   5.769   6.536   0.445
 5737SOL    HW218111   5.846   6.680   0.441
 5738SOL     OW18112   2.131   2.675   6.075
 5738SOL    HW118113   2.200   2.705   6.141
 5738SOL    HW218114   2.174   2.660   5.987
 5739SOL     OW18115   1.527   1.087   5.948
 5739SOL    HW118116   1.471   1.015   5.987
 5739SOL    HW218117   1.510   1.173   5.997
 5740SOL     OW18118   4.449   4.776   0.815
 5740SOL    HW118119   4.364   4.724   0.805
 5740SOL    HW218120   4.523   4.714   0.840
 5741SOL     OW18121   0.483   5.673   4.731
 5741SOL    HW118122   0.450   5.593   4.681
 5741SOL    HW218123   0.406   5.718   4.776
 5742SOL     OW18124   5.318   6.134   3.028
 5742SOL    HW118125   5.259   6.074   3.083
 5742SOL    HW218126   5.271   6.156   2.943
 5743SOL     OW18127   2.362   6.398   4.882
 5743SOL    HW118128   2.407   6.388   4.793
 5743SOL    HW218129   2.423   6.368   4.955
 5744SOL     OW18130   4.774   6.870   1.648
 5744SOL    HW118131   4.857   6.818   1.671
 5744SOL    HW218132   4.709   6.863   1.723
 5745SOL     OW18133   3.742   0.997   4.535
 5745SOL    HW118134   3.738   1.090   4.498
 5745SOL    HW218135   3.719   0.999   4.632
 5746SOL     OW18136   4.747   0.529   0.811
 5746SOL    HW118137   4.686   0.533   0.890
 5746SOL    HW218138   4.716   0.595   0.742
 5747SOL     OW18139   0.216   5.285   2.552
 5747SOL    HW118140   0.216   5.186   2.568
 5747SOL    HW218141   0.129   5.311   2.509
 5748SOL     OW18142   1.828   4.840   0.985
 5748SOL    HW118143   1.772   4.794   0.917
 5748SOL    HW218144   1.809   4.802   1.076
 5749SOL     OW18145   3.275   0.635   4.849
 5749SOL    HW118146   3.293   0.729   4.876
 5749SOL    HW218147   3.340   0.607   4.779
 5750SOL     OW18148   6.156   4.896   5.037
 5750SOL    HW118149   6.153   4.811   4.985
 5750SOL    HW218150   6.248   4.913   5.070
 5751SOL     OW18151   2.499   2.623   4.555
 5751SOL    HW118152   2.408   2.602   4.592
 5751SOL    HW218153   2.554   2.668   4.625
 5752SOL     OW18154   6.260   0.832   6.438
 5752SOL    HW118155   6.308   0.827   6.525
 5752SOL    HW218156   6.318   0.880   6.371
 5753SOL     OW18157   2.868   3.852   6.082
 5753SOL    HW118158   2.885   3.936   6.133
 5753SOL    HW218159   2.892   3.866   5.985
 5754SOL     OW18160   5.479   5.743   1.173
 5754SOL    HW118161   5.534   5.791   1.241
 5754SOL    HW218162   5.502   5.645   1.175
 5755SOL     OW18163   2.863   3.472   5.520
 5755SOL    HW118164   2.877   3.456   5.618
 5755SOL    HW218165   2.934   3.423   5.468
 5756SOL     OW18166   6.724   5.121   3.800
 5756SOL    HW118167   6.682   5.150   3.885
 5756SOL    HW218168   6.674   5.043   3.763
 5757SOL     OW18169   6.401   6.361   2.737
 5757SOL    HW118170   6.478   6.361   2.801
 5757SOL    HW218171   6.373   6.455   2.718
 5758SOL     OW18172   3.172   1.648   3.635
 5758SOL    HW118173   3.262   1.692   3.634
 5758SOL    HW218174   3.101   1.716   3.614
 5759SOL     OW18175   4.833   1.654   6.223
 5759SOL    HW118176   4.776   1.610   6.293
 5759SOL    HW218177   4.837   1.752   6.240
 5760SOL     OW18178   1.641   6.014   1.730
 5760SOL    HW118179   1.663   6.002   1.633
 5760SOL    HW218180   1.560   6.071   1.740
 5761SOL     OW18181   5.512   0.873   5.879
 5761SOL    HW118182   5.519   0.832   5.970
 5761SOL    HW218183   5.569   0.955   5.875
 5762SOL     OW18184   4.955   6.701   6.920
 5762SOL    HW118185   4.859   6.673   6.924
 5762SOL    HW218186   4.993   6.706   7.012
 5763SOL     OW18187   0.265   0.057   0.203
 5763SOL    HW118188   0.208   0.062   0.285
 5763SOL    HW218189   0.261   6.984   0.165
 5764SOL     OW18190   5.564   4.577   6.455
 5764SOL    HW118191   5.544   4.491   6.409
 5764SOL    HW218192   5.541   4.569   6.552
 5765SOL     OW18193   6.651   4.325   6.739
 5765SOL    HW118194   6.731   4.296   6.687
 5765SOL    HW218195   6.571   4.327   6.680
 5766SOL     OW18196   2.863   1.366   1.211
 5766SOL    HW118197   2.933   1.342   1.144
 5766SOL    HW218198   2.822   1.454   1.187
 5767SOL     OW18199   2.598   6.591   0.329
 5767SOL    HW118200   2.594   6.660   0.257
 5767SOL    HW218201   2.592   6.500   0.289
 5768SOL     OW18202   0.024   6.940   3.116
 5768SOL    HW118203   6.994   6.897   3.039
 5768SOL    HW218204   0.077   6.870   3.164
 5769SOL     OW18205   2.899   0.072   3.514
 5769SOL    HW118206   2.818   0.039   3.467
 5769SOL    HW218207   2.965   0.107   3.447
 5770SOL     OW18208   6.777   6.708   0.871
 5770SOL    HW118209   6.705   6.763   0.914
 5770SOL    HW218210   6.738   6.624   0.833
 5771SOL     OW18211   1.351   6.140   1.513
 5771SOL    HW118212   1.407   6.078   1.458
 5771SOL    HW218213   1.258   6.141   1.477
 5772SOL     OW18214   5.889   3.083   0.774
 5772SOL    HW118215   5.951   3.070   0.696
 5772SOL    HW218216   5.815   3.016   0.769
 5773SOL     OW18217   5.778   0.321   3.935
 5773SOL    HW118218   5.877   0.329   3.940
 5773SOL    HW218219   5.747   0.252   4.000
 5774SOL     OW18220   2.561   4.948   3.983
 5774SOL    HW118221   2.625   5.024   3.994
 5774SOL    HW218222   2.607   4.874   3.933
 5775SOL     OW18223   1.773   0.506   1.280
 5775SOL    HW118224   1.811   0.442   1.214
 5775SOL    HW218225   1.760   0.460   1.368
 5776SOL     OW18226   0.158   0.626   5.931
 5776SOL    HW118227   0.191   0.603   5.839
 5776SOL    HW218228   0.058   0.616   5.934
 5777SOL     OW18229   5.720   1.050   4.264
 5777SOL    HW118230   5.784   1.124   4.285
 5777SOL    HW218231   5.758   0.993   4.191
 5778SOL     OW18232   2.111   0.267   1.832
 5778SOL    HW118233   2.047   0.286   1.758
 5778SOL    HW218234   2.193   0.323   1.820
 5779SOL     OW18235   3.824   0.353   0.933
 5779SOL    HW118236   3.846   0.349   1.031
 5779SOL    HW218237   3.894   0.304   0.882
 5780SOL     OW18238   6.578   5.164   1.809
 5780SOL    HW118239   6.500   5.173   1.747
 5780SOL    HW218240   6.557   5.098   1.881
 5781SOL     OW18241   1.897   4.292   4.866
 5781SOL    HW118242   1.968   4.332   4.808
 5781SOL    HW218243   1.935   4.213   4.915
 5782SOL     OW18244   1.409   1.167   1.813
 5782SOL    HW118245   1.439   1.079   1.776
 5782SOL    HW218246   1.418   1.166   1.913
 5783SOL     OW18247   1.828   1.622   1.011
 5783SOL    HW118248   1.751   1.653   0.956
 5783SOL    HW218249   1.823   1.664   1.102
 5784SOL     OW18250   0.431   6.457   0.131
 5784SOL    HW118251   0.457   6.508   0.050
 5784SOL    HW218252   0.507   6.458   0.196
 5785SOL     OW18253   1.555   1.709   1.187
 5785SOL    HW118254   1.641   1.716   1.236
 5785SOL    HW218255   1.556   1.772   1.109
 5786SOL     OW18256   1.613   3.444   1.342
 5786SOL    HW118257   1.525   3.439   1.390
 5786SOL    HW218258   1.668   3.518   1.381
 5787SOL     OW18259   5.454   2.406   3.975
 5787SOL    HW118260   5.472   2.480   3.910
 5787SOL    HW218261   5.374   2.353   3.944
 5788SOL     OW18262   2.999   0.289   0.979
 5788SOL    HW118263   2.997   0.250   1.072
 5788SOL    HW218264   2.915   0.341   0.963
 5789SOL     OW18265   3.986   2.684   6.493
 5789SOL    HW118266   3.902   2.682   6.438
 5789SOL    HW218267   4.065   2.675   6.432
 5790SOL     OW18268   6.740   5.680   4.984
 5790SOL    HW118269   6.687   5.720   4.909
 5790SOL    HW218270   6.679   5.625   5.042
 5791SOL     OW18271   3.369   1.140   2.403
 5791SOL    HW118272   3.272   1.129   2.379
 5791SOL    HW218273   3.401   1.229   2.372
 5792SOL     OW18274   4.837   3.796   3.273
 5792SOL    HW118275   4.864   3.892   3.261
 5792SOL    HW218276   4.853   3.746   3.188
 5793SOL     OW18277   6.091   2.300   5.467
 5793SOL    HW118278   6.047   2.351   5.393
 5793SOL    HW218279   6.038   2.311   5.552
 5794SOL     OW18280   3.179   6.902   6.222
 5794SOL    HW118281   3.108   6.963   6.258
 5794SOL    HW218282   3.174   6.901   6.122
 5795SOL     OW18283   0.960   6.112   1.712
 5795SOL    HW118284   0.969   6.140   1.808
 5795SOL    HW218285   0.937   6.015   1.708
 5796SOL     OW18286   4.632   1.130   6.279
 5796SOL    HW118287   4.598   1.115   6.372
 5796SOL    HW218288   4.582   1.070   6.216
 5797SOL     OW18289   5.836   1.255   0.186
 5797SOL    HW118290   5.805   1.224   0.276
 5797SOL    HW218291   5.923   1.211   0.164
 5798SOL     OW18292   1.030   4.170   4.544
 5798SOL    HW118293   1.049   4.241   4.612
 5798SOL    HW218294   1.107   4.163   4.480
 5799SOL     OW18295   0.888   0.082   2.939
 5799SOL    HW118296   0.801   0.119   2.908
 5799SOL    HW218297   0.922   0.136   3.016
 5800SOL     OW18298   0.867   6.984   0.606
 5800SOL    HW118299   0.865   6.916   0.532
 5800SOL    HW218300   0.860   6.938   0.694
 5801SOL     OW18301   2.402   2.686   2.919
 5801SOL    HW118302   2.417   2.612   2.984
 5801SOL    HW218303   2.398   2.773   2.969
 5802SOL     OW18304   6.037   2.770   2.591
 5802SOL    HW118305   6.093   2.736   2.667
 5802SOL    HW218306   6.036   2.701   2.518
 5803SOL     OW18307   1.202   4.682   3.796
 5803SOL    HW118308   1.296   4.665   3.826
 5803SOL    HW218309   1.167   4.764   3.840
 5804SOL     OW18310   6.782   6.902   3.817
 5804SOL    HW118311   6.755   6.998   3.823
 5804SOL    HW218312   6.830   6.876   3.900
 5805SOL     OW18313   1.271   3.162   1.151
 5805SOL    HW118314   1.221   3.085   1.191
 5805SOL    HW218315   1.367   3.158   1.179
 5806SOL     OW18316   0.196   3.848   4.235
 5806SOL    HW118317   0.139   3.768   4.211
 5806SOL    HW218318   0.139   3.916   4.281
 5807SOL     OW18319   0.928   6.130   1.033
 5807SOL    HW118320   1.015   6.080   1.026
 5807SOL    HW218321   0.858   6.069   1.070
 5808SOL     OW18322   6.731   6.627   4.158
 5808SOL    HW118323   6.800   6.698   4.143
 5808SOL    HW218324   6.642   6.660   4.127
 5809SOL     OW18325   0.678   2.273   5.902
 5809SOL    HW118326   0.655   2.240   5.993
 5809SOL    HW218327   0.777   2.289   5.896
 5810SOL     OW18328   4.423   6.824   4.786
 5810SOL    HW118329   4.332   6.832   4.746
 5810SOL    HW218330   4.490   6.868   4.727
 5811SOL     OW18331   2.944   2.895   5.680
 5811SOL    HW118332   2.908   2.804   5.702
 5811SOL    HW218333   2.950   2.906   5.581
 5812SOL     OW18334   6.201   3.359   0.189
 5812SOL    HW118335   6.215   3.281   0.128
 5812SOL    HW218336   6.277   3.424   0.177
 5813SOL     OW18337   3.764   6.123   1.557
 5813SOL    HW118338   3.782   6.095   1.463
 5813SOL    HW218339   3.758   6.223   1.562
 5814SOL     OW18340   6.825   2.173   2.259
 5814SOL    HW118341   6.919   2.186   2.227
 5814SOL    HW218342   6.793   2.083   2.229
 5815SOL     OW18343   6.172   1.802   4.034
 5815SOL    HW118344   6.256   1.826   4.084
 5815SOL    HW218345   6.194   1.742   3.958
 5816SOL     OW18346   0.095   5.221   2.161
 5816SOL    HW118347   0.085   5.277   2.244
 5816SOL    HW218348   0.006   5.187   2.134
 5817SOL     OW18349   5.351   3.740   5.445
 5817SOL    HW118350   5.317   3.690   5.525
 5817SOL    HW218351   5.291   3.817   5.426
 5818SOL     OW18352   1.306   6.060   5.348
 5818SOL    HW118353   1.218   6.052   5.396
 5818SOL    HW218354   1.345   6.150   5.365
 5819SOL     OW18355   2.718   5.269   0.022
 5819SOL    HW118356   2.794   5.328   0.049
 5819SOL    HW218357   2.682   5.221   0.102
 5820SOL     OW18358   5.238   5.035   2.296
 5820SOL    HW118359   5.288   5.018   2.211
 5820SOL    HW218360   5.203   4.949   2.332
 5821SOL     OW18361   6.643   1.206   1.243
 5821SOL    HW118362   6.631   1.134   1.311
 5821SOL    HW218363   6.673   1.290   1.288
 5822SOL     OW18364   1.503   2.215   2.683
 5822SOL    HW118365   1.464   2.304   2.656
 5822SOL    HW218366   1.450   2.177   2.758
 5823SOL     OW18367   2.253   6.257   4.498
 5823SOL    HW118368   2.267   6.350   4.530
 5823SOL    HW218369   2.166   6.251   4.449
 5824SOL     OW18370   1.071   0.008   1.999
 5824SOL    HW118371   1.030   6.956   2.055
 5824SOL    HW218372   1.096   0.086   2.057
 5825SOL     OW18373   0.087   6.285   4.674
 5825SOL    HW118374   0.027   6.277   4.754
 5825SOL    HW218375   0.123   6.194   4.651
 5826SOL     OW18376   0.068   0.237   5.171
 5826SOL    HW118377   7.014   0.278   5.117
 5826SOL    HW218378   0.030   0.179   5.242
 5827SOL     OW18379   1.271   3.631   4.770
 5827SOL    HW118380   1.363   3.661   4.795
 5827SOL    HW218381   1.270   3.599   4.676
 5828SOL     OW18382   5.520   6.979   3.943
 5828SOL    HW118383   5.534   6.973   3.844
 5828SOL    HW218384   5.458   0.035   3.964
 5829SOL     OW18385   1.721   0.765   4.639
 5829SOL    HW118386   1.790   0.789   4.571
 5829SOL    HW218387   1.763   0.755   4.729
 5830SOL     OW18388   3.871   5.068   5.493
 5830SOL    HW118389   3.777   5.068   5.457
 5830SOL    HW218390   3.879   4.997   5.563
 5831SOL     OW18391   0.875   1.373   5.462
 5831SOL    HW118392   0.936   1.365   5.383
 5831SOL    HW218393   0.783   1.344   5.435
 5832SOL     OW18394   3.289   4.632   1.216
 5832SOL    HW118395   3.354   4.684   1.162
 5832SOL    HW218396   3.319   4.537   1.222
 5833SOL     OW18397   4.135   3.828   5.393
 5833SOL    HW118398   4.114   3.920   5.360
 5833SOL    HW218399   4.220   3.831   5.446
 5834SOL     OW18400   6.722   4.016   6.433
 5834SOL    HW118401   6.755   4.052   6.346
 5834SOL    HW218402   6.639   4.065   6.461
 5835SOL     OW18403   5.847   0.919   2.666
 5835SOL    HW118404   5.865   0.834   2.717
 5835SOL    HW218405   5.884   0.997   2.716
 5836SOL     OW18406   3.423   6.481   2.628
 5836SOL    HW118407   3.379   6.550   2.570
 5836SOL    HW218408   3.390   6.390   2.603
 5837SOL     OW18409   3.496   4.159   0.137
 5837SOL    HW118410   3.480   4.066   0.105
 5837SOL    HW218411   3.535   4.157   0.229
 5838SOL     OW18412   3.064   1.885   1.524
 5838SOL    HW118413   3.078   1.865   1.621
 5838SOL    HW218414   3.150   1.876   1.475
 5839SOL     OW18415   0.828   3.049   1.494
 5839SOL    HW118416   0.871   3.000   1.569
 5839SOL    HW218417   0.897   3.070   1.424
 5840SOL     OW18418   0.003   3.748   2.283
 5840SOL    HW118419   0.046   3.743   2.373
 5840SOL    HW218420   6.969   3.833   2.277
 5841SOL     OW18421   4.534   0.751   1.880
 5841SOL    HW118422   4.486   0.827   1.924
 5841SOL    HW218423   4.620   0.784   1.841
 5842SOL     OW18424   3.589   2.159   0.070
 5842SOL    HW118425   3.579   2.258   0.074
 5842SOL    HW218426   3.658   2.129   0.136
 5843SOL     OW18427   2.206   3.414   1.231
 5843SOL    HW118428   2.216   3.347   1.157
 5843SOL    HW218429   2.176   3.368   1.314
 5844SOL     OW18430   0.285   6.757   5.139
 5844SOL    HW118431   0.337   6.674   5.160
 5844SOL    HW218432   0.332   6.836   5.176
 5845SOL     OW18433   0.069   6.882   1.732
 5845SOL    HW118434   0.164   6.851   1.738
 5845SOL    HW218435   0.045   6.932   1.815
 5846SOL     OW18436   6.718   3.690   5.161
 5846SOL    HW118437   6.709   3.692   5.261
 5846SOL    HW218438   6.642   3.639   5.122
 5847SOL     OW18439   2.653   2.686   1.679
 5847SOL    HW118440   2.586   2.613   1.683
 5847SOL    HW218441   2.608   2.773   1.699
 5848SOL     OW18442   2.152   6.047   4.143
 5848SOL    HW118443   2.073   6.073   4.198
 5848SOL    HW218444   2.151   6.098   4.057
 5849SOL     OW18445   2.317   6.574   5.317
 5849SOL    HW118446   2.324   6.638   5.241
 5849SOL    HW218447   2.222   6.568   5.348
 5850SOL     OW18448   1.047   2.529   1.870
 5850SOL    HW118449   1.047   2.439   1.827
 5850SOL    HW218450   0.964   2.578   1.844
 5851SOL     OW18451   5.446   3.516   4.319
 5851SOL    HW118452   5.431   3.425   4.358
 5851SOL    HW218453   5.521   3.512   4.254
 5852SOL     OW18454   4.674   5.892   3.549
 5852SOL    HW118455   4.583   5.856   3.566
 5852SOL    HW218456   4.741   5.840   3.602
 5853SOL     OW18457   3.818   4.968   5.083
 5853SOL    HW118458   3.845   4.873   5.095
 5853SOL    HW218459   3.899   5.025   5.075
 5854SOL     OW18460   3.838   4.213   5.319
 5854SOL    HW118461   3.821   4.292   5.378
 5854SOL    HW218462   3.761   4.203   5.255
 5855SOL     OW18463   2.194   2.481   3.718
 5855SOL    HW118464   2.144   2.446   3.639
 5855SOL    HW218465   2.132   2.486   3.797
 5856SOL     OW18466   1.500   6.902   2.494
 5856SOL    HW118467   1.489   6.986   2.440
 5856SOL    HW218468   1.413   6.854   2.500
 5857SOL     OW18469   0.353   3.244   5.522
 5857SOL    HW118470   0.388   3.179   5.588
 5857SOL    HW218471   0.296   3.312   5.569
 5858SOL     OW18472   2.909   1.697   2.500
 5858SOL    HW118473   2.982   1.648   2.453
 5858SOL    HW218474   2.913   1.678   2.598
 5859SOL     OW18475   5.887   6.218   2.053
 5859SOL    HW118476   5.793   6.243   2.076
 5859SOL    HW218477   5.919   6.273   1.977
 5860SOL     OW18478   0.353   4.408   3.324
 5860SOL    HW118479   0.405   4.366   3.398
 5860SOL    HW218480   0.300   4.337   3.277
 5861SOL     OW18481   5.833   0.501   5.162
 5861SOL    HW118482   5.757   0.472   5.219
 5861SOL    HW218483   5.865   0.591   5.192
 5862SOL     OW18484   6.160   5.394   2.189
 5862SOL    HW118485   6.138   5.485   2.224
 5862SOL    HW218486   6.076   5.344   2.170
 5863SOL     OW18487   3.130   1.173   4.450
 5863SOL    HW118488   3.058   1.110   4.482
 5863SOL    HW218489   3.218   1.126   4.453
 5864SOL     OW18490   3.304   3.795   3.066
 5864SOL    HW118491   3.396   3.756   3.070
 5864SOL    HW218492   3.239   3.733   3.109
 5865SOL     OW18493   5.652   1.386   5.828
 5865SOL    HW118494   5.570   1.437   5.855
 5865SOL    HW218495   5.733   1.444   5.842
 5866SOL     OW18496   3.178   2.888   1.023
 5866SOL    HW118497   3.116   2.853   1.093
 5866SOL    HW218498   3.173   2.829   0.942
 5867SOL     OW18499   1.997   2.280   1.720
 5867SOL    HW118500   1.925   2.335   1.680
 5867SOL    HW218501   2.080   2.288   1.665
 5868SOL     OW18502   1.091   2.003   6.038
 5868SOL    HW118503   1.153   1.963   6.106
 5868SOL    HW218504   1.118   1.974   5.947
 5869SOL     OW18505   1.585   4.381   3.298
 5869SOL    HW118506   1.648   4.405   3.223
 5869SOL    HW218507   1.531   4.461   3.323
 5870SOL     OW18508   4.020   4.693   5.599
 5870SOL    HW118509   4.059   4.637   5.672
 5870SOL    HW218510   4.056   4.663   5.511
 5871SOL     OW18511   3.708   3.839   3.132
 5871SOL    HW118512   3.693   3.924   3.081
 5871SOL    HW218513   3.649   3.767   3.095
 5872SOL     OW18514   3.992   5.892   1.390
 5872SOL    HW118515   3.998   5.801   1.430
 5872SOL    HW218516   3.904   5.903   1.344
 5873SOL     OW18517   2.605   5.402   2.168
 5873SOL    HW118518   2.591   5.487   2.118
 5873SOL    HW218519   2.675   5.347   2.122
 5874SOL     OW18520   2.292   4.295   5.114
 5874SOL    HW118521   2.270   4.270   5.208
 5874SOL    HW218522   2.313   4.213   5.061
 5875SOL     OW18523   3.418   2.185   6.801
 5875SOL    HW118524   3.364   2.252   6.852
 5875SOL    HW218525   3.372   2.166   6.714
 5876SOL     OW18526   3.758   3.479   2.210
 5876SOL    HW118527   3.851   3.448   2.230
 5876SOL    HW218528   3.693   3.406   2.235
 5877SOL     OW18529   5.768   6.162   1.003
 5877SOL    HW118530   5.786   6.066   1.022
 5877SOL    HW218531   5.818   6.190   0.921
 5878SOL     OW18532   1.385   5.943   3.582
 5878SOL    HW118533   1.302   5.890   3.602
 5878SOL    HW218534   1.366   6.041   3.595
 5879SOL     OW18535   6.669   3.587   0.540
 5879SOL    HW118536   6.621   3.539   0.613
 5879SOL    HW218537   6.676   3.684   0.563
 5880SOL     OW18538   2.855   5.430   0.930
 5880SOL    HW118539   2.831   5.357   0.995
 5880SOL    HW218540   2.928   5.397   0.870
 5881SOL     OW18541   0.395   5.006   3.613
 5881SOL    HW118542   0.473   5.037   3.558
 5881SOL    HW218543   0.317   4.989   3.552
 5882SOL     OW18544   6.045   6.748   1.060
 5882SOL    HW118545   6.020   6.803   0.981
 5882SOL    HW218546   6.144   6.743   1.068
 5883SOL     OW18547   0.234   2.217   6.602
 5883SOL    HW118548   0.223   2.232   6.700
 5883SOL    HW218549   0.290   2.136   6.586
 5884SOL     OW18550   2.437   1.284   3.371
 5884SOL    HW118551   2.418   1.268   3.468
 5884SOL    HW218552   2.491   1.208   3.335
 5885SOL     OW18553   6.718   6.719   1.750
 5885SOL    HW118554   6.710   6.627   1.790
 5885SOL    HW218555   6.644   6.733   1.684
 5886SOL     OW18556   0.326   2.303   4.943
 5886SOL    HW118557   0.396   2.338   5.007
 5886SOL    HW218558   0.328   2.358   4.859
 5887SOL     OW18559   4.107   1.165   3.243
 5887SOL    HW118560   4.197   1.209   3.243
 5887SOL    HW218561   4.108   1.088   3.179
 5888SOL     OW18562   2.839   0.007   2.808
 5888SOL    HW118563   2.896   6.949   2.779
 5888SOL    HW218564   2.822   0.001   2.906
 5889SOL     OW18565   1.560   7.008   1.314
 5889SOL    HW118566   1.628   0.057   1.339
 5889SOL    HW218567   1.603   6.918   1.307
 5890SOL     OW18568   1.213   0.325   5.219
 5890SOL    HW118569   1.140   0.259   5.238
 5890SOL    HW218570   1.229   0.382   5.300
 5891SOL     OW18571   3.973   2.828   6.230
 5891SOL    HW118572   3.879   2.807   6.257
 5891SOL    HW218573   3.994   2.784   6.143
 5892SOL     OW18574   0.904   6.239   1.270
 5892SOL    HW118575   0.902   6.210   1.174
 5892SOL    HW218576   0.848   6.321   1.281
 5893SOL     OW18577   1.466   4.102   3.525
 5893SOL    HW118578   1.497   4.148   3.608
 5893SOL    HW218579   1.383   4.146   3.491
 5894SOL     OW18580   1.154   5.232   3.155
 5894SOL    HW118581   1.247   5.215   3.122
 5894SOL    HW218582   1.157   5.274   3.246
 5895SOL     OW18583   5.437   2.923   3.784
 5895SOL    HW118584   5.480   2.977   3.856
 5895SOL    HW218585   5.480   2.944   3.696
 5896SOL     OW18586   4.000   1.778   6.965
 5896SOL    HW118587   3.936   1.854   6.958
 5896SOL    HW218588   3.975   1.720   0.023
 5897SOL     OW18589   3.754   0.034   2.014
 5897SOL    HW118590   3.670   0.065   2.057
 5897SOL    HW218591   3.763   0.075   1.923
 5898SOL     OW18592   2.201   0.283   3.229
 5898SOL    HW118593   2.173   0.366   3.278
 5898SOL    HW218594   2.285   0.247   3.271
 5899SOL     OW18595   5.373   0.052   5.500
 5899SOL    HW118596   5.393   7.001   5.432
 5899SOL    HW218597   5.458   0.078   5.547
 5900SOL     OW18598   4.624   5.057   3.833
 5900SOL    HW118599   4.613   4.999   3.914
 5900SOL    HW218600   4.665   5.005   3.759
 5901SOL     OW18601   2.932   0.570   6.602
 5901SOL    HW118602   2.949   0.531   6.511
 5901SOL    HW218603   2.841   0.611   6.603
 5902SOL     OW18604   0.189   2.302   0.895
 5902SOL    HW118605   0.115   2.350   0.942
 5902SOL    HW218606   0.189   2.327   0.798
 5903SOL     OW18607   4.275   4.324   0.777
 5903SOL    HW118608   4.331   4.263   0.721
 5903SOL    HW218609   4.275   4.291   0.872
 5904SOL     OW18610   0.343   3.807   1.927
 5904SOL    HW118611   0.308   3.831   2.017
 5904SOL    HW218612   0.369   3.710   1.926
 5905SOL     OW18613   6.222   5.802   3.049
 5905SOL    HW118614   6.172   5.715   3.056
 5905SOL    HW218615   6.259   5.812   2.957
 5906SOL     OW18616   5.215   1.411   4.413
 5906SOL    HW118617   5.148   1.338   4.422
 5906SOL    HW218618   5.266   1.421   4.499
 5907SOL     OW18619   1.840   5.977   2.158
 5907SOL    HW118620   1.917   5.913   2.163
 5907SOL    HW218621   1.762   5.932   2.114
 5908SOL     OW18622   1.200   2.394   5.554
 5908SOL    HW118623   1.274   2.395   5.621
 5908SOL    HW218624   1.119   2.351   5.593
 5909SOL     OW18625   0.381   5.345   0.779
 5909SOL    HW118626   0.427   5.315   0.862
 5909SOL    HW218627   0.308   5.280   0.756
 5910SOL     OW18628   0.578   3.139   3.247
 5910SOL    HW118629   0.554   3.228   3.208
 5910SOL    HW218630   0.667   3.145   3.291
 5911SOL     OW18631   6.571   5.800   6.630
 5911SOL    HW118632   6.562   5.880   6.571
 5911SOL    HW218633   6.653   5.809   6.686
 5912SOL     OW18634   6.260   0.931   5.312
 5912SOL    HW118635   6.286   1.027   5.303
 5912SOL    HW218636   6.252   0.907   5.409
 5913SOL     OW18637   4.816   3.220   6.849
 5913SOL    HW118638   4.911   3.208   6.878
 5913SOL    HW218639   4.757   3.160   6.902
 5914SOL     OW18640   0.902   6.532   6.576
 5914SOL    HW118641   0.858   6.589   6.507
 5914SOL    HW218642   0.975   6.583   6.620
 5915SOL     OW18643   3.871   6.142   0.650
 5915SOL    HW118644   3.938   6.154   0.577
 5915SOL    HW218645   3.804   6.217   0.646
 5916SOL     OW18646   6.984   6.436   2.317
 5916SOL    HW118647   6.960   6.501   2.388
 5916SOL    HW218648   6.926   6.450   2.237
 5917SOL     OW18649   3.250   3.741   5.095
 5917SOL    HW118650   3.215   3.657   5.134
 5917SOL    HW218651   3.260   3.731   4.996
 5918SOL     OW18652   1.684   5.306   6.027
 5918SOL    HW118653   1.695   5.239   6.101
 5918SOL    HW218654   1.602   5.284   5.975
 5919SOL     OW18655   2.971   3.895   2.372
 5919SOL    HW118656   2.881   3.922   2.406
 5919SOL    HW218657   2.964   3.806   2.326
 5920SOL     OW18658   5.141   0.888   6.539
 5920SOL    HW118659   5.223   0.846   6.502
 5920SOL    HW218660   5.140   0.877   6.639
 5921SOL     OW18661   4.110   5.513   6.157
 5921SOL    HW118662   4.029   5.556   6.198
 5921SOL    HW218663   4.082   5.459   6.078
 5922SOL     OW18664   6.033   3.886   4.452
 5922SOL    HW118665   6.071   3.857   4.539
 5922SOL    HW218666   6.034   3.986   4.447
 5923SOL     OW18667   6.867   0.619   1.918
 5923SOL    HW118668   6.913   0.599   2.005
 5923SOL    HW218669   6.885   0.546   1.853
 5924SOL     OW18670   6.090   0.099   2.703
 5924SOL    HW118671   6.033   0.053   2.636
 5924SOL    HW218672   6.051   0.188   2.726
 5925SOL     OW18673   3.585   6.072   1.753
 5925SOL    HW118674   3.655   6.080   1.682
 5925SOL    HW218675   3.506   6.024   1.716
 5926SOL     OW18676   4.705   4.250   2.450
 5926SOL    HW118677   4.805   4.250   2.456
 5926SOL    HW218678   4.678   4.217   2.360
 5927SOL     OW18679   1.150   3.967   2.225
 5927SOL    HW118680   1.135   4.062   2.196
 5927SOL    HW218681   1.236   3.934   2.185
 5928SOL     OW18682   3.696   6.765   1.878
 5928SOL    HW118683   3.682   6.849   1.930
 5928SOL    HW218684   3.781   6.721   1.909
 5929SOL     OW18685   5.875   0.997   5.829
 5929SOL    HW118686   5.914   1.074   5.780
 5929SOL    HW218687   5.783   1.021   5.860
 5930SOL     OW18688   0.707   2.620   2.971
 5930SOL    HW118689   0.789   2.675   2.955
 5930SOL    HW218690   0.664   2.598   2.883
 5931SOL     OW18691   6.097   5.858   2.579
 5931SOL    HW118692   6.116   5.932   2.644
 5931SOL    HW218693   6.004   5.868   2.544
 5932SOL     OW18694   3.138   0.283   6.993
 5932SOL    HW118695   3.123   0.372   6.949
 5932SOL    HW218696   3.118   0.210   6.927
 5933SOL     OW18697   6.659   4.556   4.109
 5933SOL    HW118698   6.758   4.561   4.119
 5933SOL    HW218699   6.631   4.609   4.029
 5934SOL     OW18700   3.772   3.176   5.359
 5934SOL    HW118701   3.838   3.246   5.386
 5934SOL    HW218702   3.781   3.160   5.261
 5935SOL     OW18703   0.698   5.720   5.758
 5935SOL    HW118704   0.727   5.726   5.663
 5935SOL    HW218705   0.643   5.800   5.781
 5936SOL     OW18706   3.196   3.754   1.835
 5936SOL    HW118707   3.110   3.791   1.799
 5936SOL    HW218708   3.270   3.774   1.771
 5937SOL     OW18709   5.825   3.259   1.840
 5937SOL    HW118710   5.879   3.286   1.761
 5937SOL    HW218711   5.730   3.246   1.814
 5938SOL     OW18712   6.053   6.119   5.082
 5938SOL    HW118713   6.071   6.082   4.991
 5938SOL    HW218714   6.131   6.173   5.112
 5939SOL     OW18715   2.980   6.238   4.794
 5939SOL    HW118716   3.018   6.223   4.703
 5939SOL    HW218717   3.005   6.330   4.825
 5940SOL     OW18718   4.038   5.117   4.190
 5940SOL    HW118719   3.953   5.170   4.194
 5940SOL    HW218720   4.094   5.136   4.271
 5941SOL     OW18721   5.494   2.828   3.095
 5941SOL    HW118722   5.408   2.858   3.135
 5941SOL    HW218723   5.570   2.857   3.153
 5942SOL     OW18724   5.219   3.667   6.731
 5942SOL    HW118725   5.280   3.614   6.789
 5942SOL    HW218726   5.247   3.656   6.635
 5943SOL     OW18727   3.451   2.973   6.020
 5943SOL    HW118728   3.546   2.960   5.992
 5943SOL    HW218729   3.397   3.004   5.942
 5944SOL     OW18730   1.070   2.732   0.177
 5944SOL    HW118731   1.036   2.727   0.084
 5944SOL    HW218732   1.054   2.824   0.214
 5945SOL     OW18733   0.433   5.704   5.104
 5945SOL    HW118734   0.501   5.776   5.091
 5945SOL    HW218735   0.355   5.719   5.043
 5946SOL     OW18736   3.370   4.587   0.239
 5946SOL    HW118737   3.353   4.506   0.296
 5946SOL    HW218738   3.287   4.642   0.233
 5947SOL     OW18739   3.270   3.641   3.555
 5947SOL    HW118740   3.303   3.673   3.467
 5947SOL    HW218741   3.337   3.664   3.626
 5948SOL     OW18742   4.403   4.861   2.313
 5948SOL    HW118743   4.423   4.810   2.229
 5948SOL    HW218744   4.304   4.857   2.330
 5949SOL     OW18745   4.933   4.908   0.983
 5949SOL    HW118746   5.000   4.866   0.921
 5949SOL    HW218747   4.843   4.910   0.938
 5950SOL     OW18748   5.104   2.024   5.388
 5950SOL    HW118749   5.062   2.020   5.297
 5950SOL    HW218750   5.202   2.044   5.378
 5951SOL     OW18751   0.782   6.013   5.297
 5951SOL    HW118752   0.718   6.084   5.267
 5951SOL    HW218753   0.795   5.948   5.222
 5952SOL     OW18754   4.481   5.657   3.788
 5952SOL    HW118755   4.570   5.649   3.832
 5952SOL    HW218756   4.465   5.576   3.730
 5953SOL     OW18757   6.602   4.036   5.039
 5953SOL    HW118758   6.643   3.989   5.117
 5953SOL    HW218759   6.673   4.054   4.970
 5954SOL     OW18760   0.402   5.444   5.115
 5954SOL    HW118761   0.323   5.439   5.176
 5954SOL    HW218762   0.424   5.540   5.096
 5955SOL     OW18763   4.174   4.742   2.195
 5955SOL    HW118764   4.240   4.667   2.192
 5955SOL    HW218765   4.132   4.753   2.105
 5956SOL     OW18766   5.988   1.905   3.833
 5956SOL    HW118767   5.912   1.969   3.825
 5956SOL    HW218768   6.041   1.927   3.915
 5957SOL     OW18769   2.447   1.974   3.928
 5957SOL    HW118770   2.476   2.065   3.960
 5957SOL    HW218771   2.501   1.949   3.848
 5958SOL     OW18772   4.282   0.654   2.739
 5958SOL    HW118773   4.358   0.719   2.738
 5958SOL    HW218774   4.219   0.678   2.812
 5959SOL     OW18775   4.433   2.604   5.740
 5959SOL    HW118776   4.378   2.597   5.657
 5959SOL    HW218777   4.525   2.635   5.717
 5960SOL     OW18778   2.950   5.939   4.138
 5960SOL    HW118779   3.033   5.897   4.101
 5960SOL    HW218780   2.967   6.036   4.156
 5961SOL     OW18781   4.743   1.443   2.474
 5961SOL    HW118782   4.677   1.515   2.454
 5961SOL    HW218783   4.722   1.363   2.418
 5962SOL     OW18784   5.261   5.785   5.769
 5962SOL    HW118785   5.281   5.726   5.690
 5962SOL    HW218786   5.169   5.766   5.802
 5963SOL     OW18787   3.184   3.834   6.450
 5963SOL    HW118788   3.171   3.759   6.385
 5963SOL    HW218789   3.170   3.800   6.543
 5964SOL     OW18790   2.546   6.809   4.356
 5964SOL    HW118791   2.552   6.796   4.454
 5964SOL    HW218792   2.451   6.795   4.326
 5965SOL     OW18793   2.035   0.687   0.135
 5965SOL    HW118794   2.008   0.688   0.039
 5965SOL    HW218795   2.124   0.733   0.144
 5966SOL     OW18796   1.033   6.622   6.290
 5966SOL    HW118797   1.129   6.647   6.306
 5966SOL    HW218798   1.021   6.524   6.304
 5967SOL     OW18799   2.073   0.144   5.639
 5967SOL    HW118800   2.131   0.083   5.584
 5967SOL    HW218801   2.107   0.238   5.632
 5968SOL     OW18802   5.588   2.363   0.131
 5968SOL    HW118803   5.558   2.455   0.106
 5968SOL    HW218804   5.553   2.296   0.065
 5969SOL     OW18805   5.201   1.165   6.537
 5969SOL    HW118806   5.279   1.174   6.473
 5969SOL    HW218807   5.187   1.068   6.558
 5970SOL     OW18808   0.247   4.867   0.622
 5970SOL    HW118809   0.305   4.787   0.611
 5970SOL    HW218810   0.296   4.937   0.674
 5971SOL     OW18811   6.193   0.029   1.209
 5971SOL    HW118812   6.173   6.977   1.275
 5971SOL    HW218813   6.113   0.045   1.151
 5972SOL     OW18814   4.955   5.817   6.554
 5972SOL    HW118815   5.047   5.784   6.533
 5972SOL    HW218816   4.947   5.914   6.529
 5973SOL     OW18817   1.667   2.919   3.044
 5973SOL    HW118818   1.658   3.019   3.042
 5973SOL    HW218819   1.762   2.896   3.066
 5974SOL     OW18820   4.822   0.012   6.947
 5974SOL    HW118821   4.854   6.981   6.866
 5974SOL    HW218822   4.900   0.054   6.993
 5975SOL     OW18823   3.615   6.069   0.975
 5975SOL    HW118824   3.713   6.067   0.955
 5975SOL    HW218825   3.568   6.125   0.906
 5976SOL     OW18826   3.202   2.784   5.292
 5976SOL    HW118827   3.137   2.754   5.362
 5976SOL    HW218828   3.266   2.850   5.332
 5977SOL     OW18829   0.851   6.019   0.535
 5977SOL    HW118830   0.842   5.942   0.472
 5977SOL    HW218831   0.889   5.988   0.622
 5978SOL     OW18832   3.535   5.453   1.541
 5978SOL    HW118833   3.578   5.520   1.480
 5978SOL    HW218834   3.462   5.406   1.491
 5979SOL     OW18835   6.870   0.898   1.990
 5979SOL    HW118836   6.838   0.813   1.948
 5979SOL    HW218837   6.950   0.931   1.941
 5980SOL     OW18838   3.830   3.134   1.446
 5980SOL    HW118839   3.772   3.174   1.517
 5980SOL    HW218840   3.772   3.094   1.375
 5981SOL     OW18841   5.119   1.592   0.089
 5981SOL    HW118842   5.162   1.627   0.172
 5981SOL    HW218843   5.065   1.511   0.110
 5982SOL     OW18844   6.095   1.995   2.871
 5982SOL    HW118845   6.035   2.075   2.860
 5982SOL    HW218846   6.088   1.937   2.789
 5983SOL     OW18847   1.460   1.310   3.959
 5983SOL    HW118848   1.494   1.343   4.048
 5983SOL    HW218849   1.514   1.352   3.886
 5984SOL     OW18850   5.300   6.592   3.390
 5984SOL    HW118851   5.251   6.588   3.477
 5984SOL    HW218852   5.288   6.682   3.349
 5985SOL     OW18853   6.869   2.791   3.399
 5985SOL    HW118854   6.796   2.817   3.336
 5985SOL    HW218855   6.902   2.700   3.377
 5986SOL     OW18856   3.536   3.910   5.517
 5986SOL    HW118857   3.487   3.997   5.509
 5986SOL    HW218858   3.532   3.861   5.430
 5987SOL     OW18859   5.534   0.750   4.956
 5987SOL    HW118860   5.467   0.697   4.904
 5987SOL    HW218861   5.487   0.800   5.029
 5988SOL     OW18862   3.501   0.852   6.841
 5988SOL    HW118863   3.503   0.919   6.766
 5988SOL    HW218864   3.594   0.824   6.863
 5989SOL     OW18865   1.463   5.220   5.925
 5989SOL    HW118866   1.444   5.148   5.992
 5989SOL    HW218867   1.471   5.181   5.834
 5990SOL     OW18868   3.981   3.867   0.083
 5990SOL    HW118869   3.983   3.767   0.075
 5990SOL    HW218870   4.075   3.902   0.087
 5991SOL     OW18871   4.539   6.203   6.713
 5991SOL    HW118872   4.531   6.108   6.743
 5991SOL    HW218873   4.458   6.230   6.661
 5992SOL     OW18874   3.145   6.896   1.913
 5992SOL    HW118875   3.199   6.909   1.830
 5992SOL    HW218876   3.160   6.803   1.949
 5993SOL     OW18877   5.229   4.194   6.410
 5993SOL    HW118878   5.200   4.225   6.320
 5993SOL    HW218879   5.155   4.141   6.453
 5994SOL     OW18880   6.685   2.959   0.832
 5994SOL    HW118881   6.785   2.967   0.832
 5994SOL    HW218882   6.650   2.981   0.923
 5995SOL     OW18883   4.879   2.808   2.006
 5995SOL    HW118884   4.834   2.897   1.995
 5995SOL    HW218885   4.901   2.771   1.915
 5996SOL     OW18886   1.008   5.440   1.516
 5996SOL    HW118887   1.086   5.453   1.454
 5996SOL    HW218888   1.040   5.395   1.600
 5997SOL     OW18889   1.305   6.261   3.474
 5997SOL    HW118890   1.264   6.327   3.411
 5997SOL    HW218891   1.377   6.210   3.426
 5998SOL     OW18892   6.117   0.811   1.933
 5998SOL    HW118893   6.178   0.802   2.012
 5998SOL    HW218894   6.048   0.739   1.937
 5999SOL     OW18895   2.811   3.097   1.267
 5999SOL    HW118896   2.747   3.118   1.193
 5999SOL    HW218897   2.769   3.034   1.331
 6000SOL     OW18898   0.843   6.282   0.435
 6000SOL    HW118899   0.864   6.185   0.447
 6000SOL    HW218900   0.775   6.309   0.503
 6001SOL     OW18901   6.307   5.210   6.768
 6001SOL    HW118902   6.362   5.261   6.702
 6001SOL    HW218903   6.328   5.242   6.861
 6002SOL     OW18904   6.459   0.137   5.670
 6002SOL    HW118905   6.424   0.131   5.763
 6002SOL    HW218906   6.524   0.062   5.654
 6003SOL     OW18907   5.493   2.465   4.573
 6003SOL    HW118908   5.585   2.496   4.553
 6003SOL    HW218909   5.450   2.431   4.489
 6004SOL     OW18910   6.314   2.464   3.658
 6004SOL    HW118911   6.317   2.554   3.702
 6004SOL    HW218912   6.372   2.400   3.708
 6005SOL     OW18913   6.013   4.698   4.883
 6005SOL    HW118914   6.000   4.748   4.797
 6005SOL    HW218915   5.925   4.683   4.927
 6006SOL     OW18916   2.984   0.785   5.040
 6006SOL    HW118917   2.891   0.770   5.074
 6006SOL    HW218918   3.034   0.844   5.104
 6007SOL     OW18919   0.428   3.192   6.191
 6007SOL    HW118920   0.401   3.218   6.284
 6007SOL    HW218921   0.473   3.103   6.193
 6008SOL     OW18922   2.537   4.676   5.681
 6008SOL    HW118923   2.623   4.721   5.705
 6008SOL    HW218924   2.556   4.581   5.657
 6009SOL     OW18925   3.959   6.167   3.316
 6009SOL    HW118926   3.940   6.163   3.414
 6009SOL    HW218927   4.051   6.205   3.301
 6010SOL     OW18928   1.104   4.446   3.357
 6010SOL    HW118929   1.085   4.348   3.357
 6010SOL    HW218930   1.060   4.488   3.278
 6011SOL     OW18931   5.032   3.357   3.183
 6011SOL    HW118932   4.960   3.332   3.248
 6011SOL    HW218933   5.059   3.276   3.131
 6012SOL     OW18934   6.061   0.347   0.144
 6012SOL    HW118935   6.049   0.388   0.235
 6012SOL    HW218936   6.001   0.268   0.136
 6013SOL     OW18937   4.989   0.946   2.932
 6013SOL    HW118938   5.054   0.924   3.004
 6013SOL    HW218939   5.034   0.941   2.843
 6014SOL     OW18940   3.472   4.157   3.604
 6014SOL    HW118941   3.566   4.192   3.614
 6014SOL    HW218942   3.421   4.175   3.688
 6015SOL     OW18943   5.823   3.717   4.457
 6015SOL    HW118944   5.912   3.762   4.448
 6015SOL    HW218945   5.756   3.762   4.399
 6016SOL     OW18946   6.114   1.595   5.952
 6016SOL    HW118947   6.169   1.621   6.031
 6016SOL    HW218948   6.095   1.676   5.896
 6017SOL     OW18949   6.875   4.844   4.536
 6017SOL    HW118950   6.902   4.750   4.515
 6017SOL    HW218951   6.808   4.844   4.610
 6018SOL     OW18952   3.208   1.576   5.286
 6018SOL    HW118953   3.275   1.504   5.268
 6018SOL    HW218954   3.253   1.653   5.330
 6019SOL     OW18955   0.724   2.975   5.439
 6019SOL    HW118956   0.782   2.932   5.508
 6019SOL    HW218957   0.777   3.043   5.388
 6020SOL     OW18958   1.204   5.567   0.208
 6020SOL    HW118959   1.114   5.607   0.195
 6020SOL    HW218960   1.231   5.519   0.124
 6021SOL     OW18961   4.800   0.237   3.308
 6021SOL    HW118962   4.709   0.264   3.277
 6021SOL    HW218963   4.833   0.302   3.376
 6022SOL     OW18964   0.213   1.538   3.627
 6022SOL    HW118965   0.255   1.625   3.653
 6022SOL    HW218966   0.207   1.532   3.528
 6023SOL     OW18967   5.110   0.608   2.225
 6023SOL    HW118968   5.141   0.543   2.156
 6023SOL    HW218969   5.038   0.665   2.187
 6024SOL     OW18970   0.728   4.623   0.711
 6024SOL    HW118971   0.715   4.697   0.645
 6024SOL    HW218972   0.799   4.649   0.777
 6025SOL     OW18973   3.403   1.342   3.014
 6025SOL    HW118974   3.448   1.430   3.028
 6025SOL    HW218975   3.335   1.351   2.941
 6026SOL     OW18976   0.242   5.765   4.898
 6026SOL    HW118977   0.234   5.667   4.911
 6026SOL    HW218978   0.211   5.813   4.980
 6027SOL     OW18979   0.341   3.463   6.105
 6027SOL    HW118980   0.243   3.472   6.089
 6027SOL    HW218981   0.358   3.386   6.167
 6028SOL     OW18982   5.264   4.796   1.032
 6028SOL    HW118983   5.323   4.844   0.967
 6028SOL    HW218984   5.228   4.861   1.098
 6029SOL     OW18985   2.703   0.058   3.940
 6029SOL    HW118986   2.744   0.025   4.025
 6029SOL    HW218987   2.636   7.011   3.907
 6030SOL     OW18988   5.172   4.138   4.362
 6030SOL    HW118989   5.220   4.070   4.418
 6030SOL    HW218990   5.111   4.092   4.298
 6031SOL     OW18991   2.761   5.173   4.375
 6031SOL    HW118992   2.850   5.173   4.421
 6031SOL    HW218993   2.691   5.136   4.436
 6032SOL     OW18994   2.584   4.573   2.779
 6032SOL    HW118995   2.506   4.543   2.834
 6032SOL    HW218996   2.659   4.600   2.839
 6033SOL     OW18997   2.194   3.023   2.895
 6033SOL    HW118998   2.216   3.107   2.845
 6033SOL    HW218999   2.194   2.946   2.832
 6034SOL     OW19000   1.058   0.811   6.275
 6034SOL    HW119001   1.071   0.909   6.282
 6034SOL    HW219002   1.077   0.768   6.363
 6035SOL     OW19003   1.453   0.385   2.282
 6035SOL    HW119004   1.436   0.419   2.374
 6035SOL    HW219005   1.496   0.458   2.227
 6036SOL     OW19006   5.732   4.825   1.551
 6036SOL    HW119007   5.728   4.726   1.546
 6036SOL    HW219008   5.685   4.865   1.472
 6037SOL     OW19009   3.617   6.892   0.659
 6037SOL    HW119010   3.665   6.835   0.726
 6037SOL    HW219011   3.528   6.918   0.695
 6038SOL     OW19012   0.854   2.483   6.779
 6038SOL    HW119013   0.878   2.427   6.857
 6038SOL    HW219014   0.829   2.575   6.810
 6039SOL     OW19015   3.864   3.084   3.321
 6039SOL    HW119016   3.818   3.140   3.390
 6039SOL    HW219017   3.935   3.139   3.276
 6040SOL     OW19018   1.702   1.338   0.443
 6040SOL    HW119019   1.702   1.267   0.373
 6040SOL    HW219020   1.791   1.342   0.488
 6041SOL     OW19021   3.131   2.140   5.355
 6041SOL    HW119022   3.073   2.179   5.426
 6041SOL    HW219023   3.129   2.198   5.274
 6042SOL     OW19024   3.736   6.721   2.880
 6042SOL    HW119025   3.638   6.702   2.889
 6042SOL    HW219026   3.782   6.638   2.849
 6043SOL     OW19027   1.002   0.656   4.596
 6043SOL    HW119028   1.055   0.690   4.674
 6043SOL    HW219029   1.015   0.718   4.518
 6044SOL     OW19030   2.724   2.352   1.617
 6044SOL    HW119031   2.754   2.335   1.711
 6044SOL    HW219032   2.724   2.266   1.566
 6045SOL     OW19033   5.656   3.316   3.644
 6045SOL    HW119034   5.565   3.358   3.646
 6045SOL    HW219035   5.671   3.274   3.554
 6046SOL     OW19036   3.456   2.628   0.504
 6046SOL    HW119037   3.546   2.666   0.522
 6046SOL    HW219038   3.393   2.702   0.479
 6047SOL     OW19039   5.210   2.295   1.770
 6047SOL    HW119040   5.197   2.309   1.672
 6047SOL    HW219041   5.121   2.282   1.814
 6048SOL     OW19042   5.142   5.451   5.020
 6048SOL    HW119043   5.183   5.528   5.069
 6048SOL    HW219044   5.214   5.384   4.998
 6049SOL     OW19045   4.932   4.311   6.390
 6049SOL    HW119046   4.998   4.332   6.462
 6049SOL    HW219047   4.978   4.264   6.314
 6050SOL     OW19048   1.873   5.097   0.869
 6050SOL    HW119049   1.916   5.148   0.943
 6050SOL    HW219050   1.846   5.007   0.901
 6051SOL     OW19051   2.030   6.465   2.599
 6051SOL    HW119052   2.038   6.456   2.500
 6051SOL    HW219053   2.105   6.416   2.643
 6052SOL     OW19054   5.185   1.445   1.648
 6052SOL    HW119055   5.227   1.478   1.733
 6052SOL    HW219056   5.231   1.488   1.570
 6053SOL     OW19057   4.074   0.633   6.050
 6053SOL    HW119058   4.151   0.594   5.998
 6053SOL    HW219059   4.047   0.569   6.122
 6054SOL     OW19060   3.033   4.251   1.014
 6054SOL    HW119061   3.025   4.163   0.968
 6054SOL    HW219062   2.944   4.297   1.014
 6055SOL     OW19063   3.758   5.729   5.932
 6055SOL    HW119064   3.784   5.762   5.841
 6055SOL    HW219065   3.764   5.629   5.933
 6056SOL     OW19066   4.833   3.403   5.320
 6056SOL    HW119067   4.785   3.482   5.281
 6056SOL    HW219068   4.886   3.433   5.399
 6057SOL     OW19069   6.282   0.414   2.482
 6057SOL    HW119070   6.359   0.467   2.518
 6057SOL    HW219071   6.314   0.324   2.453
 6058SOL     OW19072   5.118   4.205   0.553
 6058SOL    HW119073   5.104   4.299   0.581
 6058SOL    HW219074   5.191   4.164   0.608
 6059SOL     OW19075   4.597   4.491   5.792
 6059SOL    HW119076   4.610   4.590   5.796
 6059SOL    HW219077   4.606   4.452   5.883
 6060SOL     OW19078   2.162   3.244   6.790
 6060SOL    HW119079   2.104   3.247   6.709
 6060SOL    HW219080   2.109   3.214   6.868
 6061SOL     OW19081   4.431   4.196   0.615
 6061SOL    HW119082   4.472   4.119   0.664
 6061SOL    HW219083   4.401   4.165   0.525
 6062SOL     OW19084   2.343   1.748   6.674
 6062SOL    HW119085   2.366   1.796   6.759
 6062SOL    HW219086   2.256   1.699   6.685
 6063SOL     OW19087   3.558   3.087   5.516
 6063SOL    HW119088   3.644   3.103   5.468
 6063SOL    HW219089   3.575   3.086   5.615
 6064SOL     OW19090   1.487   1.186   1.180
 6064SOL    HW119091   1.476   1.202   1.082
 6064SOL    HW219092   1.560   1.245   1.215
 6065SOL     OW19093   0.651   5.778   1.806
 6065SOL    HW119094   0.581   5.802   1.873
 6065SOL    HW219095   0.642   5.682   1.782
 6066SOL     OW19096   5.660   1.106   5.910
 6066SOL    HW119097   5.643   1.129   6.006
 6066SOL    HW219098   5.656   1.189   5.854
 6067SOL     OW19099   4.737   0.861   5.483
 6067SOL    HW119100   4.780   0.948   5.506
 6067SOL    HW219101   4.732   0.852   5.383
 6068SOL     OW19102   5.013   2.772   4.614
 6068SOL    HW119103   5.028   2.774   4.713
 6068SOL    HW219104   4.917   2.793   4.595
 6069SOL     OW19105   6.719   3.675   4.887
 6069SOL    HW119106   6.754   3.738   4.818
 6069SOL    HW219107   6.755   3.701   4.977
 6070SOL     OW19108   2.748   2.928   0.879
 6070SOL    HW119109   2.703   2.945   0.791
 6070SOL    HW219110   2.695   2.862   0.932
 6071SOL     OW19111   1.108   5.903   4.334
 6071SOL    HW119112   1.143   5.834   4.397
 6071SOL    HW219113   1.028   5.867   4.286
 6072SOL     OW19114   0.499   0.741   1.778
 6072SOL    HW119115   0.531   0.724   1.685
 6072SOL    HW219116   0.573   0.782   1.832
 6073SOL     OW19117   5.269   3.199   0.949
 6073SOL    HW119118   5.233   3.253   0.872
 6073SOL    HW219119   5.195   3.146   0.990
 6074SOL     OW19120   1.903   6.112   1.680
 6074SOL    HW119121   1.825   6.074   1.730
 6074SOL    HW219122   1.890   6.211   1.668
 6075SOL     OW19123   4.857   0.073   5.113
 6075SOL    HW119124   4.899   7.003   5.123
 6075SOL    HW219125   4.804   0.076   5.029
 6076SOL     OW19126   2.751   5.323   3.036
 6076SOL    HW119127   2.764   5.312   3.134
 6076SOL    HW219128   2.789   5.411   3.006
 6077SOL     OW19129   6.424   5.694   0.631
 6077SOL    HW119130   6.346   5.682   0.569
 6077SOL    HW219131   6.392   5.693   0.725
 6078SOL     OW19132   4.516   5.057   0.215
 6078SOL    HW119133   4.513   5.156   0.232
 6078SOL    HW219134   4.563   5.012   0.291
 6079SOL     OW19135   5.413   4.381   6.992
 6079SOL    HW119136   5.333   4.440   7.010
 6079SOL    HW219137   5.394   4.289   0.005
 6080SOL     OW19138   0.318   5.650   0.645
 6080SOL    HW119139   0.332   5.553   0.622
 6080SOL    HW219140   0.365   5.671   0.730
 6081SOL     OW19141   0.209   2.760   5.684
 6081SOL    HW119142   0.254   2.741   5.597
 6081SOL    HW219143   0.273   2.742   5.759
 6082SOL     OW19144   3.347   6.733   2.520
 6082SOL    HW119145   3.417   6.743   2.590
 6082SOL    HW219146   3.293   6.817   2.515
 6083SOL     OW19147   5.758   5.823   0.801
 6083SOL    HW119148   5.755   5.871   0.714
 6083SOL    HW219149   5.675   5.843   0.854
 6084SOL     OW19150   0.958   6.832   2.149
 6084SOL    HW119151   0.887   6.833   2.220
 6084SOL    HW219152   1.037   6.782   2.183
 6085SOL     OW19153   6.735   6.188   6.694
 6085SOL    HW119154   6.824   6.143   6.681
 6085SOL    HW219155   6.730   6.224   6.787
 6086SOL     OW19156   2.552   2.321   5.960
 6086SOL    HW119157   2.575   2.244   5.901
 6086SOL    HW219158   2.477   2.295   6.021
 6087SOL     OW19159   3.360   5.746   1.072
 6087SOL    HW119160   3.397   5.768   0.982
 6087SOL    HW219161   3.400   5.659   1.104
 6088SOL     OW19162   5.785   6.919   4.522
 6088SOL    HW119163   5.855   6.945   4.589
 6088SOL    HW219164   5.826   6.909   4.432
 6089SOL     OW19165   6.218   2.530   3.103
 6089SOL    HW119166   6.145   2.538   3.170
 6089SOL    HW219167   6.269   2.445   3.118
 6090SOL     OW19168   2.279   4.914   4.716
 6090SOL    HW119169   2.275   4.956   4.625
 6090SOL    HW219170   2.321   4.823   4.709
 6091SOL     OW19171   2.539   1.539   0.191
 6091SOL    HW119172   2.449   1.502   0.213
 6091SOL    HW219173   2.607   1.466   0.193
 6092SOL     OW19174   4.765   0.985   2.012
 6092SOL    HW119175   4.770   0.949   1.919
 6092SOL    HW219176   4.670   1.004   2.036
 6093SOL     OW19177   2.192   2.308   1.951
 6093SOL    HW119178   2.286   2.273   1.945
 6093SOL    HW219179   2.131   2.246   1.902
 6094SOL     OW19180   1.717   5.964   3.276
 6094SOL    HW119181   1.762   6.021   3.346
 6094SOL    HW219182   1.771   5.881   3.262
 6095SOL     OW19183   4.896   4.912   6.814
 6095SOL    HW119184   4.822   4.976   6.837
 6095SOL    HW219185   4.968   4.961   6.765
 6096SOL     OW19186   6.206   6.771   2.471
 6096SOL    HW119187   6.220   6.793   2.375
 6096SOL    HW219188   6.295   6.763   2.517
 6097SOL     OW19189   1.960   5.422   2.285
 6097SOL    HW119190   1.981   5.400   2.380
 6097SOL    HW219191   2.042   5.410   2.229
 6098SOL     OW19192   0.233   1.427   5.944
 6098SOL    HW119193   0.275   1.342   5.912
 6098SOL    HW219194   0.269   1.451   6.034
 6099SOL     OW19195   4.956   6.024   5.502
 6099SOL    HW119196   5.024   6.084   5.545
 6099SOL    HW219197   4.987   5.999   5.410
 6100SOL     OW19198   6.383   5.994   2.202
 6100SOL    HW119199   6.319   6.061   2.238
 6100SOL    HW219200   6.465   5.991   2.260
 6101SOL     OW19201   0.050   2.834   2.830
 6101SOL    HW119202   0.002   2.761   2.878
 6101SOL    HW219203   0.113   2.794   2.763
 6102SOL     OW19204   4.283   5.328   2.857
 6102SOL    HW119205   4.266   5.231   2.874
 6102SOL    HW219206   4.330   5.368   2.935
 6103SOL     OW19207   6.238   0.915   1.241
 6103SOL    HW119208   6.251   1.000   1.190
 6103SOL    HW219209   6.242   0.837   1.178
 6104SOL     OW19210   5.494   6.682   5.181
 6104SOL    HW119211   5.434   6.732   5.118
 6104SOL    HW219212   5.477   6.584   5.172
 6105SOL     OW19213   1.853   5.551   6.103
 6105SOL    HW119214   1.801   5.465   6.108
 6105SOL    HW219215   1.820   5.613   6.174
 6106SOL     OW19216   1.105   4.874   6.452
 6106SOL    HW119217   1.134   4.923   6.370
 6106SOL    HW219218   1.182   4.864   6.515
 6107SOL     OW19219   5.064   5.559   5.326
 6107SOL    HW119220   5.066   5.459   5.324
 6107SOL    HW219221   5.140   5.595   5.272
 6108SOL     OW19222   2.350   2.684   3.677
 6108SOL    HW119223   2.293   2.761   3.649
 6108SOL    HW219224   2.292   2.608   3.706
 6109SOL     OW19225   5.608   1.440   5.560
 6109SOL    HW119226   5.611   1.534   5.527
 6109SOL    HW219227   5.648   1.435   5.652
 6110SOL     OW19228   2.590   2.715   0.923
 6110SOL    HW119229   2.557   2.716   0.828
 6110SOL    HW219230   2.686   2.689   0.925
 6111SOL     OW19231   1.282   3.268   2.386
 6111SOL    HW119232   1.301   3.277   2.484
 6111SOL    HW219233   1.184   3.254   2.372
 6112SOL     OW19234   4.257   0.961   2.716
 6112SOL    HW119235   4.190   0.989   2.785
 6112SOL    HW219236   4.341   0.932   2.761
 6113SOL     OW19237   2.535   2.816   6.792
 6113SOL    HW119238   2.615   2.762   6.821
 6113SOL    HW219239   2.514   2.884   6.863
 6114SOL     OW19240   4.865   3.950   2.976
 6114SOL    HW119241   4.917   3.866   2.991
 6114SOL    HW219242   4.868   3.975   2.880
 6115SOL     OW19243   6.082   0.989   4.603
 6115SOL    HW119244   6.026   0.907   4.616
 6115SOL    HW219245   6.063   1.054   4.677
 6116SOL     OW19246   3.728   1.441   6.061
 6116SOL    HW119247   3.804   1.461   6.123
 6116SOL    HW219248   3.765   1.423   5.969
 6117SOL     OW19249   2.270   1.933   3.427
 6117SOL    HW119250   2.233   1.842   3.406
 6117SOL    HW219251   2.215   2.003   3.382
 6118SOL     OW19252   5.843   1.267   1.156
 6118SOL    HW119253   5.926   1.232   1.113
 6118SOL    HW219254   5.808   1.199   1.221
 6119SOL     OW19255   1.326   3.997   0.526
 6119SOL    HW119256   1.232   4.014   0.555
 6119SOL    HW219257   1.351   4.062   0.454
 6120SOL     OW19258   1.924   6.293   5.886
 6120SOL    HW119259   1.888   6.345   5.808
 6120SOL    HW219260   1.943   6.355   5.961
 6121SOL     OW19261   1.265   3.368   5.087
 6121SOL    HW119262   1.282   3.294   5.152
 6121SOL    HW219263   1.195   3.430   5.124
 6122SOL     OW19264   4.396   5.618   6.766
 6122SOL    HW119265   4.390   5.678   6.686
 6122SOL    HW219266   4.305   5.580   6.785
 6123SOL     OW19267   4.959   6.767   6.035
 6123SOL    HW119268   5.039   6.802   5.985
 6123SOL    HW219269   4.920   6.689   5.985
 6124SOL     OW19270   1.045   6.981   6.255
 6124SOL    HW119271   0.998   6.961   6.170
 6124SOL    HW219272   1.106   6.906   6.279
 6125SOL     OW19273   2.353   4.055   0.481
 6125SOL    HW119274   2.417   4.039   0.556
 6125SOL    HW219275   2.395   4.117   0.415
 6126SOL     OW19276   0.098   0.942   5.049
 6126SOL    HW119277   0.126   0.854   5.087
 6126SOL    HW219278   0.171   1.009   5.061
 6127SOL     OW19279   4.152   0.245   1.760
 6127SOL    HW119280   4.231   0.292   1.722
 6127SOL    HW219281   4.180   0.156   1.796
 6128SOL     OW19282   5.168   5.778   0.828
 6128SOL    HW119283   5.100   5.726   0.776
 6128SOL    HW219284   5.144   5.777   0.925
 6129SOL     OW19285   0.694   3.353   2.631
 6129SOL    HW119286   0.609   3.400   2.654
 6129SOL    HW219287   0.739   3.321   2.714
 6130SOL     OW19288   4.907   2.661   2.656
 6130SOL    HW119289   4.874   2.642   2.563
 6130SOL    HW219290   4.997   2.705   2.650
 6131SOL     OW19291   0.811   1.623   3.269
 6131SOL    HW119292   0.715   1.636   3.243
 6131SOL    HW219293   0.824   1.529   3.302
 6132SOL     OW19294   3.549   1.841   6.648
 6132SOL    HW119295   3.534   1.824   6.746
 6132SOL    HW219296   3.502   1.772   6.594
 6133SOL     OW19297   2.090   3.320   3.302
 6133SOL    HW119298   2.067   3.277   3.214
 6133SOL    HW219299   2.037   3.404   3.312
 6134SOL     OW19300   4.313   6.623   6.901
 6134SOL    HW119301   4.391   6.681   6.876
 6134SOL    HW219302   4.232   6.652   6.851
 6135SOL     OW19303   0.538   5.728   1.281
 6135SOL    HW119304   0.558   5.782   1.199
 6135SOL    HW219305   0.555   5.782   1.362
 6136SOL     OW19306   0.768   2.318   1.621
 6136SOL    HW119307   0.852   2.305   1.568
 6136SOL    HW219308   0.707   2.240   1.605
 6137SOL     OW19309   7.004   4.083   2.465
 6137SOL    HW119310   6.938   4.134   2.409
 6137SOL    HW219311   0.067   4.138   2.478
 6138SOL     OW19312   3.624   7.002   3.358
 6138SOL    HW119313   3.526   0.002   3.359
 6138SOL    HW219314   3.675   0.065   3.383
 6139SOL     OW19315   1.113   6.936   5.635
 6139SOL    HW119316   1.176   6.986   5.576
 6139SOL    HW219317   1.031   6.912   5.583
 6140SOL     OW19318   0.646   0.401   2.196
 6140SOL    HW119319   0.690   0.311   2.201
 6140SOL    HW219320   0.564   0.394   2.140
 6141SOL     OW19321   0.295   6.959   6.491
 6141SOL    HW119322   0.248   6.874   6.514
 6141SOL    HW219323   0.265   6.992   6.402
 6142SOL     OW19324   0.200   5.619   6.312
 6142SOL    HW119325   0.212   5.677   6.392
 6142SOL    HW219326   0.284   5.618   6.258
 6143SOL     OW19327   6.826   4.304   0.761
 6143SOL    HW119328   6.843   4.208   0.742
 6143SOL    HW219329   6.907   4.358   0.737
 6144SOL     OW19330   5.404   5.195   4.131
 6144SOL    HW119331   5.328   5.251   4.098
 6144SOL    HW219332   5.486   5.215   4.078
 6145SOL     OW19333   5.319   5.060   4.359
 6145SOL    HW119334   5.371   5.084   4.277
 6145SOL    HW219335   5.240   5.120   4.367
 6146SOL     OW19336   3.264   5.843   3.777
 6146SOL    HW119337   3.298   5.769   3.835
 6146SOL    HW219338   3.339   5.902   3.749
 6147SOL     OW19339   2.332   2.259   5.330
 6147SOL    HW119340   2.250   2.203   5.340
 6147SOL    HW219341   2.325   2.315   5.247
 6148SOL     OW19342   4.321   6.252   5.122
 6148SOL    HW119343   4.325   6.347   5.091
 6148SOL    HW219344   4.344   6.248   5.220
 6149SOL     OW19345   2.591   6.690   1.588
 6149SOL    HW119346   2.497   6.663   1.568
 6149SOL    HW219347   2.605   6.785   1.560
 6150SOL     OW19348   5.926   4.044   0.086
 6150SOL    HW119349   6.008   4.055   0.142
 6150SOL    HW219350   5.943   4.082   7.014
 6151SOL     OW19351   6.327   4.787   5.468
 6151SOL    HW119352   6.410   4.733   5.479
 6151SOL    HW219353   6.261   4.761   5.539
 6152SOL     OW19354   0.856   6.413   4.495
 6152SOL    HW119355   0.776   6.464   4.527
 6152SOL    HW219356   0.833   6.316   4.487
 6153SOL     OW19357   5.886   5.179   1.191
 6153SOL    HW119358   5.942   5.217   1.265
 6153SOL    HW219359   5.928   5.199   1.103
 6154SOL     OW19360   5.799   3.249   2.249
 6154SOL    HW119361   5.775   3.341   2.280
 6154SOL    HW219362   5.723   3.211   2.196
 6155SOL     OW19363   3.232   1.159   2.818
 6155SOL    HW119364   3.208   1.132   2.725
 6155SOL    HW219365   3.287   1.088   2.861
 6156SOL     OW19366   4.343   4.700   1.665
 6156SOL    HW119367   4.244   4.708   1.673
 6156SOL    HW219368   4.367   4.663   1.575
 6157SOL     OW19369   0.243   2.559   3.068
 6157SOL    HW119370   0.145   2.539   3.064
 6157SOL    HW219371   0.295   2.474   3.058
 6158SOL     OW19372   4.005   2.163   6.269
 6158SOL    HW119373   3.954   2.178   6.353
 6158SOL    HW219374   4.102   2.150   6.290
 6159SOL     OW19375   4.089   2.412   0.116
 6159SOL    HW119376   4.163   2.346   0.105
 6159SOL    HW219377   4.026   2.380   0.186
 6160SOL     OW19378   5.795   0.314   6.380
 6160SOL    HW119379   5.864   0.333   6.310
 6160SOL    HW219380   5.818   0.227   6.425
 6161SOL     OW19381   5.561   1.744   0.002
 6161SOL    HW119382   5.507   1.738   6.938
 6161SOL    HW219383   5.655   1.715   7.003
 6162SOL     OW19384   5.881   6.600   3.999
 6162SOL    HW119385   5.814   6.558   3.937
 6162SOL    HW219386   5.916   6.530   4.062
 6163SOL     OW19387   5.151   6.029   2.174
 6163SOL    HW119388   5.109   6.017   2.264
 6163SOL    HW219389   5.247   6.056   2.186
 6164SOL     OW19390   3.487   4.188   4.524
 6164SOL    HW119391   3.390   4.165   4.523
 6164SOL    HW219392   3.508   4.243   4.604
 6165SOL     OW19393   4.512   1.527   6.079
 6165SOL    HW119394   4.537   1.612   6.032
 6165SOL    HW219395   4.546   1.449   6.027
 6166SOL     OW19396   5.960   1.486   0.247
 6166SOL    HW119397   5.906   1.403   0.232
 6166SOL    HW219398   5.899   1.565   0.252
 6167SOL     OW19399   1.185   4.840   2.781
 6167SOL    HW119400   1.124   4.811   2.855
 6167SOL    HW219401   1.204   4.937   2.789
 6168SOL     OW19402   0.295   3.308   3.627
 6168SOL    HW119403   0.302   3.306   3.527
 6168SOL    HW219404   0.271   3.401   3.656
 6169SOL     OW19405   1.321   2.051   0.216
 6169SOL    HW119406   1.397   2.035   0.279
 6169SOL    HW219407   1.290   2.146   0.226
 6170SOL     OW19408   3.305   4.192   5.714
 6170SOL    HW119409   3.384   4.165   5.769
 6170SOL    HW219410   3.336   4.252   5.640
 6171SOL     OW19411   1.734   3.751   1.493
 6171SOL    HW119412   1.822   3.734   1.538
 6171SOL    HW219413   1.661   3.708   1.545
 6172SOL     OW19414   1.322   1.179   3.593
 6172SOL    HW119415   1.402   1.122   3.609
 6172SOL    HW219416   1.264   1.178   3.674
 6173SOL     OW19417   6.428   4.951   2.324
 6173SOL    HW119418   6.424   4.982   2.229
 6173SOL    HW219419   6.498   5.002   2.373
 6174SOL     OW19420   6.152   5.234   2.947
 6174SOL    HW119421   6.062   5.211   2.984
 6174SOL    HW219422   6.148   5.323   2.902
 6175SOL     OW19423   5.312   0.672   3.943
 6175SOL    HW119424   5.333   0.732   3.866
 6175SOL    HW219425   5.385   0.677   4.010
 6176SOL     OW19426   6.677   2.913   0.160
 6176SOL    HW119427   6.652   2.836   0.102
 6176SOL    HW219428   6.761   2.955   0.126
 6177SOL     OW19429   6.119   1.725   1.589
 6177SOL    HW119430   6.048   1.772   1.537
 6177SOL    HW219431   6.078   1.679   1.668
 6178SOL     OW19432   4.597   5.059   2.874
 6178SOL    HW119433   4.523   5.001   2.909
 6178SOL    HW219434   4.593   5.060   2.774
 6179SOL     OW19435   6.454   4.686   4.615
 6179SOL    HW119436   6.502   4.765   4.577
 6179SOL    HW219437   6.357   4.708   4.627
 6180SOL     OW19438   3.456   6.136   6.446
 6180SOL    HW119439   3.478   6.216   6.501
 6180SOL    HW219440   3.539   6.097   6.408
 6181SOL     OW19441   4.101   6.726   1.235
 6181SOL    HW119442   4.006   6.701   1.255
 6181SOL    HW219443   4.103   6.815   1.190
 6182SOL     OW19444   5.492   3.460   5.661
 6182SOL    HW119445   5.444   3.548   5.660
 6182SOL    HW219446   5.488   3.420   5.569
 6183SOL     OW19447   2.688   0.361   2.902
 6183SOL    HW119448   2.716   0.450   2.937
 6183SOL    HW219449   2.739   0.340   2.819
 6184SOL     OW19450   1.246   6.961   6.575
 6184SOL    HW119451   1.298   6.878   6.554
 6184SOL    HW219452   1.291   0.021   6.533
 6185SOL     OW19453   0.138   4.527   6.316
 6185SOL    HW119454   0.219   4.524   6.257
 6185SOL    HW219455   0.085   4.443   6.305
 6186SOL     OW19456   5.806   6.731   5.225
 6186SOL    HW119457   5.728   6.700   5.171
 6186SOL    HW219458   5.794   6.827   5.248
 6187SOL     OW19459   4.483   4.490   4.375
 6187SOL    HW119460   4.527   4.407   4.409
 6187SOL    HW219461   4.421   4.526   4.445
 6188SOL     OW19462   2.352   0.355   0.566
 6188SOL    HW119463   2.343   0.289   0.491
 6188SOL    HW219464   2.384   0.308   0.648
 6189SOL     OW19465   4.770   4.105   4.293
 6189SOL    HW119466   4.776   4.021   4.347
 6189SOL    HW219467   4.851   4.114   4.235
 6190SOL     OW19468   6.598   3.806   6.281
 6190SOL    HW119469   6.659   3.862   6.337
 6190SOL    HW219470   6.521   3.775   6.337
 6191SOL     OW19471   4.275   2.899   6.779
 6191SOL    HW119472   4.342   2.877   6.708
 6191SOL    HW219473   4.187   2.917   6.737
 6192SOL     OW19474   2.895   3.516   6.424
 6192SOL    HW119475   2.856   3.591   6.371
 6192SOL    HW219476   2.855   3.429   6.394
 6193SOL     OW19477   5.081   0.980   2.667
 6193SOL    HW119478   5.167   1.027   2.648
 6193SOL    HW219479   5.036   0.958   2.581
 6194SOL     OW19480   0.871   6.775   0.396
 6194SOL    HW119481   0.788   6.765   0.341
 6194SOL    HW219482   0.946   6.808   0.338
 6195SOL     OW19483   3.833   5.791   5.656
 6195SOL    HW119484   3.866   5.712   5.604
 6195SOL    HW219485   3.781   5.851   5.595
 6196SOL     OW19486   5.828   2.139   1.430
 6196SOL    HW119487   5.770   2.074   1.478
 6196SOL    HW219488   5.897   2.089   1.377
 6197SOL     OW19489   4.275   4.571   0.544
 6197SOL    HW119490   4.263   4.526   0.456
 6197SOL    HW219491   4.216   4.527   0.612
 6198SOL     OW19492   3.057   5.294   2.160
 6198SOL    HW119493   3.121   5.254   2.226
 6198SOL    HW219494   3.073   5.392   2.153
 6199SOL     OW19495   1.158   0.064   1.002
 6199SOL    HW119496   1.132   0.042   0.908
 6199SOL    HW219497   1.079   0.051   1.062
 6200SOL     OW19498   2.104   1.190   5.326
 6200SOL    HW119499   2.065   1.213   5.415
 6200SOL    HW219500   2.204   1.185   5.334
 6201SOL     OW19501   1.474   4.064   5.230
 6201SOL    HW119502   1.479   3.964   5.239
 6201SOL    HW219503   1.493   4.089   5.135
 6202SOL     OW19504   4.125   1.653   1.375
 6202SOL    HW119505   4.171   1.572   1.409
 6202SOL    HW219506   4.137   1.728   1.440
 6203SOL     OW19507   5.638   6.640   3.154
 6203SOL    HW119508   5.655   6.572   3.083
 6203SOL    HW219509   5.634   6.596   3.244
 6204SOL     OW19510   0.815   4.907   5.163
 6204SOL    HW119511   0.716   4.903   5.146
 6204SOL    HW219512   0.836   4.862   5.250
 6205SOL     OW19513   6.018   6.451   0.023
 6205SOL    HW119514   5.974   6.375   0.071
 6205SOL    HW219515   6.033   6.526   0.087
 6206SOL     OW19516   6.806   0.680   2.788
 6206SOL    HW119517   6.808   0.604   2.854
 6206SOL    HW219518   6.889   0.678   2.732
 6207SOL     OW19519   1.666   4.759   4.203
 6207SOL    HW119520   1.713   4.815   4.135
 6207SOL    HW219521   1.688   4.793   4.295
 6208SOL     OW19522   6.281   1.743   6.438
 6208SOL    HW119523   6.361   1.712   6.490
 6208SOL    HW219524   6.198   1.716   6.485
 6209SOL     OW19525   4.517   5.711   7.014
 6209SOL    HW119526   4.573   5.784   6.976
 6209SOL    HW219527   4.477   5.658   6.939
 6210SOL     OW19528   5.787   4.356   4.042
 6210SOL    HW119529   5.817   4.263   4.024
 6210SOL    HW219530   5.854   4.402   4.101
 6211SOL     OW19531   3.054   5.997   5.357
 6211SOL    HW119532   2.973   6.043   5.319
 6211SOL    HW219533   3.113   6.065   5.400
 6212SOL     OW19534   2.389   5.170   2.913
 6212SOL    HW119535   2.486   5.146   2.922
 6212SOL    HW219536   2.334   5.087   2.921
 6213SOL     OW19537   4.984   0.574   6.970
 6213SOL    HW119538   4.917   0.635   6.928
 6213SOL    HW219539   5.027   0.619   0.029
 6214SOL     OW19540   4.474   4.886   3.989
 6214SOL    HW119541   4.505   4.826   4.063
 6214SOL    HW219542   4.380   4.863   3.964
 6215SOL     OW19543   4.195   1.954   0.559
 6215SOL    HW119544   4.233   2.027   0.615
 6215SOL    HW219545   4.160   1.992   0.473
 6216SOL     OW19546   6.391   2.096   2.330
 6216SOL    HW119547   6.295   2.116   2.351
 6216SOL    HW219548   6.445   2.180   2.337
 6217SOL     OW19549   0.232   3.101   2.798
 6217SOL    HW119550   0.299   3.027   2.805
 6217SOL    HW219551   0.145   3.071   2.837
 6218SOL     OW19552   3.364   5.079   5.542
 6218SOL    HW119553   3.268   5.102   5.531
 6218SOL    HW219554   3.379   5.044   5.635
 6219SOL     OW19555   0.939   2.008   4.362
 6219SOL    HW119556   0.931   2.074   4.437
 6219SOL    HW219557   0.950   2.056   4.276
 6220SOL     OW19558   1.447   2.976   5.244
 6220SOL    HW119559   1.379   2.902   5.247
 6220SOL    HW219560   1.539   2.936   5.234
 6221SOL     OW19561   6.175   5.676   6.588
 6221SOL    HW119562   6.153   5.753   6.647
 6221SOL    HW219563   6.091   5.626   6.565
 6222SOL     OW19564   1.167   5.986   1.028
 6222SOL    HW119565   1.208   5.913   1.083
 6222SOL    HW219566   1.225   6.067   1.033
 6223SOL     OW19567   0.321   4.520   4.696
 6223SOL    HW119568   0.394   4.527   4.764
 6223SOL    HW219569   0.326   4.431   4.650
 6224SOL     OW19570   2.613   2.097   6.138
 6224SOL    HW119571   2.711   2.080   6.129
 6224SOL    HW219572   2.593   2.126   6.232
 6225SOL     OW19573   3.352   3.571   1.044
 6225SOL    HW119574   3.379   3.656   0.998
 6225SOL    HW219575   3.404   3.495   1.006
 6226SOL     OW19576   5.898   1.534   5.808
 6226SOL    HW119577   5.906   1.609   5.743
 6226SOL    HW219578   5.982   1.527   5.861
 6227SOL     OW19579   3.716   5.461   5.941
 6227SOL    HW119580   3.702   5.390   5.872
 6227SOL    HW219581   3.650   5.450   6.015
 6228SOL     OW19582   1.220   2.448   3.127
 6228SOL    HW119583   1.253   2.538   3.155
 6228SOL    HW219584   1.296   2.383   3.131
 6229SOL     OW19585   0.556   2.540   2.729
 6229SOL    HW119586   0.612   2.458   2.716
 6229SOL    HW219587   0.460   2.515   2.739
 6230SOL     OW19588   1.232   1.223   3.841
 6230SOL    HW119589   1.162   1.256   3.903
 6230SOL    HW219590   1.322   1.229   3.885
 6231SOL     OW19591   6.663   4.825   1.470
 6231SOL    HW119592   6.631   4.764   1.397
 6231SOL    HW219593   6.729   4.777   1.526
 6232SOL     OW19594   6.754   1.595   0.787
 6232SOL    HW119595   6.678   1.554   0.837
 6232SOL    HW219596   6.719   1.660   0.720
 6233SOL     OW19597   5.925   0.583   0.073
 6233SOL    HW119598   5.983   0.504   0.092
 6233SOL    HW219599   5.936   0.651   0.147
 6234SOL     OW19600   6.419   1.727   5.603
 6234SOL    HW119601   6.384   1.809   5.649
 6234SOL    HW219602   6.426   1.652   5.670
 6235SOL     OW19603   1.126   0.695   1.398
 6235SOL    HW119604   1.205   0.642   1.427
 6235SOL    HW219605   1.042   0.646   1.421
 6236SOL     OW19606   0.216   3.825   0.342
 6236SOL    HW119607   0.234   3.875   0.426
 6236SOL    HW219608   0.126   3.849   0.307
 6237SOL     OW19609   3.531   6.256   6.755
 6237SOL    HW119610   3.613   6.200   6.767
 6237SOL    HW219611   3.476   6.253   6.838
 6238SOL     OW19612   3.843   4.908   3.191
 6238SOL    HW119613   3.922   4.861   3.151
 6238SOL    HW219614   3.815   4.982   3.129
 6239SOL     OW19615   3.286   6.257   1.760
 6239SOL    HW119616   3.191   6.227   1.764
 6239SOL    HW219617   3.322   6.265   1.853
 6240SOL     OW19618   2.735   3.258   6.329
 6240SOL    HW119619   2.655   3.251   6.390
 6240SOL    HW219620   2.709   3.308   6.246
 6241SOL     OW19621   2.852   6.940   1.905
 6241SOL    HW119622   2.799   6.885   1.969
 6241SOL    HW219623   2.948   6.914   1.910
 6242SOL     OW19624   5.565   1.312   3.661
 6242SOL    HW119625   5.505   1.250   3.711
 6242SOL    HW219626   5.578   1.397   3.713
 6243SOL     OW19627   6.251   6.682   3.973
 6243SOL    HW119628   6.209   6.736   3.900
 6243SOL    HW219629   6.180   6.646   4.033
 6244SOL     OW19630   0.918   2.235   2.134
 6244SOL    HW119631   1.017   2.240   2.116
 6244SOL    HW219632   0.902   2.177   2.214
 6245SOL     OW19633   1.984   4.079   0.006
 6245SOL    HW119634   1.969   4.161   6.969
 6245SOL    HW219635   1.905   4.065   0.066
 6246SOL     OW19636   2.041   2.394   5.835
 6246SOL    HW119637   2.037   2.492   5.856
 6246SOL    HW219638   1.950   2.354   5.850
 6247SOL     OW19639   1.600   6.341   4.299
 6247SOL    HW119640   1.647   6.403   4.236
 6247SOL    HW219641   1.577   6.256   4.251
 6248SOL     OW19642   3.294   3.879   0.479
 6248SOL    HW119643   3.357   3.955   0.497
 6248SOL    HW219644   3.207   3.896   0.526
 6249SOL     OW19645   0.292   3.967   0.577
 6249SOL    HW119646   0.203   4.010   0.590
 6249SOL    HW219647   0.350   4.027   0.522
 6250SOL     OW19648   0.213   6.021   0.968
 6250SOL    HW119649   0.186   5.924   0.966
 6250SOL    HW219650   0.132   6.078   0.956
 6251SOL     OW19651   3.444   5.211   6.793
 6251SOL    HW119652   3.408   5.280   6.856
 6251SOL    HW219653   3.520   5.163   6.837
 6252SOL     OW19654   1.227   6.840   5.872
 6252SOL    HW119655   1.176   6.873   5.792
 6252SOL    HW219656   1.310   6.794   5.841
 6253SOL     OW19657   2.229   4.027   3.006
 6253SOL    HW119658   2.284   4.072   2.935
 6253SOL    HW219659   2.146   3.990   2.965
 6254SOL     OW19660   4.868   1.585   0.660
 6254SOL    HW119661   4.819   1.550   0.580
 6254SOL    HW219662   4.958   1.618   0.632
 6255SOL     OW19663   2.848   0.363   1.403
 6255SOL    HW119664   2.760   0.361   1.356
 6255SOL    HW219665   2.874   0.458   1.422
 6256SOL     OW19666   3.310   4.978   2.535
 6256SOL    HW119667   3.240   4.918   2.496
 6256SOL    HW219668   3.400   4.941   2.514
 6257SOL     OW19669   4.462   2.267   0.806
 6257SOL    HW119670   4.509   2.261   0.718
 6257SOL    HW219671   4.488   2.352   0.851
 6258SOL     OW19672   4.296   0.168   3.681
 6258SOL    HW119673   4.392   0.186   3.701
 6258SOL    HW219674   4.281   0.069   3.672
 6259SOL     OW19675   2.656   2.356   0.468
 6259SOL    HW119676   2.705   2.350   0.555
 6259SOL    HW219677   2.694   2.430   0.413
 6260SOL     OW19678   2.929   5.445   0.132
 6260SOL    HW119679   3.006   5.509   0.123
 6260SOL    HW219680   2.896   5.448   0.226
 6261SOL     OW19681   3.934   0.306   6.020
 6261SOL    HW119682   3.976   0.216   6.034
 6261SOL    HW219683   3.976   0.372   6.082
 6262SOL     OW19684   1.633   5.229   0.889
 6262SOL    HW119685   1.657   5.305   0.828
 6262SOL    HW219686   1.703   5.157   0.882
 6263SOL     OW19687   6.994   0.111   5.416
 6263SOL    HW119688   6.944   0.026   5.399
 6263SOL    HW219689   6.968   0.147   5.506
 6264SOL     OW19690   1.189   6.539   1.895
 6264SOL    HW119691   1.187   6.484   1.978
 6264SOL    HW219692   1.219   6.483   1.818
 6265SOL     OW19693   3.588   3.938   0.514
 6265SOL    HW119694   3.559   3.899   0.602
 6265SOL    HW219695   3.623   3.865   0.455
 6266SOL     OW19696   4.189   6.796   4.656
 6266SOL    HW119697   4.250   6.750   4.592
 6266SOL    HW219698   4.154   6.730   4.722
 6267SOL     OW19699   2.844   0.879   6.737
 6267SOL    HW119700   2.798   0.967   6.725
 6267SOL    HW219701   2.943   0.893   6.740
 6268SOL     OW19702   3.638   6.618   3.546
 6268SOL    HW119703   3.560   6.674   3.575
 6268SOL    HW219704   3.604   6.541   3.492
 6269SOL     OW19705   6.296   5.548   1.987
 6269SOL    HW119706   6.246   5.483   2.045
 6269SOL    HW219707   6.393   5.523   1.987
 6270SOL     OW19708   1.996   0.541   4.668
 6270SOL    HW119709   1.969   0.542   4.765
 6270SOL    HW219710   1.976   0.451   4.629
 6271SOL     OW19711   5.830   2.193   5.973
 6271SOL    HW119712   5.777   2.268   6.010
 6271SOL    HW219713   5.898   2.163   6.040
 6272SOL     OW19714   0.275   1.923   0.094
 6272SOL    HW119715   0.239   1.982   0.022
 6272SOL    HW219716   0.374   1.936   0.102
 6273SOL     OW19717   1.526   6.301   2.963
 6273SOL    HW119718   1.470   6.371   3.009
 6273SOL    HW219719   1.616   6.339   2.944
 6274SOL     OW19720   2.258   5.926   5.902
 6274SOL    HW119721   2.233   5.833   5.874
 6274SOL    HW219722   2.206   5.991   5.846
 6275SOL     OW19723   2.243   6.119   5.184
 6275SOL    HW119724   2.225   6.130   5.087
 6275SOL    HW219725   2.210   6.030   5.215
 6276SOL     OW19726   2.187   4.914   3.188
 6276SOL    HW119727   2.148   4.837   3.137
 6276SOL    HW219728   2.112   4.966   3.230
 6277SOL     OW19729   5.664   3.481   1.652
 6277SOL    HW119730   5.616   3.433   1.726
 6277SOL    HW219731   5.742   3.427   1.621
 6278SOL     OW19732   5.472   6.657   4.800
 6278SOL    HW119733   5.514   6.722   4.863
 6278SOL    HW219734   5.490   6.686   4.706
 6279SOL     OW19735   3.591   0.234   6.650
 6279SOL    HW119736   3.617   0.267   6.559
 6279SOL    HW219737   3.670   0.191   6.693
 6280SOL     OW19738   0.876   1.844   4.825
 6280SOL    HW119739   0.892   1.908   4.900
 6280SOL    HW219740   0.928   1.873   4.745
 6281SOL     OW19741   1.586   5.220   3.643
 6281SOL    HW119742   1.583   5.222   3.743
 6281SOL    HW219743   1.569   5.127   3.611
 6282SOL     OW19744   1.452   6.724   4.752
 6282SOL    HW119745   1.432   6.805   4.807
 6282SOL    HW219746   1.444   6.747   4.655
 6283SOL     OW19747   6.760   3.278   6.112
 6283SOL    HW119748   6.828   3.315   6.049
 6283SOL    HW219749   6.716   3.198   6.071
 6284SOL     OW19750   1.704   5.173   4.874
 6284SOL    HW119751   1.784   5.135   4.828
 6284SOL    HW219752   1.632   5.103   4.879
 6285SOL     OW19753   1.032   3.616   4.048
 6285SOL    HW119754   1.112   3.676   4.046
 6285SOL    HW219755   0.949   3.670   4.031
 6286SOL     OW19756   6.641   1.719   4.009
 6286SOL    HW119757   6.597   1.670   4.084
 6286SOL    HW219758   6.616   1.675   3.922
 6287SOL     OW19759   3.653   5.224   3.955
 6287SOL    HW119760   3.609   5.147   4.001
 6287SOL    HW219761   3.726   5.190   3.896
 6288SOL     OW19762   5.304   5.048   2.897
 6288SOL    HW119763   5.381   5.016   2.842
 6288SOL    HW219764   5.228   4.984   2.889
 6289SOL     OW19765   1.721   4.645   1.951
 6289SOL    HW119766   1.815   4.677   1.948
 6289SOL    HW219767   1.671   4.680   1.872
 6290SOL     OW19768   6.204   3.837   4.236
 6290SOL    HW119769   6.247   3.918   4.196
 6290SOL    HW219770   6.145   3.864   4.312
 6291SOL     OW19771   3.506   2.900   4.586
 6291SOL    HW119772   3.455   2.880   4.503
 6291SOL    HW219773   3.602   2.914   4.564
 6292SOL     OW19774   1.508   2.174   3.817
 6292SOL    HW119775   1.595   2.126   3.814
 6292SOL    HW219776   1.464   2.157   3.906
 6293SOL     OW19777   3.780   0.218   0.277
 6293SOL    HW119778   3.804   0.306   0.238
 6293SOL    HW219779   3.833   0.204   0.361
 6294SOL     OW19780   3.465   4.899   4.412
 6294SOL    HW119781   3.399   4.901   4.487
 6294SOL    HW219782   3.418   4.923   4.327
 6295SOL     OW19783   5.373   5.046   5.830
 6295SOL    HW119784   5.432   5.118   5.865
 6295SOL    HW219785   5.342   4.988   5.905
 6296SOL     OW19786   0.277   6.659   5.690
 6296SOL    HW119787   0.345   6.675   5.762
 6296SOL    HW219788   0.210   6.734   5.691
 6297SOL     OW19789   4.576   6.487   4.371
 6297SOL    HW119790   4.610   6.423   4.440
 6297SOL    HW219791   4.652   6.540   4.335
 6298SOL     OW19792   1.593   2.954   6.464
 6298SOL    HW119793   1.536   2.972   6.544
 6298SOL    HW219794   1.547   2.888   6.405
 6299SOL     OW19795   5.401   1.347   0.097
 6299SOL    HW119796   5.382   1.389   0.008
 6299SOL    HW219797   5.485   1.293   0.090
 6300SOL     OW19798   5.533   0.516   0.212
 6300SOL    HW119799   5.446   0.520   0.262
 6300SOL    HW219800   5.515   0.523   0.114
 6301SOL     OW19801   3.917   0.953   0.515
 6301SOL    HW119802   3.976   1.021   0.559
 6301SOL    HW219803   3.841   0.930   0.576
 6302SOL     OW19804   1.952   0.478   3.607
 6302SOL    HW119805   1.942   0.577   3.610
 6302SOL    HW219806   1.875   0.438   3.558
 6303SOL     OW19807   1.855   1.310   4.442
 6303SOL    HW119808   1.935   1.290   4.499
 6303SOL    HW219809   1.809   1.225   4.418
 6304SOL     OW19810   2.403   1.466   1.328
 6304SOL    HW119811   2.339   1.514   1.388
 6304SOL    HW219812   2.488   1.518   1.321
 6305SOL     OW19813   5.467   0.094   1.712
 6305SOL    HW119814   5.547   0.073   1.657
 6305SOL    HW219815   5.492   0.156   1.786
 6306SOL     OW19816   1.276   3.758   4.185
 6306SOL    HW119817   1.241   3.757   4.279
 6306SOL    HW219818   1.232   3.832   4.134
 6307SOL     OW19819   4.035   4.376   5.520
 6307SOL    HW119820   4.050   4.330   5.607
 6307SOL    HW219821   3.937   4.379   5.500
 6308SOL     OW19822   1.851   2.417   4.487
 6308SOL    HW119823   1.915   2.385   4.416
 6308SOL    HW219824   1.900   2.426   4.574
 6309SOL     OW19825   5.259   4.239   4.924
 6309SOL    HW119826   5.355   4.214   4.936
 6309SOL    HW219827   5.209   4.220   5.009
 6310SOL     OW19828   2.106   6.009   3.231
 6310SOL    HW119829   2.172   6.065   3.181
 6310SOL    HW219830   2.154   5.952   3.298
 6311SOL     OW19831   5.083   0.901   5.404
 6311SOL    HW119832   5.167   0.887   5.455
 6311SOL    HW219833   5.018   0.953   5.459
 6312SOL     OW19834   5.717   5.331   5.478
 6312SOL    HW119835   5.686   5.406   5.536
 6312SOL    HW219836   5.792   5.362   5.420
 6313SOL     OW19837   1.533   6.220   4.042
 6313SOL    HW119838   1.530   6.277   3.959
 6313SOL    HW219839   1.609   6.155   4.035
 6314SOL     OW19840   3.974   6.630   1.861
 6314SOL    HW119841   3.939   6.608   1.770
 6314SOL    HW219842   3.976   6.546   1.917
 6315SOL     OW19843   2.912   2.731   6.077
 6315SOL    HW119844   2.921   2.722   6.176
 6315SOL    HW219845   2.856   2.812   6.057
 6316SOL     OW19846   4.654   1.621   6.759
 6316SOL    HW119847   4.685   1.715   6.775
 6316SOL    HW219848   4.734   1.561   6.753
 6317SOL     OW19849   4.827   5.421   2.909
 6317SOL    HW119850   4.749   5.379   2.955
 6317SOL    HW219851   4.909   5.367   2.925
 6318SOL     OW19852   3.332   1.668   4.508
 6318SOL    HW119853   3.258   1.680   4.442
 6318SOL    HW219854   3.395   1.745   4.502
 6319SOL     OW19855   6.869   1.657   4.178
 6319SOL    HW119856   6.845   1.706   4.094
 6319SOL    HW219857   6.840   1.561   4.170
 6320SOL     OW19858   6.016   5.253   4.889
 6320SOL    HW119859   6.010   5.348   4.917
 6320SOL    HW219860   6.003   5.194   4.969
 6321SOL     OW19861   3.030   3.628   0.888
 6321SOL    HW119862   2.941   3.589   0.913
 6321SOL    HW219863   3.077   3.657   0.971
 6322SOL     OW19864   1.800   2.089   0.032
 6322SOL    HW119865   1.892   2.065   0.062
 6322SOL    HW219866   1.801   2.113   6.955
 6323SOL     OW19867   2.872   2.508   0.994
 6323SOL    HW119868   2.862   2.412   0.967
 6323SOL    HW219869   2.962   2.541   0.966
 6324SOL     OW19870   5.044   0.236   6.385
 6324SOL    HW119871   5.020   0.307   6.319
 6324SOL    HW219872   5.142   0.217   6.380
 6325SOL     OW19873   2.245   1.707   2.338
 6325SOL    HW119874   2.333   1.755   2.344
 6325SOL    HW219875   2.225   1.689   2.241
 6326SOL     OW19876   5.012   5.212   1.559
 6326SOL    HW119877   5.093   5.200   1.617
 6326SOL    HW219878   4.973   5.303   1.575
 6327SOL     OW19879   0.061   0.092   4.771
 6327SOL    HW119880   0.020   0.113   4.682
 6327SOL    HW219881   7.008   0.083   4.840
 6328SOL     OW19882   2.227   3.661   0.792
 6328SOL    HW119883   2.255   3.691   0.701
 6328SOL    HW219884   2.212   3.741   0.850
 6329SOL     OW19885   2.587   2.400   3.388
 6329SOL    HW119886   2.626   2.310   3.405
 6329SOL    HW219887   2.572   2.447   3.475
 6330SOL     OW19888   4.428   1.083   0.974
 6330SOL    HW119889   4.461   1.002   1.022
 6330SOL    HW219890   4.330   1.073   0.955
 6331SOL     OW19891   6.470   1.987   7.002
 6331SOL    HW119892   6.518   2.060   0.032
 6331SOL    HW219893   6.372   1.993   0.000
 6332SOL     OW19894   6.158   3.421   1.643
 6332SOL    HW119895   6.164   3.516   1.674
 6332SOL    HW219896   6.183   3.360   1.719
 6333SOL     OW19897   4.485   5.544   5.100
 6333SOL    HW119898   4.426   5.593   5.165
 6333SOL    HW219899   4.493   5.598   5.016
 6334SOL     OW19900   2.921   0.293   2.096
 6334SOL    HW119901   2.831   0.336   2.101
 6334SOL    HW219902   2.912   0.196   2.074
 6335SOL     OW19903   4.291   0.906   0.369
 6335SOL    HW119904   4.237   0.941   0.293
 6335SOL    HW219905   4.350   0.978   0.405
 6336SOL     OW19906   0.991   1.928   6.355
 6336SOL    HW119907   0.955   2.006   6.303
 6336SOL    HW219908   1.088   1.916   6.334
 6337SOL     OW19909   4.748   4.105   6.343
 6337SOL    HW119910   4.815   4.178   6.358
 6337SOL    HW219911   4.694   4.125   6.262
 6338SOL     OW19912   3.566   1.708   3.569
 6338SOL    HW119913   3.641   1.654   3.605
 6338SOL    HW219914   3.533   1.667   3.484
 6339SOL     OW19915   1.326   3.257   2.662
 6339SOL    HW119916   1.426   3.266   2.662
 6339SOL    HW219917   1.286   3.334   2.712
 6340SOL     OW19918   1.853   4.614   2.611
 6340SOL    HW119919   1.768   4.563   2.627
 6340SOL    HW219920   1.839   4.675   2.533
 6341SOL     OW19921   0.920   4.410   4.130
 6341SOL    HW119922   0.985   4.353   4.078
 6341SOL    HW219923   0.960   4.500   4.145
 6342SOL     OW19924   2.705   1.923   1.894
 6342SOL    HW119925   2.705   1.856   1.819
 6342SOL    HW219926   2.720   1.875   1.981
 6343SOL     OW19927   4.786   1.937   6.249
 6343SOL    HW119928   4.701   1.955   6.299
 6343SOL    HW219929   4.776   1.965   6.154
 6344SOL     OW19930   5.887   3.020   5.160
 6344SOL    HW119931   5.924   3.069   5.239
 6344SOL    HW219932   5.959   2.965   5.118
 6345SOL     OW19933   5.204   2.111   2.305
 6345SOL    HW119934   5.151   2.181   2.354
 6345SOL    HW219935   5.300   2.137   2.303
 6346SOL     OW19936   6.958   4.498   4.003
 6346SOL    HW119937   7.007   4.552   4.070
 6346SOL    HW219938   6.977   4.401   4.017
 6347SOL     OW19939   2.315   0.242   0.810
 6347SOL    HW119940   2.354   0.157   0.846
 6347SOL    HW219941   2.228   0.222   0.765
 6348SOL     OW19942   1.543   4.230   5.003
 6348SOL    HW119943   1.616   4.262   5.063
 6348SOL    HW219944   1.563   4.258   4.909
 6349SOL     OW19945   3.346   0.413   1.203
 6349SOL    HW119946   3.354   0.322   1.162
 6349SOL    HW219947   3.261   0.456   1.172
 6350SOL     OW19948   2.515   4.551   3.798
 6350SOL    HW119949   2.586   4.612   3.834
 6350SOL    HW219950   2.503   4.567   3.700
 6351SOL     OW19951   6.656   3.468   3.341
 6351SOL    HW119952   6.660   3.460   3.242
 6351SOL    HW219953   6.561   3.460   3.372
 6352SOL     OW19954   3.326   5.253   5.251
 6352SOL    HW119955   3.316   5.271   5.153
 6352SOL    HW219956   3.417   5.282   5.281
 6353SOL     OW19957   0.658   0.514   5.808
 6353SOL    HW119958   0.669   0.502   5.907
 6353SOL    HW219959   0.635   0.609   5.788
 6354SOL     OW19960   1.926   5.780   3.198
 6354SOL    HW119961   2.004   5.843   3.198
 6354SOL    HW219962   1.959   5.686   3.204
 6355SOL     OW19963   0.869   5.474   6.557
 6355SOL    HW119964   0.812   5.472   6.639
 6355SOL    HW219965   0.869   5.567   6.519
 6356SOL     OW19966   3.822   4.960   2.426
 6356SOL    HW119967   3.871   4.937   2.510
 6356SOL    HW219968   3.787   5.053   2.431
 6357SOL     OW19969   5.193   3.299   2.238
 6357SOL    HW119970   5.100   3.263   2.243
 6357SOL    HW219971   5.245   3.268   2.318
 6358SOL     OW19972   1.399   2.126   6.396
 6358SOL    HW119973   1.385   2.223   6.374
 6358SOL    HW219974   1.430   2.117   6.491
 6359SOL     OW19975   6.396   6.489   5.889
 6359SOL    HW119976   6.472   6.555   5.892
 6359SOL    HW219977   6.315   6.534   5.852
 6360SOL     OW19978   1.098   3.904   3.753
 6360SOL    HW119979   1.070   4.000   3.759
 6360SOL    HW219980   1.037   3.855   3.691
 6361SOL     OW19981   5.810   0.275   0.488
 6361SOL    HW119982   5.889   0.242   0.540
 6361SOL    HW219983   5.800   0.221   0.405
 6362SOL     OW19984   0.398   6.137   0.574
 6362SOL    HW119985   0.347   6.185   0.503
 6362SOL    HW219986   0.411   6.041   0.547
 6363SOL     OW19987   2.342   4.317   3.695
 6363SOL    HW119988   2.354   4.278   3.786
 6363SOL    HW219989   2.381   4.409   3.692
 6364SOL     OW19990   3.137   1.205   5.752
 6364SOL    HW119991   3.066   1.180   5.818
 6364SOL    HW219992   3.207   1.260   5.797
 6365SOL     OW19993   5.729   0.187   4.166
 6365SOL    HW119994   5.668   0.214   4.240
 6365SOL    HW219995   5.823   0.180   4.201
 6366SOL     OW19996   0.914   5.895   6.140
 6366SOL    HW119997   0.916   5.942   6.051
 6366SOL    HW219998   0.871   5.805   6.128
 6367SOL     OW19999   4.253   0.236   4.564
 6367SOL    HW120000   4.279   0.221   4.469
 6367SOL    HW220001   4.329   0.215   4.625
 6368SOL     OW20002   3.474   5.394   3.587
 6368SOL    HW120003   3.557   5.407   3.643
 6368SOL    HW220004   3.488   5.435   3.497
 6369SOL     OW20005   1.850   4.821   3.987
 6369SOL    HW120006   1.786   4.801   3.913
 6369SOL    HW220007   1.928   4.758   3.982
 6370SOL     OW20008   0.469   3.485   2.674
 6370SOL    HW120009   0.383   3.441   2.647
 6370SOL    HW220010   0.471   3.578   2.639
 6371SOL     OW20011   5.163   3.596   4.735
 6371SOL    HW120012   5.194   3.610   4.641
 6371SOL    HW220013   5.176   3.500   4.760
 6372SOL     OW20014   3.154   0.271   1.849
 6372SOL    HW120015   3.121   0.183   1.815
 6372SOL    HW220016   3.129   0.281   1.945
 6373SOL     OW20017   5.399   4.336   3.479
 6373SOL    HW120018   5.323   4.382   3.433
 6373SOL    HW220019   5.432   4.260   3.422
 6374SOL     OW20020   3.216   3.965   4.412
 6374SOL    HW120021   3.211   4.032   4.486
 6374SOL    HW220022   3.124   3.930   4.392
 6375SOL     OW20023   6.514   1.629   4.224
 6375SOL    HW120024   6.570   1.554   4.261
 6375SOL    HW220025   6.418   1.603   4.227
 6376SOL     OW20026   6.483   2.913   5.181
 6376SOL    HW120027   6.478   2.939   5.085
 6376SOL    HW220028   6.578   2.907   5.210
 6377SOL     OW20029   6.217   1.641   5.412
 6377SOL    HW120030   6.275   1.689   5.478
 6377SOL    HW220031   6.147   1.704   5.377
 6378SOL     OW20032   5.207   5.446   4.057
 6378SOL    HW120033   5.300   5.476   4.036
 6378SOL    HW220034   5.149   5.526   4.074
 6379SOL     OW20035   2.284   4.412   4.256
 6379SOL    HW120036   2.306   4.482   4.188
 6379SOL    HW220037   2.355   4.412   4.327
 6380SOL     OW20038   0.832   1.689   6.454
 6380SOL    HW120039   0.900   1.758   6.430
 6380SOL    HW220040   0.741   1.732   6.456
 6381SOL     OW20041   4.126   3.203   2.117
 6381SOL    HW120042   4.199   3.152   2.072
 6381SOL    HW220043   4.099   3.156   2.201
 6382SOL     OW20044   1.028   2.253   0.640
 6382SOL    HW120045   1.082   2.188   0.694
 6382SOL    HW220046   0.943   2.274   0.689
 6383SOL     OW20047   1.789   1.986   2.992
 6383SOL    HW120048   1.874   1.945   3.023
 6383SOL    HW220049   1.746   1.926   2.923
 6384SOL     OW20050   5.268   4.391   1.403
 6384SOL    HW120051   5.335   4.317   1.407
 6384SOL    HW220052   5.308   4.470   1.356
 6385SOL     OW20053   6.841   4.626   3.765
 6385SOL    HW120054   6.921   4.595   3.713
 6385SOL    HW220055   6.863   4.627   3.862
 6386SOL     OW20056   2.448   4.664   6.723
 6386SOL    HW120057   2.531   4.678   6.778
 6386SOL    HW220058   2.473   4.627   6.634
 6387SOL     OW20059   0.861   1.948   6.754
 6387SOL    HW120060   0.956   1.975   6.735
 6387SOL    HW220061   0.803   2.029   6.755
 6388SOL     OW20062   4.290   4.499   1.160
 6388SOL    HW120063   4.250   4.591   1.161
 6388SOL    HW220064   4.282   4.458   1.250
 6389SOL     OW20065   1.230   6.410   2.948
 6389SOL    HW120066   1.145   6.455   2.975
 6389SOL    HW220067   1.306   6.474   2.959
 6390SOL     OW20068   1.114   1.667   4.835
 6390SOL    HW120069   1.025   1.711   4.829
 6390SOL    HW220070   1.186   1.736   4.834
 6391SOL     OW20071   2.536   6.550   5.850
 6391SOL    HW120072   2.452   6.592   5.817
 6391SOL    HW220073   2.514   6.478   5.916
 6392SOL     OW20074   2.209   6.877   3.406
 6392SOL    HW120075   2.222   6.782   3.434
 6392SOL    HW220076   2.246   6.890   3.314
 6393SOL     OW20077   5.987   0.098   1.540
 6393SOL    HW120078   6.046   0.076   1.618
 6393SOL    HW220079   6.026   0.174   1.489
 6394SOL     OW20080   2.576   4.578   0.803
 6394SOL    HW120081   2.490   4.567   0.753
 6394SOL    HW220082   2.590   4.499   0.863
 6395SOL     OW20083   6.252   2.700   1.955
 6395SOL    HW120084   6.203   2.642   1.890
 6395SOL    HW220085   6.241   2.796   1.929
 6396SOL     OW20086   5.508   3.342   6.311
 6396SOL    HW120087   5.532   3.397   6.391
 6396SOL    HW220088   5.590   3.328   6.255
 6397SOL     OW20089   5.820   2.847   6.331
 6397SOL    HW120090   5.732   2.894   6.337
 6397SOL    HW220091   5.885   2.888   6.395
 6398SOL     OW20092   3.206   0.635   0.801
 6398SOL    HW120093   3.126   0.680   0.760
 6398SOL    HW220094   3.183   0.608   0.895
 6399SOL     OW20095   1.406   5.529   6.998
 6399SOL    HW120096   1.471   5.600   6.971
 6399SOL    HW220097   1.441   5.483   0.060
 6400SOL     OW20098   2.326   6.472   2.199
 6400SOL    HW120099   2.308   6.497   2.104
 6400SOL    HW220100   2.366   6.550   2.247
 6401SOL     OW20101   0.459   4.586   3.659
 6401SOL    HW120102   0.505   4.527   3.725
 6401SOL    HW220103   0.517   4.598   3.579
 6402SOL     OW20104   4.430   1.650   2.726
 6402SOL    HW120105   4.331   1.636   2.723
 6402SOL    HW220106   4.466   1.653   2.633
 6403SOL     OW20107   6.701   6.403   6.146
 6403SOL    HW120108   6.605   6.431   6.158
 6403SOL    HW220109   6.750   6.417   6.232
 6404SOL     OW20110   3.967   1.404   2.650
 6404SOL    HW120111   3.979   1.357   2.737
 6404SOL    HW220112   4.043   1.382   2.589
 6405SOL     OW20113   2.627   0.570   3.708
 6405SOL    HW120114   2.646   0.496   3.773
 6405SOL    HW220115   2.569   0.535   3.634
 6406SOL     OW20116   1.348   2.244   3.502
 6406SOL    HW120117   1.444   2.230   3.528
 6406SOL    HW220118   1.292   2.171   3.541
 6407SOL     OW20119   3.017   6.580   3.968
 6407SOL    HW120120   3.099   6.578   3.911
 6407SOL    HW220121   2.948   6.639   3.925
 6408SOL     OW20122   5.775   2.142   0.198
 6408SOL    HW120123   5.723   2.080   0.257
 6408SOL    HW220124   5.728   2.230   0.193
 6409SOL     OW20125   0.394   4.620   3.157
 6409SOL    HW120126   0.374   4.556   3.232
 6409SOL    HW220127   0.347   4.590   3.074
 6410SOL     OW20128   2.030   1.665   0.598
 6410SOL    HW120129   2.056   1.699   0.688
 6410SOL    HW220130   2.021   1.742   0.535
 6411SOL     OW20131   0.455   2.920   3.398
 6411SOL    HW120132   0.357   2.938   3.409
 6411SOL    HW220133   0.488   2.965   3.315
 6412SOL     OW20134   0.409   2.179   5.377
 6412SOL    HW120135   0.379   2.236   5.454
 6412SOL    HW220136   0.492   2.130   5.402
 6413SOL     OW20137   4.453   4.901   3.627
 6413SOL    HW120138   4.423   4.831   3.692
 6413SOL    HW220139   4.488   4.980   3.676
 6414SOL     OW20140   5.624   0.885   0.965
 6414SOL    HW120141   5.561   0.962   0.966
 6414SOL    HW220142   5.718   0.918   0.975
 6415SOL     OW20143   1.953   2.360   3.345
 6415SOL    HW120144   1.971   2.439   3.402
 6415SOL    HW220145   1.971   2.383   3.249
 6416SOL     OW20146   1.158   1.137   6.098
 6416SOL    HW120147   1.066   1.175   6.104
 6416SOL    HW220148   1.223   1.198   6.145
 6417SOL     OW20149   6.815   4.654   2.325
 6417SOL    HW120150   6.853   4.679   2.236
 6417SOL    HW220151   6.804   4.554   2.329
 6418SOL     OW20152   4.619   4.756   1.775
 6418SOL    HW120153   4.650   4.661   1.769
 6418SOL    HW220154   4.525   4.762   1.742
 6419SOL     OW20155   2.492   4.416   2.400
 6419SOL    HW120156   2.468   4.447   2.308
 6419SOL    HW220157   2.556   4.481   2.442
 6420SOL     OW20158   3.119   3.824   5.418
 6420SOL    HW120159   3.137   3.739   5.369
 6420SOL    HW220160   3.034   3.864   5.383
 6421SOL     OW20161   5.593   1.043   2.676
 6421SOL    HW120162   5.538   1.058   2.757
 6421SOL    HW220163   5.671   0.984   2.698
 6422SOL     OW20164   0.216   0.477   4.057
 6422SOL    HW120165   0.241   0.389   4.096
 6422SOL    HW220166   0.298   0.527   4.031
 6423SOL     OW20167   4.952   4.858   2.658
 6423SOL    HW120168   4.907   4.940   2.624
 6423SOL    HW220169   4.892   4.780   2.647
 6424SOL     OW20170   6.631   5.821   5.590
 6424SOL    HW120171   6.589   5.797   5.678
 6424SOL    HW220172   6.592   5.764   5.518
 6425SOL     OW20173   6.266   5.860   3.364
 6425SOL    HW120174   6.214   5.941   3.336
 6425SOL    HW220175   6.225   5.779   3.324
 6426SOL     OW20176   0.582   4.841   3.140
 6426SOL    HW120177   0.508   4.783   3.175
 6426SOL    HW220178   0.669   4.792   3.147
 6427SOL     OW20179   2.587   3.014   5.774
 6427SOL    HW120180   2.676   3.044   5.810
 6427SOL    HW220181   2.585   3.028   5.675
 6428SOL     OW20182   6.664   2.876   6.859
 6428SOL    HW120183   6.587   2.847   6.802
 6428SOL    HW220184   6.654   2.973   6.881
 6429SOL     OW20185   1.030   1.638   5.725
 6429SOL    HW120186   1.057   1.732   5.707
 6429SOL    HW220187   1.082   1.576   5.666
 6430SOL     OW20188   5.574   0.921   2.053
 6430SOL    HW120189   5.673   0.937   2.052
 6430SOL    HW220190   5.531   0.973   1.979
 6431SOL     OW20191   5.247   6.415   3.145
 6431SOL    HW120192   5.299   6.331   3.135
 6431SOL    HW220193   5.261   6.452   3.237
 6432SOL     OW20194   4.149   3.579   6.642
 6432SOL    HW120195   4.218   3.633   6.593
 6432SOL    HW220196   4.058   3.599   6.603
 6433SOL     OW20197   3.499   4.373   0.597
 6433SOL    HW120198   3.420   4.421   0.634
 6433SOL    HW220199   3.578   4.435   0.592
 6434SOL     OW20200   1.800   3.664   0.238
 6434SOL    HW120201   1.805   3.693   0.143
 6434SOL    HW220202   1.714   3.615   0.254
 6435SOL     OW20203   4.216   6.438   0.091
 6435SOL    HW120204   4.264   6.461   0.176
 6435SOL    HW220205   4.199   6.521   0.038
 6436SOL     OW20206   2.057   3.171   3.640
 6436SOL    HW120207   1.971   3.167   3.589
 6436SOL    HW220208   2.132   3.145   3.580
 6437SOL     OW20209   2.558   1.017   1.272
 6437SOL    HW120210   2.639   1.074   1.287
 6437SOL    HW220211   2.477   1.064   1.306
 6438SOL     OW20212   0.375   4.491   6.196
 6438SOL    HW120213   0.444   4.470   6.127
 6438SOL    HW220214   0.419   4.527   6.277
 6439SOL     OW20215   6.037   1.075   1.354
 6439SOL    HW120216   6.106   1.019   1.308
 6439SOL    HW220217   6.055   1.076   1.452
 6440SOL     OW20218   2.349   1.834   0.410
 6440SOL    HW120219   2.388   1.877   0.492
 6440SOL    HW220220   2.327   1.739   0.430
 6441SOL     OW20221   1.465   6.561   2.689
 6441SOL    HW120222   1.555   6.601   2.708
 6441SOL    HW220223   1.462   6.530   2.594
 6442SOL     OW20224   2.914   0.966   4.208
 6442SOL    HW120225   2.825   0.960   4.254
 6442SOL    HW220226   2.950   1.059   4.216
 6443SOL     OW20227   4.069   2.430   6.091
 6443SOL    HW120228   4.094   2.336   6.067
 6443SOL    HW220229   4.067   2.485   6.008
 6444SOL     OW20230   6.683   2.440   3.724
 6444SOL    HW120231   6.635   2.506   3.781
 6444SOL    HW220232   6.713   2.363   3.781
 6445SOL     OW20233   5.235   3.097   5.942
 6445SOL    HW120234   5.282   3.182   5.922
 6445SOL    HW220235   5.136   3.112   5.939
 6446SOL     OW20236   1.274   0.778   5.690
 6446SOL    HW120237   1.198   0.835   5.722
 6446SOL    HW220238   1.278   0.694   5.745
 6447SOL     OW20239   0.189   5.459   2.804
 6447SOL    HW120240   0.169   5.402   2.724
 6447SOL    HW220241   0.285   5.485   2.804
 6448SOL     OW20242   5.139   5.389   2.917
 6448SOL    HW120243   5.226   5.363   2.875
 6448SOL    HW220244   5.144   5.484   2.948
 6449SOL     OW20245   3.078   4.988   0.316
 6449SOL    HW120246   3.030   5.074   0.295
 6449SOL    HW220247   3.016   4.927   0.366
 6450SOL     OW20248   0.063   3.896   1.516
 6450SOL    HW120249   0.112   3.900   1.603
 6450SOL    HW220250   0.079   3.980   1.464
 6451SOL     OW20251   2.442   6.957   5.178
 6451SOL    HW120252   2.447   6.940   5.277
 6451SOL    HW220253   2.469   6.874   5.129
 6452SOL     OW20254   3.398   6.514   4.715
 6452SOL    HW120255   3.312   6.561   4.729
 6452SOL    HW220256   3.391   6.456   4.633
 6453SOL     OW20257   1.185   6.446   0.687
 6453SOL    HW120258   1.097   6.494   0.689
 6453SOL    HW220259   1.199   6.409   0.595
 6454SOL     OW20260   2.999   1.778   3.335
 6454SOL    HW120261   2.944   1.694   3.341
 6454SOL    HW220262   3.013   1.815   3.427
 6455SOL     OW20263   0.260   2.127   3.770
 6455SOL    HW120264   0.340   2.137   3.828
 6455SOL    HW220265   0.197   2.061   3.811
 6456SOL     OW20266   1.731   0.935   3.260
 6456SOL    HW120267   1.740   1.034   3.249
 6456SOL    HW220268   1.822   0.895   3.273
 6457SOL     OW20269   4.713   1.804   0.718
 6457SOL    HW120270   4.763   1.718   0.727
 6457SOL    HW220271   4.777   1.881   0.727
 6458SOL     OW20272   1.049   0.230   3.119
 6458SOL    HW120273   1.024   0.215   3.214
 6458SOL    HW220274   1.146   0.209   3.106
 6459SOL     OW20275   5.753   5.175   0.533
 6459SOL    HW120276   5.791   5.171   0.441
 6459SOL    HW220277   5.725   5.083   0.562
 6460SOL     OW20278   4.952   5.338   5.809
 6460SOL    HW120279   4.868   5.390   5.827
 6460SOL    HW220280   4.977   5.286   5.891
 6461SOL     OW20281   2.678   4.530   5.304
 6461SOL    HW120282   2.608   4.595   5.275
 6461SOL    HW220283   2.763   4.548   5.253
 6462SOL     OW20284   2.395   2.700   4.889
 6462SOL    HW120285   2.411   2.759   4.968
 6462SOL    HW220286   2.444   2.614   4.901
 6463SOL     OW20287   0.590   3.783   6.830
 6463SOL    HW120288   0.567   3.842   6.908
 6463SOL    HW220289   0.529   3.704   6.829
 6464SOL     OW20290   1.066   5.137   4.880
 6464SOL    HW120291   1.057   5.155   4.978
 6464SOL    HW220292   1.084   5.040   4.865
 6465SOL     OW20293   6.578   2.613   3.401
 6465SOL    HW120294   6.652   2.564   3.447
 6465SOL    HW220295   6.617   2.685   3.343
 6466SOL     OW20296   0.925   1.498   6.627
 6466SOL    HW120297   0.995   1.460   6.567
 6466SOL    HW220298   0.867   1.562   6.576
 6467SOL     OW20299   3.295   0.956   7.007
 6467SOL    HW120300   3.266   0.907   0.070
 6467SOL    HW220301   3.379   0.914   6.972
 6468SOL     OW20302   4.256   6.848   1.617
 6468SOL    HW120303   4.312   6.914   1.667
 6468SOL    HW220304   4.272   6.756   1.654
 6469SOL     OW20305   4.319   0.512   5.475
 6469SOL    HW120306   4.378   0.568   5.533
 6469SOL    HW220307   4.223   0.533   5.495
 6470SOL     OW20308   6.191   4.968   6.501
 6470SOL    HW120309   6.146   4.970   6.412
 6470SOL    HW220310   6.286   4.939   6.490
 6471SOL     OW20311   6.246   5.978   5.768
 6471SOL    HW120312   6.211   5.989   5.675
 6471SOL    HW220313   6.207   5.896   5.809
 6472SOL     OW20314   0.367   4.587   1.236
 6472SOL    HW120315   0.329   4.644   1.308
 6472SOL    HW220316   0.467   4.587   1.242
 6473SOL     OW20317   2.466   1.502   4.149
 6473SOL    HW120318   2.478   1.470   4.055
 6473SOL    HW220319   2.376   1.545   4.158
 6474SOL     OW20320   1.781   3.712   5.918
 6474SOL    HW120321   1.748   3.783   5.857
 6474SOL    HW220322   1.799   3.628   5.865
 6475SOL     OW20323   0.153   5.267   4.475
 6475SOL    HW120324   0.248   5.295   4.471
 6475SOL    HW220325   0.135   5.198   4.405
 6476SOL     OW20326   4.686   3.548   1.079
 6476SOL    HW120327   4.663   3.598   1.163
 6476SOL    HW220328   4.672   3.450   1.094
 6477SOL     OW20329   6.780   5.211   1.162
 6477SOL    HW120330   6.804   5.274   1.236
 6477SOL    HW220331   6.690   5.171   1.179
 6478SOL     OW20332   3.721   6.264   2.373
 6478SOL    HW120333   3.797   6.256   2.308
 6478SOL    HW220334   3.717   6.358   2.408
 6479SOL     OW20335   3.979   6.156   3.586
 6479SOL    HW120336   4.051   6.087   3.580
 6479SOL    HW220337   3.953   6.169   3.681
 6480SOL     OW20338   3.316   2.040   5.809
 6480SOL    HW120339   3.307   2.081   5.718
 6480SOL    HW220340   3.323   2.113   5.877
 6481SOL     OW20341   3.480   2.078   2.237
 6481SOL    HW120342   3.384   2.082   2.210
 6481SOL    HW220343   3.537   2.116   2.163
 6482SOL     OW20344   0.727   0.523   6.065
 6482SOL    HW120345   0.787   0.602   6.075
 6482SOL    HW220346   0.767   0.444   6.112
 6483SOL     OW20347   1.461   5.978   1.192
 6483SOL    HW120348   1.552   5.938   1.203
 6483SOL    HW220349   1.460   6.035   1.110
 6484SOL     OW20350   3.911   0.334   1.621
 6484SOL    HW120351   3.993   0.285   1.650
 6484SOL    HW220352   3.914   0.427   1.657
 6485SOL     OW20353   1.962   4.116   3.260
 6485SOL    HW120354   1.888   4.050   3.248
 6485SOL    HW220355   2.044   4.068   3.293
 6486SOL     OW20356   1.920   4.304   4.535
 6486SOL    HW120357   2.013   4.340   4.530
 6486SOL    HW220358   1.907   4.233   4.467
 6487SOL     OW20359   0.098   6.020   5.596
 6487SOL    HW120360   0.007   6.051   5.625
 6487SOL    HW220361   0.088   5.947   5.528
 6488SOL     OW20362   3.440   5.920   5.567
 6488SOL    HW120363   3.525   5.962   5.534
 6488SOL    HW220364   3.459   5.827   5.599
 6489SOL     OW20365   2.405   3.339   6.718
 6489SOL    HW120366   2.320   3.342   6.771
 6489SOL    HW220367   2.482   3.360   6.778
 6490SOL     OW20368   4.342   1.770   6.214
 6490SOL    HW120369   4.244   1.764   6.235
 6490SOL    HW220370   4.394   1.737   6.293
 6491SOL     OW20371   3.832   1.284   6.585
 6491SOL    HW120372   3.810   1.232   6.668
 6491SOL    HW220373   3.748   1.323   6.548
 6492SOL     OW20374   5.114   5.720   0.019
 6492SOL    HW120375   5.135   5.763   0.107
 6492SOL    HW220376   5.171   5.639   0.007
 6493SOL     OW20377   0.894   5.598   4.581
 6493SOL    HW120378   0.968   5.643   4.630
 6493SOL    HW220379   0.915   5.500   4.572
 6494SOL     OW20380   0.725   1.166   3.124
 6494SOL    HW120381   0.645   1.162   3.064
 6494SOL    HW220382   0.793   1.228   3.085
 6495SOL     OW20383   4.880   6.032   4.660
 6495SOL    HW120384   4.871   5.938   4.626
 6495SOL    HW220385   4.794   6.081   4.648
 6496SOL     OW20386   7.010   6.943   2.124
 6496SOL    HW120387   0.050   6.963   2.202
 6496SOL    HW220388   6.956   6.862   2.144
 6497SOL     OW20389   2.675   3.350   0.079
 6497SOL    HW120390   2.653   3.330   7.003
 6497SOL    HW220391   2.771   3.329   0.097
 6498SOL     OW20392   2.310   4.217   3.966
 6498SOL    HW120393   2.340   4.258   4.052
 6498SOL    HW220394   2.284   4.122   3.981
 6499SOL     OW20395   5.415   2.213   4.723
 6499SOL    HW120396   5.399   2.296   4.670
 6499SOL    HW220397   5.328   2.167   4.741
 6500SOL     OW20398   6.692   4.483   3.599
 6500SOL    HW120399   6.758   4.527   3.660
 6500SOL    HW220400   6.663   4.548   3.529
 6501SOL     OW20401   6.398   2.812   6.716
 6501SOL    HW120402   6.347   2.776   6.794
 6501SOL    HW220403   6.383   2.910   6.709
 6502SOL     OW20404   6.085   3.690   1.770
 6502SOL    HW120405   6.066   3.727   1.678
 6502SOL    HW220406   6.075   3.764   1.837
 6503SOL     OW20407   5.396   0.464   3.704
 6503SOL    HW120408   5.320   0.472   3.769
 6503SOL    HW220409   5.478   0.505   3.743
 6504SOL     OW20410   5.120   6.651   6.250
 6504SOL    HW120411   5.123   6.712   6.329
 6504SOL    HW220412   5.076   6.697   6.173
 6505SOL     OW20413   5.185   5.034   1.753
 6505SOL    HW120414   5.120   4.960   1.742
 6505SOL    HW220415   5.278   4.998   1.748
 6506SOL     OW20416   6.290   3.296   1.423
 6506SOL    HW120417   6.278   3.221   1.489
 6506SOL    HW220418   6.261   3.382   1.465
 6507SOL     OW20419   1.973   5.254   5.869
 6507SOL    HW120420   1.926   5.216   5.790
 6507SOL    HW220421   1.914   5.323   5.912
 6508SOL     OW20422   2.652   0.593   3.149
 6508SOL    HW120423   2.690   0.683   3.171
 6508SOL    HW220424   2.681   0.527   3.218
 6509SOL     OW20425   3.034   1.979   3.922
 6509SOL    HW120426   3.057   2.040   3.846
 6509SOL    HW220427   2.956   1.921   3.896
 6510SOL     OW20428   6.343   4.403   0.130
 6510SOL    HW120429   6.289   4.356   0.059
 6510SOL    HW220430   6.432   4.428   0.093
 6511SOL     OW20431   4.767   0.674   4.651
 6511SOL    HW120432   4.830   0.677   4.729
 6511SOL    HW220433   4.729   0.765   4.634
 6512SOL     OW20434   5.097   6.996   1.860
 6512SOL    HW120435   5.043   7.012   1.943
 6512SOL    HW220436   5.120   0.064   1.818
 6513SOL     OW20437   3.451   5.063   2.906
 6513SOL    HW120438   3.372   5.099   2.856
 6513SOL    HW220439   3.506   5.006   2.846
 6514SOL     OW20440   6.031   0.593   3.469
 6514SOL    HW120441   5.998   0.590   3.375
 6514SOL    HW220442   6.069   0.504   3.493
 6515SOL     OW20443   0.957   5.044   4.053
 6515SOL    HW120444   1.042   4.996   4.031
 6515SOL    HW220445   0.946   5.123   3.992
 6516SOL     OW20446   0.306   3.150   1.630
 6516SOL    HW120447   0.266   3.139   1.721
 6516SOL    HW220448   0.400   3.115   1.631
 6517SOL     OW20449   6.996   0.980   0.257
 6517SOL    HW120450   7.006   1.009   0.352
 6517SOL    HW220451   6.899   0.979   0.232
 6518SOL     OW20452   6.961   0.428   0.003
 6518SOL    HW120453   6.998   0.430   0.096
 6518SOL    HW220454   6.883   0.489   7.017
 6519SOL     OW20455   2.542   1.891   3.437
 6519SOL    HW120456   2.563   1.795   3.416
 6519SOL    HW220457   2.444   1.901   3.450
 6520SOL     OW20458   5.338   5.482   2.162
 6520SOL    HW120459   5.366   5.387   2.176
 6520SOL    HW220460   5.317   5.524   2.250
 6521SOL     OW20461   1.521   2.297   4.128
 6521SOL    HW120462   1.425   2.325   4.128
 6521SOL    HW220463   1.574   2.356   4.190
 6522SOL     OW20464   3.618   4.423   6.878
 6522SOL    HW120465   3.647   4.450   6.786
 6522SOL    HW220466   3.549   4.487   6.911
 6523SOL     OW20467   3.167   0.723   6.553
 6523SOL    HW120468   3.250   0.676   6.582
 6523SOL    HW220469   3.087   0.666   6.574
 6524SOL     OW20470   2.937   3.381   2.105
 6524SOL    HW120471   2.898   3.373   2.013
 6524SOL    HW220472   2.986   3.297   2.128
 6525SOL     OW20473   1.508   3.598   3.206
 6525SOL    HW120474   1.478   3.516   3.157
 6525SOL    HW220475   1.571   3.572   3.279
 6526SOL     OW20476   2.295   0.217   6.124
 6526SOL    HW120477   2.237   0.216   6.043
 6526SOL    HW220478   2.391   0.227   6.096
 6527SOL     OW20479   0.939   2.235   4.530
 6527SOL    HW120480   0.867   2.302   4.516
 6527SOL    HW220481   1.027   2.275   4.507
 6528SOL     OW20482   0.277   1.057   3.721
 6528SOL    HW120483   0.274   1.005   3.806
 6528SOL    HW220484   0.255   1.153   3.739
 6529SOL     OW20485   6.881   1.414   3.332
 6529SOL    HW120486   6.872   1.474   3.253
 6529SOL    HW220487   6.972   1.372   3.333
 6530SOL     OW20488   6.403   3.736   2.030
 6530SOL    HW120489   6.382   3.652   1.982
 6530SOL    HW220490   6.499   3.737   2.056
 6531SOL     OW20491   5.814   3.597   4.716
 6531SOL    HW120492   5.725   3.559   4.743
 6531SOL    HW220493   5.805   3.643   4.628
 6532SOL     OW20494   6.224   0.337   6.796
 6532SOL    HW120495   6.271   0.337   6.885
 6532SOL    HW220496   6.138   0.287   6.805
 6533SOL     OW20497   4.618   6.251   0.899
 6533SOL    HW120498   4.695   6.306   0.932
 6533SOL    HW220499   4.568   6.214   0.977
 6534SOL     OW20500   3.353   4.326   1.359
 6534SOL    HW120501   3.349   4.263   1.437
 6534SOL    HW220502   3.423   4.295   1.295
 6535SOL     OW20503   6.665   3.110   3.951
 6535SOL    HW120504   6.693   3.015   3.940
 6535SOL    HW220505   6.726   3.170   3.899
 6536SOL     OW20506   0.938   2.295   5.602
 6536SOL    HW120507   0.945   2.276   5.504
 6536SOL    HW220508   0.897   2.216   5.649
 6537SOL     OW20509   5.702   5.674   6.977
 6537SOL    HW120510   5.784   5.705   6.930
 6537SOL    HW220511   5.671   5.745   0.021
 6538SOL     OW20512   3.342   4.347   0.068
 6538SOL    HW120513   3.406   4.277   0.098
 6538SOL    HW220514   3.383   4.438   0.080
 6539SOL     OW20515   3.609   0.777   5.957
 6539SOL    HW120516   3.707   0.758   5.964
 6539SOL    HW220517   3.583   0.780   5.861
 6540SOL     OW20518   4.803   1.602   5.207
 6540SOL    HW120519   4.879   1.666   5.210
 6540SOL    HW220520   4.758   1.607   5.118
 6541SOL     OW20521   3.729   1.269   5.119
 6541SOL    HW120522   3.671   1.336   5.073
 6541SOL    HW220523   3.784   1.221   5.051
 6542SOL     OW20524   0.034   4.529   3.628
 6542SOL    HW120525   0.109   4.568   3.576
 6542SOL    HW220526   0.068   4.490   3.713
 6543SOL     OW20527   6.607   4.062   6.804
 6543SOL    HW120528   6.664   4.145   6.796
 6543SOL    HW220529   6.577   4.033   6.713
 6544SOL     OW20530   0.477   6.378   2.863
 6544SOL    HW120531   0.545   6.312   2.832
 6544SOL    HW220532   0.390   6.362   2.816
 6545SOL     OW20533   5.603   2.376   6.471
 6545SOL    HW120534   5.620   2.390   6.568
 6545SOL    HW220535   5.661   2.302   6.437
 6546SOL     OW20536   4.284   4.145   6.634
 6546SOL    HW120537   4.208   4.114   6.691
 6546SOL    HW220538   4.257   4.226   6.582
 6547SOL     OW20539   4.765   1.323   5.768
 6547SOL    HW120540   4.728   1.416   5.766
 6547SOL    HW220541   4.841   1.315   5.704
 6548SOL     OW20542   0.878   3.325   0.173
 6548SOL    HW120543   0.814   3.259   0.132
 6548SOL    HW220544   0.859   3.333   0.271
 6549SOL     OW20545   3.997   1.563   0.508
 6549SOL    HW120546   3.954   1.617   0.580
 6549SOL    HW220547   3.932   1.496   0.473
 6550SOL     OW20548   0.773   6.331   3.831
 6550SOL    HW120549   0.870   6.354   3.820
 6550SOL    HW220550   0.719   6.415   3.832
 6551SOL     OW20551   1.818   4.555   2.194
 6551SOL    HW120552   1.904   4.532   2.148
 6551SOL    HW220553   1.748   4.573   2.126
 6552SOL     OW20554   2.367   6.904   5.500
 6552SOL    HW120555   2.299   6.881   5.570
 6552SOL    HW220556   2.362   7.001   5.479
 6553SOL     OW20557   0.945   1.563   2.776
 6553SOL    HW120558   1.002   1.482   2.758
 6553SOL    HW220559   0.859   1.535   2.818
 6554SOL     OW20560   6.760   1.552   5.663
 6554SOL    HW120561   6.684   1.568   5.726
 6554SOL    HW220562   6.822   1.484   5.702
 6555SOL     OW20563   0.477   2.217   1.986
 6555SOL    HW120564   0.555   2.275   1.964
 6555SOL    HW220565   0.395   2.254   1.942
 6556SOL     OW20566   4.356   4.797   5.254
 6556SOL    HW120567   4.303   4.864   5.201
 6556SOL    HW220568   4.347   4.817   5.351
 6557SOL     OW20569   4.133   5.455   1.628
 6557SOL    HW120570   4.219   5.460   1.578
 6557SOL    HW220571   4.151   5.459   1.727
 6558SOL     OW20572   6.337   5.426   0.047
 6558SOL    HW120573   6.396   5.348   0.068
 6558SOL    HW220574   6.242   5.401   0.067
 6559SOL     OW20575   6.296   4.313   6.647
 6559SOL    HW120576   6.279   4.214   6.651
 6559SOL    HW220577   6.344   4.335   6.562
 6560SOL     OW20578   3.872   4.081   1.333
 6560SOL    HW120579   3.808   4.134   1.390
 6560SOL    HW220580   3.884   3.991   1.374
 6561SOL     OW20581   3.627   4.063   2.125
 6561SOL    HW120582   3.548   4.016   2.084
 6561SOL    HW220583   3.701   4.067   2.058
 6562SOL     OW20584   5.772   4.610   6.897
 6562SOL    HW120585   5.728   4.523   6.918
 6562SOL    HW220586   5.872   4.597   6.895
 6563SOL     OW20587   0.105   6.045   0.308
 6563SOL    HW120588   0.187   6.101   0.319
 6563SOL    HW220589   0.130   5.957   0.268
 6564SOL     OW20590   6.646   3.962   2.833
 6564SOL    HW120591   6.636   3.993   2.928
 6564SOL    HW220592   6.706   4.025   2.784
 6565SOL     OW20593   6.205   2.397   4.310
 6565SOL    HW120594   6.276   2.438   4.366
 6565SOL    HW220595   6.176   2.462   4.240
 6566SOL     OW20596   2.823   6.629   1.816
 6566SOL    HW120597   2.771   6.642   1.732
 6566SOL    HW220598   2.764   6.645   1.895
 6567SOL     OW20599   4.085   2.956   1.105
 6567SOL    HW120600   4.054   3.051   1.097
 6567SOL    HW220601   4.044   2.914   1.185
 6568SOL     OW20602   4.960   6.410   3.164
 6568SOL    HW120603   5.051   6.378   3.137
 6568SOL    HW220604   4.960   6.431   3.262
 6569SOL     OW20605   3.010   4.044   0.860
 6569SOL    HW120606   3.089   4.072   0.804
 6569SOL    HW220607   2.964   3.967   0.815
 6570SOL     OW20608   4.668   6.468   2.013
 6570SOL    HW120609   4.603   6.436   1.944
 6570SOL    HW220610   4.752   6.413   2.008
 6571SOL     OW20611   2.593   6.198   1.723
 6571SOL    HW120612   2.594   6.277   1.662
 6571SOL    HW220613   2.678   6.147   1.712
 6572SOL     OW20614   6.835   5.713   5.422
 6572SOL    HW120615   6.783   5.627   5.422
 6572SOL    HW220616   6.781   5.784   5.466
 6573SOL     OW20617   2.628   1.348   2.476
 6573SOL    HW120618   2.658   1.273   2.535
 6573SOL    HW220619   2.587   1.311   2.393
 6574SOL     OW20620   2.895   5.991   2.444
 6574SOL    HW120621   2.895   5.924   2.518
 6574SOL    HW220622   2.986   5.997   2.404
 6575SOL     OW20623   0.668   1.174   2.310
 6575SOL    HW120624   0.706   1.152   2.220
 6575SOL    HW220625   0.738   1.159   2.380
 6576SOL     OW20626   1.439   6.413   6.346
 6576SOL    HW120627   1.396   6.421   6.256
 6576SOL    HW220628   1.372   6.381   6.413
 6577SOL     OW20629   0.574   2.067   3.717
 6577SOL    HW120630   0.614   1.979   3.741
 6577SOL    HW220631   0.626   2.109   3.643
 6578SOL     OW20632   0.484   4.390   2.835
 6578SOL    HW120633   0.541   4.379   2.754
 6578SOL    HW220634   0.413   4.320   2.835
 6579SOL     OW20635   0.396   3.712   4.686
 6579SOL    HW120636   0.414   3.651   4.608
 6579SOL    HW220637   0.482   3.730   4.735
 6580SOL     OW20638   6.889   1.403   1.260
 6580SOL    HW120639   6.978   1.434   1.228
 6580SOL    HW220640   6.898   1.315   1.305
 6581SOL     OW20641   3.245   1.493   6.617
 6581SOL    HW120642   3.201   1.557   6.680
 6581SOL    HW220643   3.285   1.417   6.669
 6582SOL     OW20644   1.649   0.818   1.887
 6582SOL    HW120645   1.670   0.845   1.981
 6582SOL    HW220646   1.674   0.722   1.874
 6583SOL     OW20647   4.457   0.268   5.173
 6583SOL    HW120648   4.385   0.250   5.241
 6583SOL    HW220649   4.430   0.346   5.117
 6584SOL     OW20650   4.794   1.842   6.811
 6584SOL    HW120651   4.877   1.821   6.863
 6584SOL    HW220652   4.814   1.838   6.713
 6585SOL     OW20653   6.743   0.564   6.924
 6585SOL    HW120654   6.723   0.519   6.837
 6585SOL    HW220655   6.668   0.547   6.988
 6586SOL     OW20656   6.210   2.654   5.923
 6586SOL    HW120657   6.236   2.688   6.013
 6586SOL    HW220658   6.283   2.675   5.858
 6587SOL     OW20659   2.717   5.952   4.994
 6587SOL    HW120660   2.689   5.960   4.898
 6587SOL    HW220661   2.648   5.993   5.053
 6588SOL     OW20662   1.572   4.011   1.497
 6588SOL    HW120663   1.487   3.963   1.520
 6588SOL    HW220664   1.635   3.948   1.453
 6589SOL     OW20665   4.530   0.351   6.529
 6589SOL    HW120666   4.557   0.327   6.622
 6589SOL    HW220667   4.582   0.431   6.499
 6590SOL     OW20668   0.911   1.235   5.864
 6590SOL    HW120669   0.933   1.189   5.778
 6590SOL    HW220670   0.819   1.275   5.857
 6591SOL     OW20671   4.834   5.998   2.690
 6591SOL    HW120672   4.884   5.930   2.636
 6591SOL    HW220673   4.759   6.035   2.636
 6592SOL     OW20674   5.966   6.863   4.052
 6592SOL    HW120675   5.939   6.771   4.023
 6592SOL    HW220676   5.925   6.931   3.992
 6593SOL     OW20677   2.233   1.604   3.810
 6593SOL    HW120678   2.228   1.681   3.874
 6593SOL    HW220679   2.159   1.611   3.744
 6594SOL     OW20680   4.009   1.661   0.219
 6594SOL    HW120681   4.074   1.590   0.190
 6594SOL    HW220682   4.003   1.661   0.318
 6595SOL     OW20683   0.765   3.523   0.864
 6595SOL    HW120684   0.846   3.565   0.824
 6595SOL    HW220685   0.760   3.427   0.837
 6596SOL     OW20686   3.175   6.661   4.674
 6596SOL    HW120687   3.128   6.613   4.601
 6596SOL    HW220688   3.223   6.740   4.636
 6597SOL     OW20689   1.672   6.381   3.368
 6597SOL    HW120690   1.724   6.455   3.408
 6597SOL    HW220691   1.588   6.417   3.327
 6598SOL     OW20692   0.645   6.930   4.246
 6598SOL    HW120693   0.573   6.973   4.300
 6598SOL    HW220694   0.621   6.936   4.149
 6599SOL     OW20695   3.546   5.679   5.701
 6599SOL    HW120696   3.631   5.628   5.696
 6599SOL    HW220697   3.518   5.688   5.797
 6600SOL     OW20698   4.749   5.074   5.969
 6600SOL    HW120699   4.705   5.117   5.891
 6600SOL    HW220700   4.847   5.065   5.952
 6601SOL     OW20701   0.617   1.454   6.524
 6601SOL    HW120702   0.538   1.514   6.530
 6601SOL    HW220703   0.692   1.491   6.579
 6602SOL     OW20704   0.017   1.343   1.946
 6602SOL    HW120705   6.964   1.410   1.959
 6602SOL    HW220706   0.035   1.295   2.032
 6603SOL     OW20707   0.739   2.989   4.375
 6603SOL    HW120708   0.661   2.945   4.329
 6603SOL    HW220709   0.754   3.079   4.334
 6604SOL     OW20710   2.494   6.679   0.572
 6604SOL    HW120711   2.544   6.651   0.491
 6604SOL    HW220712   2.483   6.778   0.572
 6605SOL     OW20713   5.442   4.597   1.255
 6605SOL    HW120714   5.493   4.540   1.191
 6605SOL    HW220715   5.430   4.688   1.215
 6606SOL     OW20716   5.184   0.218   2.462
 6606SOL    HW120717   5.217   0.151   2.528
 6606SOL    HW220718   5.221   0.309   2.484
 6607SOL     OW20719   1.883   2.503   1.599
 6607SOL    HW120720   1.898   2.519   1.501
 6607SOL    HW220721   1.899   2.588   1.649
 6608SOL     OW20722   4.904   5.776   2.223
 6608SOL    HW120723   4.926   5.742   2.132
 6608SOL    HW220724   4.979   5.753   2.286
 6609SOL     OW20725   4.716   0.874   5.884
 6609SOL    HW120726   4.747   0.967   5.904
 6609SOL    HW220727   4.633   0.878   5.828
 6610SOL     OW20728   2.509   1.488   6.206
 6610SOL    HW120729   2.577   1.501   6.279
 6610SOL    HW220730   2.439   1.558   6.213
 6611SOL     OW20731   5.959   2.736   3.962
 6611SOL    HW120732   5.895   2.812   3.970
 6611SOL    HW220733   6.052   2.771   3.953
 6612SOL     OW20734   0.140   2.639   6.933
 6612SOL    HW120735   0.131   2.677   6.841
 6612SOL    HW220736   0.140   2.540   6.928
 6613SOL     OW20737   6.170   5.998   4.852
 6613SOL    HW120738   6.234   6.005   4.776
 6613SOL    HW220739   6.087   5.953   4.822
 6614SOL     OW20740   5.606   6.091   0.018
 6614SOL    HW120741   5.624   6.122   0.111
 6614SOL    HW220742   5.546   6.010   0.020
 6615SOL     OW20743   0.711   4.630   3.445
 6615SOL    HW120744   0.749   4.688   3.517
 6615SOL    HW220745   0.749   4.657   3.357
 6616SOL     OW20746   4.279   1.436   5.885
 6616SOL    HW120747   4.341   1.450   5.963
 6616SOL    HW220748   4.253   1.339   5.881
 6617SOL     OW20749   3.265   5.651   3.373
 6617SOL    HW120750   3.347   5.594   3.363
 6617SOL    HW220751   3.250   5.702   3.289
 6618SOL     OW20752   1.175   3.134   3.094
 6618SOL    HW120753   1.146   3.222   3.129
 6618SOL    HW220754   1.108   3.064   3.118
 6619SOL     OW20755   6.864   6.850   4.702
 6619SOL    HW120756   6.799   6.780   4.733
 6619SOL    HW220757   6.956   6.827   4.733
 6620SOL     OW20758   2.672   2.719   5.506
 6620SOL    HW120759   2.652   2.773   5.587
 6620SOL    HW220760   2.624   2.757   5.427
 6621SOL     OW20761   2.049   3.094   6.470
 6621SOL    HW120762   2.011   3.037   6.397
 6621SOL    HW220763   2.146   3.110   6.452
 6622SOL     OW20764   5.916   6.226   1.459
 6622SOL    HW120765   5.895   6.132   1.485
 6622SOL    HW220766   6.013   6.245   1.475
 6623SOL     OW20767   2.619   3.709   0.619
 6623SOL    HW120768   2.527   3.747   0.605
 6623SOL    HW220769   2.611   3.616   0.656
 6624SOL     OW20770   1.708   0.351   4.384
 6624SOL    HW120771   1.642   0.419   4.415
 6624SOL    HW220772   1.667   0.295   4.312
 6625SOL     OW20773   5.621   1.977   5.949
 6625SOL    HW120774   5.623   1.974   5.849
 6625SOL    HW220775   5.695   2.036   5.982
 6626SOL     OW20776   4.046   4.795   5.176
 6626SOL    HW120777   4.049   4.880   5.228
 6626SOL    HW220778   4.058   4.718   5.239
 6627SOL     OW20779   2.547   1.075   6.215
 6627SOL    HW120780   2.476   1.004   6.217
 6627SOL    HW220781   2.506   1.163   6.192
 6628SOL     OW20782   4.875   4.483   4.435
 6628SOL    HW120783   4.870   4.515   4.341
 6628SOL    HW220784   4.925   4.551   4.490
 6629SOL     OW20785   3.030   5.793   6.682
 6629SOL    HW120786   2.933   5.814   6.694
 6629SOL    HW220787   3.065   5.841   6.602
 6630SOL     OW20788   3.136   1.606   1.630
 6630SOL    HW120789   3.234   1.629   1.626
 6630SOL    HW220790   3.109   1.596   1.726
 6631SOL     OW20791   3.714   0.465   2.434
 6631SOL    HW120792   3.788   0.425   2.487
 6631SOL    HW220793   3.715   0.428   2.341
 6632SOL     OW20794   0.525   6.824   2.170
 6632SOL    HW120795   0.525   6.923   2.154
 6632SOL    HW220796   0.585   6.780   2.103
 6633SOL     OW20797   0.919   4.138   5.540
 6633SOL    HW120798   0.908   4.212   5.607
 6633SOL    HW220799   0.923   4.176   5.448
 6634SOL     OW20800   6.203   2.864   4.792
 6634SOL    HW120801   6.119   2.884   4.741
 6634SOL    HW220802   6.242   2.778   4.758
 6635SOL     OW20803   3.878   4.834   3.474
 6635SOL    HW120804   3.870   4.868   3.380
 6635SOL    HW220805   3.796   4.858   3.525
 6636SOL     OW20806   3.926   1.783   5.599
 6636SOL    HW120807   3.872   1.777   5.683
 6636SOL    HW220808   3.988   1.705   5.593
 6637SOL     OW20809   1.935   0.503   5.924
 6637SOL    HW120810   1.865   0.441   5.888
 6637SOL    HW220811   1.910   0.597   5.901
 6638SOL     OW20812   3.391   4.175   4.860
 6638SOL    HW120813   3.460   4.111   4.893
 6638SOL    HW220814   3.366   4.239   4.932
 6639SOL     OW20815   5.442   5.354   0.105
 6639SOL    HW120816   5.503   5.305   0.043
 6639SOL    HW220817   5.403   5.290   0.171
 6640SOL     OW20818   0.410   1.735   4.678
 6640SOL    HW120819   0.453   1.655   4.635
 6640SOL    HW220820   0.472   1.774   4.746
 6641SOL     OW20821   2.082   2.081   0.106
 6641SOL    HW120822   2.127   2.170   0.098
 6641SOL    HW220823   2.137   2.012   0.059
 6642SOL     OW20824   2.800   5.750   0.204
 6642SOL    HW120825   2.716   5.793   0.238
 6642SOL    HW220826   2.776   5.684   0.132
 6643SOL     OW20827   6.622   5.084   6.650
 6643SOL    HW120828   6.576   5.003   6.688
 6643SOL    HW220829   6.557   5.138   6.596
 6644SOL     OW20830   3.087   4.802   1.867
 6644SOL    HW120831   3.187   4.798   1.878
 6644SOL    HW220832   3.048   4.711   1.881
 6645SOL     OW20833   6.819   5.355   0.102
 6645SOL    HW120834   6.735   5.351   0.156
 6645SOL    HW220835   6.798   5.385   0.009
 6646SOL     OW20836   3.980   6.950   4.537
 6646SOL    HW120837   3.963   0.017   4.584
 6646SOL    HW220838   4.045   6.895   4.591
 6647SOL     OW20839   4.097   0.616   2.330
 6647SOL    HW120840   4.029   0.683   2.359
 6647SOL    HW220841   4.186   0.639   2.369
 6648SOL     OW20842   3.335   5.704   2.452
 6648SOL    HW120843   3.260   5.758   2.490
 6648SOL    HW220844   3.380   5.756   2.379
 6649SOL     OW20845   4.974   1.412   0.230
 6649SOL    HW120846   5.051   1.357   0.260
 6649SOL    HW220847   4.930   1.369   0.151
 6650SOL     OW20848   3.261   1.217   4.978
 6650SOL    HW120849   3.247   1.316   4.976
 6650SOL    HW220850   3.313   1.192   5.060
 6651SOL     OW20851   1.905   1.106   6.496
 6651SOL    HW120852   2.001   1.077   6.504
 6651SOL    HW220853   1.899   1.204   6.516
 6652SOL     OW20854   6.390   5.207   0.431
 6652SOL    HW120855   6.429   5.166   0.513
 6652SOL    HW220856   6.381   5.137   0.359
 6653SOL     OW20857   3.315   3.186   2.079
 6653SOL    HW120858   3.305   3.210   2.176
 6653SOL    HW220859   3.408   3.208   2.049
 6654SOL     OW20860   1.506   3.119   1.294
 6654SOL    HW120861   1.585   3.066   1.266
 6654SOL    HW220862   1.534   3.213   1.313
 6655SOL     OW20863   3.440   6.971   1.437
 6655SOL    HW120864   3.477   6.880   1.418
 6655SOL    HW220865   3.512   0.020   1.423
 6656SOL     OW20866   6.423   1.775   1.944
 6656SOL    HW120867   6.482   1.853   1.924
 6656SOL    HW220868   6.334   1.808   1.976
 6657SOL     OW20869   5.549   5.966   6.268
 6657SOL    HW120870   5.548   6.058   6.227
 6657SOL    HW220871   5.463   5.949   6.314
 6658SOL     OW20872   5.771   1.663   4.816
 6658SOL    HW120873   5.692   1.725   4.815
 6658SOL    HW220874   5.799   1.643   4.722
 6659SOL     OW20875   2.206   2.249   0.699
 6659SOL    HW120876   2.305   2.233   0.700
 6659SOL    HW220877   2.167   2.212   0.615
 6660SOL     OW20878   0.613   5.939   0.746
 6660SOL    HW120879   0.707   5.943   0.780
 6660SOL    HW220880   0.555   5.999   0.803
 6661SOL     OW20881   0.890   5.962   3.549
 6661SOL    HW120882   0.834   5.910   3.484
 6661SOL    HW220883   0.831   5.999   3.621
 6662SOL     OW20884   1.013   1.042   6.556
 6662SOL    HW120885   1.064   0.971   6.606
 6662SOL    HW220886   0.976   1.108   6.621
 6663SOL     OW20887   6.773   5.430   3.288
 6663SOL    HW120888   6.686   5.477   3.307
 6663SOL    HW220889   6.849   5.488   3.316
 6664SOL     OW20890   1.689   6.793   0.636
 6664SOL    HW120891   1.670   6.779   0.539
 6664SOL    HW220892   1.642   6.876   0.667
 6665SOL     OW20893   1.422   0.055   2.998
 6665SOL    HW120894   1.435   0.083   3.093
 6665SOL    HW220895   1.482   0.108   2.938
 6666SOL     OW20896   5.749   0.592   5.920
 6666SOL    HW120897   5.696   0.632   5.845
 6666SOL    HW220898   5.845   0.620   5.911
 6667SOL     OW20899   6.867   5.384   5.911
 6667SOL    HW120900   6.812   5.454   5.957
 6667SOL    HW220901   6.904   5.321   5.979
 6668SOL     OW20902   5.954   5.599   1.979
 6668SOL    HW120903   5.995   5.606   2.070
 6668SOL    HW220904   5.965   5.506   1.945
 6669SOL     OW20905   2.009   2.840   3.839
 6669SOL    HW120906   2.003   2.742   3.861
 6669SOL    HW220907   2.084   2.881   3.890
 6670SOL     OW20908   3.623   2.408   5.630
 6670SOL    HW120909   3.626   2.464   5.547
 6670SOL    HW220910   3.542   2.350   5.628
 6671SOL     OW20911   5.203   5.604   1.403
 6671SOL    HW120912   5.148   5.573   1.325
 6671SOL    HW220913   5.206   5.704   1.405
 6672SOL     OW20914   0.698   2.080   5.508
 6672SOL    HW120915   0.764   2.068   5.581
 6672SOL    HW220916   0.688   1.995   5.457
 6673SOL     OW20917   5.199   6.027   3.304
 6673SOL    HW120918   5.284   5.983   3.333
 6673SOL    HW220919   5.200   6.123   3.333
 6674SOL     OW20920   0.615   4.492   6.022
 6674SOL    HW120921   0.707   4.524   5.998
 6674SOL    HW220922   0.618   4.395   6.042
 6675SOL     OW20923   4.403   3.998   1.713
 6675SOL    HW120924   4.309   3.969   1.734
 6675SOL    HW220925   4.419   4.088   1.754
 6676SOL     OW20926   0.641   4.258   5.803
 6676SOL    HW120927   0.651   4.199   5.883
 6676SOL    HW220928   0.545   4.285   5.793
 6677SOL     OW20929   0.827   1.932   0.032
 6677SOL    HW120930   0.847   1.942   6.954
 6677SOL    HW220931   0.899   1.877   0.075
 6678SOL     OW20932   2.669   2.568   0.043
 6678SOL    HW120933   2.652   2.479   0.001
 6678SOL    HW220934   2.582   2.615   0.060
 6679SOL     OW20935   2.914   1.364   3.784
 6679SOL    HW120936   2.924   1.409   3.873
 6679SOL    HW220937   2.873   1.428   3.719
 6680SOL     OW20938   4.861   6.562   6.353
 6680SOL    HW120939   4.952   6.589   6.322
 6680SOL    HW220940   4.803   6.643   6.360
 6681SOL     OW20941   4.575   5.332   0.132
 6681SOL    HW120942   4.659   5.310   0.084
 6681SOL    HW220943   4.512   5.380   0.070
 6682SOL     OW20944   1.444   4.765   2.324
 6682SOL    HW120945   1.413   4.781   2.418
 6682SOL    HW220946   1.364   4.753   2.264
 6683SOL     OW20947   5.082   2.886   5.743
 6683SOL    HW120948   5.150   2.813   5.745
 6683SOL    HW220949   4.992   2.848   5.766
 6684SOL     OW20950   2.714   6.633   0.782
 6684SOL    HW120951   2.619   6.622   0.753
 6684SOL    HW220952   2.728   6.727   0.815
 6685SOL     OW20953   5.641   2.822   5.657
 6685SOL    HW120954   5.639   2.913   5.697
 6685SOL    HW220955   5.548   2.794   5.633
 6686SOL     OW20956   5.140   5.811   4.323
 6686SOL    HW120957   5.229   5.774   4.351
 6686SOL    HW220958   5.118   5.891   4.379
 6687SOL     OW20959   6.803   2.445   1.228
 6687SOL    HW120960   6.779   2.354   1.263
 6687SOL    HW220961   6.829   2.437   1.131
 6688SOL     OW20962   6.761   4.250   2.337
 6688SOL    HW120963   6.686   4.226   2.398
 6688SOL    HW220964   6.724   4.278   2.248
 6689SOL     OW20965   4.166   3.155   0.328
 6689SOL    HW120966   4.264   3.160   0.308
 6689SOL    HW220967   4.144   3.065   0.367
 6690SOL     OW20968   2.598   1.051   1.574
 6690SOL    HW120969   2.516   1.108   1.574
 6690SOL    HW220970   2.679   1.109   1.569
 6691SOL     OW20971   2.637   6.403   1.505
 6691SOL    HW120972   2.637   6.500   1.528
 6691SOL    HW220973   2.731   6.368   1.503
 6692SOL     OW20974   3.185   4.158   5.395
 6692SOL    HW120975   3.144   4.070   5.417
 6692SOL    HW220976   3.117   4.216   5.351
 6693SOL     OW20977   4.211   2.997   5.874
 6693SOL    HW120978   4.175   3.087   5.897
 6693SOL    HW220979   4.309   2.995   5.889
 6694SOL     OW20980   5.195   6.269   0.450
 6694SOL    HW120981   5.232   6.332   0.382
 6694SOL    HW220982   5.202   6.309   0.541
 6695SOL     OW20983   2.907   2.410   5.793
 6695SOL    HW120984   2.916   2.373   5.886
 6695SOL    HW220985   2.994   2.400   5.745
 6696SOL     OW20986   1.543   2.554   0.321
 6696SOL    HW120987   1.455   2.579   0.281
 6696SOL    HW220988   1.529   2.519   0.413
 6697SOL     OW20989   5.085   2.561   3.186
 6697SOL    HW120990   5.183   2.551   3.171
 6697SOL    HW220991   5.045   2.616   3.112
 6698SOL     OW20992   2.977   2.805   0.346
 6698SOL    HW120993   3.018   2.872   0.408
 6698SOL    HW220994   2.973   2.843   0.254
 6699SOL     OW20995   3.130   5.286   6.838
 6699SOL    HW120996   3.140   5.377   6.800
 6699SOL    HW220997   3.095   5.224   6.768
 6700SOL     OW20998   6.842   6.183   1.334
 6700SOL    HW120999   6.893   6.106   1.294
 6700SOL    HW221000   6.822   6.163   1.430
 6701SOL     OW21001   5.572   3.405   0.573
 6701SOL    HW121002   5.600   3.439   0.483
 6701SOL    HW221003   5.581   3.306   0.576
 6702SOL     OW21004   2.477   2.589   0.619
 6702SOL    HW121005   2.577   2.595   0.620
 6702SOL    HW221006   2.448   2.507   0.667
 6703SOL     OW21007   6.530   1.175   6.851
 6703SOL    HW121008   6.447   1.185   6.795
 6703SOL    HW221009   6.603   1.134   6.796
 6704SOL     OW21010   4.248   2.262   2.415
 6704SOL    HW121011   4.236   2.209   2.331
 6704SOL    HW221012   4.289   2.350   2.394
 6705SOL     OW21013   0.066   2.814   2.268
 6705SOL    HW121014   0.079   2.792   2.365
 6705SOL    HW221015   7.014   2.756   2.230
 6706SOL     OW21016   1.224   3.626   1.294
 6706SOL    HW121017   1.225   3.725   1.311
 6706SOL    HW221018   1.137   3.601   1.252
 6707SOL     OW21019   0.240   5.914   4.452
 6707SOL    HW121020   0.171   5.931   4.381
 6707SOL    HW221021   0.327   5.952   4.423
 6708SOL     OW21022   1.231   5.194   2.567
 6708SOL    HW121023   1.141   5.200   2.525
 6708SOL    HW221024   1.299   5.173   2.497
 6709SOL     OW21025   3.240   5.592   1.902
 6709SOL    HW121026   3.326   5.592   1.851
 6709SOL    HW221027   3.183   5.668   1.870
 6710SOL     OW21028   2.601   1.621   5.812
 6710SOL    HW121029   2.613   1.687   5.887
 6710SOL    HW221030   2.684   1.620   5.756
 6711SOL     OW21031   5.515   4.594   6.741
 6711SOL    HW121032   5.601   4.625   6.782
 6711SOL    HW221033   5.508   4.494   6.752
 6712SOL     OW21034   4.485   5.750   0.300
 6712SOL    HW121035   4.480   5.846   0.328
 6712SOL    HW221036   4.490   5.745   0.200
 6713SOL     OW21037   1.747   1.924   1.796
 6713SOL    HW121038   1.777   1.990   1.865
 6713SOL    HW221039   1.693   1.970   1.726
 6714SOL     OW21040   5.328   0.636   6.079
 6714SOL    HW121041   5.419   0.672   6.102
 6714SOL    HW221042   5.337   0.569   6.006
 6715SOL     OW21043   0.024   0.532   6.548
 6715SOL    HW121044   0.083   0.473   6.493
 6715SOL    HW221045   0.080   0.581   6.615
 6716SOL     OW21046   0.853   6.131   2.209
 6716SOL    HW121047   0.869   6.173   2.298
 6716SOL    HW221048   0.824   6.036   2.222
 6717SOL     OW21049   4.394   3.110   0.807
 6717SOL    HW121050   4.440   3.120   0.896
 6717SOL    HW221051   4.358   3.199   0.778
 6718SOL     OW21052   3.911   6.108   6.262
 6718SOL    HW121053   3.896   6.013   6.235
 6718SOL    HW221054   3.922   6.113   6.361
 6719SOL     OW21055   0.602   0.032   5.727
 6719SOL    HW121056   0.622   7.019   5.820
 6719SOL    HW221057   0.643   0.123   5.714
 6720SOL     OW21058   1.515   6.127   2.366
 6720SOL    HW121059   1.572   6.065   2.419
 6720SOL    HW221060   1.483   6.080   2.283
 6721SOL     OW21061   6.196   6.576   4.585
 6721SOL    HW121062   6.133   6.526   4.645
 6721SOL    HW221063   6.219   6.519   4.506
 6722SOL     OW21064   5.408   3.428   1.418
 6722SOL    HW121065   5.350   3.439   1.337
 6722SOL    HW221066   5.502   3.452   1.396
 6723SOL     OW21067   2.392   6.470   2.781
 6723SOL    HW121068   2.392   6.468   2.681
 6723SOL    HW221069   2.465   6.412   2.816
 6724SOL     OW21070   1.079   3.392   5.892
 6724SOL    HW121071   1.015   3.325   5.852
 6724SOL    HW221072   1.172   3.355   5.889
 6725SOL     OW21073   0.721   4.358   1.702
 6725SOL    HW121074   0.747   4.321   1.612
 6725SOL    HW221075   0.625   4.383   1.701
 6726SOL     OW21076   0.708   2.384   4.389
 6726SOL    HW121077   0.796   2.391   4.344
 6726SOL    HW221078   0.636   2.411   4.325
 6727SOL     OW21079   6.614   3.459   5.429
 6727SOL    HW121080   6.533   3.516   5.442
 6727SOL    HW221081   6.620   3.431   5.333
 6728SOL     OW21082   5.006   1.685   4.658
 6728SOL    HW121083   4.998   1.781   4.684
 6728SOL    HW221084   5.055   1.635   4.729
 6729SOL     OW21085   6.802   1.280   2.618
 6729SOL    HW121086   6.788   1.250   2.524
 6729SOL    HW221087   6.762   1.370   2.631
 6730SOL     OW21088   1.830   6.637   6.190
 6730SOL    HW121089   1.905   6.574   6.170
 6730SOL    HW221090   1.764   6.592   6.250
 6731SOL     OW21091   1.854   4.489   0.801
 6731SOL    HW121092   1.885   4.560   0.738
 6731SOL    HW221093   1.755   4.494   0.810
 6732SOL     OW21094   4.467   5.909   5.939
 6732SOL    HW121095   4.561   5.887   5.963
 6732SOL    HW221096   4.425   5.959   6.015
 6733SOL     OW21097   4.172   5.101   6.778
 6733SOL    HW121098   4.149   5.155   6.859
 6733SOL    HW221099   4.106   5.121   6.705
 6734SOL     OW21100   0.584   3.316   5.397
 6734SOL    HW121101   0.489   3.285   5.400
 6734SOL    HW221102   0.645   3.237   5.387
 6735SOL     OW21103   0.863   5.814   5.103
 6735SOL    HW121104   0.864   5.766   5.015
 6735SOL    HW221105   0.945   5.871   5.110
 6736SOL     OW21106   1.648   3.546   0.604
 6736SOL    HW121107   1.649   3.538   0.704
 6736SOL    HW221108   1.556   3.571   0.574
 6737SOL     OW21109   2.056   2.804   0.923
 6737SOL    HW121110   2.000   2.762   0.852
 6737SOL    HW221111   2.151   2.808   0.894
 6738SOL     OW21112   2.127   3.295   2.205
 6738SOL    HW121113   2.131   3.340   2.295
 6738SOL    HW221114   2.151   3.361   2.134
 6739SOL     OW21115   3.485   5.406   6.102
 6739SOL    HW121116   3.425   5.370   6.174
 6739SOL    HW221117   3.493   5.505   6.113
 6740SOL     OW21118   2.047   1.639   4.539
 6740SOL    HW121119   2.020   1.580   4.463
 6740SOL    HW221120   2.014   1.732   4.523
 6741SOL     OW21121   4.625   1.458   5.392
 6741SOL    HW121122   4.676   1.471   5.477
 6741SOL    HW221123   4.672   1.505   5.317
 6742SOL     OW21124   0.292   5.761   2.684
 6742SOL    HW121125   0.381   5.780   2.725
 6742SOL    HW221126   0.297   5.677   2.630
 6743SOL     OW21127   3.760   4.253   0.007
 6743SOL    HW121128   3.691   4.316   6.988
 6743SOL    HW221129   3.724   4.210   0.089
 6744SOL     OW21130   4.340   5.717   5.572
 6744SOL    HW121131   4.282   5.653   5.623
 6744SOL    HW221132   4.342   5.805   5.619
 6745SOL     OW21133   1.173   6.342   2.107
 6745SOL    HW121134   1.263   6.324   2.148
 6745SOL    HW221135   1.111   6.376   2.177
 6746SOL     OW21136   0.739   0.924   2.881
 6746SOL    HW121137   0.709   0.915   2.976
 6746SOL    HW221138   0.734   0.835   2.836
 6747SOL     OW21139   5.534   6.777   4.569
 6747SOL    HW121140   5.473   6.856   4.573
 6747SOL    HW221141   5.629   6.808   4.570
 6748SOL     OW21142   1.284   0.530   3.042
 6748SOL    HW121143   1.282   0.475   3.126
 6748SOL    HW221144   1.287   0.627   3.066
 6749SOL     OW21145   3.053   6.622   0.265
 6749SOL    HW121146   2.992   6.665   0.331
 6749SOL    HW221147   3.134   6.680   0.251
 6750SOL     OW21148   3.811   1.169   4.873
 6750SOL    HW121149   3.834   1.266   4.864
 6750SOL    HW221150   3.890   1.114   4.847
 6751SOL     OW21151   3.993   1.824   3.676
 6751SOL    HW121152   3.970   1.731   3.646
 6751SOL    HW221153   4.057   1.820   3.752
 6752SOL     OW21154   6.143   2.971   2.436
 6752SOL    HW121155   6.096   2.907   2.497
 6752SOL    HW221156   6.097   2.972   2.347
 6753SOL     OW21157   4.820   1.322   6.368
 6753SOL    HW121158   4.769   1.240   6.340
 6753SOL    HW221159   4.757   1.395   6.393
 6754SOL     OW21160   6.567   1.994   5.844
 6754SOL    HW121161   6.625   1.941   5.781
 6754SOL    HW221162   6.563   1.948   5.933
 6755SOL     OW21163   4.564   2.053   3.750
 6755SOL    HW121164   4.583   2.083   3.843
 6755SOL    HW221165   4.477   2.005   3.747
 6756SOL     OW21166   4.838   4.347   4.911
 6756SOL    HW121167   4.829   4.296   4.996
 6756SOL    HW221168   4.799   4.294   4.835
 6757SOL     OW21169   4.742   6.556   0.680
 6757SOL    HW121170   4.816   6.589   0.622
 6757SOL    HW221171   4.752   6.593   0.773
 6758SOL     OW21172   5.355   4.034   2.179
 6758SOL    HW121173   5.380   3.976   2.101
 6758SOL    HW221174   5.312   3.977   2.249
 6759SOL     OW21175   1.302   3.400   3.907
 6759SOL    HW121176   1.358   3.482   3.895
 6759SOL    HW221177   1.225   3.421   3.968
 6760SOL     OW21178   6.641   5.621   4.490
 6760SOL    HW121179   6.694   5.553   4.440
 6760SOL    HW221180   6.699   5.663   4.560
 6761SOL     OW21181   5.599   2.389   5.739
 6761SOL    HW121182   5.659   2.469   5.740
 6761SOL    HW221183   5.515   2.411   5.689
 6762SOL     OW21184   0.326   5.496   3.189
 6762SOL    HW121185   0.419   5.467   3.168
 6762SOL    HW221186   0.262   5.453   3.126
 6763SOL     OW21187   6.882   5.984   4.037
 6763SOL    HW121188   6.965   6.024   4.076
 6763SOL    HW221189   6.858   6.032   3.953
 6764SOL     OW21190   2.920   4.832   6.720
 6764SOL    HW121191   3.009   4.797   6.691
 6764SOL    HW221192   2.886   4.897   6.651
 6765SOL     OW21193   5.931   5.309   3.651
 6765SOL    HW121194   5.901   5.299   3.746
 6765SOL    HW221195   5.851   5.303   3.590
 6766SOL     OW21196   2.888   0.233   6.547
 6766SOL    HW121197   2.806   0.230   6.489
 6766SOL    HW221198   2.958   0.290   6.503
 6767SOL     OW21199   0.436   2.796   1.010
 6767SOL    HW121200   0.398   2.705   1.025
 6767SOL    HW221201   0.504   2.792   0.936
 6768SOL     OW21202   1.505   0.559   3.576
 6768SOL    HW121203   1.497   0.648   3.621
 6768SOL    HW221204   1.437   0.496   3.613
 6769SOL     OW21205   2.970   1.582   5.448
 6769SOL    HW121206   3.048   1.568   5.386
 6769SOL    HW221207   2.897   1.628   5.398
 6770SOL     OW21208   0.032   2.298   4.214
 6770SOL    HW121209   0.131   2.311   4.203
 6770SOL    HW221210   0.012   2.273   4.308
 6771SOL     OW21211   4.043   2.223   3.648
 6771SOL    HW121212   4.095   2.148   3.690
 6771SOL    HW221213   4.027   2.294   3.716
 6772SOL     OW21214   5.676   1.929   2.177
 6772SOL    HW121215   5.699   1.894   2.268
 6772SOL    HW221216   5.662   1.852   2.115
 6773SOL     OW21217   6.670   6.425   1.622
 6773SOL    HW121218   6.664   6.467   1.531
 6773SOL    HW221219   6.756   6.376   1.630
 6774SOL     OW21220   1.744   1.974   5.594
 6774SOL    HW121221   1.794   1.927   5.522
 6774SOL    HW221222   1.808   2.015   5.659
 6775SOL     OW21223   1.094   1.869   3.801
 6775SOL    HW121224   1.164   1.922   3.754
 6775SOL    HW221225   1.061   1.797   3.741
 6776SOL     OW21226   3.743   3.338   1.872
 6776SOL    HW121227   3.757   3.436   1.877
 6776SOL    HW221228   3.829   3.290   1.890
 6777SOL     OW21229   4.059   5.239   1.469
 6777SOL    HW121230   4.140   5.180   1.476
 6777SOL    HW221231   4.073   5.321   1.525
 6778SOL     OW21232   5.683   3.328   2.540
 6778SOL    HW121233   5.602   3.354   2.487
 6778SOL    HW221234   5.698   3.230   2.532
 6779SOL     OW21235   6.141   4.023   5.792
 6779SOL    HW121236   6.088   3.947   5.755
 6779SOL    HW221237   6.197   4.063   5.720
 6780SOL     OW21238   2.205   2.950   3.143
 6780SOL    HW121239   2.190   2.856   3.171
 6780SOL    HW221240   2.213   2.954   3.044
 6781SOL     OW21241   6.542   0.744   4.124
 6781SOL    HW121242   6.502   0.830   4.093
 6781SOL    HW221243   6.641   0.753   4.129
 6782SOL     OW21244   0.597   1.402   3.760
 6782SOL    HW121245   0.549   1.488   3.739
 6782SOL    HW221246   0.644   1.370   3.678
 6783SOL     OW21247   1.282   4.268   5.014
 6783SOL    HW121248   1.237   4.199   4.958
 6783SOL    HW221249   1.381   4.252   5.014
 6784SOL     OW21250   2.314   3.181   1.757
 6784SOL    HW121251   2.268   3.199   1.670
 6784SOL    HW221252   2.312   3.262   1.814
 6785SOL     OW21253   5.732   4.777   5.340
 6785SOL    HW121254   5.680   4.842   5.395
 6785SOL    HW221255   5.738   4.690   5.388
 6786SOL     OW21256   6.152   3.054   0.701
 6786SOL    HW121257   6.167   2.961   0.668
 6786SOL    HW221258   6.139   3.116   0.623
 6787SOL     OW21259   3.574   2.424   0.717
 6787SOL    HW121260   3.507   2.461   0.652
 6787SOL    HW221261   3.531   2.352   0.772
 6788SOL     OW21262   0.676   3.857   2.299
 6788SOL    HW121263   0.623   3.902   2.228
 6788SOL    HW221264   0.757   3.815   2.259
 6789SOL     OW21265   6.438   4.340   4.240
 6789SOL    HW121266   6.444   4.251   4.194
 6789SOL    HW221267   6.485   4.409   4.185
 6790SOL     OW21268   0.484   4.948   5.790
 6790SOL    HW121269   0.519   4.933   5.882
 6790SOL    HW221270   0.522   4.880   5.727
 6791SOL     OW21271   4.718   1.701   3.096
 6791SOL    HW121272   4.816   1.685   3.085
 6791SOL    HW221273   4.669   1.662   3.018
 6792SOL     OW21274   4.162   6.925   5.457
 6792SOL    HW121275   4.236   6.957   5.398
 6792SOL    HW221276   4.201   6.878   5.536
 6793SOL     OW21277   3.026   2.023   6.822
 6793SOL    HW121278   3.109   1.982   6.784
 6793SOL    HW221279   2.964   2.047   6.747
 6794SOL     OW21280   4.566   1.307   5.927
 6794SOL    HW121281   4.641   1.301   5.861
 6794SOL    HW221282   4.535   1.215   5.951
 6795SOL     OW21283   1.133   1.199   1.442
 6795SOL    HW121284   1.168   1.240   1.527
 6795SOL    HW221285   1.090   1.111   1.463
 6796SOL     OW21286   6.287   0.958   1.788
 6796SOL    HW121287   6.212   0.913   1.838
 6796SOL    HW221288   6.366   0.969   1.849
 6797SOL     OW21289   6.572   2.836   1.760
 6797SOL    HW121290   6.631   2.806   1.685
 6797SOL    HW221291   6.476   2.825   1.733
 6798SOL     OW21292   5.459   0.617   1.414
 6798SOL    HW121293   5.397   0.629   1.337
 6798SOL    HW221294   5.431   0.538   1.468
 6799SOL     OW21295   5.543   6.908   3.211
 6799SOL    HW121296   5.550   6.813   3.183
 6799SOL    HW221297   5.535   6.966   3.130
 6800SOL     OW21298   1.377   1.491   1.038
 6800SOL    HW121299   1.425   1.524   1.119
 6800SOL    HW221300   1.303   1.429   1.066
 6801SOL     OW21301   1.440   6.324   4.781
 6801SOL    HW121302   1.400   6.385   4.849
 6801SOL    HW221303   1.458   6.375   4.697
 6802SOL     OW21304   2.892   6.380   0.733
 6802SOL    HW121305   2.850   6.453   0.788
 6802SOL    HW221306   2.950   6.323   0.792
 6803SOL     OW21307   5.209   4.554   0.037
 6803SOL    HW121308   5.245   4.590   0.123
 6803SOL    HW221309   5.138   4.616   0.002
 6804SOL     OW21310   2.931   5.017   2.637
 6804SOL    HW121311   2.833   5.029   2.628
 6804SOL    HW221312   2.974   5.105   2.658
 6805SOL     OW21313   0.129   4.753   5.377
 6805SOL    HW121314   0.193   4.768   5.453
 6805SOL    HW221315   0.134   4.829   5.313
 6806SOL     OW21316   6.854   0.790   4.079
 6806SOL    HW121317   6.880   0.871   4.025
 6806SOL    HW221318   6.880   0.804   4.174
 6807SOL     OW21319   3.567   3.267   3.505
 6807SOL    HW121320   3.628   3.217   3.566
 6807SOL    HW221321   3.612   3.350   3.473
 6808SOL     OW21322   4.997   1.179   5.148
 6808SOL    HW121323   5.067   1.108   5.156
 6808SOL    HW221324   5.012   1.250   5.217
 6809SOL     OW21325   6.073   4.759   1.650
 6809SOL    HW121326   6.000   4.748   1.717
 6809SOL    HW221327   6.161   4.766   1.697
 6810SOL     OW21328   3.517   0.886   3.130
 6810SOL    HW121329   3.485   0.970   3.173
 6810SOL    HW221330   3.519   0.813   3.198
 6811SOL     OW21331   6.977   1.927   2.634
 6811SOL    HW121332   6.949   2.009   2.683
 6811SOL    HW221333   6.910   1.907   2.562
 6812SOL     OW21334   3.385   3.551   4.687
 6812SOL    HW121335   3.349   3.465   4.723
 6812SOL    HW221336   3.316   3.597   4.633
 6813SOL     OW21337   4.955   3.557   1.618
 6813SOL    HW121338   4.996   3.473   1.652
 6813SOL    HW221339   4.882   3.586   1.681
 6814SOL     OW21340   4.271   1.711   5.965
 6814SOL    HW121341   4.301   1.742   6.056
 6814SOL    HW221342   4.292   1.614   5.954
 6815SOL     OW21343   1.853   4.820   6.895
 6815SOL    HW121344   1.932   4.869   6.858
 6815SOL    HW221345   1.843   4.733   6.847
 6816SOL     OW21346   6.294   1.728   4.843
 6816SOL    HW121347   6.197   1.704   4.850
 6816SOL    HW221348   6.327   1.758   4.932
 6817SOL     OW21349   2.878   2.291   3.210
 6817SOL    HW121350   2.820   2.372   3.210
 6817SOL    HW221351   2.832   2.217   3.258
 6818SOL     OW21352   2.019   6.451   6.083
 6818SOL    HW121353   1.995   6.367   6.131
 6818SOL    HW221354   2.103   6.489   6.124
 6819SOL     OW21355   4.589   5.659   3.142
 6819SOL    HW121356   4.606   5.661   3.043
 6819SOL    HW221357   4.580   5.753   3.176
 6820SOL     OW21358   1.280   6.554   1.414
 6820SOL    HW121359   1.247   6.643   1.445
 6820SOL    HW221360   1.353   6.567   1.346
 6821SOL     OW21361   4.053   2.292   5.378
 6821SOL    HW121362   4.073   2.230   5.454
 6821SOL    HW221363   3.954   2.299   5.365
 6822SOL     OW21364   6.816   2.956   6.350
 6822SOL    HW121365   6.758   2.916   6.421
 6822SOL    HW221366   6.854   2.884   6.293
 6823SOL     OW21367   4.936   3.778   6.950
 6823SOL    HW121368   4.897   3.826   0.009
 6823SOL    HW221369   4.916   3.681   6.957
 6824SOL     OW21370   1.556   1.726   6.802
 6824SOL    HW121371   1.497   1.749   6.879
 6824SOL    HW221372   1.508   1.664   6.740
 6825SOL     OW21373   6.573   6.061   1.194
 6825SOL    HW121374   6.661   6.101   1.217
 6825SOL    HW221375   6.583   5.962   1.181
 6826SOL     OW21376   0.438   3.718   3.007
 6826SOL    HW121377   0.527   3.750   2.975
 6826SOL    HW221378   0.432   3.619   2.996
 6827SOL     OW21379   4.873   5.122   5.565
 6827SOL    HW121380   4.937   5.153   5.635
 6827SOL    HW221381   4.924   5.094   5.483
 6828SOL     OW21382   3.718   1.502   2.961
 6828SOL    HW121383   3.706   1.431   2.891
 6828SOL    HW221384   3.792   1.563   2.933
 6829SOL     OW21385   5.731   0.148   5.271
 6829SOL    HW121386   5.639   0.185   5.254
 6829SOL    HW221387   5.798   0.222   5.264
 6830SOL     OW21388   6.340   0.990   3.427
 6830SOL    HW121389   6.291   1.025   3.347
 6830SOL    HW221390   6.278   0.989   3.506
 6831SOL     OW21391   1.132   1.460   5.563
 6831SOL    HW121392   1.170   1.374   5.599
 6831SOL    HW221393   1.038   1.445   5.534
 6832SOL     OW21394   2.792   2.267   0.173
 6832SOL    HW121395   2.809   2.318   0.257
 6832SOL    HW221396   2.809   2.325   0.093
 6833SOL     OW21397   3.116   5.548   6.295
 6833SOL    HW121398   3.048   5.544   6.222
 6833SOL    HW221399   3.144   5.643   6.310
 6834SOL     OW21400   5.134   0.034   0.537
 6834SOL    HW121401   5.050   0.089   0.537
 6834SOL    HW221402   5.199   0.074   0.602
 6835SOL     OW21403   3.678   1.691   3.867
 6835SOL    HW121404   3.736   1.729   3.794
 6835SOL    HW221405   3.686   1.748   3.948
 6836SOL     OW21406   2.005   4.466   6.457
 6836SOL    HW121407   1.947   4.426   6.528
 6836SOL    HW221408   2.086   4.408   6.444
 6837SOL     OW21409   1.038   0.831   2.480
 6837SOL    HW121410   1.069   0.782   2.561
 6837SOL    HW221411   1.060   0.928   2.489
 6838SOL     OW21412   2.761   4.247   5.378
 6838SOL    HW121413   2.857   4.268   5.398
 6838SOL    HW221414   2.714   4.331   5.349
 6839SOL     OW21415   5.013   1.733   3.927
 6839SOL    HW121416   5.090   1.712   3.988
 6839SOL    HW221417   4.936   1.673   3.949
 6840SOL     OW21418   2.818   6.780   4.704
 6840SOL    HW121419   2.831   6.862   4.649
 6840SOL    HW221420   2.847   6.700   4.652
 6841SOL     OW21421   4.017   4.958   1.692
 6841SOL    HW121422   3.955   4.931   1.618
 6841SOL    HW221423   4.094   5.010   1.654
 6842SOL     OW21424   1.066   3.172   0.002
 6842SOL    HW121425   1.009   3.241   0.047
 6842SOL    HW221426   1.114   3.118   0.072
 6843SOL     OW21427   4.846   1.580   1.966
 6843SOL    HW121428   4.762   1.634   1.957
 6843SOL    HW221429   4.892   1.604   2.052
 6844SOL     OW21430   4.755   5.459   4.594
 6844SOL    HW121431   4.728   5.436   4.688
 6844SOL    HW221432   4.843   5.417   4.573
 6845SOL     OW21433   4.422   4.528   2.879
 6845SOL    HW121434   4.458   4.480   2.959
 6845SOL    HW221435   4.471   4.498   2.797
 6846SOL     OW21436   4.003   3.198   1.176
 6846SOL    HW121437   3.953   3.285   1.178
 6846SOL    HW221438   3.973   3.141   1.253
 6847SOL     OW21439   4.718   3.677   1.726
 6847SOL    HW121440   4.690   3.583   1.704
 6847SOL    HW221441   4.652   3.741   1.688
 6848SOL     OW21442   1.109   4.839   4.569
 6848SOL    HW121443   1.119   4.765   4.503
 6848SOL    HW221444   1.077   4.921   4.522
 6849SOL     OW21445   4.004   5.662   4.329
 6849SOL    HW121446   3.924   5.609   4.302
 6849SOL    HW221447   4.063   5.607   4.388
 6850SOL     OW21448   6.133   2.204   3.728
 6850SOL    HW121449   6.195   2.282   3.715
 6850SOL    HW221450   6.051   2.235   3.776
 6851SOL     OW21451   0.825   4.766   5.670
 6851SOL    HW121452   0.725   4.771   5.661
 6851SOL    HW221453   0.858   4.851   5.712
 6852SOL     OW21454   0.852   4.155   1.864
 6852SOL    HW121455   0.939   4.204   1.856
 6852SOL    HW221456   0.780   4.208   1.820
 6853SOL     OW21457   6.787   5.103   6.232
 6853SOL    HW121458   6.822   5.035   6.296
 6853SOL    HW221459   6.857   5.124   6.164
 6854SOL     OW21460   6.547   1.248   5.828
 6854SOL    HW121461   6.581   1.296   5.909
 6854SOL    HW221462   6.610   1.263   5.752
 6855SOL     OW21463   3.639   6.831   2.620
 6855SOL    HW121464   3.713   6.804   2.681
 6855SOL    HW221465   3.572   6.886   2.671
 6856SOL     OW21466   5.766   4.043   5.398
 6856SOL    HW121467   5.680   4.021   5.352
 6856SOL    HW221468   5.746   4.100   5.478
 6857SOL     OW21469   3.458   1.316   6.346
 6857SOL    HW121470   3.474   1.221   6.318
 6857SOL    HW221471   3.493   1.378   6.276
 6858SOL     OW21472   3.867   3.063   4.094
 6858SOL    HW121473   3.879   2.990   4.160
 6858SOL    HW221474   3.934   3.135   4.111
 6859SOL     OW21475   1.852   0.025   0.901
 6859SOL    HW121476   1.795   0.106   0.890
 6859SOL    HW221477   1.944   0.044   0.866
 6860SOL     OW21478   5.709   4.900   1.893
 6860SOL    HW121479   5.774   4.824   1.896
 6860SOL    HW221480   5.749   4.977   1.843
 6861SOL     OW21481   5.592   4.757   0.915
 6861SOL    HW121482   5.690   4.742   0.900
 6861SOL    HW221483   5.551   4.673   0.951
 6862SOL     OW21484   2.598   4.885   4.903
 6862SOL    HW121485   2.683   4.885   4.955
 6862SOL    HW221486   2.592   4.802   4.847
 6863SOL     OW21487   5.893   1.305   4.964
 6863SOL    HW121488   5.908   1.213   4.929
 6863SOL    HW221489   5.979   1.357   4.961
 6864SOL     OW21490   3.620   5.830   4.103
 6864SOL    HW121491   3.641   5.928   4.096
 6864SOL    HW221492   3.683   5.778   4.045
 6865SOL     OW21493   6.335   4.558   3.804
 6865SOL    HW121494   6.337   4.515   3.713
 6865SOL    HW221495   6.428   4.573   3.836
 6866SOL     OW21496   6.408   4.157   2.225
 6866SOL    HW121497   6.341   4.219   2.185
 6866SOL    HW221498   6.385   4.140   2.321
 6867SOL     OW21499   1.232   3.897   1.262
 6867SOL    HW121500   1.307   3.901   1.196
 6867SOL    HW221501   1.242   3.970   1.330
 6868SOL     OW21502   1.785   6.126   4.892
 6868SOL    HW121503   1.691   6.144   4.922
 6868SOL    HW221504   1.829   6.212   4.867
 6869SOL     OW21505   5.464   3.080   4.666
 6869SOL    HW121506   5.545   3.133   4.692
 6869SOL    HW221507   5.396   3.086   4.739
 6870SOL     OW21508   6.139   3.458   3.171
 6870SOL    HW121509   6.097   3.420   3.089
 6870SOL    HW221510   6.069   3.478   3.239
 6871SOL     OW21511   5.950   4.974   2.198
 6871SOL    HW121512   6.000   4.900   2.242
 6871SOL    HW221513   5.853   4.968   2.223
 6872SOL     OW21514   1.635   3.524   0.891
 6872SOL    HW121515   1.565   3.558   0.954
 6872SOL    HW221516   1.648   3.426   0.906
 6873SOL     OW21517   6.074   3.516   5.635
 6873SOL    HW121518   6.095   3.431   5.683
 6873SOL    HW221519   5.978   3.515   5.606
 6874SOL     OW21520   0.487   4.041   3.117
 6874SOL    HW121521   0.542   3.973   3.070
 6874SOL    HW221522   0.436   3.997   3.191
 6875SOL     OW21523   1.231   1.999   3.599
 6875SOL    HW121524   1.330   2.014   3.596
 6875SOL    HW221525   1.207   1.923   3.539
 6876SOL     OW21526   3.380   5.353   6.528
 6876SOL    HW121527   3.369   5.453   6.530
 6876SOL    HW221528   3.386   5.319   6.622
 6877SOL     OW21529   2.872   4.097   6.897
 6877SOL    HW121530   2.880   4.084   6.996
 6877SOL    HW221531   2.961   4.079   6.854
 6878SOL     OW21532   1.851   1.830   5.881
 6878SOL    HW121533   1.942   1.810   5.844
 6878SOL    HW221534   1.803   1.743   5.899
 6879SOL     OW21535   0.399   2.083   0.504
 6879SOL    HW121536   0.336   2.083   0.582
 6879SOL    HW221537   0.466   2.009   0.515
 6880SOL     OW21538   2.124   3.516   4.916
 6880SOL    HW121539   2.159   3.422   4.911
 6880SOL    HW221540   2.024   3.514   4.914
 6881SOL     OW21541   6.936   4.692   2.067
 6881SOL    HW121542   0.014   4.687   2.088
 6881SOL    HW221543   6.909   4.612   2.013
 6882SOL     OW21544   2.361   0.756   5.845
 6882SOL    HW121545   2.302   0.802   5.779
 6882SOL    HW221546   2.445   0.725   5.799
 6883SOL     OW21547   3.569   0.578   1.166
 6883SOL    HW121548   3.491   0.527   1.201
 6883SOL    HW221549   3.645   0.516   1.147
 6884SOL     OW21550   2.393   4.558   4.049
 6884SOL    HW121551   2.357   4.651   4.041
 6884SOL    HW221552   2.409   4.521   3.957
 6885SOL     OW21553   2.631   5.536   3.961
 6885SOL    HW121554   2.668   5.450   3.927
 6885SOL    HW221555   2.697   5.609   3.947
 6886SOL     OW21556   5.884   0.928   2.276
 6886SOL    HW121557   5.900   1.012   2.328
 6886SOL    HW221558   5.870   0.951   2.179
 6887SOL     OW21559   5.444   1.050   5.418
 6887SOL    HW121560   5.373   1.101   5.369
 6887SOL    HW221561   5.405   0.967   5.456
 6888SOL     OW21562   5.763   6.948   6.118
 6888SOL    HW121563   5.715   6.861   6.104
 6888SOL    HW221564   5.854   6.930   6.154
 6889SOL     OW21565   1.137   2.848   5.885
 6889SOL    HW121566   1.128   2.927   5.825
 6889SOL    HW221567   1.227   2.806   5.871
 6890SOL     OW21568   1.698   0.294   0.616
 6890SOL    HW121569   1.789   0.329   0.595
 6890SOL    HW221570   1.705   0.218   0.680
 6891SOL     OW21571   1.945   4.008   4.927
 6891SOL    HW121572   1.999   3.924   4.919
 6891SOL    HW221573   1.850   3.989   4.903
 6892SOL     OW21574   4.355   0.187   4.303
 6892SOL    HW121575   4.362   0.091   4.275
 6892SOL    HW221576   4.384   0.246   4.228
 6893SOL     OW21577   5.312   6.234   2.375
 6893SOL    HW121578   5.301   6.189   2.464
 6893SOL    HW221579   5.305   6.333   2.387
 6894SOL     OW21580   6.096   5.707   1.004
 6894SOL    HW121581   6.043   5.655   0.936
 6894SOL    HW221582   6.123   5.645   1.078
 6895SOL     OW21583   3.068   4.749   6.980
 6895SOL    HW121584   3.026   4.681   6.920
 6895SOL    HW221585   3.138   4.800   6.929
 6896SOL     OW21586   4.223   6.887   3.691
 6896SOL    HW121587   4.222   6.823   3.614
 6896SOL    HW221588   4.136   6.882   3.740
 6897SOL     OW21589   2.903   3.564   0.435
 6897SOL    HW121590   2.897   3.663   0.426
 6897SOL    HW221591   2.905   3.522   0.344
 6898SOL     OW21592   4.441   1.639   2.183
 6898SOL    HW121593   4.432   1.543   2.157
 6898SOL    HW221594   4.433   1.696   2.102
 6899SOL     OW21595   4.834   6.994   6.431
 6899SOL    HW121596   4.857   6.982   6.527
 6899SOL    HW221597   4.907   0.026   6.385
 6900SOL     OW21598   6.277   0.554   6.425
 6900SOL    HW121599   6.267   0.520   6.332
 6900SOL    HW221600   6.290   0.654   6.423
 6901SOL     OW21601   0.160   0.013   6.277
 6901SOL    HW121602   0.061   7.018   6.283
 6901SOL    HW221603   0.180   0.079   6.205
 6902SOL     OW21604   0.037   6.587   0.525
 6902SOL    HW121605   0.005   6.541   0.608
 6902SOL    HW221606   0.117   6.540   0.489
 6903SOL     OW21607   3.597   3.681   6.966
 6903SOL    HW121608   3.608   3.601   0.006
 6903SOL    HW221609   3.687   3.714   6.938
 6904SOL     OW21610   6.645   1.068   3.441
 6904SOL    HW121611   6.659   1.118   3.355
 6904SOL    HW221612   6.617   0.974   3.420
 6905SOL     OW21613   5.917   6.214   0.184
 6905SOL    HW121614   5.983   6.159   0.133
 6905SOL    HW221615   5.960   6.251   0.266
 6906SOL     OW21616   3.993   1.060   4.398
 6906SOL    HW121617   3.949   1.028   4.481
 6906SOL    HW221618   4.048   1.141   4.419
 6907SOL     OW21619   3.852   2.153   0.757
 6907SOL    HW121620   3.941   2.197   0.770
 6907SOL    HW221621   3.805   2.195   0.679
 6908SOL     OW21622   1.571   0.326   4.927
 6908SOL    HW121623   1.482   0.281   4.934
 6908SOL    HW221624   1.613   0.330   5.017
 6909SOL     OW21625   4.576   4.510   1.161
 6909SOL    HW121626   4.600   4.600   1.196
 6909SOL    HW221627   4.484   4.485   1.192
 6910SOL     OW21628   6.610   1.784   2.960
 6910SOL    HW121629   6.526   1.829   2.928
 6910SOL    HW221630   6.683   1.851   2.965
 6911SOL     OW21631   4.524   0.349   3.245
 6911SOL    HW121632   4.473   0.389   3.321
 6911SOL    HW221633   4.464   0.288   3.194
 6912SOL     OW21634   4.978   4.405   1.880
 6912SOL    HW121635   5.033   4.470   1.827
 6912SOL    HW221636   4.905   4.369   1.823
 6913SOL     OW21637   5.355   4.080   5.664
 6913SOL    HW121638   5.352   4.167   5.614
 6913SOL    HW221639   5.264   4.038   5.663
 6914SOL     OW21640   5.810   5.429   0.033
 6914SOL    HW121641   5.864   5.397   6.974
 6914SOL    HW221642   5.760   5.512   0.007
 6915SOL     OW21643   0.323   4.660   1.728
 6915SOL    HW121644   0.265   4.736   1.759
 6915SOL    HW221645   0.419   4.691   1.725
 6916SOL     OW21646   6.195   4.241   6.982
 6916SOL    HW121647   6.100   4.232   6.950
 6916SOL    HW221648   6.248   4.163   6.950
 6917SOL     OW21649   4.460   5.117   6.853
 6917SOL    HW121650   4.482   5.029   6.893
 6917SOL    HW221651   4.363   5.119   6.828
 6918SOL     OW21652   0.340   4.276   4.132
 6918SOL    HW121653   0.310   4.371   4.142
 6918SOL    HW221654   0.412   4.271   4.063
 6919SOL     OW21655   1.607   5.440   2.397
 6919SOL    HW121656   1.550   5.388   2.460
 6919SOL    HW221657   1.664   5.504   2.449
 6920SOL     OW21658   5.028   5.054   5.879
 6920SOL    HW121659   5.076   5.117   5.817
 6920SOL    HW221660   5.046   4.960   5.851
 6921SOL     OW21661   5.723   5.756   3.230
 6921SOL    HW121662   5.700   5.746   3.327
 6921SOL    HW221663   5.762   5.847   3.214
 6922SOL     OW21664   1.888   5.822   0.002
 6922SOL    HW121665   1.805   5.870   0.032
 6922SOL    HW221666   1.899   5.739   0.056
 6923SOL     OW21667   5.153   6.496   3.898
 6923SOL    HW121668   5.213   6.564   3.857
 6923SOL    HW221669   5.105   6.536   3.976
 6924SOL     OW21670   0.797   4.073   6.747
 6924SOL    HW121671   0.804   3.995   6.809
 6924SOL    HW221672   0.706   4.114   6.755
 6925SOL     OW21673   3.954   6.316   4.150
 6925SOL    HW121674   3.974   6.325   4.053
 6925SOL    HW221675   3.862   6.279   4.162
 6926SOL     OW21676   3.537   3.624   3.040
 6926SOL    HW121677   3.548   3.599   2.944
 6926SOL    HW221678   3.482   3.555   3.087
 6927SOL     OW21679   5.559   3.088   5.897
 6927SOL    HW121680   5.552   3.032   5.979
 6927SOL    HW221681   5.471   3.092   5.851
 6928SOL     OW21682   5.318   7.019   6.961
 6928SOL    HW121683   5.358   6.935   6.923
 6928SOL    HW221684   5.264   0.045   6.891
 6929SOL     OW21685   4.609   6.000   0.083
 6929SOL    HW121686   4.670   5.988   0.162
 6929SOL    HW221687   4.549   6.078   0.099
 6930SOL     OW21688   0.100   6.830   1.462
 6930SOL    HW121689   0.026   6.786   1.412
 6930SOL    HW221690   0.075   6.838   1.558
 6931SOL     OW21691   0.904   0.602   1.598
 6931SOL    HW121692   0.820   0.548   1.608
 6931SOL    HW221693   0.881   0.699   1.597
 6932SOL     OW21694   3.160   1.075   0.348
 6932SOL    HW121695   3.260   1.072   0.344
 6932SOL    HW221696   3.129   1.037   0.435
 6933SOL     OW21697   3.854   5.979   4.729
 6933SOL    HW121698   3.934   5.947   4.678
 6933SOL    HW221699   3.859   5.946   4.823
 6934SOL     OW21700   5.273   3.686   6.436
 6934SOL    HW121701   5.286   3.777   6.396
 6934SOL    HW221702   5.360   3.637   6.437
 6935SOL     OW21703   4.038   6.531   2.848
 6935SOL    HW121704   4.107   6.522   2.776
 6935SOL    HW221705   4.061   6.608   2.907
 6936SOL     OW21706   6.708   1.914   2.560
 6936SOL    HW121707   6.640   1.942   2.627
 6936SOL    HW221708   6.663   1.901   2.471
 6937SOL     OW21709   5.491   6.805   6.895
 6937SOL    HW121710   5.563   6.871   6.873
 6937SOL    HW221711   5.519   6.714   6.867
 6938SOL     OW21712   4.968   3.730   5.471
 6938SOL    HW121713   5.020   3.646   5.486
 6938SOL    HW221714   4.944   3.771   5.559
 6939SOL     OW21715   6.793   5.227   3.084
 6939SOL    HW121716   6.778   5.136   3.123
 6939SOL    HW221717   6.809   5.292   3.159
 6940SOL     OW21718   4.461   1.546   0.905
 6940SOL    HW121719   4.397   1.535   0.981
 6940SOL    HW221720   4.545   1.588   0.939
 6941SOL     OW21721   3.853   3.117   2.529
 6941SOL    HW121722   3.874   3.204   2.572
 6941SOL    HW221723   3.829   3.050   2.600
 6942SOL     OW21724   0.566   2.842   1.293
 6942SOL    HW121725   0.540   2.772   1.227
 6942SOL    HW221726   0.606   2.920   1.246
 6943SOL     OW21727   5.014   6.562   6.692
 6943SOL    HW121728   4.931   6.507   6.689
 6943SOL    HW221729   5.016   6.616   6.776
 6944SOL     OW21730   1.138   4.649   5.394
 6944SOL    HW121731   1.135   4.633   5.295
 6944SOL    HW221732   1.218   4.605   5.433
 6945SOL     OW21733   6.122   2.940   0.092
 6945SOL    HW121734   6.056   3.007   0.058
 6945SOL    HW221735   6.215   2.978   0.086
 6946SOL     OW21736   6.159   5.265   2.503
 6946SOL    HW121737   6.071   5.311   2.503
 6946SOL    HW221738   6.215   5.301   2.428
 6947SOL     OW21739   4.336   7.000   5.047
 6947SOL    HW121740   4.416   6.962   5.002
 6947SOL    HW221741   4.352   7.006   5.145
 6948SOL     OW21742   5.503   0.672   0.515
 6948SOL    HW121743   5.432   0.618   0.471
 6948SOL    HW221744   5.592   0.628   0.500
 6949SOL     OW21745   5.130   6.547   3.578
 6949SOL    HW121746   5.068   6.541   3.499
 6949SOL    HW221747   5.091   6.497   3.655
 6950SOL     OW21748   2.507   0.217   3.317
 6950SOL    HW121749   2.526   0.130   3.362
 6950SOL    HW221750   2.592   0.266   3.301
 6951SOL     OW21751   6.373   6.225   6.073
 6951SOL    HW121752   6.399   6.314   6.036
 6951SOL    HW221753   6.454   6.167   6.081
 6952SOL     OW21754   0.132   5.230   3.523
 6952SOL    HW121755   0.155   5.134   3.504
 6952SOL    HW221756   0.037   5.236   3.554
 6953SOL     OW21757   5.317   0.433   5.834
 6953SOL    HW121758   5.234   0.380   5.817
 6953SOL    HW221759   5.370   0.390   5.908
 6954SOL     OW21760   1.016   4.161   3.747
 6954SOL    HW121761   0.925   4.180   3.711
 6954SOL    HW221762   1.044   4.235   3.808
 6955SOL     OW21763   0.249   0.335   1.550
 6955SOL    HW121764   0.174   0.271   1.535
 6955SOL    HW221765   0.212   0.425   1.571
 6956SOL     OW21766   4.355   6.193   2.628
 6956SOL    HW121767   4.275   6.141   2.598
 6956SOL    HW221768   4.360   6.192   2.728
 6957SOL     OW21769   6.930   4.424   1.083
 6957SOL    HW121770   0.006   4.414   1.057
 6957SOL    HW221771   6.897   4.515   1.057
 6958SOL     OW21772   2.774   3.692   5.777
 6958SOL    HW121773   2.837   3.615   5.782
 6958SOL    HW221774   2.814   3.771   5.824
 6959SOL     OW21775   1.774   1.225   5.002
 6959SOL    HW121776   1.856   1.215   5.059
 6959SOL    HW221777   1.786   1.302   4.940
 6960SOL     OW21778   0.835   4.979   0.125
 6960SOL    HW121779   0.928   5.008   0.101
 6960SOL    HW221780   0.769   5.031   0.070
 6961SOL     OW21781   0.436   2.792   4.430
 6961SOL    HW121782   0.517   2.770   4.485
 6961SOL    HW221783   0.381   2.709   4.418
 6962SOL     OW21784   5.414   5.305   2.814
 6962SOL    HW121785   5.361   5.223   2.838
 6962SOL    HW221786   5.491   5.279   2.755
 6963SOL     OW21787   0.440   5.652   0.870
 6963SOL    HW121788   0.524   5.689   0.908
 6963SOL    HW221789   0.391   5.600   0.940
 6964SOL     OW21790   4.971   4.829   5.050
 6964SOL    HW121791   4.978   4.823   5.150
 6964SOL    HW221792   4.999   4.920   5.020
 6965SOL     OW21793   0.509   3.673   6.102
 6965SOL    HW121794   0.541   3.710   6.190
 6965SOL    HW221795   0.444   3.599   6.119
 6966SOL     OW21796   5.624   2.610   2.826
 6966SOL    HW121797   5.660   2.572   2.912
 6966SOL    HW221798   5.674   2.571   2.749
 6967SOL     OW21799   1.451   1.719   5.053
 6967SOL    HW121800   1.482   1.786   4.985
 6967SOL    HW221801   1.476   1.627   5.022
 6968SOL     OW21802   3.476   6.252   2.276
 6968SOL    HW121803   3.569   6.242   2.314
 6968SOL    HW221804   3.454   6.349   2.266
 6969SOL     OW21805   4.034   1.847   2.044
 6969SOL    HW121806   4.069   1.872   2.134
 6969SOL    HW221807   3.949   1.896   2.026
 6970SOL     OW21808   4.140   4.212   0.409
 6970SOL    HW121809   4.087   4.141   0.456
 6970SOL    HW221810   4.104   4.302   0.434
 6971SOL     OW21811   6.294   3.867   2.513
 6971SOL    HW121812   6.310   3.851   2.416
 6971SOL    HW221813   6.212   3.923   2.524
 6972SOL     OW21814   6.081   4.489   4.469
 6972SOL    HW121815   6.093   4.580   4.509
 6972SOL    HW221816   6.168   4.440   4.471
 6973SOL     OW21817   1.187   4.060   4.826
 6973SOL    HW121818   1.223   4.033   4.736
 6973SOL    HW221819   1.097   4.019   4.839
 6974SOL     OW21820   3.477   2.953   3.377
 6974SOL    HW121821   3.528   2.950   3.463
 6974SOL    HW221822   3.440   3.045   3.363
 6975SOL     OW21823   3.093   6.518   5.925
 6975SOL    HW121824   3.028   6.521   5.849
 6975SOL    HW221825   3.178   6.475   5.895
 6976SOL     OW21826   4.155   3.721   5.653
 6976SOL    HW121827   4.099   3.794   5.615
 6976SOL    HW221828   4.150   3.641   5.592
 6977SOL     OW21829   5.473   2.255   1.289
 6977SOL    HW121830   5.513   2.305   1.366
 6977SOL    HW221831   5.475   2.157   1.309
 6978SOL     OW21832   6.306   1.789   1.389
 6978SOL    HW121833   6.263   1.731   1.319
 6978SOL    HW221834   6.271   1.763   1.479
 6979SOL     OW21835   1.672   4.682   1.544
 6979SOL    HW121836   1.720   4.693   1.457
 6979SOL    HW221837   1.587   4.633   1.529
 6980SOL     OW21838   1.638   0.831   3.920
 6980SOL    HW121839   1.634   0.930   3.918
 6980SOL    HW221840   1.659   0.799   4.012
 6981SOL     OW21841   2.659   3.315   6.815
 6981SOL    HW121842   2.708   3.240   6.771
 6981SOL    HW221843   2.694   3.402   6.780
 6982SOL     OW21844   1.401   1.680   3.737
 6982SOL    HW121845   1.447   1.759   3.695
 6982SOL    HW221846   1.357   1.709   3.822
 6983SOL     OW21847   6.369   2.285   3.103
 6983SOL    HW121848   6.420   2.313   3.185
 6983SOL    HW221849   6.383   2.187   3.087
 6984SOL     OW21850   2.810   1.706   4.911
 6984SOL    HW121851   2.824   1.680   4.815
 6984SOL    HW221852   2.711   1.708   4.930
 6985SOL     OW21853   3.584   5.248   2.614
 6985SOL    HW121854   3.655   5.244   2.543
 6985SOL    HW221855   3.544   5.157   2.627
 6986SOL     OW21856   1.734   6.284   6.127
 6986SOL    HW121857   1.810   6.227   6.094
 6986SOL    HW221858   1.654   6.227   6.145
 6987SOL     OW21859   1.065   2.072   6.594
 6987SOL    HW121860   1.003   2.148   6.572
 6987SOL    HW221861   1.063   2.006   6.519
 6988SOL     OW21862   6.082   0.975   5.113
 6988SOL    HW121863   6.085   1.061   5.163
 6988SOL    HW221864   6.123   0.903   5.169
 6989SOL     OW21865   0.768   2.467   3.279
 6989SOL    HW121866   0.721   2.513   3.355
 6989SOL    HW221867   0.826   2.533   3.231
 6990SOL     OW21868   5.315   1.856   0.087
 6990SOL    HW121869   5.284   1.870   0.181
 6990SOL    HW221870   5.399   1.801   0.088
 6991SOL     OW21871   2.569   4.610   4.863
 6991SOL    HW121872   2.495   4.577   4.920
 6991SOL    HW221873   2.656   4.603   4.913
 6992SOL     OW21874   5.950   5.881   5.231
 6992SOL    HW121875   5.985   5.962   5.184
 6992SOL    HW221876   5.894   5.909   5.308
 6993SOL     OW21877   6.045   6.737   3.054
 6993SOL    HW121878   6.020   6.819   3.105
 6993SOL    HW221879   6.116   6.760   2.987
 6994SOL     OW21880   0.618   3.291   4.999
 6994SOL    HW121881   0.585   3.342   5.079
 6994SOL    HW221882   0.561   3.313   4.920
 6995SOL     OW21883   6.486   4.991   4.826
 6995SOL    HW121884   6.408   5.013   4.767
 6995SOL    HW221885   6.461   5.009   4.922
 6996SOL     OW21886   2.347   1.349   5.043
 6996SOL    HW121887   2.442   1.367   5.072
 6996SOL    HW221888   2.346   1.324   4.946
 6997SOL     OW21889   5.147   6.178   5.607
 6997SOL    HW121890   5.173   6.274   5.598
 6997SOL    HW221891   5.230   6.122   5.618
 6998SOL     OW21892   2.006   2.764   1.619
 6998SOL    HW121893   2.098   2.750   1.656
 6998SOL    HW221894   2.012   2.784   1.521
 6999SOL     OW21895   2.302   2.063   6.822
 6999SOL    HW121896   2.276   2.149   6.865
 6999SOL    HW221897   2.258   1.987   6.870
 7000SOL     OW21898   6.942   6.287   2.777
 7000SOL    HW121899   6.888   6.205   2.761
 7000SOL    HW221900   0.012   6.278   2.733
 7001SOL     OW21901   2.494   2.969   5.502
 7001SOL    HW121902   2.415   2.908   5.512
 7001SOL    HW221903   2.493   3.010   5.411
 7002SOL     OW21904   2.434   4.878   2.992
 7002SOL    HW121905   2.419   4.844   3.085
 7002SOL    HW221906   2.515   4.833   2.953
 7003SOL     OW21907   3.762   6.819   0.042
 7003SOL    HW121908   3.834   6.784   0.102
 7003SOL    HW221909   3.756   6.918   0.053
 7004SOL     OW21910   1.949   5.018   1.793
 7004SOL    HW121911   1.905   4.929   1.798
 7004SOL    HW221912   1.880   5.090   1.785
 7005SOL     OW21913   0.809   6.447   5.484
 7005SOL    HW121914   0.784   6.543   5.472
 7005SOL    HW221915   0.741   6.389   5.439
 7006SOL     OW21916   5.500   4.771   4.649
 7006SOL    HW121917   5.560   4.692   4.636
 7006SOL    HW221918   5.549   4.841   4.701
 7007SOL     OW21919   5.263   6.518   2.878
 7007SOL    HW121920   5.337   6.585   2.875
 7007SOL    HW221921   5.230   6.509   2.972
 7008SOL     OW21922   2.240   5.301   4.262
 7008SOL    HW121923   2.279   5.237   4.327
 7008SOL    HW221924   2.299   5.382   4.255
 7009SOL     OW21925   5.704   5.290   2.379
 7009SOL    HW121926   5.721   5.339   2.294
 7009SOL    HW221927   5.611   5.253   2.378
 7010SOL     OW21928   4.624   4.113   6.092
 7010SOL    HW121929   4.627   4.023   6.136
 7010SOL    HW221930   4.566   4.108   6.010
 7011SOL     OW21931   1.766   0.734   5.968
 7011SOL    HW121932   1.680   0.739   5.916
 7011SOL    HW221933   1.798   0.826   5.987
 7012SOL     OW21934   2.013   0.834   2.174
 7012SOL    HW121935   2.075   0.825   2.251
 7012SOL    HW221936   2.039   0.914   2.120
 7013SOL     OW21937   0.159   6.685   0.874
 7013SOL    HW121938   0.201   6.764   0.830
 7013SOL    HW221939   0.208   6.602   0.848
 7014SOL     OW21940   4.386   3.842   1.104
 7014SOL    HW121941   4.409   3.771   1.171
 7014SOL    HW221942   4.311   3.809   1.047
 7015SOL     OW21943   5.414   4.672   1.913
 7015SOL    HW121944   5.335   4.631   1.960
 7015SOL    HW221945   5.411   4.648   1.817
 7016SOL     OW21946   3.434   4.893   2.190
 7016SOL    HW121947   3.479   4.858   2.108
 7016SOL    HW221948   3.335   4.898   2.175
 7017SOL     OW21949   2.208   0.273   2.280
 7017SOL    HW121950   2.234   0.367   2.305
 7017SOL    HW221951   2.249   0.209   2.345
 7018SOL     OW21952   6.363   4.448   4.500
 7018SOL    HW121953   6.406   4.525   4.547
 7018SOL    HW221954   6.419   4.422   4.421
 7019SOL     OW21955   3.018   4.534   6.508
 7019SOL    HW121956   3.043   4.538   6.605
 7019SOL    HW221957   2.932   4.485   6.497
 7020SOL     OW21958   6.136   6.622   6.586
 7020SOL    HW121959   6.184   6.637   6.500
 7020SOL    HW221960   6.088   6.534   6.583
 7021SOL     OW21961   2.436   0.822   5.526
 7021SOL    HW121962   2.428   0.801   5.429
 7021SOL    HW221963   2.472   0.742   5.575
 7022SOL     OW21964   4.598   4.419   0.692
 7022SOL    HW121965   4.636   4.467   0.613
 7022SOL    HW221966   4.551   4.336   0.661
 7023SOL     OW21967   0.564   2.474   3.566
 7023SOL    HW121968   0.490   2.541   3.568
 7023SOL    HW221969   0.639   2.506   3.626
 7024SOL     OW21970   1.414   5.458   6.063
 7024SOL    HW121971   1.482   5.397   6.023
 7024SOL    HW221972   1.459   5.539   6.100
 7025SOL     OW21973   3.389   1.868   0.328
 7025SOL    HW121974   3.369   1.816   0.245
 7025SOL    HW221975   3.304   1.879   0.381
 7026SOL     OW21976   2.965   1.358   2.067
 7026SOL    HW121977   2.934   1.348   2.162
 7026SOL    HW221978   3.064   1.370   2.066
 7027SOL     OW21979   2.773   5.520   2.489
 7027SOL    HW121980   2.809   5.559   2.404
 7027SOL    HW221981   2.682   5.557   2.507
 7028SOL     OW21982   5.882   6.229   4.828
 7028SOL    HW121983   5.827   6.151   4.855
 7028SOL    HW221984   5.831   6.313   4.843
 7029SOL     OW21985   3.694   0.093   0.045
 7029SOL    HW121986   3.713   0.118   0.141
 7029SOL    HW221987   3.612   0.141   0.014
 7030SOL     OW21988   6.814   2.657   6.023
 7030SOL    HW121989   6.859   2.720   5.960
 7030SOL    HW221990   6.806   2.699   6.113
 7031SOL     OW21991   2.051   5.907   3.532
 7031SOL    HW121992   2.065   5.807   3.530
 7031SOL    HW221993   2.140   5.952   3.541
 7032SOL     OW21994   3.222   6.576   3.795
 7032SOL    HW121995   3.207   6.503   3.727
 7032SOL    HW221996   3.276   6.649   3.753
 7033SOL     OW21997   6.972   1.527   3.764
 7033SOL    HW121998   6.900   1.481   3.713
 7033SOL    HW221999   0.039   1.517   3.715
 7034SOL     OW22000   6.155   0.673   2.843
 7034SOL    HW122001   6.199   0.671   2.753
 7034SOL    HW222002   6.062   0.710   2.834
 7035SOL     OW22003   1.272   6.771   2.016
 7035SOL    HW122004   1.369   6.769   1.995
 7035SOL    HW222005   1.225   6.699   1.963
 7036SOL     OW22006   6.520   6.780   1.563
 7036SOL    HW122007   6.580   6.818   1.493
 7036SOL    HW222008   6.457   6.715   1.520
 7037SOL     OW22009   0.780   6.701   6.389
 7037SOL    HW122010   0.871   6.664   6.366
 7037SOL    HW222011   0.723   6.705   6.307
 7038SOL     OW22012   1.923   3.868   4.578
 7038SOL    HW122013   1.841   3.827   4.618
 7038SOL    HW222014   1.898   3.924   4.499
 7039SOL     OW22015   2.617   6.342   0.614
 7039SOL    HW122016   2.575   6.275   0.552
 7039SOL    HW222017   2.697   6.382   0.570
 7040SOL     OW22018   4.798   2.495   5.248
 7040SOL    HW122019   4.749   2.443   5.178
 7040SOL    HW222020   4.890   2.458   5.258
 7041SOL     OW22021   0.802   1.881   3.069
 7041SOL    HW122022   0.759   1.805   3.117
 7041SOL    HW222023   0.876   1.847   3.011
 7042SOL     OW22024   5.600   5.248   6.909
 7042SOL    HW122025   5.599   5.175   6.841
 7042SOL    HW222026   5.659   5.322   6.878
 7043SOL     OW22027   2.266   2.464   3.065
 7043SOL    HW122028   2.352   2.486   3.110
 7043SOL    HW222029   2.283   2.406   2.985
 7044SOL     OW22030   4.725   4.742   2.971
 7044SOL    HW122031   4.753   4.770   3.063
 7044SOL    HW222032   4.799   4.691   2.927
 7045SOL     OW22033   4.634   5.986   1.867
 7045SOL    HW122034   4.635   6.053   1.793
 7045SOL    HW222035   4.572   5.911   1.844
 7046SOL     OW22036   3.578   2.066   3.576
 7046SOL    HW122037   3.499   2.033   3.626
 7046SOL    HW222038   3.624   1.990   3.531
 7047SOL     OW22039   1.065   2.510   2.895
 7047SOL    HW122040   1.106   2.481   2.981
 7047SOL    HW222041   1.010   2.435   2.858
 7048SOL     OW22042   0.162   6.049   1.494
 7048SOL    HW122043   0.166   5.952   1.471
 7048SOL    HW222044   0.195   6.103   1.416
 7049SOL     OW22045   2.514   0.907   0.536
 7049SOL    HW122046   2.419   0.931   0.517
 7049SOL    HW222047   2.537   0.936   0.629
 7050SOL     OW22048   3.720   4.067   3.709
 7050SOL    HW122049   3.669   4.088   3.793
 7050SOL    HW222050   3.818   4.064   3.731
 7051SOL     OW22051   0.177   0.801   1.013
 7051SOL    HW122052   0.125   0.717   1.030
 7051SOL    HW222053   0.265   0.777   0.971
 7052SOL     OW22054   6.350   2.838   4.256
 7052SOL    HW122055   6.311   2.920   4.214
 7052SOL    HW222056   6.277   2.787   4.301
 7053SOL     OW22057   0.850   2.954   5.050
 7053SOL    HW122058   0.851   3.024   4.978
 7053SOL    HW222059   0.907   2.877   5.022
 7054SOL     OW22060   1.184   6.387   1.192
 7054SOL    HW122061   1.112   6.344   1.247
 7054SOL    HW222062   1.253   6.427   1.252
 7055SOL     OW22063   3.933   6.382   5.245
 7055SOL    HW122064   4.014   6.440   5.241
 7055SOL    HW222065   3.857   6.427   5.199
 7056SOL     OW22066   5.365   5.270   3.734
 7056SOL    HW122067   5.267   5.268   3.756
 7056SOL    HW222068   5.378   5.300   3.640
 7057SOL     OW22069   1.578   5.051   4.339
 7057SOL    HW122070   1.525   5.036   4.422
 7057SOL    HW222071   1.650   4.982   4.333
 7058SOL     OW22072   6.126   5.480   6.203
 7058SOL    HW122073   6.105   5.575   6.178
 7058SOL    HW222074   6.132   5.424   6.120
 7059SOL     OW22075   0.626   0.400   3.057
 7059SOL    HW122076   0.715   0.421   3.097
 7059SOL    HW222077   0.554   0.433   3.118
 7060SOL     OW22078   2.993   0.097   1.761
 7060SOL    HW122079   2.964   0.079   1.667
 7060SOL    HW222080   2.931   0.052   1.824
 7061SOL     OW22081   0.298   2.611   3.860
 7061SOL    HW122082   0.353   2.648   3.785
 7061SOL    HW222083   0.225   2.554   3.822
 7062SOL     OW22084   5.389   1.645   6.397
 7062SOL    HW122085   5.337   1.719   6.354
 7062SOL    HW222086   5.363   1.558   6.355
 7063SOL     OW22087   0.427   0.341   0.871
 7063SOL    HW122088   0.487   0.262   0.883
 7063SOL    HW222089   0.456   0.414   0.933
 7064SOL     OW22090   4.011   2.074   1.718
 7064SOL    HW122091   3.972   2.040   1.804
 7064SOL    HW222092   3.982   2.169   1.703
 7065SOL     OW22093   4.342   3.824   0.700
 7065SOL    HW122094   4.326   3.780   0.611
 7065SOL    HW222095   4.438   3.814   0.725
 7066SOL     OW22096   4.086   0.804   0.749
 7066SOL    HW122097   4.125   0.713   0.741
 7066SOL    HW222098   3.989   0.798   0.773
 7067SOL     OW22099   1.256   1.769   5.269
 7067SOL    HW122100   1.278   1.687   5.323
 7067SOL    HW222101   1.302   1.763   5.181
 7068SOL     OW22102   0.842   4.276   3.323
 7068SOL    HW122103   0.796   4.224   3.251
 7068SOL    HW222104   0.794   4.264   3.410
 7069SOL     OW22105   6.336   2.727   4.013
 7069SOL    HW122106   6.421   2.677   3.996
 7069SOL    HW222107   6.344   2.780   4.097
 7070SOL     OW22108   6.752   6.392   5.138
 7070SOL    HW122109   6.690   6.432   5.205
 7070SOL    HW222110   6.704   6.321   5.086
 7071SOL     OW22111   0.929   6.439   5.955
 7071SOL    HW122112   0.907   6.351   5.913
 7071SOL    HW222113   1.012   6.477   5.913
 7072SOL     OW22114   6.892   6.499   5.963
 7072SOL    HW122115   6.870   6.596   5.970
 7072SOL    HW222116   6.825   6.445   6.015
 7073SOL     OW22117   5.860   0.081   4.716
 7073SOL    HW122118   5.816   0.160   4.672
 7073SOL    HW222119   5.827   0.074   4.810
 7074SOL     OW22120   4.281   3.157   1.083
 7074SOL    HW122121   4.276   3.065   1.044
 7074SOL    HW222122   4.215   3.167   1.157
 7075SOL     OW22123   1.003   6.279   5.651
 7075SOL    HW122124   1.089   6.328   5.669
 7075SOL    HW222125   0.953   6.327   5.578
 7076SOL     OW22126   3.989   2.652   6.874
 7076SOL    HW122127   4.038   2.644   6.961
 7076SOL    HW222128   3.984   2.749   6.848
 7077SOL     OW22129   1.956   4.807   5.762
 7077SOL    HW122130   1.997   4.890   5.800
 7077SOL    HW222131   1.910   4.828   5.676
 7078SOL     OW22132   6.484   0.269   1.602
 7078SOL    HW122133   6.451   0.242   1.692
 7078SOL    HW222134   6.460   0.198   1.535
 7079SOL     OW22135   6.831   6.016   5.316
 7079SOL    HW122136   6.837   6.108   5.355
 7079SOL    HW222137   6.889   5.954   5.370
 7080SOL     OW22138   3.549   2.061   4.164
 7080SOL    HW122139   3.458   2.100   4.148
 7080SOL    HW222140   3.577   2.078   4.258
 7081SOL     OW22141   3.030   0.590   6.011
 7081SOL    HW122142   2.978   0.664   6.054
 7081SOL    HW222143   2.972   0.509   6.004
 7082SOL     OW22144   5.883   5.553   6.645
 7082SOL    HW122145   5.893   5.533   6.548
 7082SOL    HW222146   5.802   5.505   6.681
 7083SOL     OW22147   3.028   1.181   6.966
 7083SOL    HW122148   3.116   1.191   7.012
 7083SOL    HW222149   3.043   1.139   6.876
 7084SOL     OW22150   0.081   6.789   5.462
 7084SOL    HW122151   0.048   6.773   5.369
 7084SOL    HW222152   0.026   6.737   5.527
 7085SOL     OW22153   2.616   1.074   2.967
 7085SOL    HW122154   2.666   1.160   2.953
 7085SOL    HW222155   2.605   1.027   2.880
 7086SOL     OW22156   4.836   1.129   6.000
 7086SOL    HW122157   4.781   1.148   6.081
 7086SOL    HW222158   4.855   1.214   5.951
 7087SOL     OW22159   6.084   4.083   3.887
 7087SOL    HW122160   6.150   4.015   3.857
 7087SOL    HW222161   6.020   4.103   3.812
 7088SOL     OW22162   4.991   2.746   3.384
 7088SOL    HW122163   5.003   2.677   3.313
 7088SOL    HW222164   4.994   2.702   3.474
 7089SOL     OW22165   3.377   2.187   6.028
 7089SOL    HW122166   3.308   2.192   6.099
 7089SOL    HW222167   3.452   2.250   6.050
 7090SOL     OW22168   2.758   1.424   6.361
 7090SOL    HW122169   2.765   1.381   6.271
 7090SOL    HW222170   2.849   1.429   6.402
 7091SOL     OW22171   6.913   2.409   0.172
 7091SOL    HW122172   6.879   2.349   0.245
 7091SOL    HW222173   6.891   2.504   0.196
 7092SOL     OW22174   4.804   2.520   6.107
 7092SOL    HW122175   4.858   2.521   6.191
 7092SOL    HW222176   4.849   2.577   6.038
 7093SOL     OW22177   3.235   3.923   3.695
 7093SOL    HW122178   3.232   3.933   3.595
 7093SOL    HW222179   3.163   3.861   3.724
 7094SOL     OW22180   0.771   5.673   6.041
 7094SOL    HW122181   0.764   5.696   5.944
 7094SOL    HW222182   0.688   5.702   6.088
 7095SOL     OW22183   3.081   3.125   6.861
 7095SOL    HW122184   3.082   3.049   6.796
 7095SOL    HW222185   3.158   3.114   6.926
 7096SOL     OW22186   6.260   0.605   3.987
 7096SOL    HW122187   6.288   0.549   4.065
 7096SOL    HW222188   6.206   0.683   4.020
 7097SOL     OW22189   6.599   0.633   1.804
 7097SOL    HW122190   6.609   0.599   1.710
 7097SOL    HW222191   6.689   0.647   1.845
 7098SOL     OW22192   0.446   6.733   4.209
 7098SOL    HW122193   0.483   6.643   4.185
 7098SOL    HW222194   0.470   6.799   4.137
 7099SOL     OW22195   2.529   0.749   4.574
 7099SOL    HW122196   2.590   0.717   4.502
 7099SOL    HW222197   2.465   0.676   4.598
 7100SOL     OW22198   5.733   3.234   1.105
 7100SOL    HW122199   5.806   3.168   1.123
 7100SOL    HW222200   5.745   3.274   1.014
 7101SOL     OW22201   2.423   0.205   5.101
 7101SOL    HW122202   2.375   0.215   5.014
 7101SOL    HW222203   2.429   0.108   5.125
 7102SOL     OW22204   4.627   0.501   1.055
 7102SOL    HW122205   4.567   0.425   1.080
 7102SOL    HW222206   4.721   0.480   1.084
 7103SOL     OW22207   4.400   5.398   0.858
 7103SOL    HW122208   4.430   5.478   0.805
 7103SOL    HW222209   4.458   5.320   0.836
 7104SOL     OW22210   1.556   3.446   4.723
 7104SOL    HW122211   1.473   3.426   4.670
 7104SOL    HW222212   1.539   3.526   4.781
 7105SOL     OW22213   2.938   2.901   5.423
 7105SOL    HW122214   2.924   2.808   5.389
 7105SOL    HW222215   2.868   2.961   5.384
 7106SOL     OW22216   3.532   2.908   3.096
 7106SOL    HW122217   3.499   2.894   3.189
 7106SOL    HW222218   3.631   2.922   3.098
 7107SOL     OW22219   3.511   0.956   0.901
 7107SOL    HW122220   3.538   0.898   0.978
 7107SOL    HW222221   3.559   1.043   0.907
 7108SOL     OW22222   3.979   6.286   1.738
 7108SOL    HW122223   4.067   6.309   1.696
 7108SOL    HW222224   3.965   6.188   1.733
 7109SOL     OW22225   3.902   0.035   6.420
 7109SOL    HW122226   3.911   6.977   6.357
 7109SOL    HW222227   3.830   0.097   6.386
 7110SOL     OW22228   4.764   5.461   3.905
 7110SOL    HW122229   4.782   5.480   4.002
 7110SOL    HW222230   4.804   5.372   3.881
 7111SOL     OW22231   2.165   2.216   4.590
 7111SOL    HW122232   2.146   2.156   4.513
 7111SOL    HW222233   2.260   2.203   4.619
 7112SOL     OW22234   2.466   5.962   3.762
 7112SOL    HW122235   2.427   5.872   3.746
 7112SOL    HW222236   2.534   5.957   3.835
 7113SOL     OW22237   3.143   3.993   5.099
 7113SOL    HW122238   3.067   3.991   5.165
 7113SOL    HW222239   3.187   3.903   5.096
 7114SOL     OW22240   4.067   6.931   1.843
 7114SOL    HW122241   4.005   6.895   1.774
 7114SOL    HW222242   4.152   6.878   1.843
 7115SOL     OW22243   5.357   2.683   2.203
 7115SOL    HW122244   5.377   2.719   2.294
 7115SOL    HW222245   5.261   2.703   2.179
 7116SOL     OW22246   5.427   3.305   3.337
 7116SOL    HW122247   5.425   3.380   3.271
 7116SOL    HW222248   5.522   3.278   3.355
 7117SOL     OW22249   0.058   6.866   4.396
 7117SOL    HW122250   0.093   6.822   4.478
 7117SOL    HW222251   0.110   6.835   4.316
 7118SOL     OW22252   3.220   4.117   0.705
 7118SOL    HW122253   3.283   4.147   0.777
 7118SOL    HW222254   3.242   4.164   0.620
 7119SOL     OW22255   5.318   1.617   3.471
 7119SOL    HW122256   5.361   1.589   3.556
 7119SOL    HW222257   5.223   1.642   3.488
 7120SOL     OW22258   4.343   2.077   2.589
 7120SOL    HW122259   4.283   1.997   2.591
 7120SOL    HW222260   4.327   2.128   2.504
 7121SOL     OW22261   2.976   0.029   2.364
 7121SOL    HW122262   3.032   0.033   2.281
 7121SOL    HW222263   2.883   0.001   2.340
 7122SOL     OW22264   6.905   0.921   5.989
 7122SOL    HW122265   6.906   0.965   5.899
 7122SOL    HW222266   6.930   0.988   6.059
 7123SOL     OW22267   2.733   4.834   1.174
 7123SOL    HW122268   2.796   4.889   1.119
 7123SOL    HW222269   2.773   4.819   1.264
 7124SOL     OW22270   0.593   3.106   0.851
 7124SOL    HW122271   0.663   3.174   0.872
 7124SOL    HW222272   0.514   3.121   0.910
 7125SOL     OW22273   6.308   6.739   1.030
 7125SOL    HW122274   6.345   6.831   1.034
 7125SOL    HW222275   6.339   6.693   0.947
 7126SOL     OW22276   3.240   4.797   6.756
 7126SOL    HW122277   3.298   4.741   6.697
 7126SOL    HW222278   3.248   4.893   6.729
 7127SOL     OW22279   2.559   5.756   4.274
 7127SOL    HW122280   2.654   5.730   4.255
 7127SOL    HW222281   2.545   5.852   4.250
 7128SOL     OW22282   2.009   5.675   0.249
 7128SOL    HW122283   2.012   5.684   0.349
 7128SOL    HW222284   1.932   5.616   0.224
 7129SOL     OW22285   3.247   0.453   0.367
 7129SOL    HW122286   3.281   0.411   0.451
 7129SOL    HW222287   3.314   0.521   0.335
 7130SOL     OW22288   3.284   4.896   5.170
 7130SOL    HW122289   3.307   4.884   5.073
 7130SOL    HW222290   3.262   4.992   5.188
 7131SOL     OW22291   2.779   1.620   0.586
 7131SOL    HW122292   2.795   1.573   0.499
 7131SOL    HW222293   2.777   1.552   0.660
 7132SOL     OW22294   3.048   3.985   0.518
 7132SOL    HW122295   3.052   4.004   0.616
 7132SOL    HW222296   3.064   4.069   0.467
 7133SOL     OW22297   4.546   5.422   3.645
 7133SOL    HW122298   4.557   5.396   3.549
 7133SOL    HW222299   4.626   5.474   3.675
 7134SOL     OW22300   6.085   5.645   2.233
 7134SOL    HW122301   6.126   5.728   2.269
 7134SOL    HW222302   5.999   5.626   2.281
 7135SOL     OW22303   1.960   1.889   3.271
 7135SOL    HW122304   1.998   1.981   3.269
 7135SOL    HW222305   1.995   1.837   3.193
 7136SOL     OW22306   1.726   2.919   1.137
 7136SOL    HW122307   1.735   2.821   1.153
 7136SOL    HW222308   1.797   2.968   1.187
 7137SOL     OW22309   4.897   0.560   6.261
 7137SOL    HW122310   4.858   0.620   6.190
 7137SOL    HW222311   4.937   0.479   6.218
 7138SOL     OW22312   2.042   2.577   0.422
 7138SOL    HW122313   2.123   2.519   0.427
 7138SOL    HW222314   2.063   2.660   0.372
 7139SOL     OW22315   4.814   4.033   2.701
 7139SOL    HW122316   4.736   4.086   2.669
 7139SOL    HW222317   4.861   3.992   2.622
 7140SOL     OW22318   5.653   3.315   4.493
 7140SOL    HW122319   5.554   3.331   4.486
 7140SOL    HW222320   5.681   3.320   4.588
 7141SOL     OW22321   2.542   5.941   0.907
 7141SOL    HW122322   2.450   5.931   0.946
 7141SOL    HW222323   2.604   5.876   0.951
 7142SOL     OW22324   4.710   7.009   3.139
 7142SOL    HW122325   4.638   0.001   3.070
 7142SOL    HW222326   4.752   0.079   3.158
 7143SOL     OW22327   1.893   2.577   6.082
 7143SOL    HW122328   1.984   2.597   6.119
 7143SOL    HW222329   1.837   2.534   6.153
 7144SOL     OW22330   1.990   1.427   3.591
 7144SOL    HW122331   1.985   1.412   3.690
 7144SOL    HW222332   2.004   1.339   3.544
 7145SOL     OW22333   4.752   6.396   6.163
 7145SOL    HW122334   4.656   6.414   6.186
 7145SOL    HW222335   4.811   6.444   6.228
 7146SOL     OW22336   2.132   0.573   6.757
 7146SOL    HW122337   2.126   0.528   6.846
 7146SOL    HW222338   2.102   0.509   6.686
 7147SOL     OW22339   6.696   6.290   2.979
 7147SOL    HW122340   6.781   6.328   3.016
 7147SOL    HW222341   6.625   6.293   3.050
 7148SOL     OW22342   6.702   6.549   1.334
 7148SOL    HW122343   6.728   6.541   1.238
 7148SOL    HW222344   6.609   6.585   1.341
 7149SOL     OW22345   6.631   6.743   3.038
 7149SOL    HW122346   6.547   6.689   3.031
 7149SOL    HW222347   6.609   6.832   3.077
 7150SOL     OW22348   4.497   2.284   1.798
 7150SOL    HW122349   4.506   2.371   1.847
 7150SOL    HW222350   4.456   2.300   1.708
 7151SOL     OW22351   1.394   6.053   0.729
 7151SOL    HW122352   1.465   6.088   0.790
 7151SOL    HW222353   1.437   5.994   0.660
 7152SOL     OW22354   0.522   2.043   4.938
 7152SOL    HW122355   0.426   2.043   4.965
 7152SOL    HW222356   0.545   2.131   4.896
 7153SOL     OW22357   3.269   6.109   3.176
 7153SOL    HW122358   3.338   6.088   3.106
 7153SOL    HW222359   3.291   6.059   3.260
 7154SOL     OW22360   3.963   6.638   4.904
 7154SOL    HW122361   3.927   6.574   4.972
 7154SOL    HW222362   3.923   6.617   4.815
 7155SOL     OW22363   2.665   5.316   1.810
 7155SOL    HW122364   2.685   5.294   1.906
 7155SOL    HW222365   2.574   5.284   1.786
 7156SOL     OW22366   0.626   4.267   4.637
 7156SOL    HW122367   0.690   4.269   4.560
 7156SOL    HW222368   0.588   4.175   4.647
 7157SOL     OW22369   6.274   4.247   1.210
 7157SOL    HW122370   6.236   4.158   1.183
 7157SOL    HW222371   6.207   4.319   1.191
 7158SOL     OW22372   0.955   0.035   2.493
 7158SOL    HW122373   0.967   0.037   2.592
 7158SOL    HW222374   0.883   6.989   2.470
 7159SOL     OW22375   6.996   4.401   2.939
 7159SOL    HW122376   6.968   4.310   2.907
 7159SOL    HW222377   6.919   4.464   2.930
 7160SOL     OW22378   6.065   0.412   3.099
 7160SOL    HW122379   6.155   0.455   3.088
 7160SOL    HW222380   6.002   0.477   3.141
 7161SOL     OW22381   3.356   4.183   5.162
 7161SOL    HW122382   3.310   4.210   5.246
 7161SOL    HW222383   3.305   4.108   5.119
 7162SOL     OW22384   2.186   5.664   5.797
 7162SOL    HW122385   2.241   5.603   5.739
 7162SOL    HW222386   2.174   5.622   5.887
 7163SOL     OW22387   2.761   6.149   3.273
 7163SOL    HW122388   2.844   6.124   3.222
 7163SOL    HW222389   2.778   6.232   3.326
 7164SOL     OW22390   2.133   1.700   3.467
 7164SOL    HW122391   2.144   1.610   3.424
 7164SOL    HW222392   2.056   1.748   3.425
 7165SOL     OW22393   6.865   1.731   1.342
 7165SOL    HW122394   6.873   1.633   1.358
 7165SOL    HW222395   6.862   1.748   1.243
 7166SOL     OW22396   5.201   3.071   0.418
 7166SOL    HW122397   5.221   2.994   0.358
 7166SOL    HW222398   5.124   3.048   0.478
 7167SOL     OW22399   5.354   3.600   4.971
 7167SOL    HW122400   5.302   3.521   4.940
 7167SOL    HW222401   5.366   3.596   5.071
 7168SOL     OW22402   0.966   2.382   4.181
 7168SOL    HW122403   0.946   2.468   4.228
 7168SOL    HW222404   0.988   2.400   4.085
 7169SOL     OW22405   0.583   3.522   5.159
 7169SOL    HW122406   0.510   3.590   5.164
 7169SOL    HW222407   0.626   3.512   5.249
 7170SOL     OW22408   4.944   6.071   3.882
 7170SOL    HW122409   5.013   6.057   3.954
 7170SOL    HW222410   4.875   5.999   3.887
 7171SOL     OW22411   5.690   4.130   6.250
 7171SOL    HW122412   5.789   4.138   6.237
 7171SOL    HW222413   5.652   4.067   6.182
 7172SOL     OW22414   1.636   0.623   5.268
 7172SOL    HW122415   1.632   0.670   5.355
 7172SOL    HW222416   1.580   0.540   5.272
 7173SOL     OW22417   0.280   4.681   5.093
 7173SOL    HW122418   0.370   4.714   5.064
 7173SOL    HW222419   0.292   4.606   5.158
 7174SOL     OW22420   0.758   5.298   6.380
 7174SOL    HW122421   0.833   5.274   6.319
 7174SOL    HW222422   0.791   5.360   6.451
 7175SOL     OW22423   5.567   3.589   0.350
 7175SOL    HW122424   5.649   3.598   0.293
 7175SOL    HW222425   5.503   3.663   0.329
 7176SOL     OW22426   0.819   5.498   3.100
 7176SOL    HW122427   0.879   5.439   3.045
 7176SOL    HW222428   0.822   5.591   3.064
 7177SOL     OW22429   2.789   6.780   4.248
 7177SOL    HW122430   2.702   6.796   4.294
 7177SOL    HW222431   2.836   6.868   4.234
 7178SOL     OW22432   2.281   3.679   5.796
 7178SOL    HW122433   2.305   3.666   5.699
 7178SOL    HW222434   2.365   3.674   5.851
 7179SOL     OW22435   1.836   3.566   4.875
 7179SOL    HW122436   1.794   3.478   4.898
 7179SOL    HW222437   1.771   3.623   4.827
 7180SOL     OW22438   1.303   4.593   6.580
 7180SOL    HW122439   1.350   4.681   6.584
 7180SOL    HW222440   1.220   4.598   6.635
 7181SOL     OW22441   2.153   5.814   0.849
 7181SOL    HW122442   2.059   5.783   0.842
 7181SOL    HW222443   2.155   5.912   0.872
 7182SOL     OW22444   1.854   3.133   5.547
 7182SOL    HW122445   1.890   3.074   5.620
 7182SOL    HW222446   1.905   3.219   5.546
 7183SOL     OW22447   1.337   5.437   0.537
 7183SOL    HW122448   1.301   5.466   0.626
 7183SOL    HW222449   1.391   5.354   0.548
 7184SOL     OW22450   1.165   0.282   2.822
 7184SOL    HW122451   1.157   0.185   2.797
 7184SOL    HW222452   1.187   0.289   2.920
 7185SOL     OW22453   5.395   1.515   5.918
 7185SOL    HW122454   5.308   1.472   5.941
 7185SOL    HW222455   5.379   1.608   5.886
 7186SOL     OW22456   6.922   6.974   6.234
 7186SOL    HW122457   6.874   0.042   6.235
 7186SOL    HW222458   6.901   6.923   6.318
 7187SOL     OW22459   2.902   4.795   0.426
 7187SOL    HW122460   2.879   4.782   0.523
 7187SOL    HW222461   2.831   4.752   0.370
 7188SOL     OW22462   5.601   6.809   0.147
 7188SOL    HW122463   5.529   6.770   0.089
 7188SOL    HW222464   5.685   6.755   0.137
 7189SOL     OW22465   6.572   1.409   6.054
 7189SOL    HW122466   6.645   1.436   6.117
 7189SOL    HW222467   6.494   1.376   6.107
 7190SOL     OW22468   5.894   3.665   3.078
 7190SOL    HW122469   5.957   3.600   3.036
 7190SOL    HW222470   5.901   3.753   3.032
 7191SOL     OW22471   0.243   4.440   2.674
 7191SOL    HW122472   0.230   4.374   2.748
 7191SOL    HW222473   0.281   4.525   2.712
 7192SOL     OW22474   3.116   5.111   5.367
 7192SOL    HW122475   3.039   5.124   5.304
 7192SOL    HW222476   3.194   5.164   5.335
 7193SOL     OW22477   2.703   1.617   3.141
 7193SOL    HW122478   2.612   1.651   3.116
 7193SOL    HW222479   2.772   1.676   3.100
 7194SOL     OW22480   2.667   1.997   0.766
 7194SOL    HW122481   2.641   2.078   0.819
 7194SOL    HW222482   2.739   2.020   0.702
 7195SOL     OW22483   0.206   4.967   6.145
 7195SOL    HW122484   0.236   5.062   6.138
 7195SOL    HW222485   0.254   4.922   6.220
 7196SOL     OW22486   3.583   4.213   1.858
 7196SOL    HW122487   3.580   4.275   1.936
 7196SOL    HW222488   3.547   4.123   1.886
 7197SOL     OW22489   6.819   2.659   6.316
 7197SOL    HW122490   6.895   2.623   6.261
 7197SOL    HW222491   6.825   2.622   6.409
 7198SOL     OW22492   0.632   1.093   5.893
 7198SOL    HW122493   0.666   1.028   5.961
 7198SOL    HW222494   0.681   1.079   5.807
 7199SOL     OW22495   2.447   0.557   1.945
 7199SOL    HW122496   2.351   0.579   1.963
 7199SOL    HW222497   2.454   0.503   1.861
 7200SOL     OW22498   2.069   1.833   0.376
 7200SOL    HW122499   2.042   1.828   0.280
 7200SOL    HW222500   2.168   1.846   0.383
 7201SOL     OW22501   1.708   5.508   3.798
 7201SOL    HW122502   1.660   5.445   3.860
 7201SOL    HW222503   1.756   5.455   3.729
 7202SOL     OW22504   4.091   0.411   5.775
 7202SOL    HW122505   4.019   0.356   5.818
 7202SOL    HW222506   4.060   0.440   5.684
 7203SOL     OW22507   0.112   1.481   1.147
 7203SOL    HW122508   0.150   1.393   1.122
 7203SOL    HW222509   0.066   1.521   1.067
 7204SOL     OW22510   6.378   6.670   5.110
 7204SOL    HW122511   6.341   6.613   5.036
 7204SOL    HW222512   6.313   6.674   5.186
 7205SOL     OW22513   2.280   6.170   3.103
 7205SOL    HW122514   2.296   6.265   3.130
 7205SOL    HW222515   2.365   6.118   3.114
 7206SOL     OW22516   2.023   0.385   1.544
 7206SOL    HW122517   2.094   0.456   1.549
 7206SOL    HW222518   1.944   0.421   1.496
 7207SOL     OW22519   3.393   6.402   1.139
 7207SOL    HW122520   3.427   6.448   1.057
 7207SOL    HW222521   3.384   6.468   1.213
 7208SOL     OW22522   4.358   6.107   4.186
 7208SOL    HW122523   4.352   6.047   4.106
 7208SOL    HW222524   4.287   6.083   4.252
 7209SOL     OW22525   3.387   2.847   2.306
 7209SOL    HW122526   3.372   2.752   2.330
 7209SOL    HW222527   3.382   2.858   2.207
 7210SOL     OW22528   4.551   0.365   4.392
 7210SOL    HW122529   4.581   0.339   4.483
 7210SOL    HW222530   4.480   0.302   4.361
 7211SOL     OW22531   2.122   5.535   3.847
 7211SOL    HW122532   2.104   5.467   3.918
 7211SOL    HW222533   2.221   5.539   3.830
 7212SOL     OW22534   0.948   5.678   3.341
 7212SOL    HW122535   0.914   5.592   3.380
 7212SOL    HW222536   0.872   5.741   3.327
 7213SOL     OW22537   6.177   0.587   6.675
 7213SOL    HW122538   6.174   0.498   6.722
 7213SOL    HW222539   6.228   0.578   6.590
 7214SOL     OW22540   1.542   5.591   4.730
 7214SOL    HW122541   1.589   5.627   4.811
 7214SOL    HW222542   1.552   5.655   4.654
 7215SOL     OW22543   0.355   3.284   4.404
 7215SOL    HW122544   0.315   3.214   4.344
 7215SOL    HW222545   0.387   3.241   4.488
 7216SOL     OW22546   2.312   6.124   6.917
 7216SOL    HW122547   2.411   6.106   6.918
 7216SOL    HW222548   2.271   6.085   6.835
 7217SOL     OW22549   2.012   4.463   1.963
 7217SOL    HW122550   2.107   4.457   1.994
 7217SOL    HW222551   2.003   4.422   1.872
 7218SOL     OW22552   4.594   2.674   5.305
 7218SOL    HW122553   4.679   2.621   5.307
 7218SOL    HW222554   4.585   2.725   5.391
 7219SOL     OW22555   5.424   5.870   4.115
 7219SOL    HW122556   5.466   5.796   4.062
 7219SOL    HW222557   5.410   5.840   4.209
 7220SOL     OW22558   0.486   5.366   3.707
 7220SOL    HW122559   0.576   5.329   3.685
 7220SOL    HW222560   0.430   5.366   3.624
 7221SOL     OW22561   5.531   5.097   5.377
 7221SOL    HW122562   5.494   5.039   5.305
 7221SOL    HW222563   5.490   5.072   5.465
 7222SOL     OW22564   6.066   0.054   2.005
 7222SOL    HW122565   5.982   0.047   1.952
 7222SOL    HW222566   6.067   0.141   2.055
 7223SOL     OW22567   3.004   2.178   1.532
 7223SOL    HW122568   3.001   2.214   1.626
 7223SOL    HW222569   3.012   2.079   1.534
 7224SOL     OW22570   5.831   2.059   4.170
 7224SOL    HW122571   5.819   2.030   4.265
 7224SOL    HW222572   5.769   2.007   4.111
 7225SOL     OW22573   1.240   6.463   6.137
 7225SOL    HW122574   1.218   6.514   6.054
 7225SOL    HW222575   1.155   6.425   6.175
 7226SOL     OW22576   1.041   0.382   0.609
 7226SOL    HW122577   0.960   0.429   0.643
 7226SOL    HW222578   1.085   0.438   0.539
 7227SOL     OW22579   0.295   2.955   1.223
 7227SOL    HW122580   0.241   2.872   1.241
 7227SOL    HW222581   0.362   2.936   1.152
 7228SOL     OW22582   6.937   1.354   2.272
 7228SOL    HW122583   6.996   1.275   2.254
 7228SOL    HW222584   6.989   1.439   2.257
 7229SOL     OW22585   1.373   1.009   4.218
 7229SOL    HW122586   1.454   1.066   4.228
 7229SOL    HW222587   1.361   0.954   4.300
 7230SOL     OW22588   4.788   5.784   4.949
 7230SOL    HW122589   4.811   5.785   5.046
 7230SOL    HW222590   4.865   5.747   4.897
 7231SOL     OW22591   4.918   6.911   6.708
 7231SOL    HW122592   5.003   6.957   6.682
 7231SOL    HW222593   4.936   6.843   6.779
 7232SOL     OW22594   4.359   5.223   3.443
 7232SOL    HW122595   4.317   5.172   3.519
 7232SOL    HW222596   4.400   5.159   3.378
 7233SOL     OW22597   0.340   2.724   4.854
 7233SOL    HW122598   0.311   2.798   4.794
 7233SOL    HW222599   0.373   2.761   4.941
 7234SOL     OW22600   5.820   2.612   3.066
 7234SOL    HW122601   5.910   2.601   3.108
 7234SOL    HW222602   5.825   2.680   2.993
 7235SOL     OW22603   6.087   4.479   3.073
 7235SOL    HW122604   6.054   4.453   2.982
 7235SOL    HW222605   6.055   4.572   3.094
 7236SOL     OW22606   3.438   1.497   2.647
 7236SOL    HW122607   3.497   1.446   2.709
 7236SOL    HW222608   3.359   1.440   2.621
 7237SOL     OW22609   6.324   6.568   5.474
 7237SOL    HW122610   6.369   6.484   5.443
 7237SOL    HW222611   6.257   6.597   5.406
 7238SOL     OW22612   2.351   2.236   1.192
 7238SOL    HW122613   2.326   2.153   1.242
 7238SOL    HW222614   2.291   2.247   1.113
 7239SOL     OW22615   2.543   1.381   3.891
 7239SOL    HW122616   2.456   1.344   3.857
 7239SOL    HW222617   2.589   1.429   3.818
 7240SOL     OW22618   2.408   4.201   6.736
 7240SOL    HW122619   2.477   4.198   6.808
 7240SOL    HW222620   2.321   4.167   6.772
 7241SOL     OW22621   3.391   0.615   6.873
 7241SOL    HW122622   3.435   0.571   6.951
 7241SOL    HW222623   3.445   0.696   6.845
 7242SOL     OW22624   6.575   4.806   6.659
 7242SOL    HW122625   6.485   4.837   6.689
 7242SOL    HW222626   6.626   4.770   6.738
 7243SOL     OW22627   0.445   4.590   6.480
 7243SOL    HW122628   0.468   4.657   6.550
 7243SOL    HW222629   0.522   4.528   6.466
 7244SOL     OW22630   4.695   0.634   1.368
 7244SOL    HW122631   4.768   0.703   1.361
 7244SOL    HW222632   4.608   0.680   1.385
 7245SOL     OW22633   0.620   1.786   4.892
 7245SOL    HW122634   0.587   1.876   4.918
 7245SOL    HW222635   0.710   1.794   4.850
 7246SOL     OW22636   6.185   6.782   4.863
 7246SOL    HW122637   6.256   6.802   4.796
 7246SOL    HW222638   6.103   6.750   4.817
 7247SOL     OW22639   2.605   6.410   3.165
 7247SOL    HW122640   2.511   6.442   3.152
 7247SOL    HW222641   2.633   6.357   3.085
 7248SOL     OW22642   4.257   0.961   3.117
 7248SOL    HW122643   4.231   0.865   3.118
 7248SOL    HW222644   4.356   0.969   3.108
 7249SOL     OW22645   5.468   4.981   1.771
 7249SOL    HW122646   5.438   4.941   1.684
 7249SOL    HW222647   5.531   4.918   1.816
 7250SOL     OW22648   3.335   5.076   6.155
 7250SOL    HW122649   3.313   5.163   6.200
 7250SOL    HW222650   3.264   5.009   6.176
 7251SOL     OW22651   6.860   6.584   5.364
 7251SOL    HW122652   6.774   6.608   5.318
 7251SOL    HW222653   6.937   6.614   5.308
 7252SOL     OW22654   3.195   3.212   4.052
 7252SOL    HW122655   3.288   3.219   4.016
 7252SOL    HW222656   3.184   3.125   4.100
 7253SOL     OW22657   1.416   6.997   0.219
 7253SOL    HW122658   1.340   6.936   0.197
 7253SOL    HW222659   1.383   0.072   0.219
 7254SOL     OW22660   4.401   5.011   4.992
 7254SOL    HW122661   4.336   4.943   4.958
 7254SOL    HW222662   4.485   4.965   5.020
 7255SOL     OW22663   3.867   3.849   1.650
 7255SOL    HW122664   3.914   3.841   1.562
 7255SOL    HW222665   3.855   3.945   1.672
 7256SOL     OW22666   5.033   4.762   4.505
 7256SOL    HW122667   4.987   4.840   4.462
 7256SOL    HW222668   5.131   4.783   4.515
 7257SOL     OW22669   6.068   2.893   3.252
 7257SOL    HW122670   6.014   2.977   3.247
 7257SOL    HW222671   6.141   2.895   3.184
 7258SOL     OW22672   4.314   0.514   3.908
 7258SOL    HW122673   4.264   0.429   3.894
 7258SOL    HW222674   4.366   0.536   3.825
 7259SOL     OW22675   3.169   3.931   1.093
 7259SOL    HW122676   3.119   3.964   1.013
 7259SOL    HW222677   3.109   3.871   1.147
 7260SOL     OW22678   3.322   2.140   2.976
 7260SOL    HW122679   3.252   2.158   3.045
 7260SOL    HW222680   3.352   2.045   2.984
 7261SOL     OW22681   3.204   2.724   1.441
 7261SOL    HW122682   3.251   2.645   1.400
 7261SOL    HW222683   3.196   2.710   1.540
 7262SOL     OW22684   6.046   2.570   3.615
 7262SOL    HW122685   6.059   2.669   3.605
 7262SOL    HW222686   6.131   2.528   3.647
 7263SOL     OW22687   0.744   5.509   1.972
 7263SOL    HW122688   0.700   5.475   2.055
 7263SOL    HW222689   0.678   5.511   1.897
 7264SOL     OW22690   6.901   2.002   6.723
 7264SOL    HW122691   6.953   2.032   6.643
 7264SOL    HW222692   6.953   1.934   6.773
 7265SOL     OW22693   5.341   5.255   6.070
 7265SOL    HW122694   5.422   5.262   6.012
 7265SOL    HW222695   5.356   5.183   6.138
 7266SOL     OW22696   4.274   0.970   0.627
 7266SOL    HW122697   4.280   0.928   0.537
 7266SOL    HW222698   4.216   0.914   0.687
 7267SOL     OW22699   6.870   4.786   5.059
 7267SOL    HW122700   6.827   4.871   5.089
 7267SOL    HW222701   6.965   4.804   5.034
 7268SOL     OW22702   4.041   4.797   3.023
 7268SOL    HW122703   4.054   4.754   3.113
 7268SOL    HW222704   4.116   4.771   2.963
 7269SOL     OW22705   0.077   5.783   1.491
 7269SOL    HW122706   7.014   5.831   1.521
 7269SOL    HW222707   0.089   5.700   1.545
 7270SOL     OW22708   1.724   2.247   3.047
 7270SOL    HW122709   1.739   2.149   3.045
 7270SOL    HW222710   1.811   2.294   3.062
 7271SOL     OW22711   0.827   4.706   3.192
 7271SOL    HW122712   0.897   4.777   3.201
 7271SOL    HW222713   0.863   4.630   3.139
 7272SOL     OW22714   5.915   3.255   2.739
 7272SOL    HW122715   5.844   3.248   2.668
 7272SOL    HW222716   6.004   3.263   2.696
 7273SOL     OW22717   5.912   4.469   2.072
 7273SOL    HW122718   5.815   4.445   2.079
 7273SOL    HW222719   5.963   4.422   2.144
 7274SOL     OW22720   6.870   5.972   6.370
 7274SOL    HW122721   6.961   5.946   6.337
 7274SOL    HW222722   6.857   6.070   6.359
 7275SOL     OW22723   6.165   0.401   0.732
 7275SOL    HW122724   6.152   0.442   0.822
 7275SOL    HW222725   6.193   0.471   0.667
 7276SOL     OW22726   3.236   1.168   3.406
 7276SOL    HW122727   3.248   1.125   3.496
 7276SOL    HW222728   3.229   1.267   3.417
 7277SOL     OW22729   5.267   1.215   5.281
 7277SOL    HW122730   5.342   1.262   5.234
 7277SOL    HW222731   5.206   1.282   5.323
 7278SOL     OW22732   3.649   2.070   3.042
 7278SOL    HW122733   3.734   2.067   3.094
 7278SOL    HW222734   3.668   2.105   2.950
 7279SOL     OW22735   4.409   4.115   0.292
 7279SOL    HW122736   4.314   4.142   0.307
 7279SOL    HW222737   4.450   4.173   0.222
 7280SOL     OW22738   5.589   2.237   4.954
 7280SOL    HW122739   5.512   2.259   5.013
 7280SOL    HW222740   5.559   2.238   4.858
 7281SOL     OW22741   3.387   0.152   1.133
 7281SOL    HW122742   3.342   0.063   1.139
 7281SOL    HW222743   3.469   0.152   1.190
 7282SOL     OW22744   6.573   5.615   1.688
 7282SOL    HW122745   6.588   5.544   1.756
 7282SOL    HW222746   6.580   5.705   1.731
 7283SOL     OW22747   3.094   6.596   1.820
 7283SOL    HW122748   2.996   6.618   1.824
 7283SOL    HW222749   3.119   6.539   1.898
 7284SOL     OW22750   6.540   2.789   3.619
 7284SOL    HW122751   6.563   2.744   3.533
 7284SOL    HW222752   6.618   2.783   3.682
 7285SOL     OW22753   4.953   3.219   1.328
 7285SOL    HW122754   4.938   3.311   1.364
 7285SOL    HW222755   5.049   3.208   1.302
 7286SOL     OW22756   0.774   1.291   0.876
 7286SOL    HW122757   0.732   1.382   0.888
 7286SOL    HW222758   0.750   1.256   0.786
 7287SOL     OW22759   0.044   2.837   4.082
 7287SOL    HW122760   0.006   2.858   3.992
 7287SOL    HW222761   0.103   2.756   4.075
 7288SOL     OW22762   1.940   2.830   2.562
 7288SOL    HW122763   1.891   2.869   2.485
 7288SOL    HW222764   1.927   2.730   2.563
 7289SOL     OW22765   5.554   3.004   1.855
 7289SOL    HW122766   5.479   3.038   1.911
 7289SOL    HW222767   5.630   2.975   1.914
 7290SOL     OW22768   3.896   0.928   5.296
 7290SOL    HW122769   3.887   1.023   5.325
 7290SOL    HW222770   3.807   0.893   5.266
 7291SOL     OW22771   3.386   0.051   0.211
 7291SOL    HW122772   3.328   0.082   0.287
 7291SOL    HW222773   3.397   0.125   0.146
 7292SOL     OW22774   1.833   6.599   3.490
 7292SOL    HW122775   1.932   6.585   3.498
 7292SOL    HW222776   1.794   6.609   3.582
 7293SOL     OW22777   1.271   1.450   5.860
 7293SOL    HW122778   1.252   1.365   5.811
 7293SOL    HW222779   1.184   1.490   5.890
 7294SOL     OW22780   3.037   4.450   1.687
 7294SOL    HW122781   3.008   4.489   1.774
 7294SOL    HW222782   2.964   4.461   1.620
 7295SOL     OW22783   6.336   4.845   1.339
 7295SOL    HW122784   6.365   4.923   1.394
 7295SOL    HW222785   6.341   4.762   1.394
 7296SOL     OW22786   3.652   5.271   2.911
 7296SOL    HW122787   3.742   5.226   2.908
 7296SOL    HW222788   3.581   5.204   2.891
 7297SOL     OW22789   3.015   6.202   1.750
 7297SOL    HW122790   2.963   6.259   1.687
 7297SOL    HW222791   2.955   6.173   1.825
 7298SOL     OW22792   4.499   6.330   7.008
 7298SOL    HW122793   4.416   6.385   7.015
 7298SOL    HW222794   4.530   6.327   6.913
 7299SOL     OW22795   1.300   2.302   0.478
 7299SOL    HW122796   1.398   2.286   0.466
 7299SOL    HW222797   1.262   2.231   0.538
 7300SOL     OW22798   0.577   4.747   1.764
 7300SOL    HW122799   0.602   4.823   1.704
 7300SOL    HW222800   0.607   4.767   1.857
 7301SOL     OW22801   0.390   0.226   5.773
 7301SOL    HW122802   0.464   0.159   5.767
 7301SOL    HW222803   0.408   0.302   5.710
 7302SOL     OW22804   5.855   2.199   5.702
 7302SOL    HW122805   5.794   2.255   5.646
 7302SOL    HW222806   5.825   2.202   5.798
 7303SOL     OW22807   2.936   1.215   0.284
 7303SOL    HW122808   3.029   1.179   0.291
 7303SOL    HW222809   2.904   1.207   0.190
 7304SOL     OW22810   2.595   5.055   1.197
 7304SOL    HW122811   2.625   4.966   1.163
 7304SOL    HW222812   2.504   5.047   1.237
 7305SOL     OW22813   5.535   2.421   0.489
 7305SOL    HW122814   5.608   2.422   0.421
 7305SOL    HW222815   5.538   2.505   0.543
 7306SOL     OW22816   3.369   1.473   1.514
 7306SOL    HW122817   3.393   1.555   1.565
 7306SOL    HW222818   3.449   1.439   1.465
 7307SOL     OW22819   3.966   6.495   2.282
 7307SOL    HW122820   4.057   6.538   2.287
 7307SOL    HW222821   3.944   6.474   2.187
 7308SOL     OW22822   6.647   1.004   2.697
 7308SOL    HW122823   6.685   1.078   2.641
 7308SOL    HW222824   6.717   0.969   2.759
 7309SOL     OW22825   2.526   6.240   2.704
 7309SOL    HW122826   2.473   6.175   2.759
 7309SOL    HW222827   2.552   6.196   2.617
 7310SOL     OW22828   1.481   2.910   0.178
 7310SOL    HW122829   1.485   2.906   0.277
 7310SOL    HW222830   1.463   2.819   0.141
 7311SOL     OW22831   1.056   0.618   7.006
 7311SOL    HW122832   1.009   0.597   6.920
 7311SOL    HW222833   1.061   0.717   7.017
 7312SOL     OW22834   0.288   1.384   5.017
 7312SOL    HW122835   0.236   1.466   5.039
 7312SOL    HW222836   0.238   1.329   4.951
 7313SOL     OW22837   2.613   1.192   0.776
 7313SOL    HW122838   2.655   1.184   0.685
 7313SOL    HW222839   2.680   1.170   0.846
 7314SOL     OW22840   0.286   4.214   6.773
 7314SOL    HW122841   0.288   4.133   6.713
 7314SOL    HW222842   0.285   4.297   6.718
 7315SOL     OW22843   6.418   5.319   2.232
 7315SOL    HW122844   6.484   5.383   2.272
 7315SOL    HW222845   6.328   5.362   2.227
 7316SOL     OW22846   3.208   1.871   6.190
 7316SOL    HW122847   3.198   1.964   6.226
 7316SOL    HW222848   3.144   1.810   6.236
 7317SOL     OW22849   3.350   1.796   2.005
 7317SOL    HW122850   3.252   1.813   1.995
 7317SOL    HW222851   3.380   1.827   2.095
 7318SOL     OW22852   4.195   6.847   2.266
 7318SOL    HW122853   4.168   6.869   2.359
 7318SOL    HW222854   4.179   6.927   2.207
 7319SOL     OW22855   0.186   3.290   6.799
 7319SOL    HW122856   0.128   3.349   6.743
 7319SOL    HW222857   0.275   3.280   6.754
 7320SOL     OW22858   6.736   4.203   1.098
 7320SOL    HW122859   6.791   4.121   1.117
 7320SOL    HW222860   6.783   4.258   1.029
 7321SOL     OW22861   1.694   6.444   6.327
 7321SOL    HW122862   1.595   6.452   6.327
 7321SOL    HW222863   1.723   6.383   6.253
 7322SOL     OW22864   0.760   2.200   3.264
 7322SOL    HW122865   0.811   2.195   3.178
 7322SOL    HW222866   0.764   2.293   3.300
 7323SOL     OW22867   2.524   1.343   1.627
 7323SOL    HW122868   2.555   1.290   1.706
 7323SOL    HW222869   2.598   1.402   1.595
 7324SOL     OW22870   6.012   4.306   2.274
 7324SOL    HW122871   6.051   4.354   2.352
 7324SOL    HW222872   5.920   4.273   2.297
 7325SOL     OW22873   3.197   0.578   5.512
 7325SOL    HW122874   3.260   0.512   5.553
 7325SOL    HW222875   3.159   0.637   5.584
 7326SOL     OW22876   3.685   0.539   6.641
 7326SOL    HW122877   3.706   0.442   6.650
 7326SOL    HW222878   3.603   0.550   6.585
 7327SOL     OW22879   6.026   4.109   3.421
 7327SOL    HW122880   5.994   4.025   3.378
 7327SOL    HW222881   6.101   4.147   3.368
 7328SOL     OW22882   4.191   5.482   5.687
 7328SOL    HW122883   4.164   5.386   5.681
 7328SOL    HW222884   4.285   5.488   5.723
 7329SOL     OW22885   0.449   2.473   0.277
 7329SOL    HW122886   0.401   2.388   0.256
 7329SOL    HW222887   0.542   2.469   0.242
 7330SOL     OW22888   3.037   2.792   1.241
 7330SOL    HW122889   3.077   2.756   1.326
 7330SOL    HW222890   3.013   2.716   1.181
 7331SOL     OW22891   4.650   0.191   1.784
 7331SOL    HW122892   4.587   0.268   1.781
 7331SOL    HW222893   4.687   0.180   1.876
 7332SOL     OW22894   4.095   4.271   0.078
 7332SOL    HW122895   4.123   4.359   0.039
 7332SOL    HW222896   4.001   4.251   0.051
 7333SOL     OW22897   5.920   3.104   3.226
 7333SOL    HW122898   5.899   3.156   3.309
 7333SOL    HW222899   5.878   3.148   3.147
 7334SOL     OW22900   2.647   5.949   6.530
 7334SOL    HW122901   2.649   6.009   6.451
 7334SOL    HW222902   2.651   5.854   6.500
 7335SOL     OW22903   0.087   3.528   2.911
 7335SOL    HW122904   0.160   3.488   2.855
 7335SOL    HW222905   0.125   3.600   2.969
 7336SOL     OW22906   1.630   6.122   0.840
 7336SOL    HW122907   1.635   6.205   0.895
 7336SOL    HW222908   1.703   6.122   0.772
 7337SOL     OW22909   3.383   2.576   1.286
 7337SOL    HW122910   3.480   2.562   1.305
 7337SOL    HW222911   3.357   2.526   1.203
 7338SOL     OW22912   5.700   2.682   1.340
 7338SOL    HW122913   5.726   2.777   1.321
 7338SOL    HW222914   5.610   2.664   1.300
 7339SOL     OW22915   0.123   6.439   5.335
 7339SOL    HW122916   0.203   6.382   5.316
 7339SOL    HW222917   0.120   6.462   5.432
 7340SOL     OW22918   3.263   1.226   0.039
 7340SOL    HW122919   3.286   1.131   0.060
 7340SOL    HW222920   3.303   1.286   0.107
 7341SOL     OW22921   0.981   5.228   4.515
 7341SOL    HW122922   1.034   5.221   4.600
 7341SOL    HW222923   0.976   5.138   4.472
 7342SOL     OW22924   6.533   0.389   0.716
 7342SOL    HW122925   6.538   0.347   0.807
 7342SOL    HW222926   6.618   0.440   0.699
 7343SOL     OW22927   5.708   3.499   2.059
 7343SOL    HW122928   5.752   3.456   1.979
 7343SOL    HW222929   5.774   3.505   2.134
 7344SOL     OW22930   1.821   6.874   6.878
 7344SOL    HW122931   1.769   6.808   6.932
 7344SOL    HW222932   1.782   6.966   6.890
 7345SOL     OW22933   4.661   4.855   6.085
 7345SOL    HW122934   4.685   4.948   6.058
 7345SOL    HW222935   4.717   4.828   6.164
 7346SOL     OW22936   4.033   3.924   1.117
 7346SOL    HW122937   4.029   4.020   1.088
 7346SOL    HW222938   4.056   3.866   1.039
 7347SOL     OW22939   6.670   2.689   2.479
 7347SOL    HW122940   6.608   2.611   2.475
 7347SOL    HW222941   6.630   2.766   2.430
 7348SOL     OW22942   1.620   3.741   3.708
 7348SOL    HW122943   1.626   3.647   3.741
 7348SOL    HW222944   1.709   3.771   3.674
 7349SOL     OW22945   3.613   1.399   1.426
 7349SOL    HW122946   3.646   1.460   1.498
 7349SOL    HW222947   3.663   1.416   1.342
 7350SOL     OW22948   0.382   2.906   3.827
 7350SOL    HW122949   0.309   2.928   3.762
 7350SOL    HW222950   0.365   2.816   3.867
 7351SOL     OW22951   3.935   4.267   6.402
 7351SOL    HW122952   4.033   4.283   6.393
 7351SOL    HW222953   3.906   4.288   6.496
 7352SOL     OW22954   1.356   1.708   3.369
 7352SOL    HW122955   1.283   1.773   3.348
 7352SOL    HW222956   1.318   1.615   3.369
 7353SOL     OW22957   0.436   1.905   5.566
 7353SOL    HW122958   0.362   1.962   5.531
 7353SOL    HW222959   0.489   1.868   5.489
 7354SOL     OW22960   0.080   0.593   6.203
 7354SOL    HW122961   0.114   0.645   6.282
 7354SOL    HW222962   0.106   0.640   6.119
 7355SOL     OW22963   1.580   5.379   1.158
 7355SOL    HW122964   1.633   5.316   1.101
 7355SOL    HW222965   1.492   5.397   1.114
 7356SOL     OW22966   5.539   2.669   6.486
 7356SOL    HW122967   5.572   2.586   6.442
 7356SOL    HW222968   5.484   2.644   6.566
 7357SOL     OW22969   4.834   0.897   1.469
 7357SOL    HW122970   4.813   0.885   1.372
 7357SOL    HW222971   4.927   0.866   1.487
 7358SOL     OW22972   2.776   1.937   2.474
 7358SOL    HW122973   2.837   1.989   2.414
 7358SOL    HW222974   2.809   1.843   2.482
 7359SOL     OW22975   3.348   2.521   0.863
 7359SOL    HW122976   3.365   2.428   0.898
 7359SOL    HW222977   3.435   2.569   0.855
 7360SOL     OW22978   1.868   2.349   5.450
 7360SOL    HW122979   1.947   2.397   5.489
 7360SOL    HW222980   1.889   2.322   5.356
 7361SOL     OW22981   4.716   6.967   1.321
 7361SOL    HW122982   4.805   6.933   1.293
 7361SOL    HW222983   4.727   0.029   1.378
 7362SOL     OW22984   0.805   6.811   4.743
 7362SOL    HW122985   0.792   6.748   4.667
 7362SOL    HW222986   0.800   6.905   4.709
 7363SOL     OW22987   4.964   1.875   0.377
 7363SOL    HW122988   4.966   1.948   0.446
 7363SOL    HW222989   5.057   1.857   0.345
 7364SOL     OW22990   3.736   6.388   1.511
 7364SOL    HW122991   3.720   6.385   1.413
 7364SOL    HW222992   3.691   6.469   1.550
 7365SOL     OW22993   2.855   6.380   2.293
 7365SOL    HW122994   2.786   6.381   2.220
 7365SOL    HW222995   2.824   6.320   2.366
 7366SOL     OW22996   1.159   5.281   0.386
 7366SOL    HW122997   1.206   5.352   0.440
 7366SOL    HW222998   1.066   5.270   0.420
 7367SOL     OW22999   4.157   3.750   0.933
 7367SOL    HW123000   4.232   3.749   0.867
 7367SOL    HW223001   4.101   3.668   0.921
 7368SOL     OW23002   3.079   3.407   3.908
 7368SOL    HW123003   3.019   3.459   3.969
 7368SOL    HW223004   3.113   3.326   3.956
 7369SOL     OW23005   4.940   3.350   0.980
 7369SOL    HW123006   4.908   3.407   0.903
 7369SOL    HW223007   4.864   3.332   1.042
 7370SOL     OW23008   1.917   0.932   6.049
 7370SOL    HW123009   1.978   0.866   6.093
 7370SOL    HW223010   1.911   1.014   6.106
 7371SOL     OW23011   2.987   5.459   4.364
 7371SOL    HW123012   3.027   5.436   4.275
 7371SOL    HW223013   3.003   5.385   4.429
 7372SOL     OW23014   3.406   0.343   5.523
 7372SOL    HW123015   3.451   0.269   5.574
 7372SOL    HW223016   3.333   0.305   5.466
 7373SOL     OW23017   4.697   1.086   3.706
 7373SOL    HW123018   4.671   1.158   3.771
 7373SOL    HW223019   4.666   1.112   3.614
 7374SOL     OW23020   2.136   2.599   5.378
 7374SOL    HW123021   2.167   2.533   5.446
 7374SOL    HW223022   2.090   2.675   5.424
 7375SOL     OW23023   1.566   1.863   4.083
 7375SOL    HW123024   1.504   1.937   4.108
 7375SOL    HW223025   1.596   1.876   3.988
 7376SOL     OW23026   3.230   2.595   6.831
 7376SOL    HW123027   3.242   2.543   6.747
 7376SOL    HW223028   3.289   2.675   6.829
 7377SOL     OW23029   4.428   5.534   2.229
 7377SOL    HW123030   4.512   5.515   2.280
 7377SOL    HW223031   4.372   5.451   2.225
 7378SOL     OW23032   6.818   1.920   4.568
 7378SOL    HW123033   6.754   1.973   4.624
 7378SOL    HW223034   6.805   1.823   4.585
 7379SOL     OW23035   4.513   1.266   2.899
 7379SOL    HW123036   4.598   1.259   2.846
 7379SOL    HW223037   4.445   1.316   2.847
 7380SOL     OW23038   0.576   3.461   5.835
 7380SOL    HW123039   0.492   3.475   5.887
 7380SOL    HW223040   0.656   3.480   5.893
 7381SOL     OW23041   4.806   2.951   2.433
 7381SOL    HW123042   4.787   2.888   2.358
 7381SOL    HW223043   4.742   2.934   2.508
 7382SOL     OW23044   0.083   4.953   4.461
 7382SOL    HW123045   0.123   4.911   4.379
 7382SOL    HW223046   7.008   4.922   4.472
 7383SOL     OW23047   6.708   6.514   2.539
 7383SOL    HW123048   6.779   6.508   2.609
 7383SOL    HW223049   6.747   6.554   2.456
 7384SOL     OW23050   5.261   1.166   1.740
 7384SOL    HW123051   5.196   1.237   1.768
 7384SOL    HW223052   5.300   1.189   1.651
 7385SOL     OW23053   3.784   5.642   2.445
 7385SOL    HW123054   3.824   5.598   2.526
 7385SOL    HW223055   3.857   5.665   2.380
 7386SOL     OW23056   0.966   2.705   5.391
 7386SOL    HW123057   0.886   2.658   5.353
 7386SOL    HW223058   1.027   2.638   5.433
 7387SOL     OW23059   4.624   6.333   4.615
 7387SOL    HW123060   4.705   6.351   4.672
 7387SOL    HW223061   4.637   6.247   4.566
 7388SOL     OW23062   6.934   5.494   3.815
 7388SOL    HW123063   6.974   5.514   3.725
 7388SOL    HW223064   6.901   5.579   3.857
 7389SOL     OW23065   1.191   4.730   6.908
 7389SOL    HW123066   1.228   4.820   6.931
 7389SOL    HW223067   1.265   4.665   6.896
 7390SOL     OW23068   1.558   1.689   6.413
 7390SOL    HW123069   1.497   1.647   6.346
 7390SOL    HW223070   1.591   1.777   6.377
 7391SOL     OW23071   4.726   4.070   5.345
 7391SOL    HW123072   4.637   4.115   5.346
 7391SOL    HW223073   4.713   3.971   5.344
 7392SOL     OW23074   2.555   6.027   6.079
 7392SOL    HW123075   2.524   5.951   6.022
 7392SOL    HW223076   2.579   6.105   6.021
 7393SOL     OW23077   5.762   5.438   1.607
 7393SOL    HW123078   5.835   5.505   1.622
 7393SOL    HW223079   5.787   5.351   1.649
 7394SOL     OW23080   3.495   2.718   6.376
 7394SOL    HW123081   3.437   2.762   6.308
 7394SOL    HW223082   3.498   2.774   6.459
 7395SOL     OW23083   0.840   1.042   6.952
 7395SOL    HW123084   0.852   1.099   6.871
 7395SOL    HW223085   0.930   1.017   6.989
 7396SOL     OW23086   1.462   1.151   6.995
 7396SOL    HW123087   1.450   1.088   0.052
 7396SOL    HW223088   1.555   1.189   6.997
 7397SOL     OW23089   6.463   5.024   4.205
 7397SOL    HW123090   6.539   4.964   4.228
 7397SOL    HW223091   6.376   4.979   4.225
 7398SOL     OW23092   3.546   5.250   4.590
 7398SOL    HW123093   3.551   5.169   4.648
 7398SOL    HW223094   3.637   5.290   4.580
 7399SOL     OW23095   0.711   4.207   5.135
 7399SOL    HW123096   0.718   4.299   5.174
 7399SOL    HW223097   0.782   4.149   5.174
 7400SOL     OW23098   3.017   4.041   0.127
 7400SOL    HW123099   3.096   3.993   0.165
 7400SOL    HW223100   3.047   4.106   0.058
 7401SOL     OW23101   0.415   1.331   3.050
 7401SOL    HW123102   0.341   1.378   3.003
 7401SOL    HW223103   0.416   1.235   3.022
 7402SOL     OW23104   2.090   0.084   4.114
 7402SOL    HW123105   2.036   0.088   4.030
 7402SOL    HW223106   2.110   7.007   4.136
 7403SOL     OW23107   2.204   3.066   3.401
 7403SOL    HW123108   2.198   3.165   3.383
 7403SOL    HW223109   2.216   3.018   3.314
 7404SOL     OW23110   2.288   6.932   1.341
 7404SOL    HW123111   2.250   6.968   1.256
 7404SOL    HW223112   2.307   6.834   1.331
 7405SOL     OW23113   0.986   4.971   4.321
 7405SOL    HW123114   0.993   4.879   4.283
 7405SOL    HW223115   0.973   5.037   4.248
 7406SOL     OW23116   1.680   3.393   2.418
 7406SOL    HW123117   1.664   3.380   2.516
 7406SOL    HW223118   1.732   3.477   2.403
 7407SOL     OW23119   0.482   6.382   4.852
 7407SOL    HW123120   0.395   6.417   4.817
 7407SOL    HW223121   0.471   6.285   4.877
 7408SOL     OW23122   1.316   4.246   5.388
 7408SOL    HW123123   1.349   4.340   5.378
 7408SOL    HW223124   1.382   4.183   5.347
 7409SOL     OW23125   0.478   1.117   4.665
 7409SOL    HW123126   0.409   1.177   4.706
 7409SOL    HW223127   0.567   1.161   4.668
 7410SOL     OW23128   6.724   5.222   0.874
 7410SOL    HW123129   6.784   5.242   0.796
 7410SOL    HW223130   6.778   5.191   0.951
 7411SOL     OW23131   2.561   0.044   4.264
 7411SOL    HW123132   2.533   6.984   4.317
 7411SOL    HW223133   2.661   0.050   4.262
 7412SOL     OW23134   3.328   1.221   1.065
 7412SOL    HW123135   3.407   1.161   1.050
 7412SOL    HW223136   3.344   1.309   1.021
 7413SOL     OW23137   0.234   4.635   3.833
 7413SOL    HW123138   0.205   4.540   3.842
 7413SOL    HW223139   0.326   4.639   3.794
 7414SOL     OW23140   0.001   0.020   2.500
 7414SOL    HW123141   6.948   0.089   2.495
 7414SOL    HW223142   7.006   6.982   2.581
 7415SOL     OW23143   0.659   3.877   2.975
 7415SOL    HW123144   0.722   3.823   3.032
 7415SOL    HW223145   0.711   3.925   2.904
 7416SOL     OW23146   3.612   0.732   3.958
 7416SOL    HW123147   3.568   0.642   3.955
 7416SOL    HW223148   3.683   0.736   3.888
 7417SOL     OW23149   1.265   0.063   5.997
 7417SOL    HW123150   1.239   6.996   5.954
 7417SOL    HW223151   1.242   0.138   5.935
 7418SOL     OW23152   3.507   4.482   0.961
 7418SOL    HW123153   3.445   4.429   0.902
 7418SOL    HW223154   3.562   4.544   0.904
 7419SOL     OW23155   6.405   2.102   4.923
 7419SOL    HW123156   6.353   2.086   5.008
 7419SOL    HW223157   6.402   2.199   4.900
 7420SOL     OW23158   6.288   6.628   2.775
 7420SOL    HW123159   6.317   6.698   2.711
 7420SOL    HW223160   6.322   6.651   2.867
 7421SOL     OW23161   2.588   2.766   1.193
 7421SOL    HW123162   2.609   2.714   1.110
 7421SOL    HW223163   2.653   2.742   1.265
 7422SOL     OW23164   0.370   3.334   2.351
 7422SOL    HW123165   0.381   3.255   2.411
 7422SOL    HW223166   0.278   3.370   2.359
 7423SOL     OW23167   0.301   4.133   6.214
 7423SOL    HW123168   0.378   4.076   6.243
 7423SOL    HW223169   0.216   4.083   6.225
 7424SOL     OW23170   5.965   1.184   4.315
 7424SOL    HW123171   6.008   1.096   4.293
 7424SOL    HW223172   6.025   1.259   4.288
 7425SOL     OW23173   4.163   4.830   6.709
 7425SOL    HW123174   4.181   4.928   6.712
 7425SOL    HW223175   4.243   4.782   6.672
 7426SOL     OW23176   0.728   2.184   6.724
 7426SOL    HW123177   0.639   2.224   6.746
 7426SOL    HW223178   0.788   2.255   6.687
 7427SOL     OW23179   3.191   5.948   5.096
 7427SOL    HW123180   3.159   5.967   5.188
 7427SOL    HW223181   3.115   5.956   5.031
 7428SOL     OW23182   3.375   1.736   5.440
 7428SOL    HW123183   3.472   1.735   5.416
 7428SOL    HW223184   3.352   1.824   5.481
 7429SOL     OW23185   6.035   0.349   2.809
 7429SOL    HW123186   6.118   0.400   2.786
 7429SOL    HW223187   6.030   0.337   2.908
 7430SOL     OW23188   0.053   4.573   5.894
 7430SOL    HW123189   0.105   4.496   5.931
 7430SOL    HW223190   0.108   4.656   5.899
 7431SOL     OW23191   0.208   4.233   2.477
 7431SOL    HW123192   0.248   4.287   2.552
 7431SOL    HW223193   0.274   4.225   2.403
 7432SOL     OW23194   0.598   6.591   3.887
 7432SOL    HW123195   0.529   6.659   3.911
 7432SOL    HW223196   0.688   6.635   3.882
 7433SOL     OW23197   6.575   5.405   0.290
 7433SOL    HW123198   6.549   5.501   0.300
 7433SOL    HW223199   6.515   5.348   0.347
 7434SOL     OW23200   3.884   0.841   6.506
 7434SOL    HW123201   3.980   0.835   6.536
 7434SOL    HW223202   3.878   0.898   6.424
 7435SOL     OW23203   3.135   6.549   6.851
 7435SOL    HW123204   3.196   6.627   6.831
 7435SOL    HW223205   3.137   6.485   6.774
 7436SOL     OW23206   0.056   3.202   6.335
 7436SOL    HW123207   0.134   3.210   6.397
 7436SOL    HW223208   0.064   3.118   6.281
 7437SOL     OW23209   0.033   5.726   7.001
 7437SOL    HW123210   0.032   5.689   6.908
 7437SOL    HW223211   6.960   5.720   0.020
 7438SOL     OW23212   1.135   4.199   0.855
 7438SOL    HW123213   1.096   4.109   0.835
 7438SOL    HW223214   1.132   4.255   0.772
 7439SOL     OW23215   2.562   6.855   3.859
 7439SOL    HW123216   2.560   6.764   3.901
 7439SOL    HW223217   2.486   6.863   3.795
 7440SOL     OW23218   1.003   2.972   4.404
 7440SOL    HW123219   0.990   2.939   4.497
 7440SOL    HW223220   0.914   2.989   4.361
 7441SOL     OW23221   5.829   6.479   4.501
 7441SOL    HW123222   5.867   6.571   4.490
 7441SOL    HW223223   5.902   6.411   4.491
 7442SOL     OW23224   0.892   0.742   6.085
 7442SOL    HW123225   0.960   0.763   6.155
 7442SOL    HW223226   0.814   0.804   6.095
 7443SOL     OW23227   0.187   1.584   1.377
 7443SOL    HW123228   0.150   1.561   1.287
 7443SOL    HW223229   0.116   1.630   1.431
 7444SOL     OW23230   0.580   3.549   5.551
 7444SOL    HW123231   0.566   3.463   5.502
 7444SOL    HW223232   0.579   3.532   5.650
 7445SOL     OW23233   3.985   1.009   1.488
 7445SOL    HW123234   3.984   1.051   1.578
 7445SOL    HW223235   4.015   0.914   1.495
 7446SOL     OW23236   5.411   5.132   0.309
 7446SOL    HW123237   5.477   5.065   0.274
 7446SOL    HW223238   5.453   5.186   0.382
 7447SOL     OW23239   2.506   3.646   6.907
 7447SOL    HW123240   2.530   3.590   6.986
 7447SOL    HW223241   2.580   3.645   6.841
 7448SOL     OW23242   5.315   6.062   6.060
 7448SOL    HW123243   5.224   6.095   6.036
 7448SOL    HW223244   5.309   5.969   6.095
 7449SOL     OW23245   4.734   2.752   2.223
 7449SOL    HW123246   4.658   2.698   2.187
 7449SOL    HW223247   4.794   2.779   2.148
 7450SOL     OW23248   5.308   2.819   4.519
 7450SOL    HW123249   5.260   2.907   4.512
 7450SOL    HW223250   5.240   2.745   4.524
 7451SOL     OW23251   1.744   0.415   3.442
 7451SOL    HW123252   1.671   0.478   3.467
 7451SOL    HW223253   1.774   0.433   3.348
 7452SOL     OW23254   1.084   0.126   4.828
 7452SOL    HW123255   0.987   0.144   4.814
 7452SOL    HW223256   1.136   0.157   4.749
 7453SOL     OW23257   5.553   5.618   5.165
 7453SOL    HW123258   5.651   5.601   5.161
 7453SOL    HW223259   5.535   5.694   5.228
 7454SOL     OW23260   0.955   3.065   2.108
 7454SOL    HW123261   0.936   3.128   2.033
 7454SOL    HW223262   1.002   2.984   2.073
 7455SOL     OW23263   7.002   1.375   1.672
 7455SOL    HW123264   0.006   1.319   1.751
 7455SOL    HW223265   6.908   1.408   1.681
 7456SOL     OW23266   1.270   1.998   4.331
 7456SOL    HW123267   1.361   1.994   4.290
 7456SOL    HW223268   1.251   2.091   4.362
 7457SOL     OW23269   4.144   0.751   6.548
 7457SOL    HW123270   4.218   0.735   6.483
 7457SOL    HW223271   4.079   0.675   6.543
 7458SOL     OW23272   1.693   0.098   6.960
 7458SOL    HW123273   1.729   0.171   7.018
 7458SOL    HW223274   1.645   0.138   6.881
 7459SOL     OW23275   4.424   0.167   0.017
 7459SOL    HW123276   4.407   0.073   7.007
 7459SOL    HW223277   4.466   0.219   6.962
 7460SOL     OW23278   2.263   4.499   0.269
 7460SOL    HW123279   2.217   4.466   0.187
 7460SOL    HW223280   2.340   4.557   0.243
 7461SOL     OW23281   4.877   1.546   5.513
 7461SOL    HW123282   4.858   1.581   5.604
 7461SOL    HW223283   4.854   1.616   5.445
 7462SOL     OW23284   1.721   2.716   2.215
 7462SOL    HW123285   1.632   2.676   2.238
 7462SOL    HW223286   1.745   2.690   2.121
 7463SOL     OW23287   3.923   3.801   1.400
 7463SOL    HW123288   3.838   3.748   1.389
 7463SOL    HW223289   3.977   3.795   1.316
 7464SOL     OW23290   3.660   6.453   6.401
 7464SOL    HW123291   3.682   6.477   6.496
 7464SOL    HW223292   3.563   6.469   6.384
 7465SOL     OW23293   1.468   0.361   1.091
 7465SOL    HW123294   1.525   0.442   1.081
 7465SOL    HW223295   1.463   0.312   1.004
 7466SOL     OW23296   0.350   0.926   6.717
 7466SOL    HW123297   0.437   0.930   6.668
 7466SOL    HW223298   0.367   0.937   6.815
 7467SOL     OW23299   6.290   2.085   1.164
 7467SOL    HW123300   6.235   2.048   1.089
 7467SOL    HW223301   6.243   2.163   1.205
 7468SOL     OW23302   5.155   2.437   2.247
 7468SOL    HW123303   5.159   2.440   2.347
 7468SOL    HW223304   5.129   2.528   2.212
 7469SOL     OW23305   0.651   0.235   7.016
 7469SOL    HW123306   0.607   0.160   0.045
 7469SOL    HW223307   0.591   0.268   6.943
 7470SOL     OW23308   0.183   3.064   3.638
 7470SOL    HW123309   0.102   3.090   3.584
 7470SOL    HW223310   0.246   3.142   3.641
 7471SOL     OW23311   6.036   6.929   4.304
 7471SOL    HW123312   6.009   6.899   4.212
 7471SOL    HW223313   6.136   6.942   4.306
 7472SOL     OW23314   5.627   6.525   3.862
 7472SOL    HW123315   5.559   6.458   3.833
 7472SOL    HW223316   5.592   6.577   3.939
 7473SOL     OW23317   6.969   4.800   3.144
 7473SOL    HW123318   6.995   4.787   3.048
 7473SOL    HW223319   7.003   4.888   3.176
 7474SOL     OW23320   3.132   0.978   4.825
 7474SOL    HW123321   3.090   0.902   4.875
 7474SOL    HW223322   3.192   1.030   4.886
 7475SOL     OW23323   4.162   1.644   2.676
 7475SOL    HW123324   4.210   1.665   2.591
 7475SOL    HW223325   4.071   1.610   2.655
 7476SOL     OW23326   4.053   6.448   4.367
 7476SOL    HW123327   4.150   6.440   4.343
 7476SOL    HW223328   3.998   6.401   4.298
 7477SOL     OW23329   4.967   1.067   4.065
 7477SOL    HW123330   4.964   0.968   4.050
 7477SOL    HW223331   4.944   1.114   3.979
 7478SOL     OW23332   3.906   3.667   6.514
 7478SOL    HW123333   3.889   3.584   6.461
 7478SOL    HW223334   3.887   3.747   6.458
 7479SOL     OW23335   4.203   2.738   0.993
 7479SOL    HW123336   4.154   2.662   1.034
 7479SOL    HW223337   4.163   2.824   1.024
 7480SOL     OW23338   6.007   5.613   1.476
 7480SOL    HW123339   6.088   5.670   1.488
 7480SOL    HW223340   6.032   5.517   1.480
 7481SOL     OW23341   5.293   5.387   1.501
 7481SOL    HW123342   5.256   5.313   1.444
 7481SOL    HW223343   5.256   5.475   1.470
 7482SOL     OW23344   4.524   1.685   2.484
 7482SOL    HW123345   4.491   1.646   2.398
 7482SOL    HW223346   4.563   1.775   2.467
 7483SOL     OW23347   4.088   1.907   4.692
 7483SOL    HW123348   4.132   1.992   4.722
 7483SOL    HW223349   4.153   1.831   4.702
 7484SOL     OW23350   6.569   0.276   2.218
 7484SOL    HW123351   6.592   0.342   2.147
 7484SOL    HW223352   6.474   0.247   2.207
 7485SOL     OW23353   3.275   6.130   5.483
 7485SOL    HW123354   3.259   6.164   5.575
 7485SOL    HW223355   3.340   6.054   5.486
 7486SOL     OW23356   2.377   0.028   5.779
 7486SOL    HW123357   2.321   6.976   5.737
 7486SOL    HW223358   2.317   0.101   5.813
 7487SOL     OW23359   2.165   6.308   2.340
 7487SOL    HW123360   2.181   6.290   2.437
 7487SOL    HW223361   2.241   6.361   2.303
 7488SOL     OW23362   1.886   6.499   5.052
 7488SOL    HW123363   1.893   6.416   5.107
 7488SOL    HW223364   1.801   6.546   5.075
 7489SOL     OW23365   5.186   2.706   5.277
 7489SOL    HW123366   5.126   2.774   5.318
 7489SOL    HW223367   5.144   2.669   5.194
 7490SOL     OW23368   0.980   1.594   1.192
 7490SOL    HW123369   1.021   1.508   1.163
 7490SOL    HW223370   1.023   1.625   1.277
 7491SOL     OW23371   0.124   4.727   6.564
 7491SOL    HW123372   0.030   4.736   6.597
 7491SOL    HW223373   0.133   4.640   6.514
 7492SOL     OW23374   2.455   1.651   4.694
 7492SOL    HW123375   2.476   1.723   4.760
 7492SOL    HW223376   2.434   1.691   4.606
 7493SOL     OW23377   5.903   4.306   6.398
 7493SOL    HW123378   5.945   4.379   6.343
 7493SOL    HW223379   5.939   4.218   6.367
 7494SOL     OW23380   5.886   1.281   2.830
 7494SOL    HW123381   5.787   1.289   2.831
 7494SOL    HW223382   5.916   1.247   2.741
 7495SOL     OW23383   2.354   1.402   1.055
 7495SOL    HW123384   2.381   1.389   1.151
 7495SOL    HW223385   2.435   1.423   1.001
 7496SOL     OW23386   0.611   3.714   6.386
 7496SOL    HW123387   0.641   3.763   6.467
 7496SOL    HW223388   0.681   3.647   6.359
 7497SOL     OW23389   3.010   4.729   1.199
 7497SOL    HW123390   3.099   4.695   1.227
 7497SOL    HW223391   2.952   4.741   1.279
 7498SOL     OW23392   2.333   0.882   4.238
 7498SOL    HW123393   2.315   0.927   4.151
 7498SOL    HW223394   2.355   0.950   4.308
 7499SOL     OW23395   6.557   0.818   3.409
 7499SOL    HW123396   6.470   0.862   3.433
 7499SOL    HW223397   6.539   0.728   3.371
 7500SOL     OW23398   4.213   6.370   3.035
 7500SOL    HW123399   4.143   6.338   2.972
 7500SOL    HW223400   4.273   6.436   2.989
 7501SOL     OW23401   6.608   4.069   4.379
 7501SOL    HW123402   6.653   4.054   4.291
 7501SOL    HW223403   6.579   4.164   4.386
 7502SOL     OW23404   1.300   0.883   5.285
 7502SOL    HW123405   1.298   0.846   5.193
 7502SOL    HW223406   1.332   0.978   5.282
 7503SOL     OW23407   2.518   1.174   0.370
 7503SOL    HW123408   2.451   1.218   0.430
 7503SOL    HW223409   2.477   1.092   0.329
 7504SOL     OW23410   3.541   0.292   3.198
 7504SOL    HW123411   3.623   0.261   3.150
 7504SOL    HW223412   3.519   0.385   3.170
 7505SOL     OW23413   2.606   0.627   5.260
 7505SOL    HW123414   2.519   0.668   5.286
 7505SOL    HW223415   2.597   0.527   5.258
 7506SOL     OW23416   4.070   6.954   2.585
 7506SOL    HW123417   3.990   7.006   2.615
 7506SOL    HW223418   4.141   7.018   2.555
 7507SOL     OW23419   6.981   0.174   1.189
 7507SOL    HW123420   7.002   0.109   1.262
 7507SOL    HW223421   0.046   0.216   1.156
 7508SOL     OW23422   5.434   6.973   2.178
 7508SOL    HW123423   5.419   6.881   2.140
 7508SOL    HW223424   5.346   7.019   2.190
 7509SOL     OW23425   5.516   4.506   0.994
 7509SOL    HW123426   5.585   4.437   1.018
 7509SOL    HW223427   5.427   4.461   0.984
 7510SOL     OW23428   2.665   4.222   5.728
 7510SOL    HW123429   2.684   4.191   5.821
 7510SOL    HW223430   2.749   4.254   5.685
 7511SOL     OW23431   1.569   0.938   3.028
 7511SOL    HW123432   1.614   0.925   3.117
 7511SOL    HW223433   1.521   1.025   3.027
 7512SOL     OW23434   2.866   4.483   1.486
 7512SOL    HW123435   2.932   4.461   1.415
 7512SOL    HW223436   2.856   4.583   1.492
 7513SOL     OW23437   1.934   2.307   0.920
 7513SOL    HW123438   2.027   2.329   0.892
 7513SOL    HW223439   1.883   2.392   0.935
 7514SOL     OW23440   2.848   5.955   2.158
 7514SOL    HW123441   2.777   5.938   2.226
 7514SOL    HW223442   2.938   5.949   2.203
 7515SOL     OW23443   1.839   6.440   2.362
 7515SOL    HW123444   1.852   6.350   2.404
 7515SOL    HW223445   1.793   6.501   2.427
 7516SOL     OW23446   0.222   5.694   4.638
 7516SOL    HW123447   0.212   5.763   4.567
 7516SOL    HW223448   0.204   5.735   4.727
 7517SOL     OW23449   6.810   3.614   1.633
 7517SOL    HW123450   6.820   3.696   1.576
 7517SOL    HW223451   6.864   3.539   1.594
 7518SOL     OW23452   3.922   5.762   3.721
 7518SOL    HW123453   4.009   5.744   3.675
 7518SOL    HW223454   3.863   5.814   3.660
 7519SOL     OW23455   0.401   6.834   3.794
 7519SOL    HW123456   0.305   6.806   3.799
 7519SOL    HW223457   0.438   6.812   3.704
 7520SOL     OW23458   2.689   0.118   2.294
 7520SOL    HW123459   2.626   0.151   2.365
 7520SOL    HW223460   2.689   0.183   2.218
 7521SOL     OW23461   4.367   4.341   5.726
 7521SOL    HW123462   4.450   4.396   5.734
 7521SOL    HW223463   4.372   4.285   5.643
 7522SOL     OW23464   2.967   0.995   6.397
 7522SOL    HW123465   3.015   0.911   6.372
 7522SOL    HW223466   2.998   1.070   6.339
 7523SOL     OW23467   5.333   1.118   5.896
 7523SOL    HW123468   5.402   1.168   5.844
 7523SOL    HW223469   5.324   1.025   5.859
 7524SOL     OW23470   0.670   2.578   6.175
 7524SOL    HW123471   0.751   2.524   6.198
 7524SOL    HW223472   0.678   2.669   6.215
 7525SOL     OW23473   2.685   6.969   6.666
 7525SOL    HW123474   2.653   6.959   6.760
 7525SOL    HW223475   2.673   0.044   6.636
 7526SOL     OW23476   3.632   2.916   2.419
 7526SOL    HW123477   3.549   2.893   2.368
 7526SOL    HW223478   3.610   2.929   2.516
 7527SOL     OW23479   4.406   5.760   3.498
 7527SOL    HW123480   4.385   5.827   3.426
 7527SOL    HW223481   4.393   5.668   3.462
 7528SOL     OW23482   4.311   2.507   6.869
 7528SOL    HW123483   4.244   2.508   6.943
 7528SOL    HW223484   4.263   2.510   6.781
 7529SOL     OW23485   5.932   1.316   4.562
 7529SOL    HW123486   5.936   1.251   4.486
 7529SOL    HW223487   6.024   1.328   4.601
 7530SOL     OW23488   6.121   3.594   2.447
 7530SOL    HW123489   6.131   3.517   2.384
 7530SOL    HW223490   6.154   3.677   2.403
 7531SOL     OW23491   4.092   2.134   4.036
 7531SOL    HW123492   4.001   2.101   4.010
 7531SOL    HW223493   4.139   2.064   4.090
 7532SOL     OW23494   4.963   5.491   1.563
 7532SOL    HW123495   4.926   5.567   1.616
 7532SOL    HW223496   4.936   5.500   1.468
 7533SOL     OW23497   2.856   0.803   3.170
 7533SOL    HW123498   2.956   0.800   3.182
 7533SOL    HW223499   2.833   0.878   3.108
 7534SOL     OW23500   3.411   6.967   5.036
 7534SOL    HW123501   3.460   0.031   5.059
 7534SOL    HW223502   3.364   6.978   4.948
 7535SOL     OW23503   2.527   1.033   5.736
 7535SOL    HW123504   2.491   1.126   5.726
 7535SOL    HW223505   2.488   0.974   5.666
 7536SOL     OW23506   5.247   4.603   4.897
 7536SOL    HW123507   5.309   4.525   4.901
 7536SOL    HW223508   5.162   4.577   4.853
 7537SOL     OW23509   2.392   5.072   4.923
 7537SOL    HW123510   2.461   5.002   4.903
 7537SOL    HW223511   2.308   5.053   4.872
 7538SOL     OW23512   3.087   3.236   1.804
 7538SOL    HW123513   3.140   3.321   1.803
 7538SOL    HW223514   3.106   3.185   1.888
 7539SOL     OW23515   2.691   2.417   4.597
 7539SOL    HW123516   2.622   2.486   4.619
 7539SOL    HW223517   2.672   2.377   4.508
 7540SOL     OW23518   2.930   0.996   5.632
 7540SOL    HW123519   3.015   1.046   5.653
 7540SOL    HW223520   2.856   1.032   5.689
 7541SOL     OW23521   6.784   3.495   4.458
 7541SOL    HW123522   6.802   3.466   4.364
 7541SOL    HW223523   6.695   3.540   4.463
 7542SOL     OW23524   0.261   6.470   6.731
 7542SOL    HW123525   0.243   6.382   6.774
 7542SOL    HW223526   0.314   6.456   6.647
 7543SOL     OW23527   4.064   1.869   0.768
 7543SOL    HW123528   4.110   1.918   0.695
 7543SOL    HW223529   4.088   1.910   0.856
 7544SOL     OW23530   0.593   2.407   3.934
 7544SOL    HW123531   0.495   2.415   3.914
 7544SOL    HW223532   0.645   2.410   3.849
 7545SOL     OW23533   5.528   6.963   2.952
 7545SOL    HW123534   5.471   7.014   2.887
 7545SOL    HW223535   5.623   6.966   2.922
 7546SOL     OW23536   4.471   0.768   1.437
 7546SOL    HW123537   4.448   0.846   1.494
 7546SOL    HW223538   4.402   0.759   1.364
 7547SOL     OW23539   3.719   6.407   0.684
 7547SOL    HW123540   3.658   6.448   0.616
 7547SOL    HW223541   3.785   6.475   0.715
 7548SOL     OW23542   3.136   1.957   0.416
 7548SOL    HW123543   3.075   1.990   0.344
 7548SOL    HW223544   3.082   1.921   0.492
 7549SOL     OW23545   6.249   2.032   1.523
 7549SOL    HW123546   6.154   2.013   1.496
 7549SOL    HW223547   6.304   1.949   1.513
 7550SOL     OW23548   2.440   4.865   2.036
 7550SOL    HW123549   2.420   4.847   2.132
 7550SOL    HW223550   2.539   4.868   2.023
 7551SOL     OW23551   4.494   4.295   0.113
 7551SOL    HW123552   4.426   4.323   0.046
 7551SOL    HW223553   4.582   4.278   0.068
 7552SOL     OW23554   1.920   5.690   3.855
 7552SOL    HW123555   1.852   5.619   3.872
 7552SOL    HW223556   2.011   5.648   3.848
 7553SOL     OW23557   4.077   5.033   5.277
 7553SOL    HW123558   4.061   5.103   5.207
 7553SOL    HW223559   4.011   5.046   5.352
 7554SOL     OW23560   4.934   0.834   0.726
 7554SOL    HW123561   5.001   0.765   0.753
 7554SOL    HW223562   4.856   0.790   0.682
 7555SOL     OW23563   1.383   4.766   4.606
 7555SOL    HW123564   1.283   4.756   4.598
 7555SOL    HW223565   1.420   4.686   4.654
 7556SOL     OW23566   0.693   2.302   5.308
 7556SOL    HW123567   0.673   2.226   5.371
 7556SOL    HW223568   0.737   2.266   5.225
 7557SOL     OW23569   5.732   3.237   6.178
 7557SOL    HW123570   5.758   3.252   6.083
 7557SOL    HW223571   5.737   3.139   6.198
 7558SOL     OW23572   2.581   2.522   3.661
 7558SOL    HW123573   2.497   2.574   3.647
 7558SOL    HW223574   2.653   2.584   3.692
 7559SOL     OW23575   6.583   5.911   0.904
 7559SOL    HW123576   6.635   5.842   0.956
 7559SOL    HW223577   6.487   5.904   0.929
 7560SOL     OW23578   5.463   6.332   6.969
 7560SOL    HW123579   5.364   6.321   6.955
 7560SOL    HW223580   5.505   6.241   6.974
 7561SOL     OW23581   0.717   3.160   0.593
 7561SOL    HW123582   0.694   3.158   0.690
 7561SOL    HW223583   0.658   3.096   0.543
 7562SOL     OW23584   5.097   6.121   4.806
 7562SOL    HW123585   5.009   6.102   4.763
 7562SOL    HW223586   5.114   6.053   4.878
 7563SOL     OW23587   2.651   0.110   0.544
 7563SOL    HW123588   2.659   0.132   0.641
 7563SOL    HW223589   2.680   0.189   0.489
 7564SOL     OW23590   4.867   1.646   2.575
 7564SOL    HW123591   4.802   1.712   2.611
 7564SOL    HW223592   4.817   1.567   2.537
 7565SOL     OW23593   4.884   4.856   0.277
 7565SOL    HW123594   4.930   4.943   0.292
 7565SOL    HW223595   4.886   4.834   0.179
 7566SOL     OW23596   0.972   5.049   2.921
 7566SOL    HW123597   0.995   5.018   3.014
 7566SOL    HW223598   0.896   4.994   2.885
 7567SOL     OW23599   2.320   2.368   5.053
 7567SOL    HW123600   2.231   2.338   5.020
 7567SOL    HW223601   2.311   2.458   5.096
 7568SOL     OW23602   5.648   6.054   3.468
 7568SOL    HW123603   5.684   6.131   3.414
 7568SOL    HW223604   5.704   6.043   3.550
 7569SOL     OW23605   4.239   4.682   6.109
 7569SOL    HW123606   4.222   4.753   6.041
 7569SOL    HW223607   4.266   4.725   6.196
 7570SOL     OW23608   5.351   4.625   5.755
 7570SOL    HW123609   5.441   4.652   5.720
 7570SOL    HW223610   5.325   4.685   5.830
 7571SOL     OW23611   5.492   4.841   2.380
 7571SOL    HW123612   5.546   4.776   2.325
 7571SOL    HW223613   5.405   4.799   2.404
 7572SOL     OW23614   5.309   0.559   3.459
 7572SOL    HW123615   5.332   0.515   3.546
 7572SOL    HW223616   5.250   0.498   3.405
 7573SOL     OW23617   5.983   5.792   4.499
 7573SOL    HW123618   6.069   5.779   4.450
 7573SOL    HW223619   5.930   5.707   4.498
 7574SOL     OW23620   6.725   1.013   4.937
 7574SOL    HW123621   6.703   1.066   5.018
 7574SOL    HW223622   6.803   1.055   4.890
 7575SOL     OW23623   4.793   0.403   5.507
 7575SOL    HW123624   4.798   0.395   5.408
 7575SOL    HW223625   4.763   0.496   5.531
 7576SOL     OW23626   6.030   5.835   0.466
 7576SOL    HW123627   6.071   5.744   0.461
 7576SOL    HW223628   6.085   5.899   0.412
 7577SOL     OW23629   6.836   6.877   5.386
 7577SOL    HW123630   6.882   6.820   5.454
 7577SOL    HW223631   6.857   6.843   5.294
 7578SOL     OW23632   2.083   6.221   3.619
 7578SOL    HW123633   2.162   6.163   3.598
 7578SOL    HW223634   2.001   6.180   3.580
 7579SOL     OW23635   4.684   1.909   2.391
 7579SOL    HW123636   4.607   1.965   2.362
 7579SOL    HW223637   4.768   1.961   2.383
 7580SOL     OW23638   1.539   4.363   3.748
 7580SOL    HW123639   1.451   4.395   3.713
 7580SOL    HW223640   1.607   4.363   3.674
 7581SOL     OW23641   4.905   0.792   1.017
 7581SOL    HW123642   4.919   0.775   0.919
 7581SOL    HW223643   4.923   0.889   1.037
 7582SOL     OW23644   3.141   0.716   0.081
 7582SOL    HW123645   3.188   0.651   0.141
 7582SOL    HW223646   3.146   0.685   7.006
 7583SOL     OW23647   5.855   3.755   1.227
 7583SOL    HW123648   5.947   3.723   1.203
 7583SOL    HW223649   5.787   3.708   1.171
 7584SOL     OW23650   3.151   6.798   0.806
 7584SOL    HW123651   3.094   6.861   0.859
 7584SOL    HW223652   3.125   6.803   0.709
 7585SOL     OW23653   1.765   2.953   6.076
 7585SOL    HW123654   1.845   2.904   6.042
 7585SOL    HW223655   1.749   3.034   6.019
 7586SOL     OW23656   3.578   0.456   3.452
 7586SOL    HW123657   3.593   0.364   3.416
 7586SOL    HW223658   3.516   0.451   3.531
 7587SOL     OW23659   3.580   1.402   6.573
 7587SOL    HW123660   3.548   1.361   6.487
 7587SOL    HW223661   3.515   1.380   6.646
 7588SOL     OW23662   0.779   3.361   2.099
 7588SOL    HW123663   0.724   3.342   2.180
 7588SOL    HW223664   0.758   3.295   2.028
 7589SOL     OW23665   5.780   0.029   0.692
 7589SOL    HW123666   5.748   0.056   0.601
 7589SOL    HW223667   5.856   6.984   0.683
 7590SOL     OW23668   2.811   2.030   6.612
 7590SOL    HW123669   2.805   1.940   6.654
 7590SOL    HW223670   2.724   2.078   6.624
 7591SOL     OW23671   6.729   5.278   0.504
 7591SOL    HW123672   6.674   5.300   0.423
 7591SOL    HW223673   6.826   5.291   0.483
 7592SOL     OW23674   0.002   4.528   6.810
 7592SOL    HW123675   7.004   4.447   6.755
 7592SOL    HW223676   0.101   4.545   6.813
 7593SOL     OW23677   4.822   2.450   0.850
 7593SOL    HW123678   4.799   2.378   0.785
 7593SOL    HW223679   4.751   2.456   0.920
 7594SOL     OW23680   6.984   4.373   2.627
 7594SOL    HW123681   0.044   4.314   2.614
 7594SOL    HW223682   7.013   4.469   2.620
 7595SOL     OW23683   6.919   2.388   6.081
 7595SOL    HW123684   6.847   2.439   6.033
 7595SOL    HW223685   6.995   2.449   6.103
 7596SOL     OW23686   4.239   5.017   2.834
 7596SOL    HW123687   4.262   4.933   2.882
 7596SOL    HW223688   4.145   5.012   2.800
 7597SOL     OW23689   2.719   5.664   1.560
 7597SOL    HW123690   2.792   5.596   1.568
 7597SOL    HW223691   2.759   5.753   1.537
 7598SOL     OW23692   0.071   1.237   3.017
 7598SOL    HW123693   0.072   1.188   2.930
 7598SOL    HW223694   0.058   1.334   3.001
 7599SOL     OW23695   6.031   1.455   3.684
 7599SOL    HW123696   6.092   1.411   3.617
 7599SOL    HW223697   5.957   1.392   3.708
 7600SOL     OW23698   1.711   0.488   2.759
 7600SOL    HW123699   1.686   0.527   2.848
 7600SOL    HW223700   1.684   0.551   2.686
 7601SOL     OW23701   2.100   5.747   2.755
 7601SOL    HW123702   2.077   5.844   2.743
 7601SOL    HW223703   2.109   5.704   2.665
 7602SOL     OW23704   2.098   3.884   5.846
 7602SOL    HW123705   2.100   3.863   5.944
 7602SOL    HW223706   2.145   3.812   5.796
 7603SOL     OW23707   1.176   5.732   6.004
 7603SOL    HW123708   1.095   5.773   5.962
 7603SOL    HW223709   1.152   5.643   6.043
 7604SOL     OW23710   2.637   4.599   4.205
 7604SOL    HW123711   2.617   4.580   4.301
 7604SOL    HW223712   2.552   4.614   4.155
 7605SOL     OW23713   1.708   6.354   0.438
 7605SOL    HW123714   1.739   6.420   0.370
 7605SOL    HW223715   1.610   6.336   0.426
 7606SOL     OW23716   0.177   2.960   3.047
 7606SOL    HW123717   0.258   2.903   3.066
 7606SOL    HW223718   0.133   2.928   2.963
 7607SOL     OW23719   4.508   6.257   0.379
 7607SOL    HW123720   4.445   6.182   0.401
 7607SOL    HW223721   4.574   6.268   0.454
 7608SOL     OW23722   3.322   4.164   2.848
 7608SOL    HW123723   3.244   4.107   2.873
 7608SOL    HW223724   3.293   4.260   2.845
 7609SOL     OW23725   6.960   4.331   3.447
 7609SOL    HW123726   6.951   4.409   3.384
 7609SOL    HW223727   6.971   4.365   3.540
 7610SOL     OW23728   6.106   6.993   6.577
 7610SOL    HW123729   6.027   0.031   6.599
 7610SOL    HW223730   6.073   6.903   6.548
 7611SOL     OW23731   0.857   2.219   0.152
 7611SOL    HW123732   0.849   2.119   0.154
 7611SOL    HW223733   0.895   2.251   0.238
 7612SOL     OW23734   4.575   2.508   4.695
 7612SOL    HW123735   4.494   2.452   4.714
 7612SOL    HW223736   4.580   2.526   4.597
 7613SOL     OW23737   5.395   2.101   1.845
 7613SOL    HW123738   5.344   2.175   1.801
 7613SOL    HW223739   5.385   2.108   1.944
 7614SOL     OW23740   5.106   2.911   1.546
 7614SOL    HW123741   5.155   2.927   1.461
 7614SOL    HW223742   5.022   2.860   1.528
 7615SOL     OW23743   4.888   4.321   5.974
 7615SOL    HW123744   4.938   4.405   5.991
 7615SOL    HW223745   4.790   4.339   5.976
 7616SOL     OW23746   6.647   4.385   4.449
 7616SOL    HW123747   6.681   4.430   4.532
 7616SOL    HW223748   6.718   4.387   4.378
 7617SOL     OW23749   3.060   5.594   2.616
 7617SOL    HW123750   3.032   5.500   2.598
 7617SOL    HW223751   2.979   5.649   2.636
 7618SOL     OW23752   0.549   2.145   0.103
 7618SOL    HW123753   0.624   2.210   0.090
 7618SOL    HW223754   0.582   2.052   0.086
 7619SOL     OW23755   5.890   3.227   4.996
 7619SOL    HW123756   5.854   3.150   5.050
 7619SOL    HW223757   5.974   3.261   5.039
 7620SOL     OW23758   4.123   5.297   6.988
 7620SOL    HW123759   4.130   5.397   6.995
 7620SOL    HW223760   4.135   5.257   0.060
 7621SOL     OW23761   0.188   1.590   0.309
 7621SOL    HW123762   0.278   1.551   0.292
 7621SOL    HW223763   0.134   1.526   0.363
 7622SOL     OW23764   4.741   5.024   1.779
 7622SOL    HW123765   4.779   5.027   1.686
 7622SOL    HW223766   4.693   4.937   1.792
 7623SOL     OW23767   4.492   4.527   6.722
 7623SOL    HW123768   4.521   4.571   6.807
 7623SOL    HW223769   4.572   4.487   6.677
 7624SOL     OW23770   6.651   2.767   4.474
 7624SOL    HW123771   6.690   2.836   4.413
 7624SOL    HW223772   6.553   2.786   4.488
 7625SOL     OW23773   4.469   0.583   1.665
 7625SOL    HW123774   4.480   0.648   1.740
 7625SOL    HW223775   4.493   0.627   1.579
 7626SOL     OW23776   7.000   6.519   4.563
 7626SOL    HW123777   0.000   6.423   4.585
 7626SOL    HW223778   7.019   6.576   4.642
 7627SOL     OW23779   5.195   3.293   0.264
 7627SOL    HW123780   5.235   3.362   0.325
 7627SOL    HW223781   5.199   3.203   0.308
 7628SOL     OW23782   3.497   0.643   1.805
 7628SOL    HW123783   3.469   0.601   1.718
 7628SOL    HW223784   3.438   0.721   1.825
 7629SOL     OW23785   6.645   0.057   2.882
 7629SOL    HW123786   6.695   6.991   2.900
 7629SOL    HW223787   6.710   0.129   2.859
 7630SOL     OW23788   5.351   6.883   1.841
 7630SOL    HW123789   5.411   6.950   1.798
 7630SOL    HW223790   5.268   6.928   1.873
 7631SOL     OW23791   0.477   0.796   5.122
 7631SOL    HW123792   0.528   0.751   5.195
 7631SOL    HW223793   0.520   0.884   5.100
 7632SOL     OW23794   3.620   2.486   1.738
 7632SOL    HW123795   3.533   2.437   1.734
 7632SOL    HW223796   3.684   2.437   1.798
 7633SOL     OW23797   4.448   2.426   0.355
 7633SOL    HW123798   4.537   2.391   0.329
 7633SOL    HW223799   4.440   2.522   0.328
 7634SOL     OW23800   1.491   1.087   2.387
 7634SOL    HW123801   1.581   1.078   2.343
 7634SOL    HW223802   1.490   1.170   2.444
 7635SOL     OW23803   2.843   6.139   5.287
 7635SOL    HW123804   2.829   6.157   5.189
 7635SOL    HW223805   2.757   6.111   5.329
 7636SOL     OW23806   1.476   1.963   3.253
 7636SOL    HW123807   1.406   2.023   3.290
 7636SOL    HW223808   1.468   1.959   3.154
 7637SOL     OW23809   3.011   6.390   2.597
 7637SOL    HW123810   3.024   6.488   2.583
 7637SOL    HW223811   3.035   6.366   2.691
 7638SOL     OW23812   4.182   5.490   1.913
 7638SOL    HW123813   4.189   5.583   1.949
 7638SOL    HW223814   4.186   5.424   1.987
 7639SOL     OW23815   1.470   2.352   0.795
 7639SOL    HW123816   1.568   2.333   0.807
 7639SOL    HW223817   1.428   2.276   0.745
 7640SOL     OW23818   3.318   2.100   0.071
 7640SOL    HW123819   3.410   2.133   0.051
 7640SOL    HW223820   3.250   2.163   0.034
 7641SOL     OW23821   0.783   4.495   1.962
 7641SOL    HW123822   0.735   4.567   2.011
 7641SOL    HW223823   0.728   4.465   1.884
 7642SOL     OW23824   3.131   1.581   2.411
 7642SOL    HW123825   3.160   1.582   2.315
 7642SOL    HW223826   3.189   1.520   2.464
 7643SOL     OW23827   5.007   2.764   4.053
 7643SOL    HW123828   4.957   2.843   4.019
 7643SOL    HW223829   5.105   2.778   4.040
 7644SOL     OW23830   5.857   2.159   2.373
 7644SOL    HW123831   5.861   2.172   2.472
 7644SOL    HW223832   5.764   2.173   2.341
 7645SOL     OW23833   4.462   4.133   5.353
 7645SOL    HW123834   4.433   4.075   5.430
 7645SOL    HW223835   4.391   4.200   5.333
 7646SOL     OW23836   2.044   2.446   2.288
 7646SOL    HW123837   1.990   2.376   2.239
 7646SOL    HW223838   2.116   2.401   2.341
 7647SOL     OW23839   0.266   3.421   2.004
 7647SOL    HW123840   0.338   3.473   1.959
 7647SOL    HW223841   0.303   3.335   2.039
 7648SOL     OW23842   3.665   1.413   3.434
 7648SOL    HW123843   3.681   1.334   3.376
 7648SOL    HW223844   3.579   1.457   3.408
 7649SOL     OW23845   1.316   1.492   2.713
 7649SOL    HW123846   1.223   1.456   2.712
 7649SOL    HW223847   1.313   1.592   2.704
 7650SOL     OW23848   5.432   2.592   1.226
 7650SOL    HW123849   5.358   2.571   1.290
 7650SOL    HW223850   5.397   2.590   1.132
 7651SOL     OW23851   2.869   6.537   5.136
 7651SOL    HW123852   2.900   6.632   5.137
 7651SOL    HW223853   2.849   6.508   5.230
 7652SOL     OW23854   6.937   3.957   3.731
 7652SOL    HW123855   6.936   3.935   3.829
 7652SOL    HW223856   6.883   4.040   3.715
 7653SOL     OW23857   2.336   1.549   0.733
 7653SOL    HW123858   2.285   1.581   0.813
 7653SOL    HW223859   2.384   1.626   0.691
 7654SOL     OW23860   4.928   3.692   4.228
 7654SOL    HW123861   5.014   3.742   4.227
 7654SOL    HW223862   4.865   3.732   4.162
 7655SOL     OW23863   3.370   0.115   3.294
 7655SOL    HW123864   3.373   0.108   3.394
 7655SOL    HW223865   3.442   0.177   3.264
 7656SOL     OW23866   1.960   4.746   6.455
 7656SOL    HW123867   1.953   4.647   6.462
 7656SOL    HW223868   1.886   4.781   6.397
 7657SOL     OW23869   2.516   2.463   3.152
 7657SOL    HW123870   2.527   2.448   3.251
 7657SOL    HW223871   2.550   2.383   3.103
 7658SOL     OW23872   4.028   6.297   5.998
 7658SOL    HW123873   3.967   6.218   5.998
 7658SOL    HW223874   3.983   6.375   5.954
 7659SOL     OW23875   5.654   5.509   6.767
 7659SOL    HW123876   5.655   5.585   6.833
 7659SOL    HW223877   5.574   5.516   6.709
 7660SOL     OW23878   0.107   6.497   4.270
 7660SOL    HW123879   0.201   6.500   4.304
 7660SOL    HW223880   0.043   6.494   4.347
 7661SOL     OW23881   5.777   2.384   4.341
 7661SOL    HW123882   5.826   2.447   4.281
 7661SOL    HW223883   5.836   2.307   4.364
 7662SOL     OW23884   0.798   2.322   2.400
 7662SOL    HW123885   0.810   2.324   2.301
 7662SOL    HW223886   0.707   2.286   2.423
 7663SOL     OW23887   0.024   6.778   6.044
 7663SOL    HW123888   0.080   6.796   5.964
 7663SOL    HW223889   7.017   6.865   6.086
 7664SOL     OW23890   3.917   0.897   2.042
 7664SOL    HW123891   3.911   0.871   2.139
 7664SOL    HW223892   4.013   0.896   2.014
 7665SOL     OW23893   4.959   0.295   4.768
 7665SOL    HW123894   4.945   0.349   4.851
 7665SOL    HW223895   4.882   0.309   4.706
 7666SOL     OW23896   0.630   6.749   1.656
 7666SOL    HW123897   0.598   6.757   1.562
 7666SOL    HW223898   0.687   6.828   1.679
 7667SOL     OW23899   4.701   5.843   1.470
 7667SOL    HW123900   4.769   5.875   1.404
 7667SOL    HW223901   4.747   5.805   1.550
 7668SOL     OW23902   2.718   4.308   0.989
 7668SOL    HW123903   2.646   4.239   0.994
 7668SOL    HW223904   2.709   4.371   1.066
 7669SOL     OW23905   5.944   1.834   6.110
 7669SOL    HW123906   5.946   1.844   6.011
 7669SOL    HW223907   5.907   1.744   6.134
 7670SOL     OW23908   1.458   4.802   6.130
 7670SOL    HW123909   1.452   4.712   6.172
 7670SOL    HW223910   1.441   4.794   6.032
 7671SOL     OW23911   4.596   0.798   4.933
 7671SOL    HW123912   4.670   0.858   4.905
 7671SOL    HW223913   4.559   0.828   5.021
 7672SOL     OW23914   5.960   6.255   3.714
 7672SOL    HW123915   6.008   6.200   3.783
 7672SOL    HW223916   5.886   6.200   3.675
 7673SOL     OW23917   2.042   5.201   6.903
 7673SOL    HW123918   2.010   5.109   6.880
 7673SOL    HW223919   2.074   5.202   6.998
 7674SOL     OW23920   6.168   2.529   4.083
 7674SOL    HW123921   6.229   2.607   4.070
 7674SOL    HW223922   6.165   2.475   3.999
 7675SOL     OW23923   4.830   0.438   2.908
 7675SOL    HW123924   4.751   0.377   2.905
 7675SOL    HW223925   4.913   0.387   2.887
 7676SOL     OW23926   1.557   2.270   0.459
 7676SOL    HW123927   1.622   2.251   0.386
 7676SOL    HW223928   1.604   2.268   0.547
 7677SOL     OW23929   0.112   3.718   2.533
 7677SOL    HW123930   0.169   3.782   2.586
 7677SOL    HW223931   0.044   3.676   2.594
 7678SOL     OW23932   1.933   1.280   5.859
 7678SOL    HW123933   2.030   1.293   5.837
 7678SOL    HW223934   1.894   1.211   5.798
 7679SOL     OW23935   1.990   5.976   5.482
 7679SOL    HW123936   2.071   6.015   5.439
 7679SOL    HW223937   2.009   5.882   5.511
 7680SOL     OW23938   1.526   2.278   0.042
 7680SOL    HW123939   1.524   2.181   0.017
 7680SOL    HW223940   1.588   2.292   0.119
 7681SOL     OW23941   2.997   6.957   0.262
 7681SOL    HW123942   3.085   6.913   0.283
 7681SOL    HW223943   2.999   0.032   0.292
 7682SOL     OW23944   3.444   0.256   1.893
 7682SOL    HW123945   3.505   0.230   1.818
 7682SOL    HW223946   3.349   0.242   1.865
 7683SOL     OW23947   6.805   1.907   3.876
 7683SOL    HW123948   6.887   1.934   3.926
 7683SOL    HW223949   6.749   1.846   3.932
 7684SOL     OW23950   4.405   1.838   0.916
 7684SOL    HW123951   4.415   1.781   0.998
 7684SOL    HW223952   4.439   1.789   0.836
 7685SOL     OW23953   3.104   3.302   0.132
 7685SOL    HW123954   3.024   3.324   0.077
 7685SOL    HW223955   3.165   3.381   0.136
 7686SOL     OW23956   5.148   0.356   3.351
 7686SOL    HW123957   5.182   0.268   3.384
 7686SOL    HW223958   5.054   0.369   3.384
 7687SOL     OW23959   5.983   4.979   5.511
 7687SOL    HW123960   6.025   4.889   5.514
 7687SOL    HW223961   6.028   5.039   5.576
 7688SOL     OW23962   0.420   6.963   5.227
 7688SOL    HW123963   0.507   6.968   5.180
 7688SOL    HW223964   0.434   6.977   5.325
 7689SOL     OW23965   4.922   5.551   3.301
 7689SOL    HW123966   4.874   5.595   3.226
 7689SOL    HW223967   4.989   5.615   3.340
 7690SOL     OW23968   6.381   5.173   1.040
 7690SOL    HW123969   6.429   5.260   1.048
 7690SOL    HW223970   6.448   5.099   1.041
 7691SOL     OW23971   5.433   3.130   4.034
 7691SOL    HW123972   5.473   3.067   4.101
 7691SOL    HW223973   5.392   3.208   4.082
 7692SOL     OW23974   1.089   6.748   1.733
 7692SOL    HW123975   1.020   6.808   1.774
 7692SOL    HW223976   1.102   6.668   1.791
 7693SOL     OW23977   3.716   6.898   1.557
 7693SOL    HW123978   3.815   6.884   1.551
 7693SOL    HW223979   3.672   6.813   1.587
 7694SOL     OW23980   0.004   4.230   4.056
 7694SOL    HW123981   6.936   4.181   4.052
 7694SOL    HW223982   0.069   4.177   4.110
 7695SOL     OW23983   3.677   6.486   0.125
 7695SOL    HW123984   3.683   6.566   0.186
 7695SOL    HW223985   3.638   6.409   0.176
 7696SOL     OW23986   6.498   1.508   4.697
 7696SOL    HW123987   6.497   1.461   4.786
 7696SOL    HW223988   6.429   1.580   4.696
 7697SOL     OW23989   2.664   0.529   2.367
 7697SOL    HW123990   2.753   0.550   2.409
 7697SOL    HW223991   2.599   0.503   2.438
 7698SOL     OW23992   6.996   2.108   4.498
 7698SOL    HW123993   6.946   2.022   4.509
 7698SOL    HW223994   6.932   2.185   4.508
 7699SOL     OW23995   4.020   5.446   6.663
 7699SOL    HW123996   3.996   5.353   6.637
 7699SOL    HW223997   3.969   5.473   6.744
 7700SOL     OW23998   4.791   6.131   4.945
 7700SOL    HW123999   4.717   6.071   4.914
 7700SOL    HW224000   4.879   6.082   4.938
 7701SOL     OW24001   6.729   1.693   6.451
 7701SOL    HW124002   6.760   1.664   6.360
 7701SOL    HW224003   6.696   1.788   6.446
 7702SOL     OW24004   2.904   6.567   6.143
 7702SOL    HW124005   2.875   6.480   6.182
 7702SOL    HW224006   2.966   6.551   6.067
 7703SOL     OW24007   6.656   0.557   4.907
 7703SOL    HW124008   6.613   0.637   4.863
 7703SOL    HW224009   6.711   0.508   4.840
 7704SOL     OW24010   5.227   4.777   5.558
 7704SOL    HW124011   5.305   4.839   5.555
 7704SOL    HW224012   5.255   4.690   5.599
 7705SOL     OW24013   4.057   5.120   6.106
 7705SOL    HW124014   4.060   5.215   6.074
 7705SOL    HW224015   3.965   5.084   6.094
 7706SOL     OW24016   4.370   1.802   5.391
 7706SOL    HW124017   4.439   1.864   5.353
 7706SOL    HW224018   4.279   1.836   5.367
 7707SOL     OW24019   1.231   6.383   6.590
 7707SOL    HW124020   1.234   6.311   6.658
 7707SOL    HW224021   1.199   6.468   6.632
 7708SOL     OW24022   5.252   6.445   5.290
 7708SOL    HW124023   5.204   6.479   5.371
 7708SOL    HW224024   5.283   6.351   5.306
 7709SOL     OW24025   5.763   4.114   1.530
 7709SOL    HW124026   5.801   4.187   1.586
 7709SOL    HW224027   5.833   4.077   1.470
 7710SOL     OW24028   3.609   1.183   1.013
 7710SOL    HW124029   3.697   1.209   1.051
 7710SOL    HW224030   3.595   1.230   0.926
 7711SOL     OW24031   6.168   5.698   5.122
 7711SOL    HW124032   6.149   5.692   5.024
 7711SOL    HW224033   6.100   5.759   5.165
 7712SOL     OW24034   5.708   4.482   1.729
 7712SOL    HW124035   5.648   4.420   1.779
 7712SOL    HW224036   5.668   4.501   1.639
 7713SOL     OW24037   1.222   4.882   0.407
 7713SOL    HW124038   1.164   4.956   0.373
 7713SOL    HW224039   1.249   4.823   0.330
 7714SOL     OW24040   6.440   5.018   5.375
 7714SOL    HW124041   6.434   5.081   5.452
 7714SOL    HW224042   6.389   4.935   5.397
 7715SOL     OW24043   4.621   2.068   0.914
 7715SOL    HW124044   4.684   2.045   0.839
 7715SOL    HW224045   4.556   2.137   0.883
 7716SOL     OW24046   6.291   3.913   3.549
 7716SOL    HW124047   6.272   3.841   3.482
 7716SOL    HW224048   6.226   3.908   3.624
 7717SOL     OW24049   2.016   0.942   4.949
 7717SOL    HW124050   2.044   0.954   4.854
 7717SOL    HW224051   1.937   0.881   4.953
 7718SOL     OW24052   1.958   1.752   3.041
 7718SOL    HW124053   1.867   1.710   3.044
 7718SOL    HW224054   2.022   1.689   2.998
 7719SOL     OW24055   0.435   3.834   4.424
 7719SOL    HW124056   0.360   3.861   4.364
 7719SOL    HW224057   0.398   3.808   4.513
 7720SOL     OW24058   6.890   6.959   0.839
 7720SOL    HW124059   6.875   6.861   0.846
 7720SOL    HW224060   6.987   6.977   0.823
 7721SOL     OW24061   1.174   4.820   2.291
 7721SOL    HW124062   1.099   4.819   2.357
 7721SOL    HW224063   1.188   4.914   2.259
 7722SOL     OW24064   0.139   5.651   2.967
 7722SOL    HW124065   0.143   5.576   2.901
 7722SOL    HW224066   0.047   5.657   3.005
 7723SOL     OW24067   6.602   3.678   0.115
 7723SOL    HW124068   6.649   3.649   0.031
 7723SOL    HW224069   6.656   3.652   0.195
 7724SOL     OW24070   2.362   4.238   1.739
 7724SOL    HW124071   2.366   4.138   1.732
 7724SOL    HW224072   2.415   4.279   1.665
 7725SOL     OW24073   4.984   3.225   3.845
 7725SOL    HW124074   5.082   3.206   3.857
 7725SOL    HW224075   4.931   3.165   3.904
 7726SOL     OW24076   0.809   6.187   4.362
 7726SOL    HW124077   0.857   6.185   4.274
 7726SOL    HW224078   0.863   6.138   4.431
 7727SOL     OW24079   0.008   0.931   3.099
 7727SOL    HW124080   7.014   1.024   3.065
 7727SOL    HW224081   6.952   0.908   3.161
 7728SOL     OW24082   1.135   4.913   3.459
 7728SOL    HW124083   1.215   4.973   3.466
 7728SOL    HW224084   1.163   4.818   3.473
 7729SOL     OW24085   5.798   3.334   0.832
 7729SOL    HW124086   5.757   3.360   0.744
 7729SOL    HW224087   5.819   3.236   0.831
 7730SOL     OW24088   5.673   5.586   2.010
 7730SOL    HW124089   5.624   5.669   1.984
 7730SOL    HW224090   5.769   5.595   1.985
 7731SOL     OW24091   6.797   1.102   0.556
 7731SOL    HW124092   6.894   1.079   0.568
 7731SOL    HW224093   6.763   1.058   0.473
 7732SOL     OW24094   4.375   6.245   0.801
 7732SOL    HW124095   4.317   6.266   0.880
 7732SOL    HW224096   4.471   6.249   0.829
 7733SOL     OW24097   4.367   6.685   2.130
 7733SOL    HW124098   4.297   6.728   2.186
 7733SOL    HW224099   4.422   6.622   2.187
 7734SOL     OW24100   2.401   4.863   3.529
 7734SOL    HW124101   2.495   4.895   3.526
 7734SOL    HW224102   2.338   4.940   3.517
 7735SOL     OW24103   4.634   6.301   6.444
 7735SOL    HW124104   4.586   6.389   6.432
 7735SOL    HW224105   4.637   6.279   6.542
 7736SOL     OW24106   4.372   3.937   6.813
 7736SOL    HW124107   4.297   3.894   6.864
 7736SOL    HW224108   4.334   4.002   6.747
 7737SOL     OW24109   4.463   0.994   2.084
 7737SOL    HW124110   4.457   0.911   2.139
 7737SOL    HW224111   4.375   1.013   2.042
 7738SOL     OW24112   1.506   5.534   6.472
 7738SOL    HW124113   1.420   5.484   6.475
 7738SOL    HW224114   1.510   5.589   6.389
 7739SOL     OW24115   0.412   1.548   2.066
 7739SOL    HW124116   0.431   1.455   2.097
 7739SOL    HW224117   0.363   1.545   1.979
 7740SOL     OW24118   1.642   0.683   2.954
 7740SOL    HW124119   1.577   0.635   3.013
 7740SOL    HW224120   1.618   0.781   2.951
 7741SOL     OW24121   1.481   6.134   4.443
 7741SOL    HW124122   1.451   6.109   4.535
 7741SOL    HW224123   1.460   6.230   4.426
 7742SOL     OW24124   5.904   1.984   3.248
 7742SOL    HW124125   5.918   1.952   3.341
 7742SOL    HW224126   5.974   1.947   3.188
 7743SOL     OW24127   4.798   2.243   6.362
 7743SOL    HW124128   4.790   2.265   6.265
 7743SOL    HW224129   4.706   2.230   6.401
 7744SOL     OW24130   0.747   6.070   3.753
 7744SOL    HW124131   0.738   6.164   3.784
 7744SOL    HW224132   0.713   6.008   3.824
 7745SOL     OW24133   3.214   1.303   5.485
 7745SOL    HW124134   3.165   1.292   5.572
 7745SOL    HW224135   3.150   1.339   5.417
 7746SOL     OW24136   2.178   6.703   0.005
 7746SOL    HW124137   2.193   6.673   0.099
 7746SOL    HW224138   2.264   6.737   6.986
 7747SOL     OW24139   4.307   5.864   1.713
 7747SOL    HW124140   4.371   5.793   1.741
 7747SOL    HW224141   4.217   5.824   1.698
 7748SOL     OW24142   3.359   3.595   6.049
 7748SOL    HW124143   3.407   3.514   6.084
 7748SOL    HW224144   3.397   3.677   6.091
 7749SOL     OW24145   3.210   3.162   5.593
 7749SOL    HW124146   3.261   3.232   5.643
 7749SOL    HW224147   3.178   3.092   5.657
 7750SOL     OW24148   6.852   5.891   1.566
 7750SOL    HW124149   6.863   5.989   1.582
 7750SOL    HW224150   6.759   5.872   1.536
 7751SOL     OW24151   1.660   1.033   2.127
 7751SOL    HW124152   1.755   1.021   2.154
 7751SOL    HW224153   1.638   1.131   2.126
 7752SOL     OW24154   5.138   0.164   5.637
 7752SOL    HW124155   5.220   0.155   5.580
 7752SOL    HW224156   5.057   0.150   5.581
 7753SOL     OW24157   2.163   1.790   4.219
 7753SOL    HW124158   2.212   1.761   4.301
 7753SOL    HW224159   2.081   1.733   4.208
 7754SOL     OW24160   3.599   5.779   1.669
 7754SOL    HW124161   3.520   5.841   1.666
 7754SOL    HW224162   3.580   5.705   1.733
 7755SOL     OW24163   1.040   2.649   6.100
 7755SOL    HW124164   0.982   2.668   6.179
 7755SOL    HW224165   1.117   2.713   6.099
 7756SOL     OW24166   3.137   6.282   1.348
 7756SOL    HW124167   3.212   6.248   1.404
 7756SOL    HW224168   3.148   6.248   1.254
 7757SOL     OW24169   6.916   4.391   1.360
 7757SOL    HW124170   6.926   4.365   1.264
 7757SOL    HW224171   6.926   4.490   1.369
 7758SOL     OW24172   1.768   6.637   5.894
 7758SOL    HW124173   1.836   6.596   5.955
 7758SOL    HW224174   1.681   6.647   5.943
 7759SOL     OW24175   2.498   1.495   5.575
 7759SOL    HW124176   2.457   1.583   5.546
 7759SOL    HW224177   2.568   1.512   5.643
 7760SOL     OW24178   5.353   2.258   2.121
 7760SOL    HW124179   5.419   2.324   2.085
 7760SOL    HW224180   5.276   2.308   2.161
 7761SOL     OW24181   6.596   5.767   4.767
 7761SOL    HW124182   6.522   5.701   4.758
 7761SOL    HW224183   6.631   5.792   4.677
 7762SOL     OW24184   2.215   0.534   3.613
 7762SOL    HW124185   2.212   0.615   3.673
 7762SOL    HW224186   2.121   0.506   3.590
 7763SOL     OW24187   2.311   7.003   6.294
 7763SOL    HW124188   2.283   0.062   6.238
 7763SOL    HW224189   2.382   6.951   6.246
 7764SOL     OW24190   3.358   4.627   6.575
 7764SOL    HW124191   3.369   4.539   6.620
 7764SOL    HW224192   3.299   4.616   6.495
 7765SOL     OW24193   6.430   3.267   4.530
 7765SOL    HW124194   6.425   3.172   4.497
 7765SOL    HW224195   6.518   3.281   4.575
 7766SOL     OW24196   0.079   4.450   0.331
 7766SOL    HW124197   0.165   4.400   0.324
 7766SOL    HW224198   0.046   4.473   0.239
 7767SOL     OW24199   4.681   6.602   2.472
 7767SOL    HW124200   4.757   6.618   2.409
 7767SOL    HW224201   4.712   6.621   2.565
 7768SOL     OW24202   4.700   4.639   3.883
 7768SOL    HW124203   4.777   4.695   3.914
 7768SOL    HW224204   4.627   4.698   3.848
 7769SOL     OW24205   3.805   1.583   4.862
 7769SOL    HW124206   3.814   1.627   4.952
 7769SOL    HW224207   3.726   1.621   4.814
 7770SOL     OW24208   0.139   3.523   4.398
 7770SOL    HW124209   0.099   3.441   4.440
 7770SOL    HW224210   0.237   3.525   4.416
 7771SOL     OW24211   2.780   1.761   6.010
 7771SOL    HW124212   2.851   1.701   5.973
 7771SOL    HW224213   2.771   1.746   6.109
 7772SOL     OW24214   4.885   0.536   1.126
 7772SOL    HW124215   4.965   0.488   1.090
 7772SOL    HW224216   4.873   0.623   1.077
 7773SOL     OW24217   2.705   5.616   5.845
 7773SOL    HW124218   2.733   5.704   5.883
 7773SOL    HW224219   2.618   5.588   5.886
 7774SOL     OW24220   4.744   2.293   4.694
 7774SOL    HW124221   4.679   2.218   4.679
 7774SOL    HW224222   4.694   2.379   4.700
 7775SOL     OW24223   3.965   6.804   0.438
 7775SOL    HW124224   4.044   6.865   0.450
 7775SOL    HW224225   3.989   6.712   0.467
 7776SOL     OW24226   0.730   6.387   6.172
 7776SOL    HW124227   0.825   6.394   6.143
 7776SOL    HW224228   0.724   6.330   6.254
 7777SOL     OW24229   6.587   5.442   4.850
 7777SOL    HW124230   6.600   5.448   4.949
 7777SOL    HW224231   6.657   5.498   4.804
 7778SOL     OW24232   5.756   4.196   2.279
 7778SOL    HW124233   5.777   4.189   2.181
 7778SOL    HW224234   5.657   4.194   2.291
 7779SOL     OW24235   2.906   0.420   2.718
 7779SOL    HW124236   2.869   0.511   2.699
 7779SOL    HW224237   2.932   0.414   2.815
 7780SOL     OW24238   0.542   6.022   5.477
 7780SOL    HW124239   0.633   5.982   5.460
 7780SOL    HW224240   0.493   5.964   5.542
 7781SOL     OW24241   1.556   4.231   0.130
 7781SOL    HW124242   1.477   4.208   0.074
 7781SOL    HW224243   1.537   4.209   0.226
 7782SOL     OW24244   5.607   5.060   3.430
 7782SOL    HW124245   5.512   5.029   3.422
 7782SOL    HW224246   5.667   4.981   3.444
 7783SOL     OW24247   0.682   6.979   5.985
 7783SOL    HW124248   0.689   6.881   6.002
 7783SOL    HW224249   0.636   0.003   6.062
 7784SOL     OW24250   2.938   2.521   1.457
 7784SOL    HW124251   3.036   2.503   1.452
 7784SOL    HW224252   2.898   2.468   1.531
 7785SOL     OW24253   1.276   6.850   4.059
 7785SOL    HW124254   1.219   6.849   3.977
 7785SOL    HW224255   1.265   6.763   4.108
 7786SOL     OW24256   4.186   0.679   6.915
 7786SOL    HW124257   4.223   0.637   6.832
 7786SOL    HW224258   4.163   0.775   6.896
 7787SOL     OW24259   2.049   2.861   0.326
 7787SOL    HW124260   1.962   2.885   0.284
 7787SOL    HW224261   2.096   2.944   0.356
 7788SOL     OW24262   1.432   6.343   2.218
 7788SOL    HW124263   1.494   6.380   2.149
 7788SOL    HW224264   1.483   6.283   2.280
 7789SOL     OW24265   3.126   0.314   6.429
 7789SOL    HW124266   3.194   0.288   6.497
 7789SOL    HW224267   3.103   0.234   6.373
 7790SOL     OW24268   6.194   4.963   2.505
 7790SOL    HW124269   6.286   4.953   2.467
 7790SOL    HW224270   6.164   5.058   2.493
 7791SOL     OW24271   2.563   5.694   2.139
 7791SOL    HW124272   2.617   5.718   2.220
 7791SOL    HW224273   2.566   5.769   2.073
 7792SOL     OW24274   0.753   0.306   2.653
 7792SOL    HW124275   0.814   0.368   2.703
 7792SOL    HW224276   0.723   0.232   2.714
 7793SOL     OW24277   4.805   0.541   6.515
 7793SOL    HW124278   4.735   0.610   6.500
 7793SOL    HW224279   4.865   0.536   6.435
 7794SOL     OW24280   0.558   5.541   1.762
 7794SOL    HW124281   0.486   5.514   1.826
 7794SOL    HW224282   0.580   5.464   1.702
 7795SOL     OW24283   3.280   5.519   5.856
 7795SOL    HW124284   3.309   5.513   5.760
 7795SOL    HW224285   3.340   5.583   5.904
 7796SOL     OW24286   3.179   2.771   5.746
 7796SOL    HW124287   3.114   2.839   5.711
 7796SOL    HW224288   3.269   2.813   5.756
 7797SOL     OW24289   0.845   5.231   1.398
 7797SOL    HW124290   0.870   5.326   1.413
 7797SOL    HW224291   0.869   5.204   1.305
 7798SOL     OW24292   1.832   1.004   2.629
 7798SOL    HW124293   1.758   1.029   2.691
 7798SOL    HW224294   1.794   0.960   2.548
 7799SOL     OW24295   2.637   5.807   2.826
 7799SOL    HW124296   2.540   5.824   2.843
 7799SOL    HW224297   2.691   5.880   2.866
 7800SOL     OW24298   0.067   5.838   2.786
 7800SOL    HW124299   0.148   5.827   2.729
 7800SOL    HW224300   0.079   5.787   2.871
 7801SOL     OW24301   1.825   1.223   2.928
 7801SOL    HW124302   1.796   1.311   2.966
 7801SOL    HW224303   1.859   1.237   2.835
 7802SOL     OW24304   6.929   4.134   6.998
 7802SOL    HW124305   6.948   4.065   6.929
 7802SOL    HW224306   6.831   4.137   7.017
 7803SOL     OW24307   4.585   1.885   0.033
 7803SOL    HW124308   4.672   1.868   0.078
 7803SOL    HW224309   4.598   1.882   6.953
 7804SOL     OW24310   3.554   1.832   4.443
 7804SOL    HW124311   3.544   1.779   4.359
 7804SOL    HW224312   3.574   1.927   4.420
 7805SOL     OW24313   5.113   3.377   2.611
 7805SOL    HW124314   5.200   3.359   2.657
 7805SOL    HW224315   5.045   3.309   2.638
 7806SOL     OW24316   6.332   2.483   6.361
 7806SOL    HW124317   6.424   2.516   6.340
 7806SOL    HW224318   6.301   2.523   6.447
 7807SOL     OW24319   1.054   4.190   5.297
 7807SOL    HW124320   1.031   4.270   5.242
 7807SOL    HW224321   1.150   4.196   5.326
 7808SOL     OW24322   4.934   4.274   2.752
 7808SOL    HW124323   4.880   4.304   2.830
 7808SOL    HW224324   4.910   4.179   2.729
 7809SOL     OW24325   5.232   4.880   4.887
 7809SOL    HW124326   5.281   4.815   4.828
 7809SOL    HW224327   5.226   4.844   4.980
 7810SOL     OW24328   3.537   6.779   4.762
 7810SOL    HW124329   3.471   6.705   4.778
 7810SOL    HW224330   3.548   6.832   4.846
 7811SOL     OW24331   1.948   5.968   2.686
 7811SOL    HW124332   1.862   6.003   2.649
 7811SOL    HW224333   1.929   5.911   2.765
 7812SOL     OW24334   2.335   3.261   5.248
 7812SOL    HW124335   2.360   3.328   5.318
 7812SOL    HW224336   2.406   3.191   5.242
 7813SOL     OW24337   4.586   2.916   1.335
 7813SOL    HW124338   4.644   2.967   1.399
 7813SOL    HW224339   4.607   2.818   1.343
 7814SOL     OW24340   6.768   3.459   2.404
 7814SOL    HW124341   6.784   3.557   2.401
 7814SOL    HW224342   6.689   3.439   2.462
 7815SOL     OW24343   5.881   2.065   5.440
 7815SOL    HW124344   5.865   2.119   5.357
 7815SOL    HW224345   5.830   2.105   5.516
 7816SOL     OW24346   0.514   2.214   5.692
 7816SOL    HW124347   0.568   2.168   5.621
 7816SOL    HW224348   0.576   2.251   5.762
 7817SOL     OW24349   4.632   3.835   5.574
 7817SOL    HW124350   4.630   3.931   5.601
 7817SOL    HW224351   4.670   3.826   5.482
 7818SOL     OW24352   5.101   1.252   2.379
 7818SOL    HW124353   5.125   1.288   2.289
 7818SOL    HW224354   5.173   1.190   2.411
 7819SOL     OW24355   7.003   3.298   4.033
 7819SOL    HW124356   6.947   3.289   3.950
 7819SOL    HW224357   0.072   3.338   4.009
 7820SOL     OW24358   1.947   1.534   5.374
 7820SOL    HW124359   2.019   1.599   5.349
 7820SOL    HW224360   1.892   1.512   5.293
 7821SOL     OW24361   5.388   5.767   0.445
 7821SOL    HW124362   5.328   5.835   0.488
 7821SOL    HW224363   5.463   5.746   0.508
 7822SOL     OW24364   0.847   1.560   6.204
 7822SOL    HW124365   0.864   1.579   6.300
 7822SOL    HW224366   0.748   1.562   6.186
 7823SOL     OW24367   1.285   4.005   6.307
 7823SOL    HW124368   1.335   3.942   6.248
 7823SOL    HW224369   1.201   4.035   6.261
 7824SOL     OW24370   6.319   0.396   4.393
 7824SOL    HW124371   6.374   0.432   4.318
 7824SOL    HW224372   6.350   0.436   4.479
 7825SOL     OW24373   2.269   2.737   1.729
 7825SOL    HW124374   2.278   2.797   1.809
 7825SOL    HW224375   2.308   2.648   1.749
 7826SOL     OW24376   5.180   2.389   6.728
 7826SOL    HW124377   5.091   2.421   6.696
 7826SOL    HW224378   5.215   2.318   6.666
 7827SOL     OW24379   3.400   4.983   1.302
 7827SOL    HW124380   3.437   5.068   1.341
 7827SOL    HW224381   3.373   4.921   1.376
 7828SOL     OW24382   0.782   5.449   0.103
 7828SOL    HW124383   0.743   5.386   0.036
 7828SOL    HW224384   0.747   5.427   0.194
 7829SOL     OW24385   2.160   3.299   1.471
 7829SOL    HW124386   2.251   3.258   1.460
 7829SOL    HW224387   2.101   3.235   1.520
 7830SOL     OW24388   5.700   3.942   6.048
 7830SOL    HW124389   5.616   3.932   5.994
 7830SOL    HW224390   5.773   3.978   5.989
 7831SOL     OW24391   0.985   4.966   6.863
 7831SOL    HW124392   1.008   5.056   6.826
 7831SOL    HW224393   1.067   4.925   6.903
 7832SOL     OW24394   3.616   0.654   4.880
 7832SOL    HW124395   3.640   0.567   4.923
 7832SOL    HW224396   3.537   0.694   4.927
 7833SOL     OW24397   1.193   0.565   0.484
 7833SOL    HW124398   1.279   0.551   0.434
 7833SOL    HW224399   1.197   0.652   0.534
 7834SOL     OW24400   0.245   1.824   2.328
 7834SOL    HW124401   0.294   1.836   2.241
 7834SOL    HW224402   0.220   1.914   2.364
 7835SOL     OW24403   2.257   2.653   4.669
 7835SOL    HW124404   2.170   2.702   4.668
 7835SOL    HW224405   2.299   2.662   4.760
 7836SOL     OW24406   3.410   0.972   6.432
 7836SOL    HW124407   3.322   0.927   6.451
 7836SOL    HW224408   3.434   0.958   6.336
 7837SOL     OW24409   6.036   6.361   1.852
 7837SOL    HW124410   6.072   6.434   1.911
 7837SOL    HW224411   6.111   6.315   1.806
 7838SOL     OW24412   4.524   6.537   6.420
 7838SOL    HW124413   4.587   6.612   6.400
 7838SOL    HW224414   4.440   6.573   6.459
 7839SOL     OW24415   6.674   4.086   4.674
 7839SOL    HW124416   6.730   4.004   4.685
 7839SOL    HW224417   6.667   4.109   4.577
 7840SOL     OW24418   5.151   3.693   3.953
 7840SOL    HW124419   5.195   3.759   3.892
 7840SOL    HW224420   5.173   3.600   3.924
 7841SOL     OW24421   5.619   1.643   6.547
 7841SOL    HW124422   5.556   1.622   6.473
 7841SOL    HW224423   5.694   1.577   6.546
 7842SOL     OW24424   1.486   0.887   3.351
 7842SOL    HW124425   1.572   0.882   3.301
 7842SOL    HW224426   1.436   0.801   3.342
 7843SOL     OW24427   5.575   4.494   1.451
 7843SOL    HW124428   5.550   4.397   1.456
 7843SOL    HW224429   5.520   4.540   1.382
 7844SOL     OW24430   4.332   0.880   3.907
 7844SOL    HW124431   4.369   0.879   3.814
 7844SOL    HW224432   4.407   0.867   3.973
 7845SOL     OW24433   0.583   0.925   3.981
 7845SOL    HW124434   0.614   0.922   4.075
 7845SOL    HW224435   0.661   0.920   3.919
 7846SOL     OW24436   2.322   0.410   1.687
 7846SOL    HW124437   2.317   0.504   1.651
 7846SOL    HW224438   2.350   0.348   1.614
 7847SOL     OW24439   0.400   1.586   1.186
 7847SOL    HW124440   0.459   1.664   1.208
 7847SOL    HW224441   0.314   1.594   1.237
 7848SOL     OW24442   3.082   4.391   1.249
 7848SOL    HW124443   3.164   4.383   1.306
 7848SOL    HW224444   3.094   4.337   1.165
 7849SOL     OW24445   5.562   3.937   4.418
 7849SOL    HW124446   5.483   3.946   4.478
 7849SOL    HW224447   5.635   3.997   4.450
 7850SOL     OW24448   0.317   0.895   3.933
 7850SOL    HW124449   0.410   0.894   3.970
 7850SOL    HW224450   0.278   0.803   3.940
 7851SOL     OW24451   6.370   6.554   0.847
 7851SOL    HW124452   6.329   6.525   0.760
 7851SOL    HW224453   6.468   6.533   0.846
 7852SOL     OW24454   3.249   6.533   6.446
 7852SOL    HW124455   3.164   6.583   6.425
 7852SOL    HW224456   3.227   6.454   6.504
 7853SOL     OW24457   4.219   1.472   1.082
 7853SOL    HW124458   4.137   1.426   1.047
 7853SOL    HW224459   4.266   1.411   1.146
 7854SOL     OW24460   3.843   4.528   0.915
 7854SOL    HW124461   3.910   4.475   0.966
 7854SOL    HW224462   3.793   4.468   0.854
 7855SOL     OW24463   4.350   5.615   5.999
 7855SOL    HW124464   4.380   5.710   6.008
 7855SOL    HW224465   4.267   5.602   6.053
 7856SOL     OW24466   6.289   4.765   3.992
 7856SOL    HW124467   6.303   4.693   3.924
 7856SOL    HW224468   6.322   4.733   4.081
 7857SOL     OW24469   6.938   2.786   5.810
 7857SOL    HW124470   6.939   2.862   5.875
 7857SOL    HW224471   0.013   2.762   5.785
 7858SOL     OW24472   5.340   4.951   3.456
 7858SOL    HW124473   5.351   4.874   3.519
 7858SOL    HW224474   5.251   4.994   3.472
 7859SOL     OW24475   0.096   3.965   5.925
 7859SOL    HW124476   0.084   3.925   6.016
 7859SOL    HW224477   0.006   3.980   5.883
 7860SOL     OW24478   3.825   6.397   2.752
 7860SOL    HW124479   3.909   6.439   2.785
 7860SOL    HW224480   3.843   6.346   2.667
 7861SOL     OW24481   4.172   6.060   1.917
 7861SOL    HW124482   4.265   6.060   1.882
 7861SOL    HW224483   4.108   6.042   1.842
 7862SOL     OW24484   2.629   4.364   1.572
 7862SOL    HW124485   2.616   4.417   1.656
 7862SOL    HW224486   2.709   4.398   1.524
 7863SOL     OW24487   0.213   5.854   3.419
 7863SOL    HW124488   0.296   5.907   3.435
 7863SOL    HW224489   0.150   5.866   3.495
 7864SOL     OW24490   0.111   5.766   5.756
 7864SOL    HW124491   0.082   5.851   5.712
 7864SOL    HW224492   0.085   5.766   5.852
 7865SOL     OW24493   4.242   6.564   4.008
 7865SOL    HW124494   4.281   6.630   3.944
 7865SOL    HW224495   4.272   6.472   3.982
 7866SOL     OW24496   2.636   1.850   1.504
 7866SOL    HW124497   2.669   1.880   1.415
 7866SOL    HW224498   2.713   1.822   1.561
 7867SOL     OW24499   5.619   5.069   3.066
 7867SOL    HW124500   5.587   5.163   3.055
 7867SOL    HW224501   5.684   5.065   3.141
 7868SOL     OW24502   5.171   6.957   2.598
 7868SOL    HW124503   5.110   6.902   2.542
 7868SOL    HW224504   5.261   6.914   2.602
 7869SOL     OW24505   6.225   3.625   0.915
 7869SOL    HW124506   6.296   3.611   0.846
 7869SOL    HW224507   6.135   3.609   0.873
 7870SOL     OW24508   5.713   5.690   3.705
 7870SOL    HW124509   5.675   5.658   3.618
 7870SOL    HW224510   5.718   5.790   3.704
 7871SOL     OW24511   5.783   4.097   3.140
 7871SOL    HW124512   5.880   4.086   3.121
 7871SOL    HW224513   5.766   4.079   3.237
 7872SOL     OW24514   0.780   4.232   2.174
 7872SOL    HW124515   0.806   4.276   2.088
 7872SOL    HW224516   0.703   4.170   2.159
 7873SOL     OW24517   6.096   0.626   5.367
 7873SOL    HW124518   6.123   0.531   5.348
 7873SOL    HW224519   6.177   0.679   5.390
 7874SOL     OW24520   6.515   1.429   6.423
 7874SOL    HW124521   6.593   1.388   6.376
 7874SOL    HW224522   6.536   1.524   6.445
 7875SOL     OW24523   4.199   3.331   6.416
 7875SOL    HW124524   4.129   3.396   6.386
 7875SOL    HW224525   4.227   3.353   6.510
 7876SOL     OW24526   6.995   6.573   4.832
 7876SOL    HW124527   6.927   6.511   4.792
 7876SOL    HW224528   7.003   6.554   4.930
 7877SOL     OW24529   0.414   2.898   2.417
 7877SOL    HW124530   0.360   2.969   2.462
 7877SOL    HW224531   0.485   2.866   2.479
 7878SOL     OW24532   4.594   5.090   3.346
 7878SOL    HW124533   4.552   5.030   3.278
 7878SOL    HW224534   4.693   5.092   3.334
 7879SOL     OW24535   4.753   5.995   3.312
 7879SOL    HW124536   4.750   5.956   3.404
 7879SOL    HW224537   4.800   5.931   3.251
 7880SOL     OW24538   0.193   6.152   1.257
 7880SOL    HW124539   0.178   6.246   1.227
 7880SOL    HW224540   0.130   6.091   1.209
 7881SOL     OW24541   0.137   3.752   4.807
 7881SOL    HW124542   0.207   3.761   4.737
 7881SOL    HW224543   0.071   3.681   4.779
 7882SOL     OW24544   1.956   2.390   3.053
 7882SOL    HW124545   1.962   2.476   3.003
 7882SOL    HW224546   2.012   2.321   3.007
 7883SOL     OW24547   1.972   0.678   1.465
 7883SOL    HW124548   2.063   0.702   1.433
 7883SOL    HW224549   1.913   0.657   1.387
 7884SOL     OW24550   1.138   3.946   3.337
 7884SOL    HW124551   1.127   3.889   3.419
 7884SOL    HW224552   1.210   3.908   3.279
 7885SOL     OW24553   5.486   5.695   3.082
 7885SOL    HW124554   5.415   5.720   3.148
 7885SOL    HW224555   5.571   5.742   3.104
 7886SOL     OW24556   5.927   3.990   1.339
 7886SOL    HW124557   5.972   3.960   1.424
 7886SOL    HW224558   5.899   3.909   1.287
 7887SOL     OW24559   3.223   2.910   5.016
 7887SOL    HW124560   3.226   2.839   5.086
 7887SOL    HW224561   3.240   3.000   5.058
 7888SOL     OW24562   0.510   0.645   4.676
 7888SOL    HW124563   0.467   0.575   4.733
 7888SOL    HW224564   0.440   0.694   4.623
 7889SOL     OW24565   0.463   5.385   6.524
 7889SOL    HW124566   0.488   5.335   6.441
 7889SOL    HW224567   0.493   5.480   6.518
 7890SOL     OW24568   1.520   2.945   3.832
 7890SOL    HW124569   1.503   3.042   3.851
 7890SOL    HW224570   1.603   2.916   3.879
 7891SOL     OW24571   1.159   3.155   4.218
 7891SOL    HW124572   1.108   3.097   4.282
 7891SOL    HW224573   1.096   3.215   4.169
 7892SOL     OW24574   1.242   2.281   4.434
 7892SOL    HW124575   1.275   2.322   4.349
 7892SOL    HW224576   1.263   2.341   4.510
 7893SOL     OW24577   5.962   6.238   2.387
 7893SOL    HW124578   5.902   6.179   2.333
 7893SOL    HW224579   6.055   6.234   2.350
 7894SOL     OW24580   3.124   1.007   0.885
 7894SOL    HW124581   3.137   0.932   0.948
 7894SOL    HW224582   3.213   1.036   0.848
 7895SOL     OW24583   3.369   6.378   4.459
 7895SOL    HW124584   3.344   6.291   4.416
 7895SOL    HW224585   3.445   6.419   4.408
 7896SOL     OW24586   5.240   2.975   1.851
 7896SOL    HW124587   5.236   2.956   1.949
 7896SOL    HW224588   5.252   2.889   1.801
 7897SOL     OW24589   3.195   3.493   6.615
 7897SOL    HW124590   3.197   3.480   6.516
 7897SOL    HW224591   3.158   3.583   6.636
 7898SOL     OW24592   4.682   0.515   3.954
 7898SOL    HW124593   4.699   0.431   3.901
 7898SOL    HW224594   4.758   0.531   4.016
 7899SOL     OW24595   5.205   6.490   2.550
 7899SOL    HW124596   5.180   6.586   2.545
 7899SOL    HW224597   5.133   6.439   2.596
 7900SOL     OW24598   0.651   3.760   0.367
 7900SOL    HW124599   0.750   3.768   0.363
 7900SOL    HW224600   0.613   3.766   0.275
 7901SOL     OW24601   5.160   1.352   5.936
 7901SOL    HW124602   5.078   1.369   5.992
 7901SOL    HW224603   5.198   1.262   5.960
 7902SOL     OW24604   6.666   6.180   3.290
 7902SOL    HW124605   6.750   6.154   3.242
 7902SOL    HW224606   6.653   6.123   3.370
 7903SOL     OW24607   4.149   1.999   3.372
 7903SOL    HW124608   4.208   2.066   3.415
 7903SOL    HW224609   4.058   2.002   3.414
 7904SOL     OW24610   5.954   0.140   3.453
 7904SOL    HW124611   6.049   0.173   3.452
 7904SOL    HW224612   5.900   0.197   3.515
 7905SOL     OW24613   5.724   1.279   0.458
 7905SOL    HW124614   5.640   1.326   0.432
 7905SOL    HW224615   5.777   1.337   0.520
 7906SOL     OW24616   0.966   5.599   0.466
 7906SOL    HW124617   0.983   5.678   0.525
 7906SOL    HW224618   0.989   5.622   0.371
 7907SOL     OW24619   5.918   0.849   2.977
 7907SOL    HW124620   5.897   0.751   2.982
 7907SOL    HW224621   6.015   0.863   2.995
 7908SOL     OW24622   1.273   1.964   6.735
 7908SOL    HW124623   1.234   1.873   6.744
 7908SOL    HW224624   1.212   2.022   6.680
 7909SOL     OW24625   4.764   4.442   3.603
 7909SOL    HW124626   4.817   4.360   3.626
 7909SOL    HW224627   4.672   4.434   3.640
 7910SOL     OW24628   1.619   2.956   1.714
 7910SOL    HW124629   1.610   3.054   1.696
 7910SOL    HW224630   1.532   2.910   1.692
 7911SOL     OW24631   0.979   4.051   1.229
 7911SOL    HW124632   1.012   4.121   1.166
 7911SOL    HW224633   1.045   3.976   1.234
 7912SOL     OW24634   4.913   4.431   0.823
 7912SOL    HW124635   4.885   4.505   0.763
 7912SOL    HW224636   4.942   4.468   0.911
 7913SOL     OW24637   1.607   4.537   0.883
 7913SOL    HW124638   1.535   4.471   0.863
 7913SOL    HW224639   1.592   4.575   0.975
 7914SOL     OW24640   6.977   4.443   0.069
 7914SOL    HW124641   6.989   4.512   7.018
 7914SOL    HW224642   6.943   4.358   0.028
 7915SOL     OW24643   4.760   1.866   2.673
 7915SOL    HW124644   4.739   1.890   2.578
 7915SOL    HW224645   4.684   1.894   2.732
 7916SOL     OW24646   0.826   0.214   4.788
 7916SOL    HW124647   0.835   0.314   4.793
 7916SOL    HW224648   0.729   0.189   4.798
 7917SOL     OW24649   3.771   2.766   5.552
 7917SOL    HW124650   3.835   2.822   5.604
 7917SOL    HW224651   3.822   2.701   5.495
 7918SOL     OW24652   0.451   1.520   5.364
 7918SOL    HW124653   0.530   1.550   5.311
 7918SOL    HW224654   0.419   1.432   5.328
 7919SOL     OW24655   0.985   5.023   1.953
 7919SOL    HW124656   1.056   4.969   1.910
 7919SOL    HW224657   0.896   4.999   1.914
 7920SOL     OW24658   5.105   0.800   1.895
 7920SOL    HW124659   5.033   0.742   1.934
 7920SOL    HW224660   5.194   0.758   1.910
 7921SOL     OW24661   5.868   0.759   1.509
 7921SOL    HW124662   5.906   0.676   1.550
 7921SOL    HW224663   5.885   0.758   1.410
 7922SOL     OW24664   0.303   6.232   0.314
 7922SOL    HW124665   0.378   6.252   0.251
 7922SOL    HW224666   0.220   6.278   0.281
 7923SOL     OW24667   3.396   1.669   6.467
 7923SOL    HW124668   3.371   1.588   6.520
 7923SOL    HW224669   3.483   1.652   6.419
 7924SOL     OW24670   4.822   0.098   1.550
 7924SOL    HW124671   4.804   7.019   1.559
 7924SOL    HW224672   4.765   0.148   1.615
 7925SOL     OW24673   1.256   6.760   0.818
 7925SOL    HW124674   1.273   6.662   0.832
 7925SOL    HW224675   1.172   6.786   0.867
 7926SOL     OW24676   5.141   1.317   6.782
 7926SOL    HW124677   5.200   1.383   6.828
 7926SOL    HW224678   5.183   1.288   6.697
 7927SOL     OW24679   5.058   6.954   1.476
 7927SOL    HW124680   5.029   6.906   1.559
 7927SOL    HW224681   5.023   0.028   1.479
 7928SOL     OW24682   0.264   1.318   3.756
 7928SOL    HW124683   0.278   1.343   3.852
 7928SOL    HW224684   0.262   1.400   3.699
 7929SOL     OW24685   4.186   3.612   6.120
 7929SOL    HW124686   4.226   3.608   6.211
 7929SOL    HW224687   4.086   3.611   6.128
 7930SOL     OW24688   3.617   5.146   6.460
 7930SOL    HW124689   3.589   5.062   6.505
 7930SOL    HW224690   3.567   5.223   6.499
 7931SOL     OW24691   4.281   2.434   0.597
 7931SOL    HW124692   4.214   2.508   0.602
 7931SOL    HW224693   4.364   2.467   0.551
 7932SOL     OW24694   0.887   4.658   0.942
 7932SOL    HW124695   0.984   4.657   0.917
 7932SOL    HW224696   0.867   4.740   0.996
 7933SOL     OW24697   6.750   0.410   5.786
 7933SOL    HW124698   6.820   0.480   5.798
 7933SOL    HW224699   6.665   0.440   5.830
 7934SOL     OW24700   1.279   4.982   6.987
 7934SOL    HW124701   1.349   4.939   0.025
 7934SOL    HW224702   1.322   5.014   6.902
 7935SOL     OW24703   5.118   5.455   2.604
 7935SOL    HW124704   5.212   5.477   2.577
 7935SOL    HW224705   5.087   5.374   2.554
 7936SOL     OW24706   3.061   5.413   3.340
 7936SOL    HW124707   3.083   5.478   3.413
 7936SOL    HW224708   3.063   5.461   3.252
 7937SOL     OW24709   2.069   5.723   4.101
 7937SOL    HW124710   2.001   5.707   4.029
 7937SOL    HW224711   2.160   5.734   4.059
 7938SOL     OW24712   5.588   6.127   5.547
 7938SOL    HW124713   5.563   6.224   5.546
 7938SOL    HW224714   5.685   6.117   5.570
 7939SOL     OW24715   0.842   1.766   5.915
 7939SOL    HW124716   0.895   1.789   5.996
 7939SOL    HW224717   0.899   1.712   5.852
 7940SOL     OW24718   3.741   1.820   2.769
 7940SOL    HW124719   3.789   1.771   2.842
 7940SOL    HW224720   3.692   1.754   2.712
 7941SOL     OW24721   4.882   6.653   3.036
 7941SOL    HW124722   4.973   6.694   3.028
 7941SOL    HW224723   4.889   6.562   3.077
 7942SOL     OW24724   0.938   2.998   3.196
 7942SOL    HW124725   0.899   2.935   3.264
 7942SOL    HW224726   0.911   3.092   3.220
 7943SOL     OW24727   0.888   4.360   5.703
 7943SOL    HW124728   0.959   4.402   5.759
 7943SOL    HW224729   0.804   4.352   5.756
 7944SOL     OW24730   0.217   2.693   1.706
 7944SOL    HW124731   0.165   2.671   1.789
 7944SOL    HW224732   0.308   2.652   1.712
 7945SOL     OW24733   5.932   5.264   2.704
 7945SOL    HW124734   5.989   5.220   2.773
 7945SOL    HW224735   5.918   5.202   2.627
 7946SOL     OW24736   3.689   6.577   5.774
 7946SOL    HW124737   3.623   6.607   5.844
 7946SOL    HW224738   3.756   6.650   5.758
 7947SOL     OW24739   2.204   2.064   5.034
 7947SOL    HW124740   2.193   2.069   5.133
 7947SOL    HW224741   2.299   2.041   5.012
 7948SOL     OW24742   1.129   4.949   0.926
 7948SOL    HW124743   1.095   4.880   0.861
 7948SOL    HW224744   1.127   5.039   0.882
 7949SOL     OW24745   4.247   3.907   6.079
 7949SOL    HW124746   4.241   3.811   6.104
 7949SOL    HW224747   4.343   3.936   6.080
 7950SOL     OW24748   4.982   5.991   5.231
 7950SOL    HW124749   5.065   5.956   5.188
 7950SOL    HW224750   4.915   5.916   5.241
 7951SOL     OW24751   2.157   5.100   2.317
 7951SOL    HW124752   2.242   5.054   2.343
 7951SOL    HW224753   2.124   5.155   2.394
 7952SOL     OW24754   6.965   3.405   0.186
 7952SOL    HW124755   0.044   3.392   0.195
 7952SOL    HW224756   6.918   3.325   0.223
 7953SOL     OW24757   4.299   1.922   1.576
 7953SOL    HW124758   4.224   1.861   1.600
 7953SOL    HW224759   4.314   1.987   1.651
 7954SOL     OW24760   3.868   3.884   6.352
 7954SOL    HW124761   3.944   3.947   6.340
 7954SOL    HW224762   3.784   3.935   6.371
 7955SOL     OW24763   2.495   1.232   6.756
 7955SOL    HW124764   2.439   1.165   6.709
 7955SOL    HW224765   2.436   1.297   6.804
 7956SOL     OW24766   5.942   1.524   1.740
 7956SOL    HW124767   5.955   1.510   1.642
 7956SOL    HW224768   5.863   1.471   1.771
 7957SOL     OW24769   2.091   1.214   6.896
 7957SOL    HW124770   2.185   1.248   6.891
 7957SOL    HW224771   2.027   1.290   6.886
 7958SOL     OW24772   5.432   3.988   5.975
 7958SOL    HW124773   5.444   4.081   5.940
 7958SOL    HW224774   5.365   3.989   6.050
 7959SOL     OW24775   5.143   0.590   6.740
 7959SOL    HW124776   5.114   0.539   6.821
 7959SOL    HW224777   5.068   0.595   6.675
 7960SOL     OW24778   1.023   1.451   6.011
 7960SOL    HW124779   0.998   1.382   5.943
 7960SOL    HW224780   0.941   1.503   6.037
 7961SOL     OW24781   6.080   0.145   0.624
 7961SOL    HW124782   6.114   0.234   0.656
 7961SOL    HW224783   6.126   0.121   0.538
 7962SOL     OW24784   0.109   1.823   5.760
 7962SOL    HW124785   0.193   1.798   5.808
 7962SOL    HW224786   0.096   1.763   5.681
 7963SOL     OW24787   6.548   5.496   3.952
 7963SOL    HW124788   6.596   5.550   4.021
 7963SOL    HW224789   6.601   5.495   3.867
 7964SOL     OW24790   6.027   2.927   2.168
 7964SOL    HW124791   6.126   2.921   2.157
 7964SOL    HW224792   5.997   3.019   2.143
 7965SOL     OW24793   3.789   2.192   6.059
 7965SOL    HW124794   3.865   2.189   6.124
 7965SOL    HW224795   3.763   2.098   6.035
 7966SOL     OW24796   3.336   3.006   5.411
 7966SOL    HW124797   3.262   3.050   5.462
 7966SOL    HW224798   3.424   3.047   5.438
 7967SOL     OW24799   1.949   5.401   1.821
 7967SOL    HW124800   1.897   5.316   1.825
 7967SOL    HW224801   1.887   5.478   1.837
 7968SOL     OW24802   6.302   2.141   5.186
 7968SOL    HW124803   6.310   2.119   5.283
 7968SOL    HW224804   6.280   2.238   5.176
 7969SOL     OW24805   5.267   6.002   0.579
 7969SOL    HW124806   5.318   6.088   0.583
 7969SOL    HW224807   5.232   5.980   0.670
 7970SOL     OW24808   5.524   3.416   3.022
 7970SOL    HW124809   5.614   3.421   3.065
 7970SOL    HW224810   5.510   3.325   2.984
 7971SOL     OW24811   3.078   0.929   2.106
 7971SOL    HW124812   3.013   0.925   2.030
 7971SOL    HW224813   3.116   0.838   2.121
 7972SOL     OW24814   3.787   3.644   1.790
 7972SOL    HW124815   3.833   3.713   1.734
 7972SOL    HW224816   3.706   3.611   1.741
 7973SOL     OW24817   5.527   4.156   4.887
 7973SOL    HW124818   5.495   4.160   4.792
 7973SOL    HW224819   5.611   4.102   4.892
 7974SOL     OW24820   6.137   1.070   5.921
 7974SOL    HW124821   6.140   1.124   5.837
 7974SOL    HW224822   6.063   1.003   5.916
 7975SOL     OW24823   4.898   0.280   0.870
 7975SOL    HW124824   4.819   0.222   0.851
 7975SOL    HW224825   4.874   0.375   0.851
 7976SOL     OW24826   0.934   6.943   5.988
 7976SOL    HW124827   0.835   6.960   5.989
 7976SOL    HW224828   0.966   6.944   5.893
 7977SOL     OW24829   4.444   6.103   2.340
 7977SOL    HW124830   4.397   6.186   2.370
 7977SOL    HW224831   4.377   6.030   2.328
 7978SOL     OW24832   0.200   2.803   6.385
 7978SOL    HW124833   0.299   2.800   6.392
 7978SOL    HW224834   0.161   2.843   6.467
 7979SOL     OW24835   1.985   4.404   5.856
 7979SOL    HW124836   2.066   4.452   5.821
 7979SOL    HW224837   2.011   4.313   5.887
 7980SOL     OW24838   2.826   5.575   6.804
 7980SOL    HW124839   2.805   5.545   6.898
 7980SOL    HW224840   2.816   5.674   6.798
 7981SOL     OW24841   0.616   5.072   1.744
 7981SOL    HW124842   0.692   5.071   1.679
 7981SOL    HW224843   0.637   5.136   1.818
 7982SOL     OW24844   1.494   1.755   5.950
 7982SOL    HW124845   1.524   1.741   5.855
 7982SOL    HW224846   1.483   1.852   5.967
 7983SOL     OW24847   6.507   1.936   1.271
 7983SOL    HW124848   6.444   1.880   1.326
 7983SOL    HW224849   6.456   2.008   1.224
 7984SOL     OW24850   0.282   1.178   0.598
 7984SOL    HW124851   0.276   1.209   0.693
 7984SOL    HW224852   0.376   1.150   0.577
 7985SOL     OW24853   2.416   2.167   4.687
 7985SOL    HW124854   2.493   2.141   4.745
 7985SOL    HW224855   2.438   2.146   4.591
 7986SOL     OW24856   3.281   0.804   5.890
 7986SOL    HW124857   3.208   0.838   5.950
 7986SOL    HW224858   3.327   0.881   5.847
 7987SOL     OW24859   2.100   3.209   0.715
 7987SOL    HW124860   2.077   3.278   0.784
 7987SOL    HW224861   2.083   3.247   0.624
 7988SOL     OW24862   1.508   0.612   2.487
 7988SOL    HW124863   1.602   0.637   2.467
 7988SOL    HW224864   1.451   0.694   2.491
 7989SOL     OW24865   2.529   3.556   0.167
 7989SOL    HW124866   2.584   3.476   0.142
 7989SOL    HW224867   2.463   3.530   0.237
 7990SOL     OW24868   2.529   5.098   4.571
 7990SOL    HW124869   2.506   5.060   4.481
 7990SOL    HW224870   2.453   5.153   4.604
 7991SOL     OW24871   5.984   1.272   3.997
 7991SOL    HW124872   5.887   1.254   3.986
 7991SOL    HW224873   5.998   1.343   4.066
 7992SOL     OW24874   1.311   0.216   0.235
 7992SOL    HW124875   1.277   0.251   0.322
 7992SOL    HW224876   1.250   0.244   0.161
 7993SOL     OW24877   7.011   0.065   1.443
 7993SOL    HW124878   0.051   7.010   1.472
 7993SOL    HW224879   6.933   0.071   1.506
 7994SOL     OW24880   5.223   0.820   3.374
 7994SOL    HW124881   5.278   0.893   3.415
 7994SOL    HW224882   5.262   0.731   3.399
 7995SOL     OW24883   6.184   5.300   3.545
 7995SOL    HW124884   6.093   5.324   3.578
 7995SOL    HW224885   6.241   5.269   3.622
 7996SOL     OW24886   3.473   5.956   4.486
 7996SOL    HW124887   3.536   5.896   4.436
 7996SOL    HW224888   3.520   5.999   4.562
 7997SOL     OW24889   6.851   1.845   0.356
 7997SOL    HW124890   6.939   1.885   0.332
 7997SOL    HW224891   6.838   1.760   0.305
 7998SOL     OW24892   3.161   6.918   6.608
 7998SOL    HW124893   3.202   6.895   6.519
 7998SOL    HW224894   3.162   6.836   6.666
 7999SOL     OW24895   0.982   1.087   5.653
 7999SOL    HW124896   0.887   1.115   5.642
 7999SOL    HW224897   1.011   1.036   5.571
 8000SOL     OW24898   5.662   6.700   6.062
 8000SOL    HW124899   5.699   6.621   6.111
 8000SOL    HW224900   5.642   6.674   5.968
 8001SOL     OW24901   4.536   6.047   1.387
 8001SOL    HW124902   4.587   5.972   1.429
 8001SOL    HW224903   4.439   6.038   1.408
 8002SOL     OW24904   0.850   0.893   5.311
 8002SOL    HW124905   0.773   0.848   5.357
 8002SOL    HW224906   0.887   0.831   5.241
 8003SOL     OW24907   2.074   5.742   1.387
 8003SOL    HW124908   2.163   5.754   1.344
 8003SOL    HW224909   2.077   5.664   1.449
 8004SOL     OW24910   1.996   3.438   3.640
 8004SOL    HW124911   1.982   3.449   3.542
 8004SOL    HW224912   2.029   3.346   3.660
 8005SOL     OW24913   2.383   0.739   3.526
 8005SOL    HW124914   2.406   0.642   3.517
 8005SOL    HW224915   2.365   0.760   3.622
 8006SOL     OW24916   2.495   5.983   5.159
 8006SOL    HW124917   2.423   6.043   5.127
 8006SOL    HW224918   2.484   5.967   5.257
 8007SOL     OW24919   5.999   1.909   6.465
 8007SOL    HW124920   5.909   1.939   6.495
 8007SOL    HW224921   6.007   1.919   6.366
 8008SOL     OW24922   3.362   5.620   6.578
 8008SOL    HW124923   3.293   5.580   6.638
 8008SOL    HW224924   3.364   5.719   6.592
 8009SOL     OW24925   4.464   1.112   0.445
 8009SOL    HW124926   4.514   1.138   0.527
 8009SOL    HW224927   4.414   1.191   0.410
 8010SOL     OW24928   2.858   2.297   4.846
 8010SOL    HW124929   2.957   2.291   4.862
 8010SOL    HW224930   2.841   2.345   4.761
 8011SOL     OW24931   3.407   2.197   1.529
 8011SOL    HW124932   3.489   2.200   1.586
 8011SOL    HW224933   3.361   2.109   1.541
 8012SOL     OW24934   1.267   2.752   6.549
 8012SOL    HW124935   1.262   2.849   6.525
 8012SOL    HW224936   1.213   2.735   6.632
 8013SOL     OW24937   1.668   3.920   3.472
 8013SOL    HW124938   1.582   3.964   3.494
 8013SOL    HW224939   1.731   3.926   3.549
 8014SOL     OW24940   2.190   0.251   4.455
 8014SOL    HW124941   2.094   0.252   4.485
 8014SOL    HW224942   2.234   0.167   4.485
 8015SOL     OW24943   2.186   0.573   6.024
 8015SOL    HW124944   2.128   0.523   5.960
 8015SOL    HW224945   2.268   0.605   5.977
 8016SOL     OW24946   4.165   1.241   5.093
 8016SOL    HW124947   4.157   1.273   5.188
 8016SOL    HW224948   4.111   1.301   5.034
 8017SOL     OW24949   6.231   0.008   6.832
 8017SOL    HW124950   6.199   7.008   6.740
 8017SOL    HW224951   6.294   0.087   6.830
 8018SOL     OW24952   3.282   2.735   0.203
 8018SOL    HW124953   3.375   2.750   0.170
 8018SOL    HW224954   3.217   2.768   0.134
 8019SOL     OW24955   1.861   4.076   1.489
 8019SOL    HW124956   1.765   4.077   1.518
 8019SOL    HW224957   1.871   4.126   1.404
 8020SOL     OW24958   6.601   0.169   6.523
 8020SOL    HW124959   6.589   0.256   6.475
 8020SOL    HW224960   6.554   0.173   6.611
 8021SOL     OW24961   1.855   2.873   1.806
 8021SOL    HW124962   1.774   2.909   1.759
 8021SOL    HW224963   1.914   2.826   1.741
 8022SOL     OW24964   6.332   0.328   1.917
 8022SOL    HW124965   6.344   0.395   1.990
 8022SOL    HW224966   6.261   0.360   1.854
 8023SOL     OW24967   5.690   4.546   2.523
 8023SOL    HW124968   5.729   4.483   2.589
 8023SOL    HW224969   5.756   4.564   2.450
 8024SOL     OW24970   1.243   5.224   6.189
 8024SOL    HW124971   1.317   5.167   6.224
 8024SOL    HW224972   1.278   5.314   6.164
 8025SOL     OW24973   1.506   5.086   1.084
 8025SOL    HW124974   1.552   5.162   1.038
 8025SOL    HW224975   1.556   5.063   1.168
 8026SOL     OW24976   6.691   4.532   0.827
 8026SOL    HW124977   6.747   4.456   0.795
 8026SOL    HW224978   6.741   4.584   0.897
 8027SOL     OW24979   3.347   6.414   5.849
 8027SOL    HW124980   3.377   6.385   5.940
 8027SOL    HW224981   3.382   6.350   5.781
 8028SOL     OW24982   3.393   5.032   4.921
 8028SOL    HW124983   3.444   5.033   4.835
 8028SOL    HW224984   3.309   5.086   4.912
 8029SOL     OW24985   4.779   2.403   2.153
 8029SOL    HW124986   4.799   2.307   2.135
 8029SOL    HW224987   4.806   2.426   2.246
 8030SOL     OW24988   5.705   5.540   1.020
 8030SOL    HW124989   5.779   5.554   0.954
 8030SOL    HW224990   5.735   5.571   1.111
 8031SOL     OW24991   6.923   6.397   3.070
 8031SOL    HW124992   6.895   6.481   3.117
 8031SOL    HW224993   6.972   6.421   2.986
 8032SOL     OW24994   5.377   3.718   1.811
 8032SOL    HW124995   5.300   3.776   1.836
 8032SOL    HW224996   5.343   3.637   1.762
 8033SOL     OW24997   4.690   3.336   0.125
 8033SOL    HW124998   4.660   3.428   0.149
 8033SOL    HW224999   4.767   3.309   0.183
 8034SOL     OW25000   4.962   6.850   5.695
 8034SOL    HW125001   4.927   6.911   5.766
 8034SOL    HW225002   5.059   6.870   5.679
 8035SOL     OW25003   5.190   1.785   2.040
 8035SOL    HW125004   5.180   1.884   2.043
 8035SOL    HW225005   5.141   1.744   2.117
 8036SOL     OW25006   6.973   3.671   3.734
 8036SOL    HW125007   6.975   3.706   3.828
 8036SOL    HW225008   6.991   3.746   3.670
 8037SOL     OW25009   1.653   3.395   0.180
 8037SOL    HW125010   1.580   3.334   0.149
 8037SOL    HW225011   1.698   3.437   0.101
 8038SOL     OW25012   4.353   6.594   2.934
 8038SOL    HW125013   4.444   6.634   2.941
 8038SOL    HW225014   4.339   6.560   2.841
 8039SOL     OW25015   0.035   1.839   4.759
 8039SOL    HW125016   0.034   1.823   4.661
 8039SOL    HW225017   6.963   1.822   4.797
 8040SOL     OW25018   1.673   6.475   6.610
 8040SOL    HW125019   1.727   6.553   6.580
 8040SOL    HW225020   1.617   6.442   6.534
 8041SOL     OW25021   3.401   0.901   2.867
 8041SOL    HW125022   3.372   0.805   2.866
 8041SOL    HW225023   3.448   0.921   2.953
 8042SOL     OW25024   4.644   4.080   5.713
 8042SOL    HW125025   4.713   4.147   5.690
 8042SOL    HW225026   4.586   4.115   5.786
 8043SOL     OW25027   3.611   4.715   0.312
 8043SOL    HW125028   3.529   4.657   0.302
 8043SOL    HW225029   3.684   4.678   0.255
 8044SOL     OW25030   3.747   3.715   0.508
 8044SOL    HW125031   3.696   3.635   0.477
 8044SOL    HW225032   3.707   3.750   0.593
 8045SOL     OW25033   6.514   2.278   2.491
 8045SOL    HW125034   6.465   2.217   2.553
 8045SOL    HW225035   6.609   2.287   2.521
 8046SOL     OW25036   0.406   4.334   2.312
 8046SOL    HW125037   0.422   4.312   2.216
 8046SOL    HW225038   0.494   4.352   2.357
 8047SOL     OW25039   3.424   6.730   6.517
 8047SOL    HW125040   3.364   6.651   6.504
 8047SOL    HW225041   3.506   6.702   6.566
 8048SOL     OW25042   3.019   2.501   6.978
 8048SOL    HW125043   3.100   2.527   6.926
 8048SOL    HW225044   2.966   2.583   7.000
 8049SOL     OW25045   0.201   6.802   0.510
 8049SOL    HW125046   0.163   6.721   0.555
 8049SOL    HW225047   0.134   6.839   0.446
 8050SOL     OW25048   2.004   3.560   4.311
 8050SOL    HW125049   2.040   3.564   4.404
 8050SOL    HW225050   1.919   3.612   4.306
 8051SOL     OW25051   5.220   6.311   4.644
 8051SOL    HW125052   5.157   6.387   4.632
 8051SOL    HW225053   5.187   6.251   4.717
 8052SOL     OW25054   2.687   2.181   1.360
 8052SOL    HW125055   2.724   2.092   1.334
 8052SOL    HW225056   2.726   2.252   1.302
 8053SOL     OW25057   3.300   3.123   5.176
 8053SOL    HW125058   3.294   3.072   5.261
 8053SOL    HW225059   3.391   3.163   5.168
 8054SOL     OW25060   0.034   4.036   4.348
 8054SOL    HW125061   6.956   4.035   4.327
 8054SOL    HW225062   0.049   4.088   4.432
 8055SOL     OW25063   6.753   0.601   5.521
 8055SOL    HW125064   6.661   0.562   5.514
 8055SOL    HW225065   6.818   0.530   5.545
 8056SOL     OW25066   3.314   0.305   4.907
 8056SOL    HW125067   3.375   0.340   4.977
 8056SOL    HW225068   3.253   0.236   4.947
 8057SOL     OW25069   2.483   2.551   2.692
 8057SOL    HW125070   2.464   2.587   2.783
 8057SOL    HW225071   2.452   2.617   2.623
 8058SOL     OW25072   3.074   6.635   2.525
 8058SOL    HW125073   3.043   6.685   2.445
 8058SOL    HW225074   3.173   6.625   2.522
 8059SOL     OW25075   2.855   0.566   5.419
 8059SOL    HW125076   2.771   0.606   5.382
 8059SOL    HW225077   2.925   0.638   5.429
 8060SOL     OW25078   0.309   2.179   6.142
 8060SOL    HW125079   0.365   2.259   6.167
 8060SOL    HW225080   0.299   2.176   6.042
 8061SOL     OW25081   0.760   0.715   2.512
 8061SOL    HW125082   0.720   0.762   2.434
 8061SOL    HW225083   0.838   0.767   2.547
 8062SOL     OW25084   4.160   5.245   4.407
 8062SOL    HW125085   4.167   5.343   4.426
 8062SOL    HW225086   4.241   5.214   4.358
 8063SOL     OW25087   2.980   1.053   2.963
 8063SOL    HW125088   3.065   1.105   2.952
 8063SOL    HW225089   2.902   1.109   2.935
 8064SOL     OW25090   6.019   2.309   0.145
 8064SOL    HW125091   5.931   2.281   0.183
 8064SOL    HW225092   6.023   2.282   0.048
 8065SOL     OW25093   2.836   6.494   4.616
 8065SOL    HW125094   2.858   6.452   4.704
 8065SOL    HW225095   2.920   6.512   4.566
 8066SOL     OW25096   6.473   0.194   5.032
 8066SOL    HW125097   6.531   0.236   5.102
 8066SOL    HW225098   6.469   0.095   5.045
 8067SOL     OW25099   5.089   2.259   3.097
 8067SOL    HW125100   5.056   2.338   3.149
 8067SOL    HW225101   5.039   2.253   3.011
 8068SOL     OW25102   0.510   4.936   1.066
 8068SOL    HW125103   0.475   4.846   1.038
 8068SOL    HW225104   0.434   4.994   1.095
 8069SOL     OW25105   1.960   4.446   1.696
 8069SOL    HW125106   2.007   4.376   1.641
 8069SOL    HW225107   1.988   4.537   1.665
 8070SOL     OW25108   3.881   2.738   0.123
 8070SOL    HW125109   3.839   2.799   0.055
 8070SOL    HW225110   3.827   2.654   0.129
 8071SOL     OW25111   3.163   6.611   5.531
 8071SOL    HW125112   3.098   6.564   5.591
 8071SOL    HW225113   3.245   6.555   5.521
 8072SOL     OW25114   3.263   1.816   1.288
 8072SOL    HW125115   3.299   1.735   1.243
 8072SOL    HW225116   3.177   1.843   1.243
 8073SOL     OW25117   3.076   5.693   5.358
 8073SOL    HW125118   3.061   5.791   5.342
 8073SOL    HW225119   3.015   5.661   5.430
 8074SOL     OW25120   2.634   1.464   0.827
 8074SOL    HW125121   2.618   1.366   0.812
 8074SOL    HW225122   2.563   1.516   0.780
 8075SOL     OW25123   0.047   0.499   0.269
 8075SOL    HW125124   0.002   0.571   0.321
 8075SOL    HW225125   0.082   0.429   0.332
 8076SOL     OW25126   6.025   6.886   5.366
 8076SOL    HW125127   6.061   6.928   5.283
 8076SOL    HW225128   5.925   6.894   5.366
 8077SOL     OW25129   3.305   6.243   2.558
 8077SOL    HW125130   3.304   6.145   2.580
 8077SOL    HW225131   3.242   6.261   2.483
 8078SOL     OW25132   0.498   1.958   1.857
 8078SOL    HW125133   0.525   2.050   1.888
 8078SOL    HW225134   0.439   1.966   1.777
 8079SOL     OW25135   6.796   1.104   3.645
 8079SOL    HW125136   6.826   1.198   3.633
 8079SOL    HW225137   6.734   1.078   3.570
 8080SOL     OW25138   1.266   2.239   2.204
 8080SOL    HW125139   1.354   2.262   2.246
 8080SOL    HW225140   1.254   2.140   2.202
 8081SOL     OW25141   6.141   5.347   5.957
 8081SOL    HW125142   6.186   5.269   5.913
 8081SOL    HW225143   6.042   5.335   5.950
 8082SOL     OW25144   3.348   0.624   2.275
 8082SOL    HW125145   3.258   0.599   2.240
 8082SOL    HW225146   3.416   0.619   2.202
 8083SOL     OW25147   4.948   2.580   3.832
 8083SOL    HW125148   4.866   2.617   3.876
 8083SOL    HW225149   5.000   2.527   3.898
 8084SOL     OW25150   2.355   0.611   6.988
 8084SOL    HW125151   2.308   0.523   6.991
 8084SOL    HW225152   2.436   0.605   6.930
 8085SOL     OW25153   5.719   5.918   2.723
 8085SOL    HW125154   5.759   5.984   2.787
 8085SOL    HW225155   5.778   5.910   2.642
 8086SOL     OW25156   0.067   0.541   1.634
 8086SOL    HW125157   0.028   0.487   1.708
 8086SOL    HW225158   0.042   0.501   1.546
 8087SOL     OW25159   1.510   0.339   0.107
 8087SOL    HW125160   1.596   0.291   0.121
 8087SOL    HW225161   1.438   0.294   0.161
 8088SOL     OW25162   5.301   0.516   0.358
 8088SOL    HW125163   5.265   0.486   0.447
 8088SOL    HW225164   5.224   0.544   0.299
 8089SOL     OW25165   5.573   2.969   6.831
 8089SOL    HW125166   5.657   3.016   6.807
 8089SOL    HW225167   5.577   2.874   6.799
 8090SOL     OW25168   3.758   1.050   6.193
 8090SOL    HW125169   3.675   1.029   6.245
 8090SOL    HW225170   3.822   1.101   6.251
 8091SOL     OW25171   1.507   3.671   4.898
 8091SOL    HW125172   1.504   3.628   4.988
 8091SOL    HW225173   1.471   3.764   4.904
 8092SOL     OW25174   4.940   2.014   5.159
 8092SOL    HW125175   4.985   1.926   5.142
 8092SOL    HW225176   4.887   2.041   5.078
 8093SOL     OW25177   2.852   5.240   3.405
 8093SOL    HW125178   2.932   5.289   3.370
 8093SOL    HW225179   2.790   5.305   3.449
 8094SOL     OW25180   0.303   2.540   5.235
 8094SOL    HW125181   0.333   2.607   5.167
 8094SOL    HW225182   0.204   2.527   5.229
 8095SOL     OW25183   0.941   4.228   4.905
 8095SOL    HW125184   0.843   4.207   4.906
 8095SOL    HW225185   0.993   4.143   4.906
 8096SOL     OW25186   2.263   0.537   2.410
 8096SOL    HW125187   2.249   0.505   2.503
 8096SOL    HW225188   2.213   0.622   2.396
 8097SOL     OW25189   4.614   6.976   4.649
 8097SOL    HW125190   4.689   6.960   4.713
 8097SOL    HW225191   4.648   0.006   4.569
 8098SOL     OW25192   2.387   6.376   3.937
 8098SOL    HW125193   2.436   6.373   4.024
 8098SOL    HW225194   2.451   6.368   3.861
 8099SOL     OW25195   4.909   6.402   4.395
 8099SOL    HW125196   4.927   6.432   4.489
 8099SOL    HW225197   4.974   6.331   4.369
 8100SOL     OW25198   6.763   1.531   6.699
 8100SOL    HW125199   6.732   1.593   6.627
 8100SOL    HW225200   6.862   1.517   6.690
 8101SOL     OW25201   1.571   5.807   0.846
 8101SOL    HW125202   1.583   5.906   0.850
 8101SOL    HW225203   1.615   5.765   0.924
 8102SOL     OW25204   0.852   3.651   2.778
 8102SOL    HW125205   0.862   3.674   2.681
 8102SOL    HW225206   0.757   3.664   2.806
 8103SOL     OW25207   3.716   0.105   1.730
 8103SOL    HW125208   3.800   0.154   1.707
 8103SOL    HW225209   3.699   0.034   1.662
 8104SOL     OW25210   1.442   0.616   6.386
 8104SOL    HW125211   1.505   0.564   6.328
 8104SOL    HW225212   1.399   0.554   6.452
 8105SOL     OW25213   6.795   3.009   2.526
 8105SOL    HW125214   6.730   2.987   2.598
 8105SOL    HW225215   6.749   3.064   2.456
 8106SOL     OW25216   2.989   5.880   3.122
 8106SOL    HW125217   3.083   5.865   3.091
 8106SOL    HW225218   2.962   5.974   3.105
 8107SOL     OW25219   0.983   5.441   3.846
 8107SOL    HW125220   0.946   5.522   3.801
 8107SOL    HW225221   1.060   5.468   3.904
 8108SOL     OW25222   6.574   2.773   6.508
 8108SOL    HW125223   6.502   2.788   6.577
 8108SOL    HW225224   6.538   2.794   6.417
 8109SOL     OW25225   0.130   3.485   6.609
 8109SOL    HW125226   0.036   3.519   6.610
 8109SOL    HW225227   0.189   3.550   6.562
 8110SOL     OW25228   4.207   5.805   2.049
 8110SOL    HW125229   4.289   5.793   2.106
 8110SOL    HW225230   4.195   5.902   2.028
 8111SOL     OW25231   4.705   1.414   4.568
 8111SOL    HW125232   4.687   1.507   4.601
 8111SOL    HW225233   4.723   1.417   4.470
 8112SOL     OW25234   2.538   2.575   4.254
 8112SOL    HW125235   2.463   2.637   4.230
 8112SOL    HW225236   2.558   2.583   4.352
 8113SOL     OW25237   0.436   4.126   0.773
 8113SOL    HW125238   0.402   4.055   0.712
 8113SOL    HW225239   0.359   4.185   0.801
 8114SOL     OW25240   1.872   3.713   2.636
 8114SOL    HW125241   1.822   3.675   2.714
 8114SOL    HW225242   1.888   3.810   2.652
 8115SOL     OW25243   3.422   6.846   6.271
 8115SOL    HW125244   3.429   6.817   6.366
 8115SOL    HW225245   3.327   6.869   6.250
 8116SOL     OW25246   3.949   4.853   0.401
 8116SOL    HW125247   4.022   4.810   0.348
 8116SOL    HW225248   3.903   4.921   0.344
 8117SOL     OW25249   1.961   0.287   3.073
 8117SOL    HW125250   1.949   0.195   3.035
 8117SOL    HW225251   2.049   0.292   3.120
 8118SOL     OW25252   5.277   3.749   5.909
 8118SOL    HW125253   5.250   3.736   6.004
 8118SOL    HW225254   5.321   3.838   5.898
 8119SOL     OW25255   5.455   6.470   6.419
 8119SOL    HW125256   5.439   6.564   6.449
 8119SOL    HW225257   5.532   6.468   6.356
 8120SOL     OW25258   3.164   4.487   0.936
 8120SOL    HW125259   3.123   4.575   0.959
 8120SOL    HW225260   3.104   4.413   0.968
 8121SOL     OW25261   0.778   4.954   1.542
 8121SOL    HW125262   0.787   4.856   1.520
 8121SOL    HW225263   0.833   5.007   1.479
 8122SOL     OW25264   0.112   4.778   2.871
 8122SOL    HW125265   0.047   4.803   2.800
 8122SOL    HW225266   0.196   4.832   2.860
 8123SOL     OW25267   6.679   2.218   6.889
 8123SOL    HW125268   6.777   2.214   6.904
 8123SOL    HW225269   6.639   2.286   6.951
 8124SOL     OW25270   4.786   5.985   2.087
 8124SOL    HW125271   4.838   5.906   2.122
 8124SOL    HW225272   4.751   5.964   1.996
 8125SOL     OW25273   1.424   1.700   3.079
 8125SOL    HW125274   1.416   1.667   3.174
 8125SOL    HW225275   1.345   1.757   3.058
 8126SOL     OW25276   5.271   5.333   3.487
 8126SOL    HW125277   5.223   5.249   3.514
 8126SOL    HW225278   5.284   5.332   3.388
 8127SOL     OW25279   2.461   3.636   6.340
 8127SOL    HW125280   2.501   3.564   6.284
 8127SOL    HW225281   2.430   3.597   6.427
 8128SOL     OW25282   2.880   2.094   2.224
 8128SOL    HW125283   2.923   2.164   2.167
 8128SOL    HW225284   2.804   2.134   2.275
 8129SOL     OW25285   3.457   1.346   6.075
 8129SOL    HW125286   3.397   1.404   6.019
 8129SOL    HW225287   3.553   1.366   6.053
 8130SOL     OW25288   0.576   4.799   6.610
 8130SOL    HW125289   0.643   4.824   6.541
 8130SOL    HW225290   0.502   4.866   6.610
 8131SOL     OW25291   2.721   1.494   1.506
 8131SOL    HW125292   2.682   1.510   1.416
 8131SOL    HW225293   2.817   1.468   1.497
 8132SOL     OW25294   5.289   6.804   5.025
 8132SOL    HW125295   5.327   6.882   4.975
 8132SOL    HW225296   5.259   6.735   4.959
 8133SOL     OW25297   2.864   5.205   2.445
 8133SOL    HW125298   2.840   5.296   2.411
 8133SOL    HW225299   2.950   5.176   2.403
 8134SOL     OW25300   0.355   1.994   6.565
 8134SOL    HW125301   0.280   1.945   6.521
 8134SOL    HW225302   0.407   1.931   6.623
 8135SOL     OW25303   2.654   0.289   1.648
 8135SOL    HW125304   2.591   0.306   1.572
 8135SOL    HW225305   2.610   0.228   1.714
 8136SOL     OW25306   4.462   5.312   2.635
 8136SOL    HW125307   4.411   5.332   2.719
 8136SOL    HW225308   4.429   5.226   2.596
 8137SOL     OW25309   2.969   1.482   5.111
 8137SOL    HW125310   3.001   1.570   5.147
 8137SOL    HW225311   2.870   1.487   5.096
 8138SOL     OW25312   5.392   1.181   1.470
 8138SOL    HW125313   5.306   1.205   1.424
 8138SOL    HW225314   5.418   1.088   1.444
 8139SOL     OW25315   0.314   0.508   1.866
 8139SOL    HW125316   0.367   0.589   1.840
 8139SOL    HW225317   0.228   0.538   1.907
 8140SOL     OW25318   6.111   0.471   6.017
 8140SOL    HW125319   6.132   0.413   5.939
 8140SOL    HW225320   6.062   0.553   5.986
 8141SOL     OW25321   4.268   5.291   5.053
 8141SOL    HW125322   4.363   5.265   5.072
 8141SOL    HW225323   4.266   5.355   4.976
 8142SOL     OW25324   0.158   5.439   0.052
 8142SOL    HW125325   0.116   5.378   0.120
 8142SOL    HW225326   0.141   5.534   0.077
 8143SOL     OW25327   6.052   4.401   0.705
 8143SOL    HW125328   6.093   4.449   0.628
 8143SOL    HW225329   5.959   4.436   0.720
 8144SOL     OW25330   5.877   6.185   6.889
 8144SOL    HW125331   5.941   6.158   6.961
 8144SOL    HW225332   5.878   6.116   6.816
 8145SOL     OW25333   4.968   6.025   1.727
 8145SOL    HW125334   4.941   6.121   1.729
 8145SOL    HW225335   4.983   5.993   1.821
 8146SOL     OW25336   4.163   0.617   4.974
 8146SOL    HW125337   4.134   0.634   5.068
 8146SOL    HW225338   4.185   0.704   4.929
 8147SOL     OW25339   5.929   2.324   2.581
 8147SOL    HW125340   5.886   2.414   2.571
 8147SOL    HW225341   6.028   2.334   2.578
 8148SOL     OW25342   5.243   4.305   1.734
 8148SOL    HW125343   5.289   4.234   1.680
 8148SOL    HW225344   5.234   4.274   1.829
 8149SOL     OW25345   2.266   5.864   1.968
 8149SOL    HW125346   2.264   5.939   2.033
 8149SOL    HW225347   2.304   5.895   1.881
 8150SOL     OW25348   0.317   4.904   6.666
 8150SOL    HW125349   0.287   4.982   6.611
 8150SOL    HW225350   0.242   4.838   6.673
 8151SOL     OW25351   6.445   2.489   1.588
 8151SOL    HW125352   6.459   2.514   1.684
 8151SOL    HW225353   6.532   2.497   1.539
 8152SOL     OW25354   0.684   2.326   2.833
 8152SOL    HW125355   0.647   2.292   2.920
 8152SOL    HW225356   0.783   2.338   2.841
 8153SOL     OW25357   3.616   0.204   2.760
 8153SOL    HW125358   3.645   0.267   2.832
 8153SOL    HW225359   3.696   0.165   2.715
 8154SOL     OW25360   2.978   5.844   3.762
 8154SOL    HW125361   2.954   5.848   3.665
 8154SOL    HW225362   3.077   5.844   3.773
 8155SOL     OW25363   2.546   3.380   1.703
 8155SOL    HW125364   2.473   3.396   1.769
 8155SOL    HW225365   2.523   3.300   1.647
 8156SOL     OW25366   4.809   0.206   6.006
 8156SOL    HW125367   4.766   0.173   6.090
 8156SOL    HW225368   4.739   0.234   5.941
 8157SOL     OW25369   5.902   5.502   6.359
 8157SOL    HW125370   5.977   5.485   6.295
 8157SOL    HW225371   5.824   5.540   6.310
 8158SOL     OW25372   0.369   5.558   1.128
 8158SOL    HW125373   0.433   5.620   1.172
 8158SOL    HW225374   0.381   5.466   1.164
 8159SOL     OW25375   2.566   6.135   2.452
 8159SOL    HW125376   2.665   6.136   2.466
 8159SOL    HW225377   2.546   6.135   2.354
 8160SOL     OW25378   4.681   1.798   1.850
 8160SOL    HW125379   4.688   1.868   1.921
 8160SOL    HW225380   4.724   1.831   1.766
 8161SOL     OW25381   5.210   1.320   0.303
 8161SOL    HW125382   5.204   1.220   0.294
 8161SOL    HW225383   5.287   1.354   0.249
 8162SOL     OW25384   6.700   6.817   6.148
 8162SOL    HW125385   6.672   6.787   6.239
 8162SOL    HW225386   6.785   6.870   6.154
 8163SOL     OW25387   2.624   3.804   5.571
 8163SOL    HW125388   2.672   3.767   5.650
 8163SOL    HW225389   2.567   3.881   5.600
 8164SOL     OW25390   5.867   3.771   0.696
 8164SOL    HW125391   5.908   3.708   0.762
 8164SOL    HW225392   5.770   3.748   0.683
 8165SOL     OW25393   0.840   4.912   6.566
 8165SOL    HW125394   0.937   4.918   6.542
 8165SOL    HW225395   0.784   4.924   6.483
 8166SOL     OW25396   2.756   1.095   2.209
 8166SOL    HW125397   2.702   1.025   2.164
 8166SOL    HW225398   2.806   1.055   2.286
 8167SOL     OW25399   5.605   1.342   4.162
 8167SOL    HW125400   5.647   1.381   4.244
 8167SOL    HW225401   5.567   1.416   4.106
 8168SOL     OW25402   3.535   1.063   2.675
 8168SOL    HW125403   3.493   1.068   2.585
 8168SOL    HW225404   3.502   0.983   2.724
 8169SOL     OW25405   5.269   3.548   1.621
 8169SOL    HW125406   5.200   3.495   1.669
 8169SOL    HW225407   5.319   3.488   1.558
 8170SOL     OW25408   1.826   5.865   2.953
 8170SOL    HW125409   1.834   5.816   3.040
 8170SOL    HW225410   1.781   5.953   2.968
 8171SOL     OW25411   1.241   1.685   6.780
 8171SOL    HW125412   1.296   1.653   6.703
 8171SOL    HW225413   1.171   1.617   6.801
 8172SOL     OW25414   0.607   0.722   1.464
 8172SOL    HW125415   0.674   0.688   1.399
 8172SOL    HW225416   0.515   0.717   1.424
 8173SOL     OW25417   3.658   1.933   0.425
 8173SOL    HW125418   3.708   1.976   0.350
 8173SOL    HW225419   3.565   1.911   0.395
 8174SOL     OW25420   4.971   1.728   0.995
 8174SOL    HW125421   5.045   1.740   1.062
 8174SOL    HW225422   4.996   1.776   0.911
 8175SOL     OW25423   0.065   2.602   6.181
 8175SOL    HW125424   0.104   2.646   6.262
 8175SOL    HW225425   0.104   2.644   6.099
 8176SOL     OW25426   2.866   6.132   1.965
 8176SOL    HW125427   2.851   6.067   2.039
 8176SOL    HW225428   2.797   6.117   1.894
 8177SOL     OW25429   1.915   6.021   4.289
 8177SOL    HW125430   1.833   5.987   4.243
 8177SOL    HW225431   1.963   5.945   4.332
 8178SOL     OW25432   1.673   6.805   6.526
 8178SOL    HW125433   1.744   6.750   6.570
 8178SOL    HW225434   1.701   6.826   6.432
 8179SOL     OW25435   3.777   3.173   6.991
 8179SOL    HW125436   3.842   3.223   6.932
 8179SOL    HW225437   3.684   3.188   6.958
 8180SOL     OW25438   6.596   6.961   4.179
 8180SOL    HW125439   6.694   6.980   4.169
 8180SOL    HW225440   6.543   0.016   4.137
 8181SOL     OW25441   2.208   0.845   2.390
 8181SOL    HW125442   2.285   0.905   2.367
 8181SOL    HW225443   2.169   0.874   2.478
 8182SOL     OW25444   3.973   1.728   6.684
 8182SOL    HW125445   3.984   1.748   6.781
 8182SOL    HW225446   4.055   1.754   6.634
 8183SOL     OW25447   0.619   2.263   4.772
 8183SOL    HW125448   0.697   2.260   4.835
 8183SOL    HW225449   0.619   2.350   4.723
 8184SOL     OW25450   5.596   1.852   5.677
 8184SOL    HW125451   5.580   1.787   5.603
 8184SOL    HW225452   5.615   1.942   5.639
 8185SOL     OW25453   2.980   0.692   0.486
 8185SOL    HW125454   2.957   0.663   0.579
 8185SOL    HW225455   3.074   0.666   0.466
 8186SOL     OW25456   3.124   6.148   6.571
 8186SOL    HW125457   3.054   6.217   6.556
 8186SOL    HW225458   3.168   6.124   6.485
 8187SOL     OW25459   1.836   2.310   5.151
 8187SOL    HW125460   1.911   2.284   5.090
 8187SOL    HW225461   1.820   2.408   5.145
 8188SOL     OW25462   5.644   1.672   2.516
 8188SOL    HW125463   5.591   1.739   2.464
 8188SOL    HW225464   5.668   1.710   2.606
 8189SOL     OW25465   4.975   4.352   2.366
 8189SOL    HW125466   5.036   4.273   2.363
 8189SOL    HW225467   4.966   4.390   2.274
 8190SOL     OW25468   5.284   5.368   4.570
 8190SOL    HW125469   5.363   5.311   4.595
 8190SOL    HW225470   5.237   5.326   4.493
 8191SOL     OW25471   2.656   5.441   3.373
 8191SOL    HW125472   2.672   5.519   3.433
 8191SOL    HW225473   2.557   5.425   3.366
 8192SOL     OW25474   2.550   5.850   0.215
 8192SOL    HW125475   2.572   5.916   0.287
 8192SOL    HW225476   2.452   5.834   0.214
 8193SOL     OW25477   5.997   6.699   4.429
 8193SOL    HW125478   5.992   6.791   4.390
 8193SOL    HW225479   6.072   6.695   4.495
 8194SOL     OW25480   6.330   2.661   6.940
 8194SOL    HW125481   6.280   2.669   0.007
 8194SOL    HW225482   6.373   2.571   6.934
 8195SOL     OW25483   0.676   0.833   0.937
 8195SOL    HW125484   0.737   0.846   0.859
 8195SOL    HW225485   0.730   0.823   1.021
 8196SOL     OW25486   4.049   0.106   5.640
 8196SOL    HW125487   4.077   0.023   5.590
 8196SOL    HW225488   4.117   0.178   5.623
 8197SOL     OW25489   5.114   1.657   6.223
 8197SOL    HW125490   5.015   1.664   6.236
 8197SOL    HW225491   5.144   1.564   6.241
 8198SOL     OW25492   3.228   6.721   2.145
 8198SOL    HW125493   3.282   6.797   2.181
 8198SOL    HW225494   3.144   6.711   2.199
 8199SOL     OW25495   6.538   3.968   0.432
 8199SOL    HW125496   6.543   3.983   0.531
 8199SOL    HW225497   6.512   3.873   0.414
 8200SOL     OW25498   4.472   4.072   1.346
 8200SOL    HW125499   4.487   3.991   1.290
 8200SOL    HW225500   4.548   4.081   1.411
 8201SOL     OW25501   5.329   0.807   4.620
 8201SOL    HW125502   5.329   0.811   4.520
 8201SOL    HW225503   5.423   0.798   4.653
 8202SOL     OW25504   1.515   5.533   4.352
 8202SOL    HW125505   1.538   5.441   4.384
 8202SOL    HW225506   1.589   5.596   4.374
 8203SOL     OW25507   4.701   3.266   0.544
 8203SOL    HW125508   4.637   3.246   0.470
 8203SOL    HW225509   4.740   3.180   0.578
 8204SOL     OW25510   3.483   6.108   1.194
 8204SOL    HW125511   3.520   6.092   1.102
 8204SOL    HW225512   3.442   6.199   1.197
 8205SOL     OW25513   5.866   4.683   1.852
 8205SOL    HW125514   5.896   4.645   1.939
 8205SOL    HW225515   5.826   4.610   1.795
 8206SOL     OW25516   3.353   2.278   5.576
 8206SOL    HW125517   3.289   2.296   5.651
 8206SOL    HW225518   3.341   2.347   5.505
 8207SOL     OW25519   3.537   4.819   5.229
 8207SOL    HW125520   3.440   4.822   5.206
 8207SOL    HW225521   3.560   4.895   5.289
 8208SOL     OW25522   2.011   6.558   1.127
 8208SOL    HW125523   2.031   6.532   1.033
 8208SOL    HW225524   2.063   6.640   1.152
 8209SOL     OW25525   0.979   1.095   5.128
 8209SOL    HW125526   1.027   1.142   5.202
 8209SOL    HW225527   0.916   1.028   5.167
 8210SOL     OW25528   3.650   1.126   0.549
 8210SOL    HW125529   3.685   1.174   0.630
 8210SOL    HW225530   3.668   1.182   0.468
 8211SOL     OW25531   3.577   4.153   4.272
 8211SOL    HW125532   3.676   4.141   4.280
 8211SOL    HW225533   3.536   4.162   4.363
 8212SOL     OW25534   2.920   0.668   0.746
 8212SOL    HW125535   2.854   0.700   0.813
 8212SOL    HW225536   2.896   0.575   0.717
 8213SOL     OW25537   4.666   5.357   3.382
 8213SOL    HW125538   4.719   5.385   3.301
 8213SOL    HW225539   4.627   5.267   3.366
 8214SOL     OW25540   2.089   5.801   4.358
 8214SOL    HW125541   2.094   5.802   4.258
 8214SOL    HW225542   2.176   5.768   4.395
 8215SOL     OW25543   4.282   5.560   0.241
 8215SOL    HW125544   4.304   5.654   0.267
 8215SOL    HW225545   4.341   5.496   0.291
 8216SOL     OW25546   5.093   6.828   3.042
 8216SOL    HW125547   5.137   6.833   3.132
 8216SOL    HW225548   5.096   6.919   2.999
 8217SOL     OW25549   2.306   4.191   2.513
 8217SOL    HW125550   2.235   4.215   2.447
 8217SOL    HW225551   2.396   4.214   2.474
 8218SOL     OW25552   1.982   6.808   5.258
 8218SOL    HW125553   1.972   6.826   5.356
 8218SOL    HW225554   1.990   6.709   5.243
 8219SOL     OW25555   2.855   3.971   1.431
 8219SOL    HW125556   2.894   4.035   1.365
 8219SOL    HW225557   2.766   4.006   1.462
 8220SOL     OW25558   3.505   4.482   5.284
 8220SOL    HW125559   3.542   4.575   5.275
 8220SOL    HW225560   3.556   4.420   5.225
 8221SOL     OW25561   5.909   3.877   3.326
 8221SOL    HW125562   5.928   3.788   3.283
 8221SOL    HW225563   5.833   3.867   3.391
 8222SOL     OW25564   5.805   2.408   0.521
 8222SOL    HW125565   5.786   2.439   0.614
 8222SOL    HW225566   5.831   2.311   0.523
 8223SOL     OW25567   0.004   5.165   5.444
 8223SOL    HW125568   0.036   5.203   5.358
 8223SOL    HW225569   6.930   5.131   5.434
 8224SOL     OW25570   4.614   1.665   1.137
 8224SOL    HW125571   4.535   1.669   1.197
 8224SOL    HW225572   4.657   1.575   1.146
 8225SOL     OW25573   3.887   6.960   0.637
 8225SOL    HW125574   3.794   6.936   0.663
 8225SOL    HW225575   3.916   6.905   0.559
 8226SOL     OW25576   3.517   0.555   0.590
 8226SOL    HW125577   3.481   0.644   0.617
 8226SOL    HW225578   3.448   0.485   0.603
 8227SOL     OW25579   5.684   1.112   2.438
 8227SOL    HW125580   5.601   1.098   2.383
 8227SOL    HW225581   5.664   1.092   2.534
 8228SOL     OW25582   0.692   1.228   5.315
 8228SOL    HW125583   0.600   1.241   5.278
 8228SOL    HW225584   0.759   1.243   5.243
 8229SOL     OW25585   4.143   4.739   1.068
 8229SOL    HW125586   4.170   4.829   1.101
 8229SOL    HW225587   4.188   4.721   0.981
 8230SOL     OW25588   4.399   6.932   5.763
 8230SOL    HW125589   4.359   0.004   5.758
 8230SOL    HW225590   4.489   6.932   5.721
 8231SOL     OW25591   3.502   1.385   2.295
 8231SOL    HW125592   3.571   1.379   2.367
 8231SOL    HW225593   3.523   1.318   2.224
 8232SOL     OW25594   5.327   1.321   2.065
 8232SOL    HW125595   5.359   1.226   2.061
 8232SOL    HW225596   5.389   1.374   2.123
 8233SOL     OW25597   1.006   0.140   5.762
 8233SOL    HW125598   1.076   0.076   5.733
 8233SOL    HW225599   1.037   0.188   5.844
 8234SOL     OW25600   3.282   3.174   0.313
 8234SOL    HW125601   3.217   3.201   0.241
 8234SOL    HW225602   3.266   3.231   0.394
 8235SOL     OW25603   6.909   4.770   6.710
 8235SOL    HW125604   6.926   4.858   6.756
 8235SOL    HW225605   6.938   4.695   6.770
 8236SOL     OW25606   0.068   6.185   5.936
 8236SOL    HW125607   0.016   6.110   5.895
 8236SOL    HW225608   0.038   6.199   6.030
 8237SOL     OW25609   4.363   5.361   6.316
 8237SOL    HW125610   4.288   5.402   6.264
 8237SOL    HW225611   4.354   5.261   6.312
 8238SOL     OW25612   1.527   5.750   6.913
 8238SOL    HW125613   1.574   5.832   6.948
 8238SOL    HW225614   1.530   5.751   6.813
 8239SOL     OW25615   0.258   1.215   4.788
 8239SOL    HW125616   0.173   1.210   4.735
 8239SOL    HW225617   0.279   1.124   4.825
 8240SOL     OW25618   2.973   3.175   2.912
 8240SOL    HW125619   2.927   3.254   2.871
 8240SOL    HW225620   2.906   3.104   2.933
 8241SOL     OW25621   1.588   3.206   0.423
 8241SOL    HW125622   1.524   3.283   0.417
 8241SOL    HW225623   1.660   3.218   0.354
 8242SOL     OW25624   1.029   3.632   4.472
 8242SOL    HW125625   0.965   3.624   4.549
 8242SOL    HW225626   1.066   3.725   4.469
 8243SOL     OW25627   0.462   4.598   5.812
 8243SOL    HW125628   0.511   4.575   5.896
 8243SOL    HW225629   0.414   4.518   5.778
 8244SOL     OW25630   1.097   0.650   3.293
 8244SOL    HW125631   1.020   0.603   3.252
 8244SOL    HW225632   1.068   0.695   3.378
 8245SOL     OW25633   4.463   1.743   3.451
 8245SOL    HW125634   4.541   1.803   3.437
 8245SOL    HW225635   4.445   1.692   3.367
 8246SOL     OW25636   1.165   4.099   6.642
 8246SOL    HW125637   1.216   4.013   6.636
 8246SOL    HW225638   1.113   4.101   6.728
 8247SOL     OW25639   3.137   4.940   3.706
 8247SOL    HW125640   3.214   4.935   3.643
 8247SOL    HW225641   3.059   4.982   3.660
 8248SOL     OW25642   1.334   6.028   4.032
 8248SOL    HW125643   1.387   5.944   4.022
 8248SOL    HW225644   1.396   6.107   4.031
 8249SOL     OW25645   2.354   2.019   5.586
 8249SOL    HW125646   2.277   2.081   5.602
 8249SOL    HW225647   2.435   2.072   5.563
 8250SOL     OW25648   3.005   1.622   0.856
 8250SOL    HW125649   2.962   1.566   0.926
 8250SOL    HW225650   3.104   1.615   0.863
 8251SOL     OW25651   6.591   2.127   4.656
 8251SOL    HW125652   6.544   2.157   4.739
 8251SOL    HW225653   6.655   2.198   4.626
 8252SOL     OW25654   2.218   2.097   6.531
 8252SOL    HW125655   2.119   2.111   6.527
 8252SOL    HW225656   2.243   2.065   6.622
 8253SOL     OW25657   3.882   5.814   6.194
 8253SOL    HW125658   3.886   5.806   6.094
 8253SOL    HW225659   3.852   5.728   6.233
 8254SOL     OW25660   6.004   4.689   6.234
 8254SOL    HW125661   6.103   4.697   6.226
 8254SOL    HW225662   5.971   4.751   6.305
 8255SOL     OW25663   0.599   6.934   6.502
 8255SOL    HW125664   0.631   6.854   6.452
 8255SOL    HW225665   0.500   6.942   6.492
 8256SOL     OW25666   0.141   6.720   3.259
 8256SOL    HW125667   0.053   6.691   3.222
 8256SOL    HW225668   0.184   6.644   3.307
 8257SOL     OW25669   5.775   4.246   4.311
 8257SOL    HW125670   5.695   4.296   4.276
 8257SOL    HW225671   5.817   4.194   4.237
 8258SOL     OW25672   5.602   2.906   0.984
 8258SOL    HW125673   5.518   2.890   1.035
 8258SOL    HW225674   5.597   2.996   0.940
 8259SOL     OW25675   4.399   1.897   4.355
 8259SOL    HW125676   4.323   1.843   4.392
 8259SOL    HW225677   4.474   1.899   4.421
 8260SOL     OW25678   2.175   6.624   0.276
 8260SOL    HW125679   2.245   6.554   0.266
 8260SOL    HW225680   2.177   6.660   0.369
 8261SOL     OW25681   5.566   6.515   3.389
 8261SOL    HW125682   5.622   6.582   3.437
 8261SOL    HW225683   5.469   6.532   3.409
 8262SOL     OW25684   0.473   5.125   0.419
 8262SOL    HW125685   0.376   5.116   0.398
 8262SOL    HW225686   0.521   5.167   0.342
 8263SOL     OW25687   6.906   3.147   6.539
 8263SOL    HW125688   6.981   3.192   6.490
 8263SOL    HW225689   6.870   3.071   6.484
 8264SOL     OW25690   1.758   0.187   1.419
 8264SOL    HW125691   1.798   0.113   1.472
 8264SOL    HW225692   1.743   0.267   1.477
 8265SOL     OW25693   4.195   0.627   1.743
 8265SOL    HW125694   4.286   0.596   1.717
 8265SOL    HW225695   4.196   0.725   1.761
 8266SOL     OW25696   2.847   6.990   4.544
 8266SOL    HW125697   2.819   0.045   4.482
 8266SOL    HW225698   2.943   7.003   4.569
 8267SOL     OW25699   1.573   4.966   2.205
 8267SOL    HW125700   1.660   4.939   2.163
 8267SOL    HW225701   1.533   4.887   2.250
 8268SOL     OW25702   2.630   3.791   6.688
 8268SOL    HW125703   2.670   3.880   6.667
 8268SOL    HW225704   2.583   3.795   6.776
 8269SOL     OW25705   4.759   2.897   2.994
 8269SOL    HW125706   4.763   2.916   3.092
 8269SOL    HW225707   4.690   2.827   2.977
 8270SOL     OW25708   2.813   6.986   5.660
 8270SOL    HW125709   2.742   0.035   5.677
 8270SOL    HW225710   2.864   6.969   5.745
 8271SOL     OW25711   5.603   6.159   4.777
 8271SOL    HW125712   5.593   6.251   4.740
 8271SOL    HW225713   5.670   6.109   4.722
 8272SOL     OW25714   0.750   0.134   2.211
 8272SOL    HW125715   0.703   0.086   2.137
 8272SOL    HW225716   0.849   0.131   2.196
 8273SOL     OW25717   2.876   0.081   0.033
 8273SOL    HW125718   2.928   0.002   0.066
 8273SOL    HW225719   2.907   0.105   6.961
 8274SOL     OW25720   4.105   4.538   6.985
 8274SOL    HW125721   4.175   4.609   6.987
 8274SOL    HW225722   4.028   4.569   6.930
 8275SOL     OW25723   6.892   0.222   4.531
 8275SOL    HW125724   6.827   0.147   4.522
 8275SOL    HW225725   6.977   0.199   4.482
 8276SOL     OW25726   6.753   2.697   5.620
 8276SOL    HW125727   6.794   2.729   5.706
 8276SOL    HW225728   6.800   2.740   5.543
 8277SOL     OW25729   1.704   5.691   5.673
 8277SOL    HW125730   1.759   5.737   5.603
 8277SOL    HW225731   1.611   5.728   5.671
 8278SOL     OW25732   3.258   1.160   6.144
 8278SOL    HW125733   3.166   1.199   6.144
 8278SOL    HW225734   3.325   1.233   6.128
 8279SOL     OW25735   5.032   5.898   6.830
 8279SOL    HW125736   4.976   5.866   6.754
 8279SOL    HW225737   5.070   5.819   6.879
 8280SOL     OW25738   4.819   2.523   0.278
 8280SOL    HW125739   4.898   2.521   0.216
 8280SOL    HW225740   4.770   2.436   0.272
 8281SOL     OW25741   1.986   4.603   0.301
 8281SOL    HW125742   1.983   4.700   0.276
 8281SOL    HW225743   2.065   4.560   0.258
 8282SOL     OW25744   2.567   2.170   1.010
 8282SOL    HW125745   2.508   2.213   1.078
 8282SOL    HW225746   2.646   2.229   0.991
 8283SOL     OW25747   0.722   5.297   3.561
 8283SOL    HW125748   0.685   5.213   3.523
 8283SOL    HW225749   0.756   5.355   3.487
 8284SOL     OW25750   1.917   2.663   2.846
 8284SOL    HW125751   1.835   2.679   2.900
 8284SOL    HW225752   1.894   2.608   2.766
 8285SOL     OW25753   3.248   3.940   5.921
 8285SOL    HW125754   3.340   3.919   5.885
 8285SOL    HW225755   3.182   3.940   5.846
 8286SOL     OW25756   5.532   1.063   4.647
 8286SOL    HW125757   5.440   1.094   4.672
 8286SOL    HW225758   5.586   1.141   4.615
 8287SOL     OW25759   1.370   6.774   4.504
 8287SOL    HW125760   1.299   6.833   4.465
 8287SOL    HW225761   1.364   6.683   4.464
 8288SOL     OW25762   1.979   2.078   2.375
 8288SOL    HW125763   1.994   2.101   2.471
 8288SOL    HW225764   2.061   2.034   2.338
 8289SOL     OW25765   5.941   1.270   5.659
 8289SOL    HW125766   5.876   1.263   5.583
 8289SOL    HW225767   5.931   1.359   5.703
 8290SOL     OW25768   3.546   2.789   1.455
 8290SOL    HW125769   3.471   2.742   1.407
 8290SOL    HW225770   3.523   2.886   1.465
 8291SOL     OW25771   5.706   6.626   6.546
 8291SOL    HW125772   5.711   6.530   6.573
 8291SOL    HW225773   5.611   6.658   6.553
 8292SOL     OW25774   1.595   4.859   5.786
 8292SOL    HW125775   1.520   4.850   5.721
 8292SOL    HW225776   1.641   4.771   5.797
 8293SOL     OW25777   1.975   4.728   1.873
 8293SOL    HW125778   1.969   4.641   1.921
 8293SOL    HW225779   2.052   4.781   1.910
 8294SOL     OW25780   0.013   3.797   5.335
 8294SOL    HW125781   6.938   3.773   5.355
 8294SOL    HW225782   0.027   3.895   5.348
 8295SOL     OW25783   4.815   3.881   3.749
 8295SOL    HW125784   4.858   3.899   3.660
 8295SOL    HW225785   4.731   3.933   3.756
 8296SOL     OW25786   3.393   5.896   6.607
 8296SOL    HW125787   3.427   5.972   6.552
 8296SOL    HW225788   3.389   5.924   6.703
 8297SOL     OW25789   6.069   4.037   2.465
 8297SOL    HW125790   6.074   4.033   2.365
 8297SOL    HW225791   5.973   4.031   2.493
 8298SOL     OW25792   0.834   0.826   6.549
 8298SOL    HW125793   0.839   0.815   6.648
 8298SOL    HW225794   0.896   0.899   6.521
 8299SOL     OW25795   0.122   3.910   2.069
 8299SOL    HW125796   0.114   3.811   2.066
 8299SOL    HW225797   0.037   3.949   2.106
 8300SOL     OW25798   5.907   5.548   4.532
 8300SOL    HW125799   5.923   5.459   4.575
 8300SOL    HW225800   5.808   5.565   4.528
 8301SOL     OW25801   4.163   0.249   6.830
 8301SOL    HW125802   4.121   0.339   6.814
 8301SOL    HW225803   4.148   0.221   6.924
 8302SOL     OW25804   2.987   6.504   4.847
 8302SOL    HW125805   2.988   6.541   4.940
 8302SOL    HW225806   3.061   6.545   4.794
 8303SOL     OW25807   6.717   0.466   2.404
 8303SOL    HW125808   6.680   0.388   2.354
 8303SOL    HW225809   6.656   0.489   2.479
 8304SOL     OW25810   5.597   4.087   3.452
 8304SOL    HW125811   5.619   3.995   3.487
 8304SOL    HW225812   5.640   4.156   3.509
 8305SOL     OW25813   4.583   5.574   4.248
 8305SOL    HW125814   4.544   5.532   4.330
 8305SOL    HW225815   4.526   5.552   4.169
 8306SOL     OW25816   6.495   0.934   2.906
 8306SOL    HW125817   6.536   0.951   2.816
 8306SOL    HW225818   6.564   0.942   2.977
 8307SOL     OW25819   1.252   4.812   1.138
 8307SOL    HW125820   1.226   4.835   1.232
 8307SOL    HW225821   1.214   4.880   1.076
 8308SOL     OW25822   1.233   4.407   0.413
 8308SOL    HW125823   1.306   4.413   0.344
 8308SOL    HW225824   1.144   4.405   0.368
 8309SOL     OW25825   6.721   4.836   4.767
 8309SOL    HW125826   6.756   4.811   4.857
 8309SOL    HW225827   6.629   4.873   4.776
 8310SOL     OW25828   0.461   6.653   0.711
 8310SOL    HW125829   0.538   6.601   0.748
 8310SOL    HW225830   0.486   6.749   0.701
 8311SOL     OW25831   5.414   6.347   3.832
 8311SOL    HW125832   5.319   6.377   3.826
 8311SOL    HW225833   5.424   6.281   3.906
 8312SOL     OW25834   4.849   7.019   0.313
 8312SOL    HW125835   4.844   0.094   0.346
 8312SOL    HW225836   4.931   7.008   0.257
 8313SOL     OW25837   3.873   6.818   5.762
 8313SOL    HW125838   3.831   6.908   5.761
 8313SOL    HW225839   3.963   6.822   5.717
 8314SOL     OW25840   5.253   6.395   6.582
 8314SOL    HW125841   5.163   6.437   6.589
 8314SOL    HW225842   5.284   6.400   6.487
 8315SOL     OW25843   3.611   3.476   3.950
 8315SOL    HW125844   3.665   3.449   3.871
 8315SOL    HW225845   3.549   3.402   3.975
 8316SOL     OW25846   1.185   3.344   0.213
 8316SOL    HW125847   1.211   3.373   0.121
 8316SOL    HW225848   1.224   3.254   0.232
 8317SOL     OW25849   2.044   2.256   4.946
 8317SOL    HW125850   2.097   2.171   4.939
 8317SOL    HW225851   2.011   2.281   4.855
 8318SOL     OW25852   3.995   0.893   6.083
 8318SOL    HW125853   4.014   0.795   6.075
 8318SOL    HW225854   3.896   0.908   6.082
 8319SOL     OW25855   1.330   0.222   6.233
 8319SOL    HW125856   1.304   0.313   6.202
 8319SOL    HW225857   1.323   0.157   6.157
 8320SOL     OW25858   3.148   4.086   4.058
 8320SOL    HW125859   3.080   4.127   4.119
 8320SOL    HW225860   3.236   4.081   4.105
 8321SOL     OW25861   6.986   0.264   6.523
 8321SOL    HW125862   6.990   0.346   6.580
 8321SOL    HW225863   6.913   0.273   6.456
 8322SOL     OW25864   0.074   1.377   0.492
 8322SOL    HW125865   0.156   1.321   0.506
 8322SOL    HW225866   0.027   1.390   0.579
 8323SOL     OW25867   5.106   4.539   1.664
 8323SOL    HW125868   5.021   4.497   1.630
 8323SOL    HW225869   5.181   4.475   1.654
 8324SOL     OW25870   6.309   0.693   6.911
 8324SOL    HW125871   6.283   0.612   6.857
 8324SOL    HW225872   6.226   0.738   6.945
 8325SOL     OW25873   1.264   5.577   4.907
 8325SOL    HW125874   1.356   5.591   4.944
 8325SOL    HW225875   1.229   5.489   4.938
 8326SOL     OW25876   2.805   3.817   0.453
 8326SOL    HW125877   2.872   3.860   0.514
 8326SOL    HW225878   2.727   3.786   0.507
 8327SOL     OW25879   0.600   0.751   5.371
 8327SOL    HW125880   0.515   0.792   5.403
 8327SOL    HW225881   0.622   0.672   5.427
 8328SOL     OW25882   0.799   6.226   5.823
 8328SOL    HW125883   0.873   6.254   5.762
 8328SOL    HW225884   0.711   6.243   5.778
 8329SOL     OW25885   0.871   2.228   5.007
 8329SOL    HW125886   0.865   2.153   5.073
 8329SOL    HW225887   0.914   2.196   4.923
 8330SOL     OW25888   3.935   1.207   6.368
 8330SOL    HW125889   4.029   1.184   6.392
 8330SOL    HW225890   3.889   1.248   6.447
 8331SOL     OW25891   1.960   2.097   0.512
 8331SOL    HW125892   1.933   2.003   0.496
 8331SOL    HW225893   2.026   2.126   0.443
 8332SOL     OW25894   5.014   4.879   1.991
 8332SOL    HW125895   4.977   4.851   2.080
 8332SOL    HW225896   5.108   4.910   2.002
 8333SOL     OW25897   2.108   4.749   1.110
 8333SOL    HW125898   2.050   4.713   1.038
 8333SOL    HW225899   2.075   4.716   1.199
 8334SOL     OW25900   3.579   1.587   6.273
 8334SOL    HW125901   3.589   1.608   6.176
 8334SOL    HW225902   3.660   1.619   6.322
 8335SOL     OW25903   4.568   2.875   6.734
 8335SOL    HW125904   4.567   2.900   6.831
 8335SOL    HW225905   4.652   2.826   6.713
 8336SOL     OW25906   1.479   3.446   2.253
 8336SOL    HW125907   1.391   3.400   2.270
 8336SOL    HW225908   1.542   3.426   2.327
 8337SOL     OW25909   1.218   0.944   4.868
 8337SOL    HW125910   1.129   0.986   4.849
 8337SOL    HW225911   1.290   1.011   4.857
 8338SOL     OW25912   3.773   4.949   2.094
 8338SOL    HW125913   3.746   5.046   2.092
 8338SOL    HW225914   3.693   4.892   2.076
 8339SOL     OW25915   0.022   1.020   0.561
 8339SOL    HW125916   0.099   0.961   0.585
 8339SOL    HW225917   0.056   1.110   0.533
 8340SOL     OW25918   5.231   2.506   0.987
 8340SOL    HW125919   5.218   2.459   0.900
 8340SOL    HW225920   5.160   2.576   0.998
 8341SOL     OW25921   3.312   0.196   6.154
 8341SOL    HW125922   3.408   0.178   6.128
 8341SOL    HW225923   3.300   0.294   6.171
 8342SOL     OW25924   3.369   6.023   0.463
 8342SOL    HW125925   3.362   5.932   0.422
 8342SOL    HW225926   3.334   6.020   0.556
 8343SOL     OW25927   6.494   5.185   3.980
 8343SOL    HW125928   6.495   5.134   4.066
 8343SOL    HW225929   6.500   5.283   4.000
 8344SOL     OW25930   0.603   4.487   4.110
 8344SOL    HW125931   0.613   4.464   4.013
 8344SOL    HW225932   0.682   4.538   4.141
 8345SOL     OW25933   5.282   1.297   3.298
 8345SOL    HW125934   5.248   1.381   3.256
 8345SOL    HW225935   5.205   1.239   3.323
 8346SOL     OW25936   4.279   2.877   6.226
 8346SOL    HW125937   4.210   2.805   6.229
 8346SOL    HW225938   4.249   2.954   6.283
 8347SOL     OW25939   1.899   6.655   6.530
 8347SOL    HW125940   1.961   6.693   6.599
 8347SOL    HW225941   1.936   6.568   6.497
 8348SOL     OW25942   3.052   6.989   0.946
 8348SOL    HW125943   3.031   0.066   0.929
 8348SOL    HW225944   3.122   6.982   1.017
 8349SOL     OW25945   0.686   6.694   1.958
 8349SOL    HW125946   0.648   6.754   1.888
 8349SOL    HW225947   0.645   6.603   1.948
 8350SOL     OW25948   2.914   0.030   6.143
 8350SOL    HW125949   2.913   7.001   6.055
 8350SOL    HW225950   2.831   0.007   6.194
 8351SOL     OW25951   6.350   5.513   4.139
 8351SOL    HW125952   6.336   5.425   4.185
 8351SOL    HW225953   6.415   5.501   4.064
 8352SOL     OW25954   2.821   6.216   2.528
 8352SOL    HW125955   2.867   6.138   2.485
 8352SOL    HW225956   2.888   6.272   2.576
 8353SOL     OW25957   1.175   4.039   1.549
 8353SOL    HW125958   1.256   4.000   1.593
 8353SOL    HW225959   1.095   3.981   1.568
 8354SOL     OW25960   3.469   6.462   3.901
 8354SOL    HW125961   3.521   6.546   3.913
 8354SOL    HW225962   3.373   6.484   3.883
 8355SOL     OW25963   1.427   0.213   6.501
 8355SOL    HW125964   1.384   0.218   6.411
 8355SOL    HW225965   1.391   0.285   6.560
 8356SOL     OW25966   0.983   5.663   1.951
 8356SOL    HW125967   0.978   5.735   2.019
 8356SOL    HW225968   0.897   5.612   1.949
 8357SOL     OW25969   3.801   5.556   6.280
 8357SOL    HW125970   3.716   5.567   6.332
 8357SOL    HW225971   3.816   5.459   6.261
 8358SOL     OW25972   1.418   2.763   5.870
 8358SOL    HW125973   1.435   2.708   5.789
 8358SOL    HW225974   1.484   2.739   5.942
 8359SOL     OW25975   2.401   0.987   4.565
 8359SOL    HW125976   2.395   0.888   4.554
 8359SOL    HW225977   2.493   1.012   4.598
 8360SOL     OW25978   4.636   6.867   0.674
 8360SOL    HW125979   4.675   6.834   0.588
 8360SOL    HW225980   4.578   6.796   0.714
 8361SOL     OW25981   2.422   0.055   6.535
 8361SOL    HW125982   2.383   7.011   6.467
 8361SOL    HW225983   2.409   0.149   6.504
 8362SOL     OW25984   6.026   1.914   0.399
 8362SOL    HW125985   6.086   1.917   0.319
 8362SOL    HW225986   6.049   1.835   0.455
 8363SOL     OW25987   4.113   2.024   0.310
 8363SOL    HW125988   4.178   1.975   0.253
 8363SOL    HW225989   4.146   2.118   0.325
 8364SOL     OW25990   0.766   3.265   3.820
 8364SOL    HW125991   0.809   3.208   3.750
 8364SOL    HW225992   0.667   3.258   3.813
 8365SOL     OW25993   1.913   2.553   2.559
 8365SOL    HW125994   1.977   2.547   2.483
 8365SOL    HW225995   1.857   2.470   2.562
 8366SOL     OW25996   4.077   5.590   1.279
 8366SOL    HW125997   4.090   5.647   1.360
 8366SOL    HW225998   4.033   5.504   1.305
 8367SOL     OW25999   2.943   5.234   4.902
 8367SOL    HW126000   2.881   5.245   4.979
 8367SOL    HW226001   2.912   5.158   4.845
 8368SOL     OW26002   0.661   6.486   6.750
 8368SOL    HW126003   0.732   6.523   6.689
 8368SOL    HW226004   0.688   6.500   6.845
 8369SOL     OW26005   0.870   1.920   1.407
 8369SOL    HW126006   0.807   1.851   1.442
 8369SOL    HW226007   0.824   1.976   1.339
 8370SOL     OW26008   2.706   1.824   6.773
 8370SOL    HW126009   2.654   1.880   6.838
 8370SOL    HW226010   2.651   1.807   6.692
 8371SOL     OW26011   1.592   3.096   5.681
 8371SOL    HW126012   1.675   3.083   5.628
 8371SOL    HW226013   1.515   3.053   5.634
 8372SOL     OW26014   2.292   6.558   1.478
 8372SOL    HW126015   2.249   6.633   1.528
 8372SOL    HW226016   2.232   6.478   1.480
 8373SOL     OW26017   0.582   1.509   4.597
 8373SOL    HW126018   0.539   1.468   4.517
 8373SOL    HW226019   0.660   1.564   4.568
 8374SOL     OW26020   1.145   0.608   3.988
 8374SOL    HW126021   1.162   0.658   4.073
 8374SOL    HW226022   1.171   0.665   3.910
 8375SOL     OW26023   3.950   0.835   5.550
 8375SOL    HW126024   3.953   0.901   5.625
 8375SOL    HW226025   3.936   0.884   5.464
 8376SOL     OW26026   1.541   1.451   3.757
 8376SOL    HW126027   1.532   1.385   3.682
 8376SOL    HW226028   1.474   1.524   3.745
 8377SOL     OW26029   4.750   5.443   0.623
 8377SOL    HW126030   4.828   5.380   0.621
 8377SOL    HW226031   4.697   5.432   0.540
 8378SOL     OW26032   5.226   5.310   3.196
 8378SOL    HW126033   5.172   5.344   3.119
 8378SOL    HW226034   5.247   5.213   3.181
 8379SOL     OW26035   4.995   2.130   1.410
 8379SOL    HW126036   5.052   2.213   1.410
 8379SOL    HW226037   4.911   2.147   1.360
 8380SOL     OW26038   6.729   6.956   0.187
 8380SOL    HW126039   6.692   6.947   0.279
 8380SOL    HW226040   6.789   0.016   0.182
 8381SOL     OW26041   0.377   2.619   3.345
 8381SOL    HW126042   0.405   2.713   3.327
 8381SOL    HW226043   0.421   2.558   3.279
 8382SOL     OW26044   2.472   0.451   0.959
 8382SOL    HW126045   2.415   0.377   0.924
 8382SOL    HW226046   2.501   0.510   0.883
 8383SOL     OW26047   2.586   0.374   5.231
 8383SOL    HW126048   2.671   0.376   5.179
 8383SOL    HW226049   2.524   0.308   5.190
 8384SOL     OW26050   6.728   2.182   1.224
 8384SOL    HW126051   6.715   2.088   1.192
 8384SOL    HW226052   6.661   2.242   1.180
 8385SOL     OW26053   4.808   3.115   0.737
 8385SOL    HW126054   4.837   3.160   0.821
 8385SOL    HW226055   4.756   3.033   0.759
 8386SOL     OW26056   1.892   5.766   0.921
 8386SOL    HW126057   1.829   5.689   0.905
 8386SOL    HW226058   1.904   5.779   1.019
 8387SOL     OW26059   2.000   1.814   1.711
 8387SOL    HW126060   1.919   1.853   1.755
 8387SOL    HW226061   2.062   1.780   1.781
 8388SOL     OW26062   1.276   6.681   0.388
 8388SOL    HW126063   1.305   6.740   0.464
 8388SOL    HW226064   1.196   6.721   0.344
 8389SOL     OW26065   1.701   3.485   3.754
 8389SOL    HW126066   1.637   3.421   3.712
 8389SOL    HW226067   1.789   3.480   3.707
 8390SOL     OW26068   3.322   0.274   6.646
 8390SOL    HW126069   3.272   0.231   6.720
 8390SOL    HW226070   3.419   0.250   6.653
 8391SOL     OW26071   5.018   5.443   0.904
 8391SOL    HW126072   5.051   5.353   0.933
 8391SOL    HW226073   4.920   5.450   0.923
 8392SOL     OW26074   6.588   5.483   5.108
 8392SOL    HW126075   6.504   5.504   5.159
 8392SOL    HW226076   6.651   5.433   5.167
 8393SOL     OW26077   0.518   0.440   3.534
 8393SOL    HW126078   0.506   0.386   3.617
 8393SOL    HW226079   0.493   0.535   3.552
 8394SOL     OW26080   1.122   1.757   2.400
 8394SOL    HW126081   1.148   1.731   2.307
 8394SOL    HW226082   1.042   1.704   2.428
 8395SOL     OW26083   0.526   6.495   4.126
 8395SOL    HW126084   0.612   6.475   4.171
 8395SOL    HW226085   0.543   6.517   4.030
 8396SOL     OW26086   4.512   4.443   2.648
 8396SOL    HW126087   4.480   4.514   2.586
 8396SOL    HW226088   4.517   4.356   2.599
 8397SOL     OW26089   2.362   6.744   2.614
 8397SOL    HW126090   2.416   6.784   2.540
 8397SOL    HW226091   2.373   6.645   2.613
 8398SOL     OW26092   3.671   1.723   0.208
 8398SOL    HW126093   3.751   1.779   0.227
 8398SOL    HW226094   3.588   1.773   0.233
 8399SOL     OW26095   5.983   6.326   0.418
 8399SOL    HW126096   5.919   6.400   0.438
 8399SOL    HW226097   6.039   6.306   0.499
 8400SOL     OW26098   0.920   0.450   2.816
 8400SOL    HW126099   1.012   0.410   2.817
 8400SOL    HW226100   0.894   0.476   2.909
 8401SOL     OW26101   4.238   3.270   5.672
 8401SOL    HW126102   4.332   3.277   5.703
 8401SOL    HW226103   4.176   3.289   5.748
 8402SOL     OW26104   3.168   1.556   5.662
 8402SOL    HW126105   3.094   1.603   5.613
 8402SOL    HW226106   3.226   1.508   5.596
 8403SOL     OW26107   0.563   1.409   3.339
 8403SOL    HW126108   0.558   1.506   3.316
 8403SOL    HW226109   0.532   1.355   3.261
 8404SOL     OW26110   5.663   6.366   6.580
 8404SOL    HW126111   5.584   6.393   6.525
 8404SOL    HW226112   5.636   6.293   6.643
 8405SOL     OW26113   1.871   1.484   0.185
 8405SOL    HW126114   1.797   1.504   0.249
 8405SOL    HW226115   1.891   1.565   0.130
 8406SOL     OW26116   4.027   1.667   0.966
 8406SOL    HW126117   4.030   1.679   0.867
 8406SOL    HW226118   4.115   1.631   0.998
 8407SOL     OW26119   5.456   5.526   4.297
 8407SOL    HW126120   5.396   5.449   4.277
 8407SOL    HW226121   5.524   5.535   4.223
 8408SOL     OW26122   5.160   1.368   3.952
 8408SOL    HW126123   5.204   1.331   4.034
 8408SOL    HW226124   5.090   1.304   3.919
 8409SOL     OW26125   6.428   2.301   3.842
 8409SOL    HW126126   6.501   2.255   3.791
 8409SOL    HW226127   6.388   2.236   3.907
 8410SOL     OW26128   4.406   0.991   1.564
 8410SOL    HW126129   4.344   1.041   1.504
 8410SOL    HW226130   4.498   1.030   1.557
 8411SOL     OW26131   1.811   5.321   4.100
 8411SOL    HW126132   1.814   5.362   4.191
 8411SOL    HW226133   1.734   5.257   4.094
 8412SOL     OW26134   3.934   1.752   1.206
 8412SOL    HW126135   3.988   1.711   1.280
 8412SOL    HW226136   3.964   1.715   1.119
 8413SOL     OW26137   4.826   4.668   0.708
 8413SOL    HW126138   4.747   4.679   0.768
 8413SOL    HW226139   4.796   4.640   0.616
 8414SOL     OW26140   4.013   0.360   1.953
 8414SOL    HW126141   4.085   0.322   1.895
 8414SOL    HW226142   3.947   0.410   1.896
 8415SOL     OW26143   0.478   4.856   3.817
 8415SOL    HW126144   0.452   4.905   3.734
 8415SOL    HW226145   0.417   4.882   3.892
 8416SOL     OW26146   4.528   4.928   3.156
 8416SOL    HW126147   4.602   4.876   3.114
 8416SOL    HW226148   4.440   4.885   3.132
 8417SOL     OW26149   1.517   6.238   5.303
 8417SOL    HW126150   1.584   6.174   5.266
 8417SOL    HW226151   1.468   6.282   5.228
 8418SOL     OW26152   5.562   5.240   1.705
 8418SOL    HW126153   5.506   5.158   1.721
 8418SOL    HW226154   5.544   5.306   1.778
 8419SOL     OW26155   4.506   0.522   2.015
 8419SOL    HW126156   4.503   0.603   1.956
 8419SOL    HW226157   4.601   0.496   2.030
 8420SOL     OW26158   3.498   6.589   0.917
 8420SOL    HW126159   3.442   6.546   0.846
 8420SOL    HW226160   3.586   6.616   0.878
 8421SOL     OW26161   3.114   6.723   1.261
 8421SOL    HW126162   3.091   6.655   1.191
 8421SOL    HW226163   3.074   6.695   1.349
 8422SOL     OW26164   5.040   6.221   1.183
 8422SOL    HW126165   4.989   6.295   1.227
 8422SOL    HW226166   4.980   6.171   1.121
 8423SOL     OW26167   4.248   4.398   6.518
 8423SOL    HW126168   4.281   4.491   6.504
 8423SOL    HW226169   4.258   4.346   6.433
 8424SOL     OW26170   2.580   2.338   2.577
 8424SOL    HW126171   2.559   2.425   2.622
 8424SOL    HW226172   2.632   2.279   2.639
 8425SOL     OW26173   6.930   5.486   0.974
 8425SOL    HW126174   6.923   5.486   0.874
 8425SOL    HW226175   6.847   5.525   1.013
 8426SOL     OW26176   3.481   2.855   4.132
 8426SOL    HW126177   3.565   2.851   4.186
 8426SOL    HW226178   3.503   2.844   4.035
 8427SOL     OW26179   1.357   4.063   5.669
 8427SOL    HW126180   1.274   4.026   5.627
 8427SOL    HW226181   1.434   4.050   5.606
 8428SOL     OW26182   6.512   4.461   2.317
 8428SOL    HW126183   6.527   4.517   2.399
 8428SOL    HW226184   6.423   4.417   2.322
 8429SOL     OW26185   1.719   4.492   4.392
 8429SOL    HW126186   1.701   4.416   4.331
 8429SOL    HW226187   1.818   4.505   4.402
 8430SOL     OW26188   3.941   5.200   2.812
 8430SOL    HW126189   3.942   5.215   2.911
 8430SOL    HW226190   3.922   5.104   2.793
 8431SOL     OW26191   2.549   4.898   0.856
 8431SOL    HW126192   2.507   4.841   0.927
 8431SOL    HW226193   2.617   4.845   0.807
 8432SOL     OW26194   4.540   5.231   5.773
 8432SOL    HW126195   4.540   5.161   5.702
 8432SOL    HW226196   4.545   5.321   5.731
 8433SOL     OW26197   0.171   2.447   6.463
 8433SOL    HW126198   0.109   2.424   6.388
 8433SOL    HW226199   0.196   2.363   6.512
 8434SOL     OW26200   2.765   0.156   4.899
 8434SOL    HW126201   2.745   0.214   4.977
 8434SOL    HW226202   2.810   0.210   4.827
 8435SOL     OW26203   5.088   1.703   1.354
 8435SOL    HW126204   5.003   1.658   1.384
 8435SOL    HW226205   5.158   1.634   1.338
 8436SOL     OW26206   3.894   6.613   3.674
 8436SOL    HW126207   3.794   6.613   3.667
 8436SOL    HW226208   3.930   6.534   3.624
 8437SOL     OW26209   1.789   6.915   2.243
 8437SOL    HW126210   1.734   6.836   2.270
 8437SOL    HW226211   1.800   6.916   2.144
 8438SOL     OW26212   2.905   4.830   2.162
 8438SOL    HW126213   2.881   4.821   2.258
 8438SOL    HW226214   2.883   4.744   2.114
 8439SOL     OW26215   6.650   5.827   1.861
 8439SOL    HW126216   6.627   5.922   1.841
 8439SOL    HW226217   6.588   5.791   1.931
 8440SOL     OW26218   0.295   0.857   2.334
 8440SOL    HW126219   0.214   0.822   2.287
 8440SOL    HW226220   0.363   0.884   2.266
 8441SOL     OW26221   6.251   6.042   0.407
 8441SOL    HW126222   6.220   6.106   0.477
 8441SOL    HW226223   6.332   5.994   0.441
 8442SOL     OW26224   3.950   3.119   6.241
 8442SOL    HW126225   3.883   3.162   6.181
 8442SOL    HW226226   3.955   3.021   6.222
 8443SOL     OW26227   1.529   6.782   3.160
 8443SOL    HW126228   1.477   6.859   3.124
 8443SOL    HW226229   1.602   6.817   3.219
 8444SOL     OW26230   3.276   6.381   3.595
 8444SOL    HW126231   3.230   6.308   3.544
 8444SOL    HW226232   3.371   6.390   3.563
 8445SOL     OW26233   3.278   5.106   1.896
 8445SOL    HW126234   3.269   5.036   1.966
 8445SOL    HW226235   3.196   5.163   1.895
 8446SOL     OW26236   4.626   5.437   1.507
 8446SOL    HW126237   4.714   5.441   1.555
 8446SOL    HW226238   4.641   5.449   1.409
 8447SOL     OW26239   6.116   2.148   2.293
 8447SOL    HW126240   6.104   2.218   2.223
 8447SOL    HW226241   6.030   2.134   2.341
 8448SOL     OW26242   0.189   3.503   5.168
 8448SOL    HW126243   0.247   3.553   5.233
 8448SOL    HW226244   0.217   3.525   5.075
 8449SOL     OW26245   6.979   2.988   4.589
 8449SOL    HW126246   0.008   3.075   4.596
 8449SOL    HW226247   6.990   2.951   4.497
 8450SOL     OW26248   2.108   6.324   2.047
 8450SOL    HW126249   2.118   6.400   1.983
 8450SOL    HW226250   2.094   6.359   2.139
 8451SOL     OW26251   4.180   2.716   0.494
 8451SOL    HW126252   4.188   2.780   0.571
 8451SOL    HW226253   4.245   2.740   0.423
 8452SOL     OW26254   0.279   0.228   1.239
 8452SOL    HW126255   0.317   0.139   1.266
 8452SOL    HW226256   0.325   0.300   1.291
 8453SOL     OW26257   6.158   4.235   5.975
 8453SOL    HW126258   6.237   4.196   5.928
 8453SOL    HW226259   6.088   4.260   5.907
 8454SOL     OW26260   1.304   5.338   1.941
 8454SOL    HW126261   1.346   5.382   2.020
 8454SOL    HW226262   1.339   5.245   1.933
 8455SOL     OW26263   4.871   2.033   0.743
 8455SOL    HW126264   4.835   2.108   0.687
 8455SOL    HW226265   4.947   2.066   0.798
 8456SOL     OW26266   5.512   4.809   3.165
 8456SOL    HW126267   5.566   4.729   3.138
 8456SOL    HW226268   5.567   4.891   3.153
 8457SOL     OW26269   6.687   6.212   5.703
 8457SOL    HW126270   6.602   6.248   5.663
 8457SOL    HW226271   6.669   6.184   5.797
 8458SOL     OW26272   1.777   0.909   6.673
 8458SOL    HW126273   1.852   0.964   6.637
 8458SOL    HW226274   1.745   0.846   6.603
 8459SOL     OW26275   3.248   6.933   1.120
 8459SOL    HW126276   3.191   6.879   1.182
 8459SOL    HW226277   3.324   6.878   1.088
 8460SOL     OW26278   4.355   2.632   5.984
 8460SOL    HW126279   4.275   2.691   5.988
 8460SOL    HW226280   4.378   2.616   5.888
 8461SOL     OW26281   0.982   3.531   2.136
 8461SOL    HW126282   1.022   3.527   2.228
 8461SOL    HW226283   0.915   3.457   2.126
 8462SOL     OW26284   3.205   2.440   0.210
 8462SOL    HW126285   3.125   2.425   0.151
 8462SOL    HW226286   3.216   2.538   0.227
 8463SOL     OW26287   0.167   1.824   0.487
 8463SOL    HW126288   0.186   1.753   0.419
 8463SOL    HW226289   0.253   1.861   0.521
 8464SOL     OW26290   0.073   4.339   5.250
 8464SOL    HW126291   0.163   4.382   5.258
 8464SOL    HW226292   0.044   4.340   5.154
 8465SOL     OW26293   2.924   1.893   0.658
 8465SOL    HW126294   2.935   1.820   0.726
 8465SOL    HW226295   2.858   1.864   0.589
 8466SOL     OW26296   6.104   6.995   5.004
 8466SOL    HW126297   6.122   6.911   4.953
 8466SOL    HW226298   6.166   7.000   5.083
 8467SOL     OW26299   4.133   1.059   1.211
 8467SOL    HW126300   4.207   1.092   1.268
 8467SOL    HW226301   4.062   1.018   1.269
 8468SOL     OW26302   5.937   3.100   0.006
 8468SOL    HW126303   5.865   3.034   7.005
 8468SOL    HW226304   5.913   3.190   6.988
 8469SOL     OW26305   2.867   2.053   5.397
 8469SOL    HW126306   2.919   1.968   5.404
 8469SOL    HW226307   2.899   2.117   5.467
 8470SOL     OW26308   1.290   4.679   0.229
 8470SOL    HW126309   1.328   4.723   0.148
 8470SOL    HW226310   1.344   4.598   0.251
 8471SOL     OW26311   4.021   0.622   5.255
 8471SOL    HW126312   4.033   0.709   5.207
 8471SOL    HW226313   3.926   0.611   5.283
 8472SOL     OW26314   5.515   1.399   5.315
 8472SOL    HW126315   5.599   1.380   5.264
 8472SOL    HW226316   5.536   1.401   5.413
 8473SOL     OW26317   5.285   5.500   0.467
 8473SOL    HW126318   5.248   5.523   0.557
 8473SOL    HW226319   5.345   5.573   0.437
 8474SOL     OW26320   3.450   3.941   1.950
 8474SOL    HW126321   3.422   3.885   2.028
 8474SOL    HW226322   3.381   3.933   1.877
 8475SOL     OW26323   6.536   2.873   2.319
 8475SOL    HW126324   6.581   2.962   2.314
 8475SOL    HW226325   6.557   2.821   2.236
 8476SOL     OW26326   6.713   1.478   1.637
 8476SOL    HW126327   6.656   1.512   1.711
 8476SOL    HW226328   6.731   1.551   1.572
 8477SOL     OW26329   4.286   6.471   2.673
 8477SOL    HW126330   4.290   6.371   2.672
 8477SOL    HW226331   4.313   6.506   2.584
 8478SOL     OW26332   0.717   1.115   5.617
 8478SOL    HW126333   0.727   1.094   5.519
 8478SOL    HW226334   0.654   1.191   5.628
 8479SOL     OW26335   1.215   2.827   1.620
 8479SOL    HW126336   1.178   2.805   1.529
 8479SOL    HW226337   1.287   2.896   1.611
 8480SOL     OW26338   5.474   3.669   0.011
 8480SOL    HW126339   5.381   3.691   0.039
 8480SOL    HW226340   5.538   3.732   0.056
 8481SOL     OW26341   4.919   2.366   4.969
 8481SOL    HW126342   4.937   2.323   4.881
 8481SOL    HW226343   4.829   2.338   5.003
 8482SOL     OW26344   4.953   0.529   1.913
 8482SOL    HW126345   5.035   0.470   1.913
 8482SOL    HW226346   4.902   0.513   1.829
 8483SOL     OW26347   2.673   5.812   3.227
 8483SOL    HW126348   2.659   5.845   3.321
 8483SOL    HW226349   2.771   5.811   3.207
 8484SOL     OW26350   6.725   6.196   4.879
 8484SOL    HW126351   6.670   6.197   4.796
 8484SOL    HW226352   6.724   6.105   4.919
 8485SOL     OW26353   3.735   2.323   0.291
 8485SOL    HW126354   3.790   2.313   0.374
 8485SOL    HW226355   3.638   2.332   0.316
 8486SOL     OW26356   1.917   0.706   2.913
 8486SOL    HW126357   1.820   0.686   2.924
 8486SOL    HW226358   1.941   0.705   2.816
 8487SOL     OW26359   5.749   2.224   6.295
 8487SOL    HW126360   5.830   2.168   6.284
 8487SOL    HW226361   5.742   2.288   6.219
 8488SOL     OW26362   5.169   5.922   2.774
 8488SOL    HW126363   5.256   5.876   2.796
 8488SOL    HW226364   5.108   5.915   2.853
 8489SOL     OW26365   6.994   0.487   1.355
 8489SOL    HW126366   6.896   0.467   1.357
 8489SOL    HW226367   7.019   0.521   1.264
 8490SOL     OW26368   3.417   6.697   5.820
 8490SOL    HW126369   3.450   6.714   5.728
 8490SOL    HW226370   3.394   6.600   5.830
 8491SOL     OW26371   1.733   6.084   2.561
 8491SOL    HW126372   1.739   6.172   2.607
 8491SOL    HW226373   1.800   6.081   2.487
 8492SOL     OW26374   5.691   5.037   4.330
 8492SOL    HW126375   5.670   5.134   4.323
 8492SOL    HW226376   5.661   4.990   4.247
 8493SOL     OW26377   2.025   1.735   6.763
 8493SOL    HW126378   1.939   1.710   6.807
 8493SOL    HW226379   2.027   1.699   6.670
 8494SOL     OW26380   3.739   5.211   2.390
 8494SOL    HW126381   3.681   5.160   2.327
 8494SOL    HW226382   3.791   5.281   2.340
 8495SOL     OW26383   0.503   5.427   0.545
 8495SOL    HW126384   0.438   5.381   0.606
 8495SOL    HW226385   0.514   5.372   0.462
 8496SOL     OW26386   6.426   1.155   2.483
 8496SOL    HW126387   6.427   1.245   2.438
 8496SOL    HW226388   6.348   1.149   2.545
 8497SOL     OW26389   0.400   0.770   3.053
 8497SOL    HW126390   0.345   0.750   3.134
 8497SOL    HW226391   0.481   0.822   3.080
 8498SOL     OW26392   6.832   6.626   3.176
 8498SOL    HW126393   6.742   6.640   3.134
 8498SOL    HW226394   6.829   6.653   3.272
 8499SOL     OW26395   0.637   4.190   0.150
 8499SOL    HW126396   0.735   4.209   0.144
 8499SOL    HW226397   0.589   4.273   0.178
 8500SOL     OW26398   1.757   6.663   5.607
 8500SOL    HW126399   1.736   6.572   5.571
 8500SOL    HW226400   1.778   6.657   5.704
 8501SOL     OW26401   0.428   2.543   6.401
 8501SOL    HW126402   0.335   2.522   6.431
 8501SOL    HW226403   0.459   2.471   6.338
 8502SOL     OW26404   0.560   3.008   1.522
 8502SOL    HW126405   0.652   3.045   1.535
 8502SOL    HW226406   0.559   2.951   1.440
 8503SOL     OW26407   0.071   5.799   5.450
 8503SOL    HW126408   0.131   5.731   5.409
 8503SOL    HW226409   6.997   5.764   5.453
 8504SOL     OW26410   1.431   5.498   2.159
 8504SOL    HW126411   1.477   5.505   2.248
 8504SOL    HW226412   1.428   5.588   2.116
 8505SOL     OW26413   5.997   3.471   2.929
 8505SOL    HW126414   5.952   3.384   2.911
 8505SOL    HW226415   6.032   3.509   2.843
 8506SOL     OW26416   1.864   0.361   6.593
 8506SOL    HW126417   1.818   0.273   6.582
 8506SOL    HW226418   1.844   0.397   6.684
 8507SOL     OW26419   3.748   6.858   4.953
 8507SOL    HW126420   3.788   6.840   4.863
 8507SOL    HW226421   3.718   6.953   4.958
 8508SOL     OW26422   4.106   1.351   5.372
 8508SOL    HW126423   4.147   1.387   5.456
 8508SOL    HW226424   4.025   1.404   5.349
 8509SOL     OW26425   5.841   6.893   3.142
 8509SOL    HW126426   5.782   6.827   3.096
 8509SOL    HW226427   5.793   6.932   3.220
 8510SOL     OW26428   5.331   3.634   2.903
 8510SOL    HW126429   5.344   3.577   2.822
 8510SOL    HW226430   5.245   3.685   2.895
 8511SOL     OW26431   6.353   2.854   2.533
 8511SOL    HW126432   6.417   2.827   2.461
 8511SOL    HW226433   6.280   2.909   2.493
 8512SOL     OW26434   2.699   6.695   2.662
 8512SOL    HW126435   2.792   6.704   2.697
 8512SOL    HW226436   2.634   6.698   2.738
 8513SOL     OW26437   0.174   5.748   0.961
 8513SOL    HW126438   0.236   5.679   0.997
 8513SOL    HW226439   0.115   5.708   0.891
 8514SOL     OW26440   2.877   0.703   3.688
 8514SOL    HW126441   2.889   0.739   3.780
 8514SOL    HW226442   2.788   0.657   3.681
 8515SOL     OW26443   4.577   2.448   1.010
 8515SOL    HW126444   4.506   2.501   0.964
 8515SOL    HW226445   4.541   2.408   1.094
 8516SOL     OW26446   0.157   2.052   2.469
 8516SOL    HW126447   0.134   2.094   2.381
 8516SOL    HW226448   0.076   2.008   2.507
 8517SOL     OW26449   0.730   2.570   5.361
 8517SOL    HW126450   0.714   2.631   5.283
 8517SOL    HW226451   0.718   2.475   5.331
 8518SOL     OW26452   4.214   4.488   0.266
 8518SOL    HW126453   4.162   4.403   0.258
 8518SOL    HW226454   4.295   4.483   0.207
 8519SOL     OW26455   1.849   5.656   1.911
 8519SOL    HW126456   1.909   5.736   1.913
 8519SOL    HW226457   1.811   5.640   2.002
 8520SOL     OW26458   3.771   1.404   0.452
 8520SOL    HW126459   3.723   1.376   0.369
 8520SOL    HW226460   3.709   1.455   0.511
 8521SOL     OW26461   1.999   5.725   5.573
 8521SOL    HW126462   2.035   5.659   5.507
 8521SOL    HW226463   2.024   5.698   5.666
 8522SOL     OW26464   1.312   5.269   2.275
 8522SOL    HW126465   1.364   5.348   2.241
 8522SOL    HW226466   1.375   5.200   2.309
 8523SOL     OW26467   2.709   7.019   6.321
 8523SOL    HW126468   2.788   6.999   6.379
 8523SOL    HW226469   2.652   0.069   6.366
 8524SOL     OW26470   1.433   3.009   4.499
 8524SOL    HW126471   1.436   2.930   4.437
 8524SOL    HW226472   1.446   3.093   4.447
 8525SOL     OW26473   6.214   3.774   3.142
 8525SOL    HW126474   6.218   3.723   3.228
 8525SOL    HW226475   6.253   3.718   3.068
 8526SOL     OW26476   2.764   3.537   1.802
 8526SOL    HW126477   2.742   3.601   1.876
 8526SOL    HW226478   2.680   3.504   1.760
 8527SOL     OW26479   4.202   0.189   4.913
 8527SOL    HW126480   4.255   0.224   4.836
 8527SOL    HW226481   4.255   0.119   4.961
 8528SOL     OW26482   5.322   3.345   5.875
 8528SOL    HW126483   5.369   3.396   5.947
 8528SOL    HW226484   5.360   3.370   5.786
 8529SOL     OW26485   1.505   6.835   6.983
 8529SOL    HW126486   1.511   6.935   6.980
 8529SOL    HW226487   1.520   6.803   0.057
 8530SOL     OW26488   0.859   5.001   5.798
 8530SOL    HW126489   0.866   5.017   5.700
 8530SOL    HW226490   0.938   5.042   5.844
 8531SOL     OW26491   5.463   4.188   3.236
 8531SOL    HW126492   5.488   4.199   3.140
 8531SOL    HW226493   5.541   4.149   3.286
 8532SOL     OW26494   4.235   4.787   4.938
 8532SOL    HW126495   4.155   4.768   4.995
 8532SOL    HW226496   4.286   4.703   4.922
 8533SOL     OW26497   2.085   0.675   5.344
 8533SOL    HW126498   2.057   0.766   5.311
 8533SOL    HW226499   2.046   0.659   5.435
 8534SOL     OW26500   6.911   4.819   2.679
 8534SOL    HW126501   6.891   4.842   2.584
 8534SOL    HW226502   6.857   4.877   2.740
 8535SOL     OW26503   0.998   2.115   4.776
 8535SOL    HW126504   0.946   2.149   4.697
 8535SOL    HW226505   1.065   2.048   4.745
 8536SOL     OW26506   5.970   2.657   4.849
 8536SOL    HW126507   5.965   2.597   4.769
 8536SOL    HW226508   5.904   2.732   4.838
 8537SOL     OW26509   6.321   1.554   0.700
 8537SOL    HW126510   6.339   1.464   0.661
 8537SOL    HW226511   6.408   1.597   0.724
 8538SOL     OW26512   0.907   0.787   4.943
 8538SOL    HW126513   0.912   0.886   4.930
 8538SOL    HW226514   0.817   0.754   4.916
 8539SOL     OW26515   6.218   2.382   2.579
 8539SOL    HW126516   6.227   2.325   2.498
 8539SOL    HW226517   6.228   2.325   2.661
 8540SOL     OW26518   3.579   1.801   0.645
 8540SOL    HW126519   3.616   1.870   0.584
 8540SOL    HW226520   3.507   1.842   0.702
 8541SOL     OW26521   2.596   1.477   5.306
 8541SOL    HW126522   2.560   1.463   5.398
 8541SOL    HW226523   2.641   1.566   5.302
 8542SOL     OW26524   3.285   4.327   6.383
 8542SOL    HW126525   3.219   4.276   6.438
 8542SOL    HW226526   3.372   4.279   6.383
 8543SOL     OW26527   2.745   1.736   5.275
 8543SOL    HW126528   2.647   1.742   5.256
 8543SOL    HW226529   2.788   1.824   5.254
 8544SOL     OW26530   5.446   2.943   5.318
 8544SOL    HW126531   5.497   2.982   5.241
 8544SOL    HW226532   5.350   2.969   5.311
 8545SOL     OW26533   3.199   6.984   4.815
 8545SOL    HW126534   3.181   7.009   4.720
 8545SOL    HW226535   3.116   6.948   4.856
 8546SOL     OW26536   5.477   0.688   1.080
 8546SOL    HW126537   5.534   0.766   1.052
 8546SOL    HW226538   5.410   0.668   1.009
 8547SOL     OW26539   6.473   0.570   5.389
 8547SOL    HW126540   6.441   0.651   5.438
 8547SOL    HW226541   6.468   0.491   5.450
 8548SOL     OW26542   0.709   2.788   5.201
 8548SOL    HW126543   0.689   2.840   5.284
 8548SOL    HW226544   0.768   2.843   5.142
 8549SOL     OW26545   0.923   1.866   4.021
 8549SOL    HW126546   0.990   1.856   3.948
 8549SOL    HW226547   0.955   1.933   4.088
 8550SOL     OW26548   0.614   4.032   6.316
 8550SOL    HW126549   0.710   4.015   6.338
 8550SOL    HW226550   0.560   3.950   6.333
 8551SOL     OW26551   2.042   2.277   6.834
 8551SOL    HW126552   2.046   2.344   6.908
 8551SOL    HW226553   1.974   2.307   6.766
 8552SOL     OW26554   3.094   0.662   2.131
 8552SOL    HW126555   3.036   0.659   2.050
 8552SOL    HW226556   3.077   0.582   2.188
 8553SOL     OW26557   3.835   4.336   0.353
 8553SOL    HW126558   3.907   4.289   0.302
 8553SOL    HW226559   3.771   4.269   0.390
 8554SOL     OW26560   0.997   6.558   1.542
 8554SOL    HW126561   1.029   6.628   1.605
 8554SOL    HW226562   1.034   6.576   1.451
 8555SOL     OW26563   4.385   1.951   3.146
 8555SOL    HW126564   4.316   1.929   3.215
 8555SOL    HW226565   4.474   1.962   3.189
 8556SOL     OW26566   1.627   6.190   5.576
 8556SOL    HW126567   1.671   6.126   5.514
 8556SOL    HW226568   1.599   6.142   5.659
 8557SOL     OW26569   6.607   0.861   0.729
 8557SOL    HW126570   6.553   0.945   0.735
 8557SOL    HW226571   6.697   0.877   0.768
 8558SOL     OW26572   2.248   4.957   2.794
 8558SOL    HW126573   2.322   4.898   2.826
 8558SOL    HW226574   2.184   4.904   2.739
 8559SOL     OW26575   0.845   6.729   2.852
 8559SOL    HW126576   0.862   6.816   2.807
 8559SOL    HW226577   0.748   6.706   2.844
 8560SOL     OW26578   1.475   5.439   1.705
 8560SOL    HW126579   1.476   5.539   1.698
 8560SOL    HW226580   1.404   5.411   1.770
 8561SOL     OW26581   4.319   6.919   3.130
 8561SOL    HW126582   4.323   6.920   3.230
 8561SOL    HW226583   4.253   6.850   3.100
 8562SOL     OW26584   3.956   0.544   6.533
 8562SOL    HW126585   3.968   0.445   6.536
 8562SOL    HW226586   3.861   0.567   6.556
 8563SOL     OW26587   1.388   6.018   2.143
 8563SOL    HW126588   1.330   5.953   2.193
 8563SOL    HW226589   1.334   6.064   2.073
 8564SOL     OW26590   3.642   5.942   6.374
 8564SOL    HW126591   3.638   5.971   6.278
 8564SOL    HW226592   3.618   5.846   6.381
 8565SOL     OW26593   3.802   5.378   1.616
 8565SOL    HW126594   3.868   5.391   1.542
 8565SOL    HW226595   3.712   5.412   1.587
 8566SOL     OW26596   2.618   0.822   2.486
 8566SOL    HW126597   2.614   0.741   2.545
 8566SOL    HW226598   2.555   0.811   2.410
 8567SOL     OW26599   1.588   2.271   1.804
 8567SOL    HW126600   1.513   2.210   1.778
 8567SOL    HW226601   1.646   2.289   1.725
 8568SOL     OW26602   6.723   1.028   0.291
 8568SOL    HW126603   6.669   0.948   0.264
 8568SOL    HW226604   6.711   1.101   0.223
 8569SOL     OW26605   4.738   1.891   5.683
 8569SOL    HW126606   4.686   1.847   5.610
 8569SOL    HW226607   4.835   1.871   5.672
 8570SOL     OW26608   1.806   1.745   4.223
 8570SOL    HW126609   1.813   1.754   4.124
 8570SOL    HW226610   1.714   1.770   4.253
 8571SOL     OW26611   1.296   0.731   4.693
 8571SOL    HW126612   1.261   0.803   4.753
 8571SOL    HW226613   1.337   0.659   4.748
 8572SOL     OW26614   2.022   4.137   5.926
 8572SOL    HW126615   1.925   4.116   5.933
 8572SOL    HW226616   2.073   4.053   5.904
 8573SOL     OW26617   2.882   6.302   6.951
 8573SOL    HW126618   2.919   6.386   6.990
 8573SOL    HW226619   2.957   6.244   6.918
 8574SOL     OW26620   6.328   6.725   6.096
 8574SOL    HW126621   6.282   6.807   6.063
 8574SOL    HW226622   6.413   6.711   6.046
 8575SOL     OW26623   3.865   0.793   2.308
 8575SOL    HW126624   3.770   0.797   2.277
 8575SOL    HW226625   3.869   0.818   2.405
 8576SOL     OW26626   1.623   4.471   4.102
 8576SOL    HW126627   1.705   4.419   4.082
 8576SOL    HW226628   1.648   4.565   4.129
 8577SOL     OW26629   1.557   0.842   5.777
 8577SOL    HW126630   1.475   0.788   5.758
 8577SOL    HW226631   1.531   0.929   5.817
 8578SOL     OW26632   6.122   5.749   5.876
 8578SOL    HW126633   6.141   5.739   5.974
 8578SOL    HW226634   6.169   5.676   5.826
 8579SOL     OW26635   1.900   6.170   1.972
 8579SOL    HW126636   1.983   6.218   2.000
 8579SOL    HW226637   1.868   6.113   2.048
 8580SOL     OW26638   1.400   6.504   0.890
 8580SOL    HW126639   1.477   6.522   0.828
 8580SOL    HW226640   1.325   6.461   0.839
 8581SOL     OW26641   3.833   4.881   1.502
 8581SOL    HW126642   3.805   4.918   1.413
 8581SOL    HW226643   3.899   4.807   1.487
 8582SOL     OW26644   4.659   4.375   5.556
 8582SOL    HW126645   4.751   4.337   5.554
 8582SOL    HW226646   4.641   4.415   5.646
 8583SOL     OW26647   3.784   6.902   3.084
 8583SOL    HW126648   3.782   6.838   3.008
 8583SOL    HW226649   3.793   6.852   3.170
 8584SOL     OW26650   0.094   0.515   5.280
 8584SOL    HW126651   0.119   0.418   5.275
 8584SOL    HW226652   0.000   0.527   5.247
 8585SOL     OW26653   5.880   1.401   0.635
 8585SOL    HW126654   5.871   1.499   0.613
 8585SOL    HW226655   5.938   1.391   0.715
 8586SOL     OW26656   4.533   6.530   1.307
 8586SOL    HW126657   4.589   6.592   1.364
 8586SOL    HW226658   4.572   6.438   1.311
 8587SOL     OW26659   1.145   1.415   4.920
 8587SOL    HW126660   1.140   1.511   4.891
 8587SOL    HW226661   1.221   1.404   4.984
 8588SOL     OW26662   4.528   1.208   0.131
 8588SOL    HW126663   4.432   1.230   0.150
 8588SOL    HW226664   4.558   1.259   0.051
 8589SOL     OW26665   6.753   3.141   5.235
 8589SOL    HW126666   6.802   3.190   5.307
 8589SOL    HW226667   6.791   3.166   5.146
 8590SOL     OW26668   0.168   0.447   2.592
 8590SOL    HW126669   0.235   0.516   2.566
 8590SOL    HW226670   0.201   0.356   2.566
 8591SOL     OW26671   6.934   4.682   0.275
 8591SOL    HW126672   0.006   4.723   0.283
 8591SOL    HW226673   6.941   4.583   0.278
 8592SOL     OW26674   0.444   3.099   0.080
 8592SOL    HW126675   0.399   3.132   0.163
 8592SOL    HW226676   0.407   3.010   0.054
 8593SOL     OW26677   3.625   0.931   6.618
 8593SOL    HW126678   3.688   0.867   6.575
 8593SOL    HW226679   3.540   0.935   6.564
 8594SOL     OW26680   6.443   2.832   5.905
 8594SOL    HW126681   6.437   2.876   5.815
 8594SOL    HW226682   6.376   2.874   5.966
 8595SOL     OW26683   6.416   0.615   3.769
 8595SOL    HW126684   6.366   0.608   3.856
 8595SOL    HW226685   6.407   0.529   3.719
 8596SOL     OW26686   1.288   4.188   2.989
 8596SOL    HW126687   1.258   4.244   2.911
 8596SOL    HW226688   1.211   4.136   3.024
 8597SOL     OW26689   5.781   2.092   0.721
 8597SOL    HW126690   5.802   2.000   0.753
 8597SOL    HW226691   5.749   2.148   0.798
 8598SOL     OW26692   5.573   0.108   5.662
 8598SOL    HW126693   5.619   0.196   5.654
 8598SOL    HW226694   5.569   0.081   5.758
 8599SOL     OW26695   0.936   2.618   4.350
 8599SOL    HW126696   0.949   2.621   4.449
 8599SOL    HW226697   1.021   2.644   4.305
 8600SOL     OW26698   5.079   3.835   0.733
 8600SOL    HW126699   5.030   3.795   0.655
 8600SOL    HW226700   5.178   3.832   0.716
 8601SOL     OW26701   6.793   1.449   3.999
 8601SOL    HW126702   6.804   1.511   3.922
 8601SOL    HW226703   6.857   1.373   3.989
 8602SOL     OW26704   2.376   6.561   3.046
 8602SOL    HW126705   2.301   6.542   3.109
 8602SOL    HW226706   2.351   6.530   2.954
 8603SOL     OW26707   5.407   0.647   6.765
 8603SOL    HW126708   5.320   0.619   6.724
 8603SOL    HW226709   5.428   0.740   6.737
 8604SOL     OW26710   0.857   2.743   6.301
 8604SOL    HW126711   0.869   2.680   6.377
 8604SOL    HW226712   0.909   2.827   6.318
 8605SOL     OW26713   0.948   4.533   3.769
 8605SOL    HW126714   0.885   4.591   3.820
 8605SOL    HW226715   1.037   4.577   3.763
 8606SOL     OW26716   2.878   1.604   6.854
 8606SOL    HW126717   2.802   1.669   6.850
 8606SOL    HW226718   2.855   1.529   6.915
 8607SOL     OW26719   2.568   4.409   0.066
 8607SOL    HW126720   2.536   4.490   0.115
 8607SOL    HW226721   2.644   4.368   0.116
 8608SOL     OW26722   2.214   5.350   1.906
 8608SOL    HW126723   2.233   5.358   2.004
 8608SOL    HW226724   2.116   5.357   1.891
 8609SOL     OW26725   4.958   0.812   3.980
 8609SOL    HW126726   4.910   0.728   4.005
 8609SOL    HW226727   4.947   0.828   3.882
 8610SOL     OW26728   0.116   6.946   3.482
 8610SOL    HW126729   0.101   0.019   3.448
 8610SOL    HW226730   0.171   6.895   3.416
 8611SOL     OW26731   3.023   1.228   4.208
 8611SOL    HW126732   3.076   1.201   4.289
 8611SOL    HW226733   3.079   1.217   4.126
 8612SOL     OW26734   2.945   3.485   1.611
 8612SOL    HW126735   2.879   3.523   1.676
 8612SOL    HW226736   2.935   3.386   1.607
 8613SOL     OW26737   2.897   2.553   1.734
 8613SOL    HW126738   2.870   2.493   1.809
 8613SOL    HW226739   2.818   2.608   1.705
 8614SOL     OW26740   1.626   2.340   3.325
 8614SOL    HW126741   1.687   2.291   3.263
 8614SOL    HW226742   1.617   2.288   3.410
 8615SOL     OW26743   4.411   1.555   5.021
 8615SOL    HW126744   4.400   1.497   5.102
 8615SOL    HW226745   4.506   1.586   5.015
 8616SOL     OW26746   2.429   4.598   1.630
 8616SOL    HW126747   2.371   4.662   1.680
 8616SOL    HW226748   2.372   4.543   1.569
 8617SOL     OW26749   5.830   0.902   4.056
 8617SOL    HW126750   5.803   0.903   3.960
 8617SOL    HW226751   5.928   0.888   4.063
 8618SOL     OW26752   6.477   4.283   0.564
 8618SOL    HW126753   6.496   4.185   0.572
 8618SOL    HW226754   6.456   4.321   0.654
 8619SOL     OW26755   4.115   5.093   3.300
 8619SOL    HW126756   4.121   5.057   3.393
 8619SOL    HW226757   4.196   5.148   3.280
 8620SOL     OW26758   1.932   0.290   4.565
 8620SOL    HW126759   1.938   0.209   4.623
 8620SOL    HW226760   1.850   0.284   4.507
 8621SOL     OW26761   4.948   3.052   2.216
 8621SOL    HW126762   4.889   3.034   2.294
 8621SOL    HW226763   4.892   3.062   2.133
 8622SOL     OW26764   5.801   5.084   1.651
 8622SOL    HW126765   5.714   5.125   1.675
 8622SOL    HW226766   5.785   5.002   1.596
 8623SOL     OW26767   0.596   3.807   4.840
 8623SOL    HW126768   0.682   3.756   4.851
 8623SOL    HW226769   0.551   3.814   4.929
 8624SOL     OW26770   3.893   3.434   5.908
 8624SOL    HW126771   3.904   3.517   5.963
 8624SOL    HW226772   3.859   3.459   5.817
 8625SOL     OW26773   4.243   0.918   6.162
 8625SOL    HW126774   4.154   0.900   6.122
 8625SOL    HW226775   4.257   0.860   6.242
 8626SOL     OW26776   3.527   3.191   6.272
 8626SOL    HW126777   3.502   3.159   6.363
 8626SOL    HW226778   3.568   3.116   6.220
 8627SOL     OW26779   2.397   1.574   2.578
 8627SOL    HW126780   2.333   1.643   2.544
 8627SOL    HW226781   2.456   1.544   2.503
 8628SOL     OW26782   6.213   6.850   0.048
 8628SOL    HW126783   6.241   6.898   6.984
 8628SOL    HW226784   6.292   6.842   0.109
 8629SOL     OW26785   1.361   6.291   5.523
 8629SOL    HW126786   1.322   6.344   5.448
 8629SOL    HW226787   1.458   6.275   5.506
 8630SOL     OW26788   4.860   3.890   4.459
 8630SOL    HW126789   4.908   3.907   4.545
 8630SOL    HW226790   4.861   3.792   4.440
 8631SOL     OW26791   1.283   6.162   6.204
 8631SOL    HW126792   1.198   6.165   6.256
 8631SOL    HW226793   1.262   6.161   6.106
 8632SOL     OW26794   4.069   4.085   5.297
 8632SOL    HW126795   4.131   4.163   5.289
 8632SOL    HW226796   3.976   4.118   5.314
 8633SOL     OW26797   5.931   3.722   5.890
 8633SOL    HW126798   5.924   3.757   5.797
 8633SOL    HW226799   5.985   3.638   5.889
 8634SOL     OW26800   5.196   4.668   0.303
 8634SOL    HW126801   5.206   4.677   0.402
 8634SOL    HW226802   5.105   4.635   0.281
 8635SOL     OW26803   6.101   2.736   6.776
 8635SOL    HW126804   6.008   2.754   6.809
 8635SOL    HW226805   6.157   2.704   6.852
 8636SOL     OW26806   4.607   5.956   0.687
 8636SOL    HW126807   4.583   5.927   0.780
 8636SOL    HW226808   4.523   5.974   0.635
 8637SOL     OW26809   2.054   1.490   6.146
 8637SOL    HW126810   1.971   1.475   6.199
 8637SOL    HW226811   2.085   1.403   6.107
 8638SOL     OW26812   3.923   2.595   5.408
 8638SOL    HW126813   3.970   2.653   5.341
 8638SOL    HW226814   3.876   2.521   5.359
 8639SOL     OW26815   4.392   3.703   0.063
 8639SOL    HW126816   4.354   3.721   0.153
 8639SOL    HW226817   4.320   3.711   7.013
 8640SOL     OW26818   4.331   3.417   1.035
 8640SOL    HW126819   4.311   3.323   1.064
 8640SOL    HW226820   4.264   3.479   1.075
 8641SOL     OW26821   4.116   4.849   4.271
 8641SOL    HW126822   4.090   4.940   4.239
 8641SOL    HW226823   4.057   4.823   4.348
 8642SOL     OW26824   0.725   6.917   3.153
 8642SOL    HW126825   0.778   6.958   3.079
 8642SOL    HW226826   0.749   6.821   3.163
 8643SOL     OW26827   2.055   0.323   0.224
 8643SOL    HW126828   2.053   0.422   0.238
 8643SOL    HW226829   2.100   0.279   0.302
 8644SOL     OW26830   6.364   2.800   6.324
 8644SOL    HW126831   6.348   2.840   6.234
 8644SOL    HW226832   6.404   2.709   6.314
 8645SOL     OW26833   4.519   5.038   1.488
 8645SOL    HW126834   4.561   4.954   1.456
 8645SOL    HW226835   4.556   5.116   1.437
 8646SOL     OW26836   0.544   1.880   0.073
 8646SOL    HW126837   0.513   1.836   0.158
 8646SOL    HW226838   0.643   1.869   0.064
 8647SOL     OW26839   2.456   5.253   0.346
 8647SOL    HW126840   2.485   5.349   0.344
 8647SOL    HW226841   2.528   5.197   0.304
 8648SOL     OW26842   6.212   6.063   1.176
 8648SOL    HW126843   6.290   6.104   1.129
 8648SOL    HW226844   6.137   6.048   1.111
 8649SOL     OW26845   5.576   6.467   0.145
 8649SOL    HW126846   5.660   6.513   0.115
 8649SOL    HW226847   5.543   6.407   0.072
 8650SOL     OW26848   1.618   6.785   4.395
 8650SOL    HW126849   1.530   6.744   4.422
 8650SOL    HW226850   1.654   6.840   4.470
 8651SOL     OW26851   3.301   1.461   0.919
 8651SOL    HW126852   3.298   1.559   0.938
 8651SOL    HW226853   3.300   1.446   0.820
 8652SOL     OW26854   1.135   4.665   3.538
 8652SOL    HW126855   1.175   4.673   3.629
 8652SOL    HW226856   1.128   4.569   3.513
 8653SOL     OW26857   6.707   1.396   5.438
 8653SOL    HW126858   6.742   1.433   5.524
 8653SOL    HW226859   6.679   1.471   5.378
 8654SOL     OW26860   0.693   4.860   0.570
 8654SOL    HW126861   0.683   4.954   0.603
 8654SOL    HW226862   0.755   4.859   0.492
 8655SOL     OW26863   5.725   1.123   5.418
 8655SOL    HW126864   5.629   1.099   5.434
 8655SOL    HW226865   5.785   1.056   5.462
 8656SOL     OW26866   5.673   0.463   1.967
 8656SOL    HW126867   5.639   0.486   2.058
 8656SOL    HW226868   5.598   0.426   1.912
 8657SOL     OW26869   5.476   5.859   7.019
 8657SOL    HW126870   5.424   5.833   6.938
 8657SOL    HW226871   5.489   5.779   0.058
 8658SOL     OW26872   6.314   5.805   0.895
 8658SOL    HW126873   6.245   5.843   0.833
 8658SOL    HW226874   6.269   5.764   0.974
 8659SOL     OW26875   4.482   2.468   2.793
 8659SOL    HW126876   4.401   2.421   2.758
 8659SOL    HW226877   4.563   2.413   2.776
 8660SOL     OW26878   0.202   2.609   2.438
 8660SOL    HW126879   0.255   2.686   2.405
 8660SOL    HW226880   0.245   2.571   2.521
 8661SOL     OW26881   5.767   4.151   2.007
 8661SOL    HW126882   5.747   4.079   1.941
 8661SOL    HW226883   5.866   4.161   2.017
 8662SOL     OW26884   3.733   6.019   2.015
 8662SOL    HW126885   3.734   6.113   2.051
 8662SOL    HW226886   3.685   6.018   1.927
 8663SOL     OW26887   2.659   5.032   2.400
 8663SOL    HW126888   2.642   4.994   2.490
 8663SOL    HW226889   2.740   5.090   2.402
 8664SOL     OW26890   2.509   5.234   2.612
 8664SOL    HW126891   2.502   5.168   2.687
 8664SOL    HW226892   2.496   5.187   2.525
 8665SOL     OW26893   6.435   5.812   4.489
 8665SOL    HW126894   6.385   5.782   4.408
 8665SOL    HW226895   6.505   5.744   4.511
 8666SOL     OW26896   5.580   0.705   4.644
 8666SOL    HW126897   5.647   0.755   4.699
 8666SOL    HW226898   5.621   0.679   4.557
 8667SOL     OW26899   5.068   1.632   4.380
 8667SOL    HW126900   5.047   1.655   4.475
 8667SOL    HW226901   5.132   1.555   4.378
 8668SOL     OW26902   5.291   3.094   4.870
 8668SOL    HW126903   5.236   3.012   4.887
 8668SOL    HW226904   5.348   3.113   4.950
 8669SOL     OW26905   0.152   6.452   5.897
 8669SOL    HW126906   0.073   6.493   5.942
 8669SOL    HW226907   0.142   6.352   5.896
 8670SOL     OW26908   4.633   5.025   5.618
 8670SOL    HW126909   4.728   5.045   5.596
 8670SOL    HW226910   4.626   4.935   5.659
 8671SOL     OW26911   0.791   1.740   2.298
 8671SOL    HW126912   0.804   1.727   2.396
 8671SOL    HW226913   0.751   1.657   2.258
 8672SOL     OW26914   0.741   0.365   3.374
 8672SOL    HW126915   0.699   0.276   3.353
 8672SOL    HW226916   0.684   0.414   3.439
 8673SOL     OW26917   6.743   1.334   6.988
 8673SOL    HW126918   6.669   1.306   6.927
 8673SOL    HW226919   6.706   1.346   0.061
 8674SOL     OW26920   6.560   4.788   2.748
 8674SOL    HW126921   6.460   4.785   2.743
 8674SOL    HW226922   6.594   4.858   2.685
 8675SOL     OW26923   4.390   1.164   5.355
 8675SOL    HW126924   4.318   1.163   5.424
 8675SOL    HW226925   4.364   1.226   5.281
 8676SOL     OW26926   5.146   0.760   1.157
 8676SOL    HW126927   5.192   0.849   1.155
 8676SOL    HW226928   5.060   0.766   1.107
 8677SOL     OW26929   1.782   5.885   5.898
 8677SOL    HW126930   1.873   5.884   5.939
 8677SOL    HW226931   1.778   5.819   5.823
 8678SOL     OW26932   0.279   0.027   0.555
 8678SOL    HW126933   0.376   0.050   0.552
 8678SOL    HW226934   0.267   6.952   0.525
 8679SOL     OW26935   2.171   1.004   3.750
 8679SOL    HW126936   2.215   1.040   3.667
 8679SOL    HW226937   2.090   1.059   3.771
 8680SOL     OW26938   6.109   2.806   6.494
 8680SOL    HW126939   6.094   2.760   6.582
 8680SOL    HW226940   6.202   2.787   6.462
 8681SOL     OW26941   4.632   5.211   1.307
 8681SOL    HW126942   4.584   5.246   1.227
 8681SOL    HW226943   4.731   5.212   1.290
 8682SOL     OW26944   6.759   0.354   1.265
 8682SOL    HW126945   6.664   0.325   1.271
 8682SOL    HW226946   6.819   0.274   1.267
 8683SOL     OW26947   1.733   2.846   4.776
 8683SOL    HW126948   1.634   2.835   4.782
 8683SOL    HW226949   1.774   2.831   4.866
 8684SOL     OW26950   6.974   3.557   4.792
 8684SOL    HW126951   6.938   3.512   4.709
 8684SOL    HW226952   6.920   3.527   4.871
 8685SOL     OW26953   5.565   3.226   6.687
 8685SOL    HW126954   5.510   3.195   6.610
 8685SOL    HW226955   5.636   3.158   6.707
 8686SOL     OW26956   5.931   6.882   2.539
 8686SOL    HW126957   5.922   6.938   2.456
 8686SOL    HW226958   6.026   6.852   2.549
 8687SOL     OW26959   6.132   4.990   3.163
 8687SOL    HW126960   6.143   5.079   3.206
 8687SOL    HW226961   6.140   4.918   3.232
 8688SOL     OW26962   1.411   3.893   0.131
 8688SOL    HW126963   1.400   3.976   0.076
 8688SOL    HW226964   1.323   3.848   0.142
 8689SOL     OW26965   4.892   3.225   0.295
 8689SOL    HW126966   4.898   3.290   0.371
 8689SOL    HW226967   4.973   3.235   0.236
 8690SOL     OW26968   0.475   2.936   2.807
 8690SOL    HW126969   0.522   2.899   2.728
 8690SOL    HW226970   0.542   2.964   2.876
 8691SOL     OW26971   2.924   2.114   5.093
 8691SOL    HW126972   2.971   2.192   5.051
 8691SOL    HW226973   2.870   2.146   5.171
 8692SOL     OW26974   3.706   0.773   5.205
 8692SOL    HW126975   3.706   0.738   5.111
 8692SOL    HW226976   3.612   0.798   5.231
 8693SOL     OW26977   6.881   1.756   6.223
 8693SOL    HW126978   6.919   1.763   6.130
 8693SOL    HW226979   6.865   1.848   6.259
 8694SOL     OW26980   5.716   1.996   5.016
 8694SOL    HW126981   5.672   2.085   5.007
 8694SOL    HW226982   5.658   1.925   4.975
 8695SOL     OW26983   4.098   2.792   5.986
 8695SOL    HW126984   4.136   2.883   5.968
 8695SOL    HW226985   4.027   2.772   5.919
 8696SOL     OW26986   2.593   6.119   5.408
 8696SOL    HW126987   2.597   6.144   5.505
 8696SOL    HW226988   2.534   6.182   5.359
 8697SOL     OW26989   0.574   4.209   6.101
 8697SOL    HW126990   0.625   4.142   6.154
 8697SOL    HW226991   0.483   4.222   6.142
 8698SOL     OW26992   5.355   5.998   5.620
 8698SOL    HW126993   5.368   5.922   5.684
 8698SOL    HW226994   5.444   6.039   5.599
 8699SOL     OW26995   2.128   2.982   6.045
 8699SOL    HW126996   2.224   3.005   6.060
 8699SOL    HW226997   2.115   2.883   6.054
 8700SOL     OW26998   1.619   1.097   5.434
 8700SOL    HW126999   1.658   1.015   5.392
 8700SOL    HW227000   1.569   1.149   5.364
 8701SOL     OW27001   1.842   1.312   6.822
 8701SOL    HW127002   1.819   1.219   6.853
 8701SOL    HW227003   1.844   1.314   6.722
 8702SOL     OW27004   4.909   5.167   1.983
 8702SOL    HW127005   4.938   5.089   2.037
 8702SOL    HW227006   4.858   5.135   1.903
 8703SOL     OW27007   3.338   5.175   0.129
 8703SOL    HW127008   3.248   5.141   0.103
 8703SOL    HW227009   3.402   5.098   0.135
 8704SOL     OW27010   6.531   3.516   3.807
 8704SOL    HW127011   6.559   3.599   3.760
 8704SOL    HW227012   6.502   3.448   3.740
 8705SOL     OW27013   4.524   1.792   6.438
 8705SOL    HW127014   4.524   1.892   6.444
 8705SOL    HW227015   4.488   1.754   6.523
 8706SOL     OW27016   5.483   2.257   6.888
 8706SOL    HW127017   5.409   2.313   6.925
 8706SOL    HW227018   5.457   2.161   6.890
 8707SOL     OW27019   0.786   2.476   3.733
 8707SOL    HW127020   0.845   2.406   3.692
 8707SOL    HW227021   0.843   2.553   3.763
 8708SOL     OW27022   3.932   1.560   4.137
 8708SOL    HW127023   4.003   1.537   4.203
 8708SOL    HW227024   3.946   1.653   4.104
 8709SOL     OW27025   6.891   0.053   6.790
 8709SOL    HW127026   6.828   0.129   6.807
 8709SOL    HW227027   6.968   0.059   6.854
 8710SOL     OW27028   2.018   2.258   3.587
 8710SOL    HW127029   2.030   2.159   3.586
 8710SOL    HW227030   1.982   2.288   3.498
 8711SOL     OW27031   1.438   6.784   1.729
 8711SOL    HW127032   1.490   6.858   1.770
 8711SOL    HW227033   1.416   6.808   1.634
 8712SOL     OW27034   2.964   1.462   4.042
 8712SOL    HW127035   3.052   1.476   3.996
 8712SOL    HW227036   2.980   1.418   4.131
 8713SOL     OW27037   0.319   4.357   1.399
 8713SOL    HW127038   0.344   4.271   1.354
 8713SOL    HW227039   0.336   4.433   1.336
 8714SOL     OW27040   0.637   6.722   0.213
 8714SOL    HW127041   0.614   6.638   0.262
 8714SOL    HW227042   0.656   6.700   0.117
 8715SOL     OW27043   3.638   1.555   6.800
 8715SOL    HW127044   3.559   1.596   6.845
 8715SOL    HW227045   3.610   1.514   6.713
 8716SOL     OW27046   6.634   6.451   0.854
 8716SOL    HW127047   6.703   6.426   0.786
 8716SOL    HW227048   6.647   6.396   0.936
 8717SOL     OW27049   2.104   3.525   5.913
 8717SOL    HW127050   2.130   3.543   6.008
 8717SOL    HW227051   2.150   3.591   5.853
 8718SOL     OW27052   1.780   2.495   6.329
 8718SOL    HW127053   1.873   2.468   6.357
 8718SOL    HW227054   1.761   2.588   6.360
 8719SOL     OW27055   4.117   0.914   0.176
 8719SOL    HW127056   4.072   0.824   0.178
 8719SOL    HW227057   4.074   0.971   0.106
 8720SOL     OW27058   7.009   5.790   6.022
 8720SOL    HW127059   0.053   5.781   6.098
 8720SOL    HW227060   6.943   5.715   6.024
 8721SOL     OW27061   6.132   0.045   0.352
 8721SOL    HW127062   6.183   6.988   0.390
 8721SOL    HW227063   6.196   0.111   0.312
 8722SOL     OW27064   3.450   1.095   0.352
 8722SOL    HW127065   3.488   1.094   0.445
 8722SOL    HW227066   3.436   1.190   0.323
 8723SOL     OW27067   5.635   0.071   2.321
 8723SOL    HW127068   5.622   0.052   2.418
 8723SOL    HW227069   5.557   0.036   2.269
 8724SOL     OW27070   5.793   0.559   4.502
 8724SOL    HW127071   5.727   0.570   4.427
 8724SOL    HW227072   5.869   0.503   4.471
 8725SOL     OW27073   0.459   6.550   5.256
 8725SOL    HW127074   0.447   6.570   5.354
 8725SOL    HW227075   0.412   6.465   5.233
 8726SOL     OW27076   6.960   0.685   0.432
 8726SOL    HW127077   6.918   0.728   0.351
 8726SOL    HW227078   0.011   0.746   0.469
 8727SOL     OW27079   5.527   0.143   0.002
 8727SOL    HW127080   5.597   0.102   6.964
 8727SOL    HW227081   5.442   0.091   7.013
 8728SOL     OW27082   5.621   1.696   1.983
 8728SOL    HW127083   5.556   1.686   2.058
 8728SOL    HW227084   5.572   1.688   1.896
 8729SOL     OW27085   3.054   5.342   5.683
 8729SOL    HW127086   3.065   5.349   5.782
 8729SOL    HW227087   3.071   5.248   5.653
 8730SOL     OW27088   4.805   4.820   3.234
 8730SOL    HW127089   4.773   4.782   3.321
 8730SOL    HW227090   4.882   4.882   3.251
 8731SOL     OW27091   0.678   2.985   2.987
 8731SOL    HW127092   0.763   2.938   2.962
 8731SOL    HW227093   0.687   3.022   3.079
 8732SOL     OW27094   5.540   4.280   1.849
 8732SOL    HW127095   5.485   4.324   1.920
 8732SOL    HW227096   5.545   4.182   1.868
 8733SOL     OW27097   0.929   5.919   0.784
 8733SOL    HW127098   0.980   6.003   0.802
 8733SOL    HW227099   0.903   5.876   0.870
 8734SOL     OW27100   6.877   3.186   2.118
 8734SOL    HW127101   6.972   3.166   2.141
 8734SOL    HW227102   6.868   3.280   2.088
 8735SOL     OW27103   1.146   3.139   5.386
 8735SOL    HW127104   1.085   3.207   5.427
 8735SOL    HW227105   1.241   3.168   5.398
 8736SOL     OW27106   0.426   5.261   2.323
 8736SOL    HW127107   0.354   5.263   2.392
 8736SOL    HW227108   0.515   5.254   2.367
 8737SOL     OW27109   2.723   6.515   6.550
 8737SOL    HW127110   2.806   6.541   6.502
 8737SOL    HW227111   2.661   6.594   6.555
 8738SOL     OW27112   2.273   5.127   3.463
 8738SOL    HW127113   2.338   5.109   3.389
 8738SOL    HW227114   2.316   5.186   3.532
 8739SOL     OW27115   5.126   4.348   5.793
 8739SOL    HW127116   5.097   4.419   5.857
 8739SOL    HW227117   5.203   4.381   5.740
 8740SOL     OW27118   3.747   2.108   2.768
 8740SOL    HW127119   3.770   2.012   2.753
 8740SOL    HW227120   3.699   2.143   2.688
 8741SOL     OW27121   2.606   0.596   2.657
 8741SOL    HW127122   2.671   0.612   2.731
 8741SOL    HW227123   2.597   0.497   2.642
 8742SOL     OW27124   4.053   0.011   2.092
 8742SOL    HW127125   3.975   0.056   2.135
 8742SOL    HW227126   4.030   7.005   1.999
 8743SOL     OW27127   1.852   1.265   1.914
 8743SOL    HW127128   1.792   1.244   1.836
 8743SOL    HW227129   1.937   1.306   1.881
 8744SOL     OW27130   4.708   2.845   0.801
 8744SOL    HW127131   4.634   2.795   0.845
 8744SOL    HW227132   4.785   2.783   0.784
 8745SOL     OW27133   6.796   2.607   6.589
 8745SOL    HW127134   6.729   2.680   6.602
 8745SOL    HW227135   6.751   2.518   6.604
 8746SOL     OW27136   4.786   5.413   4.851
 8746SOL    HW127137   4.870   5.374   4.814
 8746SOL    HW227138   4.799   5.435   4.948
 8747SOL     OW27139   6.834   1.670   2.233
 8747SOL    HW127140   6.931   1.655   2.253
 8747SOL    HW227141   6.778   1.635   2.307
 8748SOL     OW27142   1.024   1.862   4.595
 8748SOL    HW127143   1.094   1.793   4.577
 8748SOL    HW227144   1.014   1.921   4.515
 8749SOL     OW27145   2.041   0.920   5.254
 8749SOL    HW127146   2.037   0.924   5.155
 8749SOL    HW227147   2.081   1.004   5.290
 8750SOL     OW27148   4.094   2.911   5.374
 8750SOL    HW127149   4.144   2.994   5.400
 8750SOL    HW227150   4.156   2.849   5.326
 8751SOL     OW27151   6.758   0.121   1.019
 8751SOL    HW127152   6.828   0.155   1.082
 8751SOL    HW227153   6.798   0.056   0.955
 8752SOL     OW27154   4.978   2.953   6.656
 8752SOL    HW127155   4.940   2.983   6.744
 8752SOL    HW227156   5.003   3.032   6.601
 8753SOL     OW27157   2.108   3.801   0.107
 8753SOL    HW127158   2.202   3.833   0.088
 8753SOL    HW227159   2.062   3.782   0.020
 8754SOL     OW27160   2.782   4.727   6.051
 8754SOL    HW127161   2.857   4.774   6.005
 8754SOL    HW227162   2.777   4.756   6.146
 8755SOL     OW27163   1.844   0.809   1.122
 8755SOL    HW127164   1.887   0.753   1.051
 8755SOL    HW227165   1.860   0.905   1.102
 8756SOL     OW27166   1.645   2.680   3.701
 8756SOL    HW127167   1.715   2.742   3.666
 8756SOL    HW227168   1.648   2.680   3.801
 8757SOL     OW27169   5.070   5.896   6.193
 8757SOL    HW127170   5.108   5.820   6.140
 8757SOL    HW227171   4.996   5.863   6.251
 8758SOL     OW27172   4.594   6.586   3.692
 8758SOL    HW127173   4.559   6.496   3.720
 8758SOL    HW227174   4.522   6.654   3.703
 8759SOL     OW27175   6.210   1.954   0.186
 8759SOL    HW127176   6.214   1.858   0.158
 8759SOL    HW227177   6.126   1.995   0.152
 8760SOL     OW27178   2.478   1.806   4.224
 8760SOL    HW127179   2.434   1.850   4.145
 8760SOL    HW227180   2.571   1.842   4.234
 8761SOL     OW27181   6.246   2.250   1.709
 8761SOL    HW127182   6.245   2.180   1.638
 8761SOL    HW227183   6.335   2.251   1.753
 8762SOL     OW27184   1.502   5.881   4.351
 8762SOL    HW127185   1.437   5.858   4.279
 8762SOL    HW227186   1.492   5.977   4.377
 8763SOL     OW27187   6.228   0.301   5.004
 8763SOL    HW127188   6.188   0.245   4.932
 8763SOL    HW227189   6.319   0.268   5.026
 8764SOL     OW27190   4.773   6.145   5.987
 8764SOL    HW127191   4.708   6.074   6.017
 8764SOL    HW227192   4.757   6.229   6.039
 8765SOL     OW27193   5.498   1.224   5.087
 8765SOL    HW127194   5.509   1.289   5.012
 8765SOL    HW227195   5.583   1.219   5.140
 8766SOL     OW27196   4.260   4.307   5.347
 8766SOL    HW127197   4.240   4.373   5.275
 8766SOL    HW227198   4.232   4.344   5.436
 8767SOL     OW27199   3.611   0.140   3.685
 8767SOL    HW127200   3.662   0.166   3.603
 8767SOL    HW227201   3.638   0.199   3.762
 8768SOL     OW27202   0.713   1.605   1.122
 8768SOL    HW127203   0.685   1.511   1.143
 8768SOL    HW227204   0.807   1.619   1.152
 8769SOL     OW27205   0.083   1.139   2.154
 8769SOL    HW127206   0.090   1.072   2.080
 8769SOL    HW227207   0.089   1.093   2.242
 8770SOL     OW27208   4.952   4.778   2.236
 8770SOL    HW127209   5.015   4.774   2.314
 8770SOL    HW227210   4.925   4.686   2.210
 8771SOL     OW27211   0.326   2.910   6.066
 8771SOL    HW127212   0.415   2.931   6.107
 8771SOL    HW227213   0.325   2.941   5.971
 8772SOL     OW27214   5.044   0.606   5.433
 8772SOL    HW127215   5.092   0.693   5.416
 8772SOL    HW227216   5.030   0.595   5.531
 8773SOL     OW27217   5.618   2.441   3.180
 8773SOL    HW127218   5.693   2.503   3.156
 8773SOL    HW227219   5.642   2.392   3.264
 8774SOL     OW27220   0.933   6.916   6.518
 8774SOL    HW127221   1.022   6.957   6.497
 8774SOL    HW227222   0.899   6.867   6.438
 8775SOL     OW27223   5.253   1.379   5.666
 8775SOL    HW127224   5.317   1.303   5.656
 8775SOL    HW227225   5.247   1.406   5.762
 8776SOL     OW27226   4.795   3.074   1.497
 8776SOL    HW127227   4.862   3.104   1.429
 8776SOL    HW227228   4.841   3.059   1.584
 8777SOL     OW27229   0.475   3.515   3.400
 8777SOL    HW127230   0.379   3.506   3.425
 8777SOL    HW227231   0.498   3.445   3.332
 8778SOL     OW27232   4.552   3.598   5.990
 8778SOL    HW127233   4.484   3.648   5.937
 8778SOL    HW227234   4.643   3.629   5.964
 8779SOL     OW27235   2.689   5.795   2.356
 8779SOL    HW127236   2.780   5.755   2.367
 8779SOL    HW227237   2.644   5.802   2.445
 8780SOL     OW27238   0.838   6.052   3.106
 8780SOL    HW127239   0.892   5.975   3.072
 8780SOL    HW227240   0.745   6.047   3.069
 8781SOL     OW27241   4.381   6.759   2.579
 8781SOL    HW127242   4.478   6.772   2.562
 8781SOL    HW227243   4.344   6.694   2.512
 8782SOL     OW27244   6.128   1.146   1.654
 8782SOL    HW127245   6.195   1.080   1.687
 8782SOL    HW227246   6.166   1.238   1.662
 8783SOL     OW27247   6.088   3.711   3.997
 8783SOL    HW127248   6.143   3.632   4.025
 8783SOL    HW227249   6.092   3.781   4.069
 8784SOL     OW27250   6.396   6.146   1.000
 8784SOL    HW127251   6.430   6.145   0.906
 8784SOL    HW227252   6.472   6.125   1.062
 8785SOL     OW27253   0.030   5.206   6.046
 8785SOL    HW127254   0.094   5.281   6.062
 8785SOL    HW227255   0.069   5.141   5.981
 8786SOL     OW27256   3.708   1.776   2.304
 8786SOL    HW127257   3.765   1.850   2.268
 8786SOL    HW227258   3.617   1.780   2.262
 8787SOL     OW27259   3.579   0.864   2.160
 8787SOL    HW127260   3.586   0.764   2.158
 8787SOL    HW227261   3.527   0.896   2.081
 8788SOL     OW27262   6.603   1.083   5.179
 8788SOL    HW127263   6.573   0.988   5.176
 8788SOL    HW227264   6.538   1.140   5.128
 8789SOL     OW27265   6.608   4.037   5.430
 8789SOL    HW127266   6.555   3.955   5.407
 8789SOL    HW227267   6.554   4.118   5.406
 8790SOL     OW27268   6.553   1.578   6.863
 8790SOL    HW127269   6.568   1.607   6.958
 8790SOL    HW227270   6.641   1.557   6.821
 8791SOL     OW27271   5.016   6.480   4.660
 8791SOL    HW127272   4.984   6.433   4.743
 8791SOL    HW227273   5.020   6.578   4.677
 8792SOL     OW27274   2.942   4.813   2.834
 8792SOL    HW127275   2.948   4.895   2.777
 8792SOL    HW227276   3.019   4.752   2.812
 8793SOL     OW27277   0.877   4.806   3.591
 8793SOL    HW127278   0.853   4.896   3.553
 8793SOL    HW227279   0.972   4.785   3.569
 8794SOL     OW27280   6.710   0.820   3.644
 8794SOL    HW127281   6.642   0.791   3.576
 8794SOL    HW227282   6.693   0.914   3.670
 8795SOL     OW27283   1.066   5.069   5.144
 8795SOL    HW127284   1.050   5.144   5.209
 8795SOL    HW227285   0.979   5.022   5.127
 8796SOL     OW27286   6.007   3.552   3.473
 8796SOL    HW127287   5.909   3.562   3.455
 8796SOL    HW227288   6.030   3.455   3.481
 8797SOL     OW27289   6.839   0.026   4.228
 8797SOL    HW127290   6.842   0.036   4.327
 8797SOL    HW227291   6.856   0.115   4.185
 8798SOL     OW27292   4.609   6.685   5.533
 8798SOL    HW127293   4.586   6.630   5.454
 8798SOL    HW227294   4.667   6.632   5.596
 8799SOL     OW27295   2.658   4.627   2.281
 8799SOL    HW127296   2.566   4.665   2.280
 8799SOL    HW227297   2.692   4.616   2.188
 8800SOL     OW27298   5.952   5.557   5.761
 8800SOL    HW127299   5.910   5.483   5.815
 8800SOL    HW227300   5.970   5.635   5.821
 8801SOL     OW27301   6.137   1.955   5.115
 8801SOL    HW127302   6.085   1.999   5.042
 8801SOL    HW227303   6.176   2.024   5.175
 8802SOL     OW27304   1.402   5.423   5.463
 8802SOL    HW127305   1.320   5.468   5.498
 8802SOL    HW227306   1.430   5.350   5.525
 8803SOL     OW27307   0.112   0.857   0.022
 8803SOL    HW127308   0.182   0.920   7.008
 8803SOL    HW227309   0.074   0.892   0.108
 8804SOL     OW27310   1.327   6.221   1.024
 8804SOL    HW127311   1.287   6.306   1.058
 8804SOL    HW227312   1.426   6.232   1.018
 8805SOL     OW27313   3.951   5.228   3.735
 8805SOL    HW127314   4.017   5.248   3.807
 8805SOL    HW227315   3.982   5.268   3.649
 8806SOL     OW27316   2.087   5.321   0.552
 8806SOL    HW127317   2.184   5.298   0.553
 8806SOL    HW227318   2.073   5.405   0.501
 8807SOL     OW27319   4.398   2.301   6.695
 8807SOL    HW127320   4.378   2.346   6.782
 8807SOL    HW227321   4.330   2.229   6.678
 8808SOL     OW27322   0.481   2.412   6.946
 8808SOL    HW127323   0.549   2.424   7.018
 8808SOL    HW227324   0.506   2.470   6.868
 8809SOL     OW27325   2.356   4.236   3.445
 8809SOL    HW127326   2.363   4.281   3.534
 8809SOL    HW227327   2.338   4.139   3.458
 8810SOL     OW27328   5.751   1.374   5.171
 8810SOL    HW127329   5.800   1.330   5.095
 8810SOL    HW227330   5.808   1.371   5.253
 8811SOL     OW27331   3.886   0.362   2.612
 8811SOL    HW127332   3.860   0.442   2.666
 8811SOL    HW227333   3.982   0.370   2.584
 8812SOL     OW27334   3.103   0.514   6.859
 8812SOL    HW127335   3.183   0.473   6.817
 8812SOL    HW227336   3.047   0.560   6.789
 8813SOL     OW27337   1.927   4.388   2.457
 8813SOL    HW127338   1.932   4.393   2.357
 8813SOL    HW227339   1.900   4.478   2.493
 8814SOL     OW27340   5.253   6.748   0.386
 8814SOL    HW127341   5.309   6.822   0.349
 8814SOL    HW227342   5.300   6.706   0.463
 8815SOL     OW27343   5.589   0.196   1.420
 8815SOL    HW127344   5.496   0.160   1.414
 8815SOL    HW227345   5.648   0.129   1.466
 8816SOL     OW27346   0.451   6.588   6.905
 8816SOL    HW127347   0.529   6.611   6.848
 8816SOL    HW227348   0.387   6.531   6.854
 8817SOL     OW27349   0.387   3.741   4.074
 8817SOL    HW127350   0.399   3.668   4.140
 8817SOL    HW227351   0.341   3.819   4.118
 8818SOL     OW27352   1.010   6.566   3.044
 8818SOL    HW127353   0.932   6.519   3.087
 8818SOL    HW227354   0.990   6.663   3.036
 8819SOL     OW27355   5.745   4.526   5.462
 8819SOL    HW127356   5.706   4.463   5.395
 8819SOL    HW227357   5.845   4.515   5.463
 8820SOL     OW27358   2.851   1.579   4.646
 8820SOL    HW127359   2.886   1.524   4.722
 8820SOL    HW227360   2.924   1.592   4.579
 8821SOL     OW27361   1.203   5.687   6.905
 8821SOL    HW127362   1.139   5.633   6.851
 8821SOL    HW227363   1.281   5.630   6.931
 8822SOL     OW27364   0.331   0.201   3.288
 8822SOL    HW127365   0.359   0.297   3.301
 8822SOL    HW227366   0.232   0.196   3.279
 8823SOL     OW27367   2.429   0.873   1.896
 8823SOL    HW127368   2.439   0.862   1.797
 8823SOL    HW227369   2.396   0.788   1.936
 8824SOL     OW27370   1.140   0.708   1.124
 8824SOL    HW127371   1.216   0.771   1.110
 8824SOL    HW227372   1.132   0.686   1.221
 8825SOL     OW27373   0.706   0.398   1.592
 8825SOL    HW127374   0.636   0.378   1.661
 8825SOL    HW227375   0.780   0.331   1.600
 8826SOL     OW27376   0.831   3.365   1.456
 8826SOL    HW127377   0.738   3.401   1.467
 8826SOL    HW227378   0.875   3.359   1.546
 8827SOL     OW27379   3.831   0.078   2.629
 8827SOL    HW127380   3.854   0.175   2.613
 8827SOL    HW227381   3.782   0.043   2.549
 8828SOL     OW27382   3.863   4.601   6.357
 8828SOL    HW127383   3.933   4.653   6.405
 8828SOL    HW227384   3.772   4.637   6.380
 8829SOL     OW27385   6.277   1.387   1.667
 8829SOL    HW127386   6.370   1.350   1.660
 8829SOL    HW227387   6.235   1.390   1.576
 8830SOL     OW27388   1.773   1.463   2.537
 8830SOL    HW127389   1.795   1.558   2.560
 8830SOL    HW227390   1.795   1.446   2.441
 8831SOL     OW27391   6.270   3.232   2.373
 8831SOL    HW127392   6.301   3.138   2.382
 8831SOL    HW227393   6.333   3.283   2.314
 8832SOL     OW27394   0.412   6.344   4.315
 8832SOL    HW127395   0.422   6.419   4.248
 8832SOL    HW227396   0.331   6.360   4.371
 8833SOL     OW27397   3.765   4.026   0.184
 8833SOL    HW127398   3.798   4.054   0.275
 8833SOL    HW227399   3.839   3.980   0.135
 8834SOL     OW27400   6.106   3.310   4.757
 8834SOL    HW127401   6.044   3.365   4.812
 8834SOL    HW227402   6.149   3.241   4.816
 8835SOL     OW27403   5.858   1.500   6.558
 8835SOL    HW127404   5.876   1.402   6.545
 8835SOL    HW227405   5.937   1.542   6.602
 8836SOL     OW27406   5.389   2.238   0.329
 8836SOL    HW127407   5.426   2.272   0.415
 8836SOL    HW227408   5.445   2.270   0.253
 8837SOL     OW27409   6.851   0.333   2.051
 8837SOL    HW127410   6.837   0.235   2.038
 8837SOL    HW227411   6.769   0.383   2.024
 8838SOL     OW27412   0.600   4.775   2.580
 8838SOL    HW127413   0.561   4.867   2.588
 8838SOL    HW227414   0.552   4.714   2.643
 8839SOL     OW27415   4.258   5.763   2.410
 8839SOL    HW127416   4.275   5.681   2.466
 8839SOL    HW227417   4.330   5.771   2.341
 8840SOL     OW27418   5.872   0.117   1.803
 8840SOL    HW127419   5.848   0.105   1.707
 8840SOL    HW227420   5.788   0.127   1.857
 8841SOL     OW27421   5.010   1.392   2.604
 8841SOL    HW127422   5.018   1.333   2.524
 8841SOL    HW227423   4.944   1.464   2.586
 8842SOL     OW27424   3.296   4.131   3.829
 8842SOL    HW127425   3.274   4.044   3.785
 8842SOL    HW227426   3.233   4.146   3.906
 8843SOL     OW27427   1.887   3.197   4.471
 8843SOL    HW127428   1.958   3.188   4.400
 8843SOL    HW227429   1.864   3.107   4.507
 8844SOL     OW27430   6.832   1.880   5.082
 8844SOL    HW127431   6.904   1.857   5.147
 8844SOL    HW227432   6.796   1.797   5.041
 8845SOL     OW27433   2.466   4.664   0.166
 8845SOL    HW127434   2.550   4.696   0.123
 8845SOL    HW227435   2.389   4.721   0.136
 8846SOL     OW27436   5.772   4.732   4.358
 8846SOL    HW127437   5.704   4.804   4.345
 8846SOL    HW227438   5.768   4.669   4.281
 8847SOL     OW27439   1.720   0.874   2.421
 8847SOL    HW127440   1.734   0.794   2.479
 8847SOL    HW227441   1.659   0.851   2.345
 8848SOL     OW27442   3.207   2.091   2.138
 8848SOL    HW127443   3.151   2.011   2.157
 8848SOL    HW227444   3.150   2.173   2.136
 8849SOL     OW27445   3.334   4.903   3.523
 8849SOL    HW127446   3.377   4.940   3.606
 8849SOL    HW227447   3.389   4.927   3.443
 8850SOL     OW27448   2.826   1.121   0.928
 8850SOL    HW127449   2.839   1.024   0.950
 8850SOL    HW227450   2.866   1.177   1.001
 8851SOL     OW27451   1.200   4.572   2.197
 8851SOL    HW127452   1.173   4.656   2.243
 8851SOL    HW227453   1.130   4.547   2.130
 8852SOL     OW27454   5.105   3.081   6.239
 8852SOL    HW127455   5.203   3.097   6.232
 8852SOL    HW227456   5.057   3.152   6.186
 8853SOL     OW27457   3.687   6.914   4.097
 8853SOL    HW127458   3.728   6.965   4.022
 8853SOL    HW227459   3.699   6.963   4.182
 8854SOL     OW27460   2.464   0.610   6.392
 8854SOL    HW127461   2.526   0.601   6.470
 8854SOL    HW227462   2.378   0.650   6.422
 8855SOL     OW27463   6.690   6.312   0.204
 8855SOL    HW127464   6.789   6.301   0.206
 8855SOL    HW227465   6.666   6.388   0.144
 8856SOL     OW27466   6.468   6.758   5.624
 8856SOL    HW127467   6.381   6.719   5.593
 8856SOL    HW227468   6.510   6.808   5.548
 8857SOL     OW27469   6.248   1.674   3.789
 8857SOL    HW127470   6.182   1.647   3.719
 8857SOL    HW227471   6.279   1.593   3.838
 8858SOL     OW27472   2.217   3.213   5.664
 8858SOL    HW127473   2.145   3.256   5.609
 8858SOL    HW227474   2.293   3.277   5.674
 8859SOL     OW27475   0.492   6.972   5.481
 8859SOL    HW127476   0.400   7.008   5.493
 8859SOL    HW227477   0.548   6.996   5.560
 8860SOL     OW27478   1.537   3.698   2.956
 8860SOL    HW127479   1.520   3.676   3.052
 8860SOL    HW227480   1.454   3.735   2.915
 8861SOL     OW27481   2.930   2.282   6.546
 8861SOL    HW127482   2.878   2.203   6.578
 8861SOL    HW227483   2.883   2.325   6.469
 8862SOL     OW27484   6.401   1.296   3.729
 8862SOL    HW127485   6.343   1.292   3.648
 8862SOL    HW227486   6.387   1.213   3.783
 8863SOL     OW27487   1.478   5.280   4.730
 8863SOL    HW127488   1.497   5.378   4.729
 8863SOL    HW227489   1.555   5.232   4.772
 8864SOL     OW27490   2.311   3.462   6.504
 8864SOL    HW127491   2.361   3.405   6.569
 8864SOL    HW227492   2.288   3.409   6.423
 8865SOL     OW27493   2.962   1.841   5.106
 8865SOL    HW127494   2.894   1.805   5.042
 8865SOL    HW227495   2.974   1.939   5.090
 8866SOL     OW27496   5.094   0.016   4.192
 8866SOL    HW127497   5.108   6.967   4.120
 8866SOL    HW227498   4.997   0.039   4.199
 8867SOL     OW27499   4.975   2.707   2.980
 8867SOL    HW127500   4.953   2.629   2.921
 8867SOL    HW227501   4.910   2.781   2.961
 8868SOL     OW27502   5.725   4.030   0.796
 8868SOL    HW127503   5.760   3.939   0.773
 8868SOL    HW227504   5.791   4.099   0.768
 8869SOL     OW27505   4.212   5.423   3.678
 8869SOL    HW127506   4.212   5.345   3.742
 8869SOL    HW227507   4.196   5.507   3.729
 8870SOL     OW27508   3.305   0.134   0.445
 8870SOL    HW127509   3.228   0.098   0.496
 8870SOL    HW227510   3.364   0.187   0.507
 8871SOL     OW27511   3.785   1.408   3.858
 8871SOL    HW127512   3.775   1.417   3.957
 8871SOL    HW227513   3.730   1.478   3.812
 8872SOL     OW27514   1.588   4.120   4.269
 8872SOL    HW127515   1.542   4.161   4.190
 8872SOL    HW227516   1.532   4.137   4.351
 8873SOL     OW27517   6.352   6.172   1.843
 8873SOL    HW127518   6.279   6.104   1.839
 8873SOL    HW227519   6.440   6.127   1.828
 8874SOL     OW27520   1.874   0.072   1.190
 8874SOL    HW127521   1.790   0.079   1.244
 8874SOL    HW227522   1.850   0.046   1.096
 8875SOL     OW27523   1.259   2.542   4.590
 8875SOL    HW127524   1.208   2.625   4.609
 8875SOL    HW227525   1.233   2.471   4.656
 8876SOL     OW27526   0.797   0.043   4.587
 8876SOL    HW127527   0.786   0.118   4.653
 8876SOL    HW227528   0.871   0.065   4.524
 8877SOL     OW27529   3.143   0.404   4.731
 8877SOL    HW127530   3.188   0.358   4.807
 8877SOL    HW227531   3.172   0.500   4.728
 8878SOL     OW27532   0.951   5.326   0.564
 8878SOL    HW127533   0.947   5.417   0.522
 8878SOL    HW227534   0.899   5.326   0.649
 8879SOL     OW27535   6.230   5.239   1.268
 8879SOL    HW127536   6.251   5.182   1.189
 8879SOL    HW227537   6.155   5.198   1.320
 8880SOL     OW27538   0.109   5.567   4.421
 8880SOL    HW127539   0.097   5.634   4.495
 8880SOL    HW227540   0.146   5.482   4.459
 8881SOL     OW27541   5.859   6.999   3.817
 8881SOL    HW127542   5.779   7.003   3.757
 8881SOL    HW227543   5.942   6.993   3.762
 8882SOL     OW27544   5.130   1.628   0.564
 8882SOL    HW127545   5.180   1.647   0.649
 8882SOL    HW227546   5.126   1.529   0.550
 8883SOL     OW27547   0.576   1.372   5.698
 8883SOL    HW127548   0.578   1.453   5.639
 8883SOL    HW227549   0.622   1.392   5.784
 8884SOL     OW27550   6.024   6.383   6.561
 8884SOL    HW127551   5.973   6.403   6.645
 8884SOL    HW227552   6.025   6.284   6.546
 8885SOL     OW27553   6.703   4.097   1.394
 8885SOL    HW127554   6.714   4.174   1.456
 8885SOL    HW227555   6.703   4.130   1.300
 8886SOL     OW27556   3.279   5.984   5.846
 8886SOL    HW127557   3.323   5.926   5.777
 8886SOL    HW227558   3.199   5.937   5.882
 8887SOL     OW27559   3.132   1.530   1.314
 8887SOL    HW127560   3.160   1.434   1.309
 8887SOL    HW227561   3.172   1.572   1.395
 8888SOL     OW27562   0.610   1.825   1.588
 8888SOL    HW127563   0.534   1.830   1.523
 8888SOL    HW227564   0.613   1.734   1.629
 8889SOL     OW27565   5.311   6.553   5.872
 8889SOL    HW127566   5.288   6.495   5.794
 8889SOL    HW227567   5.253   6.529   5.950
 8890SOL     OW27568   6.569   6.186   4.578
 8890SOL    HW127569   6.550   6.271   4.527
 8890SOL    HW227570   6.618   6.122   4.519
 8891SOL     OW27571   6.008   3.417   6.307
 8891SOL    HW127572   5.954   3.444   6.387
 8891SOL    HW227573   6.105   3.412   6.333
 8892SOL     OW27574   3.195   6.137   3.556
 8892SOL    HW127575   3.218   6.080   3.635
 8892SOL    HW227576   3.096   6.142   3.546
 8893SOL     OW27577   1.040   0.621   1.828
 8893SOL    HW127578   0.985   0.599   1.747
 8893SOL    HW227579   0.986   0.604   1.911
 8894SOL     OW27580   3.899   3.403   5.492
 8894SOL    HW127581   3.836   3.437   5.562
 8894SOL    HW227582   3.992   3.432   5.514
 8895SOL     OW27583   6.682   1.346   1.989
 8895SOL    HW127584   6.600   1.370   2.041
 8895SOL    HW227585   6.670   1.257   1.946
 8896SOL     OW27586   1.789   3.441   4.562
 8896SOL    HW127587   1.818   3.348   4.538
 8896SOL    HW227588   1.730   3.439   4.642
 8897SOL     OW27589   1.523   1.751   2.700
 8897SOL    HW127590   1.561   1.843   2.694
 8897SOL    HW227591   1.469   1.731   2.618
 8898SOL     OW27592   6.041   3.196   4.513
 8898SOL    HW127593   6.034   3.237   4.604
 8898SOL    HW227594   6.020   3.098   4.520
 8899SOL     OW27595   1.454   4.471   0.247
 8899SOL    HW127596   1.540   4.487   0.296
 8899SOL    HW227597   1.473   4.462   0.149
 8900SOL     OW27598   5.665   3.985   2.884
 8900SOL    HW127599   5.697   3.993   2.979
 8900SOL    HW227600   5.626   3.894   2.870
 8901SOL     OW27601   2.686   1.010   4.344
 8901SOL    HW127602   2.597   1.034   4.305
 8901SOL    HW227603   2.693   1.048   4.437
 8902SOL     OW27604   3.085   6.146   6.862
 8902SOL    HW127605   3.058   6.063   6.911
 8902SOL    HW227606   3.106   6.123   6.767
 8903SOL     OW27607   1.916   0.847   4.047
 8903SOL    HW127608   1.849   0.836   4.120
 8903SOL    HW227609   1.869   0.863   3.960
 8904SOL     OW27610   6.963   5.047   3.935
 8904SOL    HW127611   6.914   5.044   3.848
 8904SOL    HW227612   0.040   5.025   3.920
 8905SOL     OW27613   2.187   4.059   4.502
 8905SOL    HW127614   2.187   4.062   4.602
 8905SOL    HW227615   2.144   3.974   4.471
 8906SOL     OW27616   6.700   6.917   6.942
 8906SOL    HW127617   6.766   6.979   6.900
 8906SOL    HW227618   6.692   6.937   0.020
 8907SOL     OW27619   3.654   1.889   4.717
 8907SOL    HW127620   3.648   1.831   4.636
 8907SOL    HW227621   3.564   1.929   4.735
 8908SOL     OW27622   1.528   2.699   6.930
 8908SOL    HW127623   1.486   2.659   7.011
 8908SOL    HW227624   1.626   2.681   6.930
 8909SOL     OW27625   2.221   0.505   5.041
 8909SOL    HW127626   2.147   0.511   4.973
 8909SOL    HW227627   2.296   0.451   5.003
 8910SOL     OW27628   2.218   3.334   6.247
 8910SOL    HW127629   2.233   3.411   6.184
 8910SOL    HW227630   2.133   3.288   6.223
 8911SOL     OW27631   3.956   2.175   4.855
 8911SOL    HW127632   3.865   2.140   4.878
 8911SOL    HW227633   4.005   2.200   4.938
 8912SOL     OW27634   4.058   1.453   6.609
 8912SOL    HW127635   4.001   1.527   6.643
 8912SOL    HW227636   4.001   1.373   6.589
 8913SOL     OW27637   4.529   5.194   0.780
 8913SOL    HW127638   4.441   5.158   0.751
 8913SOL    HW227639   4.567   5.135   0.851
 8914SOL     OW27640   4.457   0.652   5.665
 8914SOL    HW127641   4.551   0.646   5.633
 8914SOL    HW227642   4.440   0.743   5.703
 8915SOL     OW27643   0.931   2.671   3.827
 8915SOL    HW127644   0.924   2.708   3.920
 8915SOL    HW227645   0.952   2.745   3.763
 8916SOL     OW27646   0.322   3.780   2.274
 8916SOL    HW127647   0.380   3.699   2.276
 8916SOL    HW227648   0.230   3.755   2.242
 8917SOL     OW27649   5.691   4.758   6.291
 8917SOL    HW127650   5.642   4.750   6.204
 8917SOL    HW227651   5.648   4.700   6.359
 8918SOL     OW27652   6.829   6.068   0.950
 8918SOL    HW127653   6.739   6.034   0.925
 8918SOL    HW227654   6.863   6.128   0.877
 8919SOL     OW27655   4.274   3.302   0.618
 8919SOL    HW127656   4.227   3.224   0.577
 8919SOL    HW227657   4.277   3.378   0.553
 8920SOL     OW27658   6.727   6.668   6.463
 8920SOL    HW127659   6.633   6.650   6.493
 8920SOL    HW227660   6.774   6.724   6.531
 8921SOL     OW27661   2.280   1.724   3.128
 8921SOL    HW127662   2.218   1.800   3.111
 8921SOL    HW227663   2.360   1.732   3.068
 8922SOL     OW27664   2.345   4.756   1.313
 8922SOL    HW127665   2.369   4.812   1.392
 8922SOL    HW227666   2.307   4.669   1.344
 8923SOL     OW27667   1.600   3.441   6.133
 8923SOL    HW127668   1.619   3.535   6.163
 8923SOL    HW227669   1.586   3.440   6.034
 8924SOL     OW27670   2.946   5.545   6.062
 8924SOL    HW127671   2.919   5.609   5.989
 8924SOL    HW227672   2.865   5.496   6.095
 8925SOL     OW27673   0.862   0.570   2.035
 8925SOL    HW127674   0.945   0.592   2.086
 8925SOL    HW227675   0.820   0.487   2.073
 8926SOL     OW27676   5.954   3.493   0.317
 8926SOL    HW127677   6.022   3.477   0.244
 8926SOL    HW227678   5.886   3.420   0.316
 8927SOL     OW27679   1.649   2.078   4.916
 8927SOL    HW127680   1.594   2.101   4.996
 8927SOL    HW227681   1.644   2.152   4.849
 8928SOL     OW27682   6.852   0.844   5.176
 8928SOL    HW127683   6.801   0.869   5.259
 8928SOL    HW227684   6.812   0.892   5.098
 8929SOL     OW27685   0.590   3.758   3.713
 8929SOL    HW127686   0.623   3.677   3.663
 8929SOL    HW227687   0.501   3.738   3.753
 8930SOL     OW27688   1.794   4.890   4.759
 8930SOL    HW127689   1.797   4.791   4.746
 8930SOL    HW227690   1.885   4.923   4.783
 8931SOL     OW27691   3.707   2.745   0.419
 8931SOL    HW127692   3.667   2.743   0.327
 8931SOL    HW227693   3.681   2.831   0.464
 8932SOL     OW27694   5.463   0.247   6.712
 8932SOL    HW127695   5.515   0.241   6.797
 8932SOL    HW227696   5.514   0.301   6.646
 8933SOL     OW27697   0.985   2.165   5.322
 8933SOL    HW127698   0.921   2.100   5.281
 8933SOL    HW227699   1.070   2.118   5.345
 8934SOL     OW27700   2.478   5.480   4.197
 8934SOL    HW127701   2.487   5.544   4.273
 8934SOL    HW227702   2.527   5.516   4.117
 8935SOL     OW27703   5.186   3.878   1.886
 8935SOL    HW127704   5.182   3.974   1.915
 8935SOL    HW227705   5.116   3.862   1.815
 8936SOL     OW27706   0.576   3.732   0.797
 8936SOL    HW127707   0.479   3.725   0.774
 8936SOL    HW227708   0.622   3.647   0.773
 8937SOL     OW27709   0.251   0.987   4.175
 8937SOL    HW127710   0.241   0.909   4.237
 8937SOL    HW227711   0.247   0.955   4.080
 8938SOL     OW27712   6.850   1.348   0.395
 8938SOL    HW127713   6.945   1.366   0.419
 8938SOL    HW227714   6.809   1.286   0.463
 8939SOL     OW27715   6.478   2.873   4.874
 8939SOL    HW127716   6.532   2.923   4.807
 8939SOL    HW227717   6.381   2.889   4.858
 8940SOL     OW27718   5.580   2.019   0.343
 8940SOL    HW127719   5.568   1.957   0.420
 8940SOL    HW227720   5.496   2.072   0.331
 8941SOL     OW27721   4.960   2.249   1.882
 8941SOL    HW127722   4.884   2.313   1.868
 8941SOL    HW227723   4.948   2.170   1.822
 8942SOL     OW27724   0.721   5.115   4.198
 8942SOL    HW127725   0.801   5.076   4.151
 8942SOL    HW227726   0.717   5.213   4.180
 8943SOL     OW27727   4.460   4.720   0.158
 8943SOL    HW127728   4.433   4.761   0.071
 8943SOL    HW227729   4.557   4.697   0.156
 8944SOL     OW27730   4.994   5.037   4.650
 8944SOL    HW127731   4.930   4.988   4.709
 8944SOL    HW227732   5.074   5.063   4.703
 8945SOL     OW27733   0.113   2.597   4.992
 8945SOL    HW127734   0.075   2.553   4.910
 8945SOL    HW227735   0.199   2.642   4.968
 8946SOL     OW27736   3.453   0.341   4.321
 8946SOL    HW127737   3.518   0.400   4.370
 8946SOL    HW227738   3.486   0.326   4.228
 8947SOL     OW27739   1.692   3.697   6.160
 8947SOL    HW127740   1.733   3.686   6.069
 8947SOL    HW227741   1.763   3.693   6.230
 8948SOL     OW27742   6.584   5.830   3.488
 8948SOL    HW127743   6.594   5.797   3.395
 8948SOL    HW227744   6.542   5.921   3.488
 8949SOL     OW27745   3.661   5.667   6.991
 8949SOL    HW127746   3.585   5.603   6.987
 8949SOL    HW227747   3.660   5.726   6.910
 8950SOL     OW27748   4.609   3.558   1.392
 8950SOL    HW127749   4.516   3.594   1.385
 8950SOL    HW227750   4.605   3.462   1.421
 8951SOL     OW27751   2.156   1.488   4.159
 8951SOL    HW127752   2.192   1.395   4.147
 8951SOL    HW227753   2.057   1.484   4.170
 8952SOL     OW27754   2.404   5.347   3.135
 8952SOL    HW127755   2.418   5.291   3.053
 8952SOL    HW227756   2.386   5.286   3.213
 8953SOL     OW27757   2.129   5.103   1.365
 8953SOL    HW127758   2.206   5.075   1.307
 8953SOL    HW227759   2.152   5.086   1.461
 8954SOL     OW27760   0.599   6.155   4.007
 8954SOL    HW127761   0.530   6.213   3.963
 8954SOL    HW227762   0.681   6.209   4.025
 8955SOL     OW27763   7.006   3.066   2.388
 8955SOL    HW127764   0.017   2.997   2.323
 8955SOL    HW227765   6.933   3.029   2.446
 8956SOL     OW27766   0.508   0.379   6.420
 8956SOL    HW127767   0.542   0.297   6.466
 8956SOL    HW227768   0.408   0.376   6.417
 8957SOL     OW27769   1.664   4.868   1.737
 8957SOL    HW127770   1.679   4.815   1.653
 8957SOL    HW227771   1.669   4.966   1.715
 8958SOL     OW27772   1.295   2.658   4.988
 8958SOL    HW127773   1.374   2.670   4.927
 8958SOL    HW227774   1.279   2.560   5.002
 8959SOL     OW27775   1.098   3.556   2.391
 8959SOL    HW127776   1.113   3.457   2.386
 8959SOL    HW227777   1.070   3.581   2.483
 8960SOL     OW27778   6.849   4.890   4.140
 8960SOL    HW127779   6.933   4.845   4.171
 8960SOL    HW227780   6.869   4.943   4.058
 8961SOL     OW27781   3.907   0.968   4.054
 8961SOL    HW127782   3.993   1.016   4.072
 8961SOL    HW227783   3.927   0.877   4.017
 8962SOL     OW27784   6.920   6.147   1.600
 8962SOL    HW127785   6.927   6.247   1.595
 8962SOL    HW227786   7.009   6.106   1.583
 8963SOL     OW27787   3.583   6.095   4.762
 8963SOL    HW127788   3.676   6.063   4.741
 8963SOL    HW227789   3.580   6.132   4.855
 8964SOL     OW27790   4.809   4.082   3.232
 8964SOL    HW127791   4.895   4.089   3.282
 8964SOL    HW227792   4.827   4.052   3.138
 8965SOL     OW27793   3.686   4.871   0.576
 8965SOL    HW127794   3.659   4.802   0.508
 8965SOL    HW227795   3.773   4.912   0.550
 8966SOL     OW27796   6.429   4.867   6.446
 8966SOL    HW127797   6.488   4.811   6.503
 8966SOL    HW227798   6.478   4.892   6.362
 8967SOL     OW27799   4.225   0.697   3.072
 8967SOL    HW127800   4.166   0.635   3.122
 8967SOL    HW227801   4.309   0.650   3.045
 8968SOL     OW27802   2.864   4.759   1.427
 8968SOL    HW127803   2.778   4.759   1.478
 8968SOL    HW227804   2.930   4.818   1.474
 8969SOL     OW27805   0.445   0.455   3.249
 8969SOL    HW127806   0.371   0.520   3.234
 8969SOL    HW227807   0.482   0.467   3.342
 8970SOL     OW27808   1.245   2.593   6.786
 8970SOL    HW127809   1.334   2.607   6.743
 8970SOL    HW227810   1.255   2.532   6.865
 8971SOL     OW27811   4.640   6.662   1.536
 8971SOL    HW127812   4.557   6.641   1.588
 8971SOL    HW227813   4.687   6.739   1.580
 8972SOL     OW27814   5.308   4.651   0.571
 8972SOL    HW127815   5.360   4.590   0.510
 8972SOL    HW227816   5.365   4.675   0.650
 8973SOL     OW27817   0.277   2.756   2.709
 8973SOL    HW127818   0.286   2.668   2.757
 8973SOL    HW227819   0.344   2.820   2.746
 8974SOL     OW27820   2.105   3.874   3.782
 8974SOL    HW127821   2.153   3.896   3.867
 8974SOL    HW227822   2.155   3.912   3.705
 8975SOL     OW27823   0.305   6.829   0.091
 8975SOL    HW127824   0.303   6.737   0.131
 8975SOL    HW227825   0.328   6.823   7.013
 8976SOL     OW27826   6.454   6.170   0.650
 8976SOL    HW127827   6.520   6.096   0.636
 8976SOL    HW227828   6.495   6.257   0.623
 8977SOL     OW27829   6.874   4.876   6.366
 8977SOL    HW127830   6.825   4.802   6.411
 8977SOL    HW227831   6.933   4.839   6.294
 8978SOL     OW27832   5.351   6.228   4.983
 8978SOL    HW127833   5.270   6.286   4.993
 8978SOL    HW227834   5.334   6.160   4.911
 8979SOL     OW27835   1.012   5.230   6.531
 8979SOL    HW127836   0.999   5.181   6.445
 8979SOL    HW227837   0.955   5.312   6.532
 8980SOL     OW27838   5.035   1.922   5.661
 8980SOL    HW127839   5.091   1.950   5.739
 8980SOL    HW227840   5.094   1.889   5.588
 8981SOL     OW27841   4.965   2.378   5.572
 8981SOL    HW127842   5.055   2.339   5.550
 8981SOL    HW227843   4.924   2.415   5.490
 8982SOL     OW27844   6.692   1.836   1.717
 8982SOL    HW127845   6.676   1.891   1.635
 8982SOL    HW227846   6.620   1.767   1.726
 8983SOL     OW27847   1.296   5.164   1.318
 8983SOL    HW127848   1.328   5.225   1.390
 8983SOL    HW227849   1.375   5.131   1.265
 8984SOL     OW27850   6.267   0.147   4.526
 8984SOL    HW127851   6.280   0.240   4.493
 8984SOL    HW227852   6.196   0.146   4.596
 8985SOL     OW27853   4.212   2.283   1.189
 8985SOL    HW127854   4.173   2.233   1.266
 8985SOL    HW227855   4.187   2.237   1.104
 8986SOL     OW27856   5.505   4.156   2.383
 8986SOL    HW127857   5.452   4.106   2.315
 8986SOL    HW227858   5.448   4.225   2.426
 8987SOL     OW27859   3.135   0.553   1.099
 8987SOL    HW127860   3.107   0.472   1.048
 8987SOL    HW227861   3.056   0.589   1.150
 8988SOL     OW27862   1.948   5.253   0.213
 8988SOL    HW127863   2.041   5.290   0.201
 8988SOL    HW227864   1.938   5.169   0.160
 8989SOL     OW27865   5.013   3.112   3.050
 8989SOL    HW127866   5.084   3.042   3.044
 8989SOL    HW227867   4.941   3.081   3.111
 8990SOL     OW27868   2.288   6.285   1.203
 8990SOL    HW127869   2.337   6.357   1.154
 8990SOL    HW227870   2.245   6.223   1.137
 8991SOL     OW27871   2.477   2.464   1.696
 8991SOL    HW127872   2.568   2.425   1.681
 8991SOL    HW227873   2.416   2.434   1.623
 8992SOL     OW27874   0.317   3.380   0.691
 8992SOL    HW127875   0.347   3.360   0.785
 8992SOL    HW227876   0.229   3.428   0.694
 8993SOL     OW27877   5.015   2.426   3.417
 8993SOL    HW127878   4.926   2.443   3.458
 8993SOL    HW227879   5.027   2.484   3.337
 8994SOL     OW27880   1.933   5.026   4.375
 8994SOL    HW127881   1.968   5.113   4.411
 8994SOL    HW227882   1.982   5.003   4.290
 8995SOL     OW27883   1.366   2.250   5.373
 8995SOL    HW127884   1.458   2.247   5.412
 8995SOL    HW227885   1.308   2.309   5.430
 8996SOL     OW27886   0.838   3.708   1.754
 8996SOL    HW127887   0.765   3.746   1.811
 8996SOL    HW227888   0.909   3.668   1.812
 8997SOL     OW27889   5.445   0.983   6.365
 8997SOL    HW127890   5.403   1.048   6.302
 8997SOL    HW227891   5.504   0.921   6.313
 8998SOL     OW27892   0.181   1.888   5.257
 8998SOL    HW127893   0.188   1.931   5.347
 8998SOL    HW227894   0.182   1.959   5.187
 8999SOL     OW27895   5.034   0.928   6.033
 8999SOL    HW127896   4.978   1.006   6.007
 8999SOL    HW227897   5.016   0.904   6.128
 9000SOL     OW27898   2.426   4.343   6.498
 9000SOL    HW127899   2.353   4.326   6.432
 9000SOL    HW227900   2.410   4.289   6.580
 9001SOL     OW27901   1.101   4.566   2.652
 9001SOL    HW127902   1.143   4.645   2.695
 9001SOL    HW227903   1.002   4.568   2.667
 9002SOL     OW27904   6.967   5.526   5.709
 9002SOL    HW127905   6.933   5.497   5.798
 9002SOL    HW227906   7.018   5.611   5.719
 9003SOL     OW27907   6.172   2.358   0.847
 9003SOL    HW127908   6.158   2.357   0.748
 9003SOL    HW227909   6.234   2.284   0.873
 9004SOL     OW27910   5.251   6.559   1.739
 9004SOL    HW127911   5.294   6.629   1.796
 9004SOL    HW227912   5.312   6.535   1.664
 9005SOL     OW27913   5.185   2.537   3.644
 9005SOL    HW127914   5.210   2.457   3.590
 9005SOL    HW227915   5.107   2.515   3.703
 9006SOL     OW27916   1.044   5.663   1.188
 9006SOL    HW127917   1.092   5.723   1.252
 9006SOL    HW227918   1.070   5.568   1.207
 9007SOL     OW27919   3.292   5.193   3.585
 9007SOL    HW127920   3.368   5.253   3.562
 9007SOL    HW227921   3.207   5.245   3.582
 9008SOL     OW27922   6.056   4.790   2.347
 9008SOL    HW127923   6.105   4.833   2.423
 9008SOL    HW227924   6.119   4.735   2.293
 9009SOL     OW27925   2.551   6.625   1.100
 9009SOL    HW127926   2.603   6.704   1.130
 9009SOL    HW227927   2.610   6.544   1.102
 9010SOL     OW27928   1.175   6.715   5.075
 9010SOL    HW127929   1.105   6.657   5.116
 9010SOL    HW227930   1.133   6.800   5.042
 9011SOL     OW27931   3.647   2.490   1.329
 9011SOL    HW127932   3.717   2.557   1.304
 9011SOL    HW227933   3.654   2.468   1.426
 9012SOL     OW27934   1.737   5.499   0.753
 9012SOL    HW127935   1.737   5.558   0.673
 9012SOL    HW227936   1.829   5.464   0.769
 9013SOL     OW27937   6.382   5.594   4.742
 9013SOL    HW127938   6.458   5.536   4.770
 9013SOL    HW227939   6.367   5.584   4.643
 9014SOL     OW27940   1.444   1.650   0.257
 9014SOL    HW127941   1.478   1.627   0.348
 9014SOL    HW227942   1.463   1.575   0.194
 9015SOL     OW27943   6.918   1.559   6.981
 9015SOL    HW127944   6.863   1.639   6.956
 9015SOL    HW227945   6.865   1.476   6.969
 9016SOL     OW27946   6.419   6.235   5.731
 9016SOL    HW127947   6.339   6.182   5.761
 9016SOL    HW227948   6.407   6.331   5.757
 9017SOL     OW27949   5.994   2.162   3.489
 9017SOL    HW127950   6.057   2.168   3.566
 9017SOL    HW227951   6.022   2.225   3.417
 9018SOL     OW27952   3.588   1.566   5.333
 9018SOL    HW127953   3.529   1.511   5.274
 9018SOL    HW227954   3.661   1.607   5.279
 9019SOL     OW27955   1.991   6.818   0.195
 9019SOL    HW127956   2.060   6.758   0.235
 9019SOL    HW227957   1.987   6.803   0.096
 9020SOL     OW27958   1.932   4.094   2.419
 9020SOL    HW127959   1.931   4.190   2.444
 9020SOL    HW227960   1.865   4.044   2.473
 9021SOL     OW27961   6.730   6.211   3.851
 9021SOL    HW127962   6.788   6.258   3.784
 9021SOL    HW227963   6.701   6.276   3.921
 9022SOL     OW27964   2.648   0.403   0.501
 9022SOL    HW127965   2.623   0.347   0.422
 9022SOL    HW227966   2.650   0.500   0.474
 9023SOL     OW27967   4.117   3.381   3.641
 9023SOL    HW127968   4.201   3.423   3.606
 9023SOL    HW227969   4.052   3.453   3.667
 9024SOL     OW27970   1.536   6.111   6.089
 9024SOL    HW127971   1.443   6.134   6.116
 9024SOL    HW227972   1.535   6.064   6.001
 9025SOL     OW27973   6.388   5.878   1.696
 9025SOL    HW127974   6.295   5.907   1.716
 9025SOL    HW227975   6.387   5.802   1.632
 9026SOL     OW27976   3.474   3.207   3.988
 9026SOL    HW127977   3.511   3.118   4.014
 9026SOL    HW227978   3.493   3.224   3.891
 9027SOL     OW27979   2.437   1.620   3.624
 9027SOL    HW127980   2.365   1.613   3.692
 9027SOL    HW227981   2.408   1.576   3.539
 9028SOL     OW27982   1.921   4.146   6.458
 9028SOL    HW127983   1.914   4.201   6.541
 9028SOL    HW227984   1.917   4.205   6.377
 9029SOL     OW27985   3.872   5.267   4.762
 9029SOL    HW127986   3.925   5.193   4.720
 9029SOL    HW227987   3.813   5.309   4.693
 9030SOL     OW27988   1.535   0.318   2.559
 9030SOL    HW127989   1.622   0.297   2.515
 9030SOL    HW227990   1.526   0.417   2.571
 9031SOL     OW27991   2.912   5.112   5.861
 9031SOL    HW127992   2.957   5.193   5.899
 9031SOL    HW227993   2.945   5.096   5.768
 9032SOL     OW27994   3.645   2.939   0.933
 9032SOL    HW127995   3.648   2.849   0.890
 9032SOL    HW227996   3.720   2.995   0.897
 9033SOL     OW27997   2.073   3.341   4.199
 9033SOL    HW127998   2.040   3.429   4.235
 9033SOL    HW227999   2.137   3.357   4.125
 9034SOL     OW28000   2.459   6.685   5.080
 9034SOL    HW128001   2.521   6.699   5.158
 9034SOL    HW228002   2.509   6.642   5.005
 9035SOL     OW28003   0.680   6.731   5.545
 9035SOL    HW128004   0.660   6.682   5.630
 9035SOL    HW228005   0.604   6.792   5.523
 9036SOL     OW28006   2.546   2.204   5.489
 9036SOL    HW128007   2.477   2.229   5.421
 9036SOL    HW228008   2.617   2.275   5.492
 9037SOL     OW28009   2.083   3.831   6.575
 9037SOL    HW128010   2.091   3.731   6.576
 9037SOL    HW228011   2.068   3.865   6.668
 9038SOL     OW28012   5.748   1.020   6.158
 9038SOL    HW128013   5.719   1.081   6.232
 9038SOL    HW228014   5.848   1.016   6.155
 9039SOL     OW28015   2.054   4.456   5.095
 9039SOL    HW128016   2.117   4.380   5.111
 9039SOL    HW228017   2.099   4.525   5.038
 9040SOL     OW28018   2.803   0.856   3.475
 9040SOL    HW128019   2.828   0.813   3.562
 9040SOL    HW228020   2.884   0.897   3.433
 9041SOL     OW28021   0.694   1.475   2.202
 9041SOL    HW128022   0.685   1.433   2.292
 9041SOL    HW228023   0.613   1.454   2.147
 9042SOL     OW28024   2.616   6.357   3.747
 9042SOL    HW128025   2.659   6.344   3.836
 9042SOL    HW228026   2.658   6.435   3.700
 9043SOL     OW28027   2.095   1.830   5.722
 9043SOL    HW128028   2.156   1.774   5.667
 9043SOL    HW228029   2.145   1.868   5.800
 9044SOL     OW28030   6.166   1.098   0.645
 9044SOL    HW128031   6.138   1.183   0.601
 9044SOL    HW228032   6.110   1.082   0.726
 9045SOL     OW28033   3.815   1.042   2.642
 9045SOL    HW128034   3.717   1.035   2.623
 9045SOL    HW228035   3.828   1.077   2.735
 9046SOL     OW28036   3.516   3.829   5.233
 9046SOL    HW128037   3.597   3.842   5.176
 9046SOL    HW228038   3.434   3.837   5.176
 9047SOL     OW28039   1.885   4.273   5.383
 9047SOL    HW128040   1.870   4.184   5.341
 9047SOL    HW228041   1.920   4.261   5.476
 9048SOL     OW28042   0.992   3.678   5.897
 9048SOL    HW128043   0.903   3.687   5.942
 9048SOL    HW228044   1.016   3.582   5.889
 9049SOL     OW28045   4.846   6.233   6.675
 9049SOL    HW128046   4.780   6.192   6.737
 9049SOL    HW228047   4.822   6.329   6.659
 9050SOL     OW28048   1.308   5.333   6.830
 9050SOL    HW128049   1.338   5.374   6.916
 9050SOL    HW228050   1.308   5.404   6.759
 9051SOL     OW28051   4.463   6.132   1.110
 9051SOL    HW128052   4.506   6.134   1.201
 9051SOL    HW228053   4.490   6.048   1.063
 9052SOL     OW28054   2.837   4.960   4.686
 9052SOL    HW128055   2.802   5.053   4.691
 9052SOL    HW228056   2.799   4.914   4.606
 9053SOL     OW28057   2.626   1.960   3.701
 9053SOL    HW128058   2.579   2.049   3.697
 9053SOL    HW228059   2.595   1.903   3.625
 9054SOL     OW28060   1.846   0.595   2.101
 9054SOL    HW128061   1.892   0.675   2.140
 9054SOL    HW228062   1.884   0.512   2.142
 9055SOL     OW28063   0.712   4.205   3.077
 9055SOL    HW128064   0.626   4.155   3.086
 9055SOL    HW228065   0.692   4.303   3.067
 9056SOL     OW28066   4.977   0.508   1.414
 9056SOL    HW128067   5.046   0.576   1.438
 9056SOL    HW228068   4.946   0.523   1.320
 9057SOL     OW28069   6.491   4.554   5.794
 9057SOL    HW128070   6.417   4.606   5.837
 9057SOL    HW228071   6.497   4.579   5.697
 9058SOL     OW28072   1.991   1.949   4.579
 9058SOL    HW128073   1.906   1.900   4.599
 9058SOL    HW228074   2.054   1.939   4.657
 9059SOL     OW28075   6.859   0.489   2.977
 9059SOL    HW128076   6.889   0.394   2.975
 9059SOL    HW228077   6.819   0.510   3.066
 9060SOL     OW28078   6.637   3.460   2.671
 9060SOL    HW128079   6.556   3.517   2.684
 9060SOL    HW228080   6.718   3.509   2.703
 9061SOL     OW28081   4.430   5.424   3.070
 9061SOL    HW128082   4.502   5.357   3.052
 9061SOL    HW228083   4.471   5.510   3.103
 9062SOL     OW28084   1.263   5.054   1.648
 9062SOL    HW128085   1.176   5.040   1.600
 9062SOL    HW228086   1.291   4.969   1.691
 9063SOL     OW28087   3.409   0.931   1.953
 9063SOL    HW128088   3.409   0.995   1.876
 9063SOL    HW228089   3.319   0.932   1.996
 9064SOL     OW28090   6.151   4.296   4.252
 9064SOL    HW128091   6.236   4.339   4.283
 9064SOL    HW228092   6.088   4.366   4.218
 9065SOL     OW28093   2.973   6.197   5.667
 9065SOL    HW128094   2.940   6.103   5.656
 9065SOL    HW228095   2.897   6.260   5.656
 9066SOL     OW28096   6.528   0.267   6.112
 9066SOL    HW128097   6.565   0.188   6.162
 9066SOL    HW228098   6.588   0.345   6.125
 9067SOL     OW28099   6.676   6.072   4.350
 9067SOL    HW128100   6.752   6.106   4.295
 9067SOL    HW228101   6.655   5.978   4.321
 9068SOL     OW28102   3.600   6.784   5.164
 9068SOL    HW128103   3.523   6.848   5.160
 9068SOL    HW228104   3.667   6.808   5.094
 9069SOL     OW28105   4.606   2.151   2.684
 9069SOL    HW128106   4.523   2.124   2.635
 9069SOL    HW228107   4.617   2.095   2.765
 9070SOL     OW28108   1.651   2.142   6.191
 9070SOL    HW128109   1.595   2.201   6.248
 9070SOL    HW228110   1.653   2.050   6.230
 9071SOL     OW28111   5.355   0.337   6.364
 9071SOL    HW128112   5.282   0.402   6.387
 9071SOL    HW228113   5.434   0.353   6.424
 9072SOL     OW28114   5.273   6.489   1.345
 9072SOL    HW128115   5.202   6.444   1.400
 9072SOL    HW228116   5.266   6.588   1.357
 9073SOL     OW28117   3.794   6.322   1.216
 9073SOL    HW128118   3.736   6.265   1.157
 9073SOL    HW228119   3.887   6.285   1.217
 9074SOL     OW28120   1.571   0.620   1.505
 9074SOL    HW128121   1.480   0.580   1.492
 9074SOL    HW228122   1.576   0.708   1.459
 9075SOL     OW28123   0.517   0.058   2.064
 9075SOL    HW128124   0.479   0.141   2.105
 9075SOL    HW228125   0.464   0.035   1.982
 9076SOL     OW28126   4.794   1.532   3.956
 9076SOL    HW128127   4.698   1.522   3.929
 9076SOL    HW228128   4.799   1.596   4.033
 9077SOL     OW28129   4.662   1.523   6.437
 9077SOL    HW128130   4.589   1.462   6.467
 9077SOL    HW228131   4.631   1.618   6.446
 9078SOL     OW28132   5.512   5.080   6.515
 9078SOL    HW128133   5.574   5.031   6.577
 9078SOL    HW228134   5.528   5.178   6.522
 9079SOL     OW28135   1.690   6.948   4.644
 9079SOL    HW128136   1.705   0.028   4.644
 9079SOL    HW228137   1.775   6.902   4.672
 9080SOL     OW28138   6.391   2.972   0.169
 9080SOL    HW128139   6.491   2.971   0.173
 9080SOL    HW228140   6.354   3.001   0.257
 9081SOL     OW28141   3.397   1.675   1.716
 9081SOL    HW128142   3.367   1.676   1.811
 9081SOL    HW228143   3.471   1.741   1.703
 9082SOL     OW28144   2.269   6.733   4.856
 9082SOL    HW128145   2.177   6.756   4.889
 9082SOL    HW228146   2.321   6.693   4.931
 9083SOL     OW28147   4.260   3.806   6.526
 9083SOL    HW128148   4.325   3.862   6.577
 9083SOL    HW228149   4.207   3.865   6.464
 9084SOL     OW28150   0.934   2.390   6.199
 9084SOL    HW128151   1.009   2.357   6.257
 9084SOL    HW228152   0.970   2.450   6.128
 9085SOL     OW28153   2.351   5.768   1.338
 9085SOL    HW128154   2.420   5.695   1.336
 9085SOL    HW228155   2.369   5.829   1.416
 9086SOL     OW28156   5.883   4.204   1.171
 9086SOL    HW128157   5.965   4.158   1.204
 9086SOL    HW228158   5.803   4.167   1.218
 9087SOL     OW28159   5.412   2.993   2.249
 9087SOL    HW128160   5.475   3.064   2.219
 9087SOL    HW228161   5.399   2.999   2.348
 9088SOL     OW28162   5.869   6.906   1.369
 9088SOL    HW128163   5.888   6.994   1.414
 9088SOL    HW228164   5.814   6.921   1.287
 9089SOL     OW28165   3.941   5.682   5.311
 9089SOL    HW128166   3.848   5.684   5.275
 9089SOL    HW228167   3.993   5.610   5.265
 9090SOL     OW28168   5.293   0.398   4.149
 9090SOL    HW128169   5.369   0.356   4.099
 9090SOL    HW228170   5.218   0.417   4.086
 9091SOL     OW28171   3.098   3.495   0.663
 9091SOL    HW128172   3.109   3.400   0.693
 9091SOL    HW228173   3.027   3.540   0.717
 9092SOL     OW28174   0.895   1.340   6.981
 9092SOL    HW128175   0.878   1.311   6.887
 9092SOL    HW228176   0.812   1.330   0.016
 9093SOL     OW28177   0.949   6.364   6.820
 9093SOL    HW128178   1.036   6.316   6.828
 9093SOL    HW228179   0.937   6.395   6.726
 9094SOL     OW28180   0.688   5.528   2.591
 9094SOL    HW128181   0.651   5.620   2.608
 9094SOL    HW228182   0.689   5.476   2.677
 9095SOL     OW28183   5.069   4.215   6.188
 9095SOL    HW128184   5.040   4.273   6.112
 9095SOL    HW228185   5.094   4.124   6.153
 9096SOL     OW28186   5.592   3.696   2.945
 9096SOL    HW128187   5.649   3.633   2.892
 9096SOL    HW228188   5.500   3.658   2.954
 9097SOL     OW28189   0.514   3.263   6.851
 9097SOL    HW128190   0.532   3.360   6.867
 9097SOL    HW228191   0.494   3.218   6.938
 9098SOL     OW28192   3.711   2.904   6.949
 9098SOL    HW128193   3.738   2.998   6.973
 9098SOL    HW228194   3.741   2.883   6.856
 9099SOL     OW28195   3.519   3.483   0.115
 9099SOL    HW128196   3.427   3.511   0.087
 9099SOL    HW228197   3.515   3.391   0.153
 9100SOL     OW28198   1.066   3.140   2.820
 9100SOL    HW128199   1.127   3.171   2.893
 9100SOL    HW228200   1.113   3.074   2.762
 9101SOL     OW28201   2.139   2.670   3.196
 9101SOL    HW128202   2.116   2.643   3.290
 9101SOL    HW228203   2.158   2.588   3.141
 9102SOL     OW28204   3.334   6.891   1.711
 9102SOL    HW128205   3.349   6.904   1.613
 9102SOL    HW228206   3.400   6.824   1.746
 9103SOL     OW28207   6.740   3.624   6.914
 9103SOL    HW128208   6.722   3.534   6.874
 9103SOL    HW228209   6.688   3.694   6.863
 9104SOL     OW28210   4.329   6.136   2.926
 9104SOL    HW128211   4.294   6.201   2.994
 9104SOL    HW228212   4.371   6.059   2.974
 9105SOL     OW28213   1.737   0.988   0.754
 9105SOL    HW128214   1.645   0.963   0.785
 9105SOL    HW228215   1.754   0.946   0.664
 9106SOL     OW28216   6.123   3.819   6.790
 9106SOL    HW128217   6.183   3.852   6.717
 9106SOL    HW228218   6.163   3.842   6.879
 9107SOL     OW28219   3.593   0.748   5.660
 9107SOL    HW128220   3.662   0.801   5.611
 9107SOL    HW228221   3.547   0.687   5.595
 9108SOL     OW28222   4.849   3.589   5.944
 9108SOL    HW128223   4.901   3.606   6.027
 9108SOL    HW228224   4.827   3.676   5.900
 9109SOL     OW28225   1.494   2.603   2.929
 9109SOL    HW128226   1.450   2.693   2.930
 9109SOL    HW228227   1.475   2.557   2.843
 9110SOL     OW28228   2.017   4.490   4.286
 9110SOL    HW128229   1.958   4.443   4.220
 9110SOL    HW228230   2.105   4.442   4.292
 9111SOL     OW28231   4.188   3.372   0.008
 9111SOL    HW128232   4.110   3.435   0.006
 9111SOL    HW228233   4.178   3.304   6.954
 9112SOL     OW28234   0.523   4.261   4.894
 9112SOL    HW128235   0.576   4.243   4.977
 9112SOL    HW228236   0.585   4.281   4.818
 9113SOL     OW28237   4.517   6.607   0.902
 9113SOL    HW128238   4.491   6.540   0.832
 9113SOL    HW228239   4.453   6.601   0.979
 9114SOL     OW28240   1.651   5.053   1.369
 9114SOL    HW128241   1.733   5.107   1.352
 9114SOL    HW228242   1.606   5.087   1.452
 9115SOL     OW28243   1.009   5.511   6.129
 9115SOL    HW128244   0.982   5.423   6.167
 9115SOL    HW228245   0.928   5.558   6.093
 9116SOL     OW28246   6.480   1.747   0.359
 9116SOL    HW128247   6.450   1.837   0.391
 9116SOL    HW228248   6.540   1.758   0.280
 9117SOL     OW28249   6.089   2.943   0.365
 9117SOL    HW128250   6.084   3.037   0.399
 9117SOL    HW228251   6.108   2.944   0.266
 9118SOL     OW28252   6.406   5.647   0.260
 9118SOL    HW128253   6.386   5.582   0.187
 9118SOL    HW228254   6.473   5.715   0.227
 9119SOL     OW28255   5.727   1.177   1.854
 9119SOL    HW128256   5.788   1.146   1.781
 9119SOL    HW228257   5.708   1.274   1.843
 9120SOL     OW28258   5.780   2.580   5.678
 9120SOL    HW128259   5.879   2.588   5.681
 9120SOL    HW228260   5.739   2.672   5.679
 9121SOL     OW28261   2.770   2.373   6.336
 9121SOL    HW128262   2.801   2.414   6.250
 9121SOL    HW228263   2.685   2.324   6.321
 9122SOL     OW28264   1.914   4.081   2.081
 9122SOL    HW128265   1.968   4.002   2.049
 9122SOL    HW228266   1.975   4.148   2.124
 9123SOL     OW28267   3.308   6.802   4.456
 9123SOL    HW128268   3.284   6.725   4.397
 9123SOL    HW228269   3.407   6.813   4.457
 9124SOL     OW28270   5.391   6.752   6.232
 9124SOL    HW128271   5.355   6.659   6.245
 9124SOL    HW228272   5.479   6.747   6.186
 9125SOL     OW28273   5.098   4.143   1.956
 9125SOL    HW128274   5.027   4.213   1.956
 9125SOL    HW228275   5.177   4.176   2.008
 9126SOL     OW28276   5.919   2.521   1.466
 9126SOL    HW128277   5.896   2.447   1.403
 9126SOL    HW228278   5.881   2.607   1.433
 9127SOL     OW28279   6.839   1.340   5.809
 9127SOL    HW128280   6.896   1.391   5.873
 9127SOL    HW228281   6.855   1.242   5.820
 9128SOL     OW28282   4.675   1.639   4.983
 9128SOL    HW128283   4.673   1.562   4.919
 9128SOL    HW228284   4.651   1.723   4.935
 9129SOL     OW28285   0.201   3.067   0.935
 9129SOL    HW128286   0.247   2.981   0.958
 9129SOL    HW228287   0.250   3.143   0.976
 9130SOL     OW28288   0.095   3.346   0.525
 9130SOL    HW128289   0.040   3.347   0.441
 9130SOL    HW228290   0.147   3.431   0.531
 9131SOL     OW28291   0.173   3.000   5.829
 9131SOL    HW128292   0.200   2.913   5.788
 9131SOL    HW228293   0.246   3.067   5.816
 9132SOL     OW28294   0.315   4.657   4.447
 9132SOL    HW128295   0.323   4.600   4.530
 9132SOL    HW228296   0.230   4.633   4.399
 9133SOL     OW28297   4.240   6.286   1.476
 9133SOL    HW128298   4.257   6.207   1.417
 9133SOL    HW228299   4.256   6.370   1.424
 9134SOL     OW28300   4.736   6.019   0.345
 9134SOL    HW128301   4.648   6.035   0.389
 9134SOL    HW228302   4.810   6.036   0.410
 9135SOL     OW28303   6.062   6.522   2.087
 9135SOL    HW128304   6.077   6.621   2.081
 9135SOL    HW228305   5.974   6.505   2.131
 9136SOL     OW28306   5.256   5.485   6.154
 9136SOL    HW128307   5.279   5.395   6.118
 9136SOL    HW228308   5.175   5.521   6.107
 9137SOL     OW28309   5.184   1.946   1.321
 9137SOL    HW128310   5.150   1.854   1.342
 9137SOL    HW228311   5.109   2.012   1.330
 9138SOL     OW28312   0.303   6.174   5.495
 9138SOL    HW128313   0.218   6.135   5.528
 9138SOL    HW228314   0.379   6.112   5.515
 9139SOL     OW28315   2.176   1.690   4.837
 9139SOL    HW128316   2.208   1.764   4.777
 9139SOL    HW228317   2.126   1.623   4.783
 9140SOL     OW28318   6.405   3.453   3.147
 9140SOL    HW128319   6.430   3.359   3.128
 9140SOL    HW228320   6.309   3.457   3.173
 9141SOL     OW28321   5.815   0.626   6.859
 9141SOL    HW128322   5.874   0.677   6.796
 9141SOL    HW228323   5.864   0.605   6.943
 9142SOL     OW28324   0.434   2.365   1.473
 9142SOL    HW128325   0.493   2.401   1.545
 9142SOL    HW228326   0.355   2.426   1.461
 9143SOL     OW28327   5.962   3.087   1.169
 9143SOL    HW128328   5.968   2.987   1.169
 9143SOL    HW228329   6.029   3.124   1.105
 9144SOL     OW28330   2.391   5.108   5.748
 9144SOL    HW128331   2.361   5.037   5.684
 9144SOL    HW228332   2.443   5.066   5.823
 9145SOL     OW28333   0.095   5.676   0.453
 9145SOL    HW128334   0.135   5.724   0.375
 9145SOL    HW228335   0.164   5.664   0.524
 9146SOL     OW28336   5.196   2.859   3.067
 9146SOL    HW128337   5.180   2.841   3.164
 9146SOL    HW228338   5.136   2.801   3.012
 9147SOL     OW28339   6.008   0.372   4.478
 9147SOL    HW128340   6.103   0.382   4.449
 9147SOL    HW228341   6.001   0.384   4.577
 9148SOL     OW28342   5.062   6.476   0.700
 9148SOL    HW128343   5.060   6.385   0.742
 9148SOL    HW228344   5.128   6.533   0.749
 9149SOL     OW28345   5.990   3.258   3.456
 9149SOL    HW128346   6.082   3.245   3.419
 9149SOL    HW228347   5.990   3.234   3.553
 9150SOL     OW28348   2.895   5.034   1.850
 9150SOL    HW128349   2.959   4.957   1.849
 9150SOL    HW228350   2.945   5.119   1.866
 9151SOL     OW28351   1.920   4.419   3.813
 9151SOL    HW128352   1.849   4.439   3.745
 9151SOL    HW228353   1.986   4.494   3.816
 9152SOL     OW28354   2.250   4.402   4.808
 9152SOL    HW128355   2.219   4.311   4.781
 9152SOL    HW228356   2.337   4.395   4.856
 9153SOL     OW28357   1.047   3.775   0.405
 9153SOL    HW128358   1.068   3.684   0.441
 9153SOL    HW228359   1.075   3.844   0.471
 9154SOL     OW28360   4.381   4.472   6.221
 9154SOL    HW128361   4.433   4.536   6.279
 9154SOL    HW228362   4.318   4.523   6.163
 9155SOL     OW28363   1.764   3.758   1.945
 9155SOL    HW128364   1.704   3.809   1.884
 9155SOL    HW228365   1.853   3.745   1.901
 9156SOL     OW28366   1.059   2.191   0.923
 9156SOL    HW128367   1.116   2.121   0.967
 9156SOL    HW228368   0.967   2.154   0.908
 9157SOL     OW28369   6.468   4.261   5.384
 9157SOL    HW128370   6.535   4.326   5.349
 9157SOL    HW228371   6.412   4.227   5.309
 9158SOL     OW28372   5.674   3.237   4.784
 9158SOL    HW128373   5.747   3.224   4.852
 9158SOL    HW228374   5.645   3.333   4.784
 9159SOL     OW28375   1.769   0.321   2.449
 9159SOL    HW128376   1.865   0.293   2.451
 9159SOL    HW228377   1.725   0.283   2.368
 9160SOL     OW28378   6.015   0.303   5.194
 9160SOL    HW128379   6.095   0.301   5.134
 9160SOL    HW228380   5.947   0.367   5.156
 9161SOL     OW28381   4.907   3.970   5.006
 9161SOL    HW128382   4.907   3.965   4.906
 9161SOL    HW228383   4.930   3.880   5.044
 9162SOL     OW28384   4.775   0.884   4.344
 9162SOL    HW128385   4.787   0.785   4.334
 9162SOL    HW228386   4.815   0.914   4.431
 9163SOL     OW28387   1.732   2.931   4.255
 9163SOL    HW128388   1.749   3.019   4.212
 9163SOL    HW228389   1.781   2.859   4.205
 9164SOL     OW28390   2.799   0.713   6.152
 9164SOL    HW128391   2.779   0.779   6.225
 9164SOL    HW228392   2.717   0.698   6.097
 9165SOL     OW28393   6.127   2.108   5.784
 9165SOL    HW128394   6.145   2.127   5.880
 9165SOL    HW228395   6.036   2.141   5.759
 9166SOL     OW28396   4.229   6.048   1.347
 9166SOL    HW128397   4.138   6.012   1.366
 9166SOL    HW228398   4.256   6.022   1.254
 9167SOL     OW28399   2.449   2.381   6.586
 9167SOL    HW128400   2.353   2.383   6.614
 9167SOL    HW228401   2.481   2.475   6.569
 9168SOL     OW28402   0.189   0.135   6.640
 9168SOL    HW128403   0.240   0.061   6.595
 9168SOL    HW228404   0.096   0.139   6.602
 9169SOL     OW28405   5.809   0.814   5.106
 9169SOL    HW128406   5.797   0.913   5.116
 9169SOL    HW228407   5.735   0.777   5.050
 9170SOL     OW28408   1.510   6.133   0.158
 9170SOL    HW128409   1.537   6.040   0.183
 9170SOL    HW228410   1.486   6.184   0.241
 9171SOL     OW28411   4.378   4.983   1.145
 9171SOL    HW128412   4.304   4.987   1.213
 9171SOL    HW228413   4.391   5.073   1.104
 9172SOL     OW28414   4.043   1.001   2.912
 9172SOL    HW128415   4.101   0.993   2.994
 9172SOL    HW228416   3.968   0.936   2.919
 9173SOL     OW28417   6.976   3.312   5.292
 9173SOL    HW128418   0.054   3.293   5.277
 9173SOL    HW228419   6.936   3.349   5.209
 9174SOL     OW28420   5.523   3.906   1.942
 9174SOL    HW128421   5.498   3.818   1.903
 9174SOL    HW228422   5.605   3.941   1.896
 9175SOL     OW28423   0.685   0.288   5.163
 9175SOL    HW128424   0.752   0.346   5.117
 9175SOL    HW228425   0.719   0.265   5.254
 9176SOL     OW28426   2.671   1.384   4.622
 9176SOL    HW128427   2.733   1.463   4.626
 9176SOL    HW228428   2.629   1.370   4.712
 9177SOL     OW28429   0.549   4.732   5.051
 9177SOL    HW128430   0.577   4.643   5.015
 9177SOL    HW228431   0.542   4.798   4.977
 9178SOL     OW28432   1.536   5.075   0.316
 9178SOL    HW128433   1.502   5.049   0.406
 9178SOL    HW228434   1.526   5.174   0.303
 9179SOL     OW28435   2.813   4.881   4.365
 9179SOL    HW128436   2.834   4.835   4.279
 9179SOL    HW228437   2.731   4.936   4.354
 9180SOL     OW28438   6.343   2.767   3.372
 9180SOL    HW128439   6.263   2.733   3.421
 9180SOL    HW228440   6.421   2.705   3.389
 9181SOL     OW28441   4.345   2.086   5.346
 9181SOL    HW128442   4.322   2.047   5.257
 9181SOL    HW228443   4.392   2.173   5.333
 9182SOL     OW28444   2.982   6.636   1.508
 9182SOL    HW128445   2.929   6.714   1.474
 9182SOL    HW228446   3.016   6.655   1.600
 9183SOL     OW28447   4.953   5.667   0.462
 9183SOL    HW128448   4.897   5.608   0.520
 9183SOL    HW228449   4.940   5.641   0.366
 9184SOL     OW28450   4.537   1.875   0.504
 9184SOL    HW128451   4.501   1.796   0.455
 9184SOL    HW228452   4.619   1.849   0.554
 9185SOL     OW28453   4.392   6.705   4.494
 9185SOL    HW128454   4.475   6.760   4.486
 9185SOL    HW228455   4.416   6.611   4.517
 9186SOL     OW28456   5.449   5.974   4.874
 9186SOL    HW128457   5.492   6.045   4.817
 9186SOL    HW228458   5.505   5.958   4.955
 9187SOL     OW28459   2.389   2.051   0.639
 9187SOL    HW128460   2.323   1.990   0.683
 9187SOL    HW228461   2.481   2.027   0.668
 9188SOL     OW28462   1.214   6.432   0.398
 9188SOL    HW128463   1.226   6.531   0.397
 9188SOL    HW228464   1.198   6.399   0.305
 9189SOL     OW28465   3.174   5.982   1.949
 9189SOL    HW128466   3.176   5.989   2.049
 9189SOL    HW228467   3.120   6.057   1.912
 9190SOL     OW28468   2.775   4.527   5.845
 9190SOL    HW128469   2.851   4.471   5.879
 9190SOL    HW228470   2.775   4.615   5.893
 9191SOL     OW28471   6.426   2.079   6.658
 9191SOL    HW128472   6.430   2.116   6.751
 9191SOL    HW228473   6.331   2.064   6.631
 9192SOL     OW28474   1.117   3.036   5.687
 9192SOL    HW128475   1.095   3.130   5.714
 9192SOL    HW228476   1.210   3.033   5.650
 9193SOL     OW28477   3.643   4.001   6.437
 9193SOL    HW128478   3.676   3.990   6.531
 9193SOL    HW228479   3.556   3.953   6.427
 9194SOL     OW28480   3.267   0.817   3.473
 9194SOL    HW128481   3.218   0.880   3.533
 9194SOL    HW228482   3.366   0.832   3.481
 9195SOL     OW28483   1.049   1.716   3.193
 9195SOL    HW128484   1.090   1.646   3.135
 9195SOL    HW228485   0.962   1.683   3.230
 9196SOL     OW28486   5.264   0.456   2.553
 9196SOL    HW128487   5.206   0.492   2.626
 9196SOL    HW228488   5.356   0.494   2.561
 9197SOL     OW28489   1.888   5.188   1.317
 9197SOL    HW128490   1.864   5.274   1.361
 9197SOL    HW228491   1.977   5.157   1.349
 9198SOL     OW28492   6.215   4.712   6.599
 9198SOL    HW128493   6.137   4.689   6.657
 9198SOL    HW228494   6.188   4.784   6.534
 9199SOL     OW28495   0.930   3.600   5.619
 9199SOL    HW128496   0.878   3.679   5.587
 9199SOL    HW228497   0.955   3.613   5.715
 9200SOL     OW28498   2.949   6.532   0.035
 9200SOL    HW128499   2.971   6.586   0.117
 9200SOL    HW228500   3.015   6.553   6.982
 9201SOL     OW28501   6.969   2.998   0.078
 9201SOL    HW128502   7.010   2.942   0.150
 9201SOL    HW228503   0.022   3.045   0.026
 9202SOL     OW28504   0.976   6.392   2.536
 9202SOL    HW128505   0.880   6.385   2.562
 9202SOL    HW228506   1.033   6.347   2.604
 9203SOL     OW28507   0.333   4.002   5.660
 9203SOL    HW128508   0.308   4.086   5.612
 9203SOL    HW228509   0.336   4.019   5.758
 9204SOL     OW28510   5.365   3.120   6.241
 9204SOL    HW128511   5.402   3.075   6.160
 9204SOL    HW228512   5.424   3.196   6.268
 9205SOL     OW28513   5.671   5.583   3.442
 9205SOL    HW128514   5.591   5.638   3.466
 9205SOL    HW228515   5.641   5.492   3.414
 9206SOL     OW28516   3.810   5.222   3.330
 9206SOL    HW128517   3.741   5.155   3.357
 9206SOL    HW228518   3.891   5.212   3.387
 9207SOL     OW28519   5.016   4.073   5.715
 9207SOL    HW128520   4.973   4.019   5.787
 9207SOL    HW228521   5.047   4.161   5.752
 9208SOL     OW28522   5.689   4.740   3.760
 9208SOL    HW128523   5.652   4.833   3.752
 9208SOL    HW228524   5.631   4.677   3.708
 9209SOL     OW28525   3.910   0.427   0.110
 9209SOL    HW128526   3.890   0.443   0.014
 9209SOL    HW228527   3.989   0.366   0.119
 9210SOL     OW28528   0.058   0.839   2.187
 9210SOL    HW128529   0.022   0.871   2.275
 9210SOL    HW228530   7.002   0.829   2.122
 9211SOL     OW28531   0.560   2.974   5.671
 9211SOL    HW128532   0.600   2.981   5.579
 9211SOL    HW228533   0.524   2.882   5.684
 9212SOL     OW28534   4.148   6.127   4.378
 9212SOL    HW128535   4.116   6.086   4.464
 9212SOL    HW228536   4.143   6.226   4.384
 9213SOL     OW28537   5.695   2.831   5.175
 9213SOL    HW128538   5.758   2.909   5.162
 9213SOL    HW228539   5.664   2.829   5.270
 9214SOL     OW28540   0.052   4.001   6.260
 9214SOL    HW128541   6.991   4.008   6.200
 9214SOL    HW228542   0.048   3.915   6.311
 9215SOL     OW28543   0.709   2.658   1.483
 9215SOL    HW128544   0.650   2.723   1.435
 9215SOL    HW228545   0.736   2.585   1.420
 9216SOL     OW28546   3.411   6.967   2.272
 9216SOL    HW128547   3.391   0.005   2.351
 9216SOL    HW228548   3.491   6.911   2.291
 9217SOL     OW28549   0.116   2.904   6.611
 9217SOL    HW128550   0.091   2.810   6.631
 9217SOL    HW228551   0.041   2.965   6.637
 9218SOL     OW28552   1.789   0.427   6.832
 9218SOL    HW128553   1.802   0.522   6.861
 9218SOL    HW228554   1.820   0.366   6.905
 9219SOL     OW28555   5.960   3.564   0.847
 9219SOL    HW128556   5.950   3.565   0.946
 9219SOL    HW228557   5.899   3.494   0.809
 9220SOL     OW28558   1.520   6.334   1.550
 9220SOL    HW128559   1.456   6.261   1.525
 9220SOL    HW228560   1.468   6.415   1.580
 9221SOL     OW28561   3.281   0.527   3.337
 9221SOL    HW128562   3.254   0.616   3.374
 9221SOL    HW228563   3.275   0.458   3.409
 9222SOL     OW28564   2.255   6.244   6.237
 9222SOL    HW128565   2.270   6.319   6.301
 9222SOL    HW228566   2.290   6.159   6.276
 9223SOL     OW28567   0.755   1.799   3.770
 9223SOL    HW128568   0.819   1.809   3.847
 9223SOL    HW228569   0.807   1.799   3.684
 9224SOL     OW28570   1.351   5.200   4.254
 9224SOL    HW128571   1.439   5.153   4.265
 9224SOL    HW228572   1.361   5.296   4.278
 9225SOL     OW28573   2.959   6.647   6.416
 9225SOL    HW128574   2.942   6.637   6.319
 9225SOL    HW228575   2.934   6.739   6.446
 9226SOL     OW28576   6.147   7.010   1.745
 9226SOL    HW128577   6.244   6.985   1.739
 9226SOL    HW228578   6.124   0.012   1.840
 9227SOL     OW28579   1.511   5.871   0.571
 9227SOL    HW128580   1.571   5.854   0.650
 9227SOL    HW228581   1.465   5.786   0.546
 9228SOL     OW28582   1.895   2.113   5.839
 9228SOL    HW128583   1.862   2.019   5.851
 9228SOL    HW228584   1.887   2.162   5.926
 9229SOL     OW28585   1.123   5.146   5.828
 9229SOL    HW128586   1.118   5.165   5.729
 9229SOL    HW228587   1.131   5.233   5.877
 9230SOL     OW28588   4.752   2.243   3.608
 9230SOL    HW128589   4.693   2.233   3.688
 9230SOL    HW228590   4.800   2.331   3.613
 9231SOL     OW28591   0.501   4.029   4.674
 9231SOL    HW128592   0.545   3.963   4.735
 9231SOL    HW228593   0.408   3.998   4.652
 9232SOL     OW28594   3.775   5.196   0.507
 9232SOL    HW128595   3.872   5.201   0.529
 9232SOL    HW228596   3.735   5.287   0.508
 9233SOL     OW28597   5.458   5.445   1.832
 9233SOL    HW128598   5.371   5.398   1.846
 9233SOL    HW228599   5.466   5.520   1.897
 9234SOL     OW28600   3.552   6.351   6.081
 9234SOL    HW128601   3.511   6.425   6.134
 9234SOL    HW228602   3.642   6.330   6.119
 9235SOL     OW28603   1.409   3.354   3.030
 9235SOL    HW128604   1.388   3.398   2.943
 9235SOL    HW228605   1.327   3.354   3.088
 9236SOL     OW28606   1.799   4.637   5.868
 9236SOL    HW128607   1.847   4.718   5.836
 9236SOL    HW228608   1.862   4.559   5.868
 9237SOL     OW28609   1.865   5.476   4.751
 9237SOL    HW128610   1.889   5.547   4.684
 9237SOL    HW228611   1.773   5.441   4.731
 9238SOL     OW28612   3.372   1.373   0.268
 9238SOL    HW128613   3.369   1.419   0.357
 9238SOL    HW228614   3.462   1.388   0.226
 9239SOL     OW28615   6.369   4.172   0.260
 9239SOL    HW128616   6.341   4.251   0.205
 9239SOL    HW228617   6.467   4.176   0.276
 9240SOL     OW28618   5.159   1.262   1.323
 9240SOL    HW128619   5.102   1.324   1.377
 9240SOL    HW228620   5.124   1.259   1.229
 9241SOL     OW28621   0.680   5.332   5.617
 9241SOL    HW128622   0.700   5.243   5.658
 9241SOL    HW228623   0.585   5.357   5.635
 9242SOL     OW28624   1.063   5.208   6.790
 9242SOL    HW128625   1.051   5.203   6.691
 9242SOL    HW228626   1.154   5.243   6.811
 9243SOL     OW28627   6.142   6.835   1.377
 9243SOL    HW128628   6.049   6.863   1.402
 9243SOL    HW228629   6.140   6.745   1.335
 9244SOL     OW28630   4.665   5.515   6.206
 9244SOL    HW128631   4.656   5.427   6.252
 9244SOL    HW228632   4.593   5.577   6.238
 9245SOL     OW28633   1.625   5.268   3.287
 9245SOL    HW128634   1.630   5.193   3.222
 9245SOL    HW228635   1.706   5.267   3.346
 9246SOL     OW28636   6.981   5.601   2.538
 9246SOL    HW128637   0.037   5.623   2.599
 9246SOL    HW228638   6.895   5.605   2.589
 9247SOL     OW28639   1.201   6.649   2.674
 9247SOL    HW128640   1.154   6.639   2.762
 9247SOL    HW228641   1.289   6.602   2.678
 9248SOL     OW28642   2.107   2.015   4.349
 9248SOL    HW128643   2.066   1.999   4.438
 9248SOL    HW228644   2.106   1.930   4.296
 9249SOL     OW28645   4.214   4.030   0.057
 9249SOL    HW128646   4.184   4.126   0.054
 9249SOL    HW228647   4.313   4.027   0.066
 9250SOL     OW28648   5.302   3.374   4.096
 9250SOL    HW128649   5.295   3.357   3.998
 9250SOL    HW228650   5.353   3.459   4.112
 9251SOL     OW28651   4.210   1.724   2.374
 9251SOL    HW128652   4.269   1.691   2.300
 9251SOL    HW228653   4.161   1.806   2.344
 9252SOL     OW28654   5.703   0.301   4.659
 9252SOL    HW128655   5.675   0.345   4.574
 9252SOL    HW228656   5.759   0.365   4.712
 9253SOL     OW28657   5.523   6.449   5.388
 9253SOL    HW128658   5.451   6.497   5.439
 9253SOL    HW228659   5.495   6.438   5.293
 9254SOL     OW28660   5.931   4.797   2.813
 9254SOL    HW128661   5.834   4.812   2.834
 9254SOL    HW228662   5.987   4.858   2.870
 9255SOL     OW28663   4.606   3.982   6.920
 9255SOL    HW128664   4.512   3.960   6.893
 9255SOL    HW228665   4.640   3.912   6.982
 9256SOL     OW28666   4.294   6.924   2.815
 9256SOL    HW128667   4.241   6.873   2.882
 9256SOL    HW228668   4.317   6.864   2.738
 9257SOL     OW28669   0.036   3.985   2.996
 9257SOL    HW128670   0.026   3.984   2.897
 9257SOL    HW228671   0.090   3.907   3.025
 9258SOL     OW28672   3.326   3.459   3.168
 9258SOL    HW128673   3.243   3.445   3.114
 9258SOL    HW228674   3.360   3.370   3.201
 9259SOL     OW28675   1.533   2.543   6.643
 9259SOL    HW128676   1.508   2.638   6.659
 9259SOL    HW228677   1.632   2.536   6.630
 9260SOL     OW28678   4.844   2.023   4.901
 9260SOL    HW128679   4.767   2.069   4.859
 9260SOL    HW228680   4.871   1.944   4.846
 9261SOL     OW28681   4.411   0.796   0.102
 9261SOL    HW128682   4.315   0.815   0.123
 9261SOL    HW228683   4.470   0.850   0.162
 9262SOL     OW28684   0.459   3.739   5.842
 9262SOL    HW128685   0.366   3.773   5.828
 9262SOL    HW228686   0.473   3.719   5.939
 9263SOL     OW28687   5.190   5.919   1.918
 9263SOL    HW128688   5.217   5.824   1.927
 9263SOL    HW228689   5.169   5.957   2.008
 9264SOL     OW28690   5.652   4.621   0.618
 9264SOL    HW128691   5.636   4.719   0.632
 9264SOL    HW228692   5.682   4.605   0.524
 9265SOL     OW28693   3.472   1.915   6.891
 9265SOL    HW128694   3.560   1.900   6.938
 9265SOL    HW228695   3.465   2.011   6.863
 9266SOL     OW28696   2.482   0.157   1.834
 9266SOL    HW128697   2.452   0.071   1.792
 9266SOL    HW228698   2.444   0.164   1.927
 9267SOL     OW28699   0.195   3.211   5.008
 9267SOL    HW128700   0.192   3.206   5.108
 9267SOL    HW228701   0.150   3.129   4.970
 9268SOL     OW28702   1.188   5.572   1.778
 9268SOL    HW128703   1.108   5.576   1.838
 9268SOL    HW228704   1.185   5.487   1.725
 9269SOL     OW28705   2.628   1.363   5.904
 9269SOL    HW128706   2.674   1.330   5.822
 9269SOL    HW228707   2.604   1.459   5.892
 9270SOL     OW28708   4.470   6.414   6.149
 9270SOL    HW128709   4.385   6.398   6.099
 9270SOL    HW228710   4.456   6.395   6.246
 9271SOL     OW28711   0.589   0.194   6.612
 9271SOL    HW128712   0.515   0.209   6.678
 9271SOL    HW228713   0.597   0.097   6.593
 9272SOL     OW28714   1.528   5.561   4.068
 9272SOL    HW128715   1.536   5.470   4.027
 9272SOL    HW228716   1.523   5.552   4.168
 9273SOL     OW28717   6.205   6.228   3.582
 9273SOL    HW128718   6.241   6.137   3.605
 9273SOL    HW228719   6.114   6.238   3.622
 9274SOL     OW28720   6.326   2.696   0.333
 9274SOL    HW128721   6.230   2.686   0.361
 9274SOL    HW228722   6.354   2.791   0.345
 9275SOL     OW28723   0.053   1.536   6.646
 9275SOL    HW128724   0.013   1.445   6.632
 9275SOL    HW228725   0.123   1.532   6.717
 9276SOL     OW28726   2.203   3.906   2.610
 9276SOL    HW128727   2.264   3.984   2.605
 9276SOL    HW228728   2.157   3.893   2.522
 9277SOL     OW28729   5.319   3.276   0.022
 9277SOL    HW128730   5.263   3.310   6.966
 9277SOL    HW228731   5.265   3.273   0.105
 9278SOL     OW28732   1.519   0.437   5.674
 9278SOL    HW128733   1.421   0.451   5.689
 9278SOL    HW228734   1.552   0.363   5.733
 9279SOL     OW28735   5.214   0.923   1.659
 9279SOL    HW128736   5.227   1.009   1.709
 9279SOL    HW228737   5.169   0.856   1.718
 9280SOL     OW28738   1.709   1.764   3.260
 9280SOL    HW128739   1.639   1.824   3.222
 9280SOL    HW228740   1.799   1.805   3.248
 9281SOL     OW28741   2.825   4.719   0.672
 9281SOL    HW128742   2.746   4.663   0.695
 9281SOL    HW228743   2.895   4.709   0.743
 9282SOL     OW28744   4.826   1.150   4.279
 9282SOL    HW128745   4.881   1.116   4.203
 9282SOL    HW228746   4.783   1.073   4.326
 9283SOL     OW28747   5.617   0.747   3.621
 9283SOL    HW128748   5.616   0.651   3.647
 9283SOL    HW228749   5.671   0.759   3.538
 9284SOL     OW28750   3.381   3.908   6.176
 9284SOL    HW128751   3.334   3.941   6.094
 9284SOL    HW228752   3.321   3.918   6.255
 9285SOL     OW28753   4.875   2.718   1.441
 9285SOL    HW128754   4.914   2.632   1.410
 9285SOL    HW228755   4.836   2.767   1.364
 9286SOL     OW28756   5.305   6.167   0.204
 9286SOL    HW128757   5.394   6.201   0.236
 9286SOL    HW228758   5.263   6.236   0.145
 9287SOL     OW28759   3.298   5.331   6.281
 9287SOL    HW128760   3.323   5.311   6.376
 9287SOL    HW228761   3.223   5.397   6.281
 9288SOL     OW28762   4.437   1.436   3.424
 9288SOL    HW128763   4.453   1.509   3.358
 9288SOL    HW228764   4.393   1.358   3.379
 9289SOL     OW28765   4.180   1.351   2.493
 9289SOL    HW128766   4.132   1.265   2.477
 9289SOL    HW228767   4.278   1.338   2.479
 9290SOL     OW28768   5.456   1.126   3.136
 9290SOL    HW128769   5.503   1.138   3.223
 9290SOL    HW228770   5.391   1.200   3.122
 9291SOL     OW28771   1.600   6.836   4.093
 9291SOL    HW128772   1.645   6.804   4.176
 9291SOL    HW228773   1.501   6.831   4.104
 9292SOL     OW28774   0.955   3.595   0.116
 9292SOL    HW128775   0.962   3.622   0.213
 9292SOL    HW228776   0.944   3.496   0.110
 9293SOL     OW28777   5.654   4.063   6.874
 9293SOL    HW128778   5.675   4.036   6.968
 9293SOL    HW228779   5.722   4.025   6.812
 9294SOL     OW28780   3.441   0.853   5.280
 9294SOL    HW128781   3.367   0.792   5.253
 9294SOL    HW228782   3.431   0.879   5.377
 9295SOL     OW28783   5.297   2.234   4.238
 9295SOL    HW128784   5.247   2.158   4.279
 9295SOL    HW228785   5.245   2.270   4.160
 9296SOL     OW28786   6.951   6.443   6.754
 9296SOL    HW128787   0.010   6.419   6.696
 9296SOL    HW228788   6.939   6.542   6.754
 9297SOL     OW28789   6.721   0.492   0.246
 9297SOL    HW128790   6.696   0.461   0.338
 9297SOL    HW228791   6.639   0.526   0.199
 9298SOL     OW28792   1.125   0.490   4.972
 9298SOL    HW128793   1.140   0.446   5.061
 9298SOL    HW228794   1.027   0.494   4.953
 9299SOL     OW28795   0.679   2.775   4.595
 9299SOL    HW128796   0.716   2.829   4.670
 9299SOL    HW228797   0.746   2.771   4.520
 9300SOL     OW28798   0.554   4.740   5.605
 9300SOL    HW128799   0.521   4.685   5.682
 9300SOL    HW228800   0.529   4.695   5.519
 9301SOL     OW28801   4.906   4.567   4.164
 9301SOL    HW128802   4.854   4.620   4.097
 9301SOL    HW228803   4.993   4.614   4.182
 9302SOL     OW28804   2.129   3.026   4.000
 9302SOL    HW128805   2.104   3.106   3.946
 9302SOL    HW228806   2.097   3.038   4.094
 9303SOL     OW28807   3.236   4.981   0.846
 9303SOL    HW128808   3.150   5.016   0.811
 9303SOL    HW228809   3.311   5.041   0.817
 9304SOL     OW28810   4.632   4.461   2.206
 9304SOL    HW128811   4.619   4.371   2.163
 9304SOL    HW228812   4.649   4.449   2.303
 9305SOL     OW28813   3.061   1.022   1.231
 9305SOL    HW128814   3.103   0.942   1.189
 9305SOL    HW228815   3.128   1.096   1.238
 9306SOL     OW28816   0.058   4.270   4.566
 9306SOL    HW128817   0.012   4.290   4.653
 9306SOL    HW228818   0.155   4.290   4.575
 9307SOL     OW28819   1.889   3.475   2.037
 9307SOL    HW128820   1.977   3.509   2.071
 9307SOL    HW228821   1.838   3.550   1.994
 9308SOL     OW28822   1.797   3.811   0.469
 9308SOL    HW128823   1.819   3.785   0.375
 9308SOL    HW228824   1.757   3.733   0.517
 9309SOL     OW28825   3.631   4.834   5.863
 9309SOL    HW128826   3.694   4.867   5.793
 9309SOL    HW228827   3.546   4.886   5.859
 9310SOL     OW28828   4.658   5.136   6.600
 9310SOL    HW128829   4.596   5.127   6.677
 9310SOL    HW228830   4.737   5.193   6.626
 9311SOL     OW28831   4.067   4.965   2.305
 9311SOL    HW128832   4.123   4.890   2.270
 9311SOL    HW228833   3.978   4.929   2.334
 9312SOL     OW28834   1.373   3.449   1.459
 9312SOL    HW128835   1.294   3.487   1.411
 9312SOL    HW228836   1.358   3.352   1.478
 9313SOL     OW28837   0.549   0.441   1.095
 9313SOL    HW128838   0.641   0.402   1.085
 9313SOL    HW228839   0.520   0.436   1.190
 9314SOL     OW28840   4.930   5.381   6.094
 9314SOL    HW128841   4.930   5.293   6.142
 9314SOL    HW228842   4.836   5.415   6.086
 9315SOL     OW28843   6.284   0.570   4.877
 9315SOL    HW128844   6.276   0.506   4.953
 9315SOL    HW228845   6.297   0.662   4.913
 9316SOL     OW28846   4.325   5.676   5.304
 9316SOL    HW128847   4.266   5.595   5.297
 9316SOL    HW228848   4.325   5.709   5.398
 9317SOL     OW28849   6.111   5.214   3.295
 9317SOL    HW128850   6.036   5.268   3.257
 9317SOL    HW228851   6.105   5.214   3.394
 9318SOL     OW28852   6.358   0.489   5.769
 9318SOL    HW128853   6.349   0.419   5.698
 9318SOL    HW228854   6.293   0.563   5.751
 9319SOL     OW28855   1.891   2.833   7.006
 9319SOL    HW128856   1.856   2.882   0.066
 9319SOL    HW228857   1.990   2.849   6.998
 9320SOL     OW28858   3.954   0.266   5.030
 9320SOL    HW128859   4.050   0.248   5.005
 9320SOL    HW228860   3.944   0.259   5.129
 9321SOL     OW28861   6.621   0.124   3.783
 9321SOL    HW128862   6.526   0.126   3.754
 9321SOL    HW228863   6.655   0.217   3.792
 9322SOL     OW28864   0.662   4.418   6.876
 9322SOL    HW128865   0.613   4.335   6.849
 9322SOL    HW228866   0.710   4.402   6.963
 9323SOL     OW28867   1.282   0.665   5.441
 9323SOL    HW128868   1.288   0.706   5.532
 9323SOL    HW228869   1.292   0.737   5.372
 9324SOL     OW28870   1.642   4.777   0.778
 9324SOL    HW128871   1.631   4.679   0.798
 9324SOL    HW228872   1.563   4.827   0.814
 9325SOL     OW28873   4.713   0.758   6.920
 9325SOL    HW128874   4.742   0.853   6.903
 9325SOL    HW228875   4.634   0.758   6.981
 9326SOL     OW28876   2.218   5.292   0.154
 9326SOL    HW128877   2.219   5.386   0.122
 9326SOL    HW228878   2.294   5.277   0.217
 9327SOL     OW28879   5.512   0.527   3.096
 9327SOL    HW128880   5.507   0.512   3.194
 9327SOL    HW228881   5.481   0.620   3.075
 9328SOL     OW28882   2.552   0.437   5.937
 9328SOL    HW128883   2.543   0.519   5.994
 9328SOL    HW228884   2.533   0.356   5.991
 9329SOL     OW28885   5.950   3.866   1.584
 9329SOL    HW128886   5.953   3.947   1.644
 9329SOL    HW228887   5.859   3.825   1.589
 9330SOL     OW28888   5.933   6.765   6.485
 9330SOL    HW128889   5.999   6.714   6.540
 9330SOL    HW228890   5.848   6.713   6.479
 9331SOL     OW28891   2.508   0.957   0.182
 9331SOL    HW128892   2.512   0.979   0.085
 9331SOL    HW228893   2.599   0.929   0.213
 9332SOL     OW28894   4.150   3.912   1.777
 9332SOL    HW128895   4.110   3.976   1.712
 9332SOL    HW228896   4.105   3.920   1.865
 9333SOL     OW28897   4.044   3.519   0.634
 9333SOL    HW128898   3.977   3.563   0.575
 9333SOL    HW228899   3.999   3.453   0.694
 9334SOL     OW28900   6.032   5.868   3.790
 9334SOL    HW128901   6.120   5.902   3.757
 9334SOL    HW228902   6.046   5.802   3.864
 9335SOL     OW28903   0.937   1.299   6.331
 9335SOL    HW128904   0.905   1.204   6.329
 9335SOL    HW228905   0.899   1.349   6.253
 9336SOL     OW28906   3.053   5.665   5.833
 9336SOL    HW128907   3.124   5.604   5.797
 9336SOL    HW228908   2.991   5.692   5.760
 9337SOL     OW28909   4.457   1.810   4.751
 9337SOL    HW128910   4.387   1.751   4.709
 9337SOL    HW228911   4.413   1.875   4.812
 9338SOL     OW28912   5.275   0.404   2.189
 9338SOL    HW128913   5.242   0.446   2.274
 9338SOL    HW228914   5.375   0.404   2.188
 9339SOL     OW28915   5.684   7.010   1.572
 9339SOL    HW128916   5.745   6.948   1.522
 9339SOL    HW228917   5.636   6.959   1.643
 9340SOL     OW28918   5.483   4.182   4.620
 9340SOL    HW128919   5.446   4.257   4.565
 9340SOL    HW228920   5.578   4.166   4.595
 9341SOL     OW28921   6.715   5.789   0.686
 9341SOL    HW128922   6.670   5.701   0.675
 9341SOL    HW228923   6.652   5.853   0.731
 9342SOL     OW28924   2.172   6.530   3.879
 9342SOL    HW128925   2.088   6.488   3.912
 9342SOL    HW228926   2.251   6.477   3.910
 9343SOL     OW28927   5.852   4.121   2.759
 9343SOL    HW128928   5.774   4.076   2.804
 9343SOL    HW228929   5.934   4.067   2.773
 9344SOL     OW28930   4.809   6.454   2.825
 9344SOL    HW128931   4.809   6.536   2.768
 9344SOL    HW228932   4.841   6.477   2.917
 9345SOL     OW28933   5.874   5.077   2.504
 9345SOL    HW128934   5.934   5.008   2.462
 9345SOL    HW228935   5.840   5.138   2.433
 9346SOL     OW28936   6.293   1.161   1.139
 9346SOL    HW128937   6.327   1.191   1.228
 9346SOL    HW228938   6.369   1.154   1.075
 9347SOL     OW28939   2.395   3.442   0.944
 9347SOL    HW128940   2.376   3.532   0.983
 9347SOL    HW228941   2.382   3.371   1.013
 9348SOL     OW28942   3.417   6.267   2.009
 9348SOL    HW128943   3.399   6.220   2.095
 9348SOL    HW228944   3.506   6.312   2.013
 9349SOL     OW28945   6.368   5.707   3.850
 9349SOL    HW128946   6.352   5.692   3.753
 9349SOL    HW228947   6.388   5.620   3.895
 9350SOL     OW28948   0.447   2.829   5.128
 9350SOL    HW128949   0.468   2.922   5.156
 9350SOL    HW228950   0.531   2.775   5.124
 9351SOL     OW28951   2.873   0.236   6.812
 9351SOL    HW128952   2.883   0.235   6.712
 9351SOL    HW228953   2.831   0.322   6.840
 9352SOL     OW28954   3.753   1.691   6.450
 9352SOL    HW128955   3.803   1.660   6.531
 9352SOL    HW228956   3.788   1.779   6.421
 9353SOL     OW28957   0.468   4.670   0.487
 9353SOL    HW128958   0.517   4.622   0.414
 9353SOL    HW228959   0.521   4.749   0.517
 9354SOL     OW28960   6.696   2.062   6.321
 9354SOL    HW128961   6.682   2.023   6.412
 9354SOL    HW228962   6.792   2.086   6.308
 9355SOL     OW28963   0.340   2.164   4.434
 9355SOL    HW128964   0.289   2.079   4.423
 9355SOL    HW228965   0.428   2.145   4.477
 9356SOL     OW28966   4.768   0.494   2.117
 9356SOL    HW128967   4.850   0.481   2.061
 9356SOL    HW228968   4.766   0.425   2.190
 9357SOL     OW28969   1.881   2.795   5.888
 9357SOL    HW128970   1.909   2.714   5.939
 9357SOL    HW228971   1.844   2.767   5.799
 9358SOL     OW28972   6.383   3.162   2.065
 9358SOL    HW128973   6.414   3.121   1.979
 9358SOL    HW228974   6.462   3.187   2.120
 9359SOL     OW28975   1.644   4.363   6.040
 9359SOL    HW128976   1.668   4.437   6.102
 9359SOL    HW228977   1.549   4.375   6.010
 9360SOL     OW28978   0.912   4.816   6.220
 9360SOL    HW128979   0.956   4.776   6.300
 9360SOL    HW228980   0.979   4.869   6.168
 9361SOL     OW28981   2.019   5.033   3.408
 9361SOL    HW128982   2.109   5.075   3.418
 9361SOL    HW228983   1.948   5.103   3.416
 9362SOL     OW28984   1.597   1.108   2.711
 9362SOL    HW128985   1.556   1.174   2.647
 9362SOL    HW228986   1.614   1.153   2.798
 9363SOL     OW28987   2.917   5.517   1.801
 9363SOL    HW128988   2.829   5.486   1.838
 9363SOL    HW228989   2.949   5.597   1.852
 9364SOL     OW28990   2.587   1.925   0.013
 9364SOL    HW128991   2.547   2.017   0.017
 9364SOL    HW228992   2.601   1.891   0.106
 9365SOL     OW28993   3.220   1.881   3.238
 9365SOL    HW128994   3.219   1.972   3.279
 9365SOL    HW228995   3.154   1.822   3.285
 9366SOL     OW28996   2.845   5.511   6.514
 9366SOL    HW128997   2.769   5.456   6.477
 9366SOL    HW228998   2.851   5.498   6.613
 9367SOL     OW28999   6.771   6.504   2.140
 9367SOL    HW129000   6.700   6.435   2.131
 9367SOL    HW229001   6.841   6.490   2.070
 9368SOL     OW29002   3.320   0.197   2.570
 9368SOL    HW129003   3.231   0.240   2.563
 9368SOL    HW229004   3.390   0.257   2.532
 9369SOL     OW29005   6.584   6.487   3.416
 9369SOL    HW129006   6.521   6.457   3.487
 9369SOL    HW229007   6.591   6.416   3.346
 9370SOL     OW29008   5.475   0.493   4.816
 9370SOL    HW129009   5.526   0.554   4.756
 9370SOL    HW229010   5.536   0.424   4.854
 9371SOL     OW29011   2.254   6.014   0.485
 9371SOL    HW129012   2.200   6.026   0.401
 9371SOL    HW229013   2.260   5.916   0.506
 9372SOL     OW29014   5.493   6.787   1.593
 9372SOL    HW129015   5.412   6.840   1.568
 9372SOL    HW229016   5.525   6.735   1.514
 9373SOL     OW29017   4.655   2.501   1.531
 9373SOL    HW129018   4.616   2.547   1.611
 9373SOL    HW229019   4.680   2.570   1.463
 9374SOL     OW29020   0.469   2.817   6.441
 9374SOL    HW129021   0.460   2.719   6.420
 9374SOL    HW229022   0.538   2.829   6.513
 9375SOL     OW29023   0.461   2.267   0.909
 9375SOL    HW129024   0.514   2.352   0.916
 9375SOL    HW229025   0.366   2.285   0.931
 9376SOL     OW29026   2.213   3.776   1.471
 9376SOL    HW129027   2.257   3.692   1.504
 9376SOL    HW229028   2.204   3.772   1.371
 9377SOL     OW29029   2.105   5.253   3.090
 9377SOL    HW129030   2.155   5.233   3.174
 9377SOL    HW229031   2.147   5.330   3.043
 9378SOL     OW29032   3.319   1.126   3.157
 9378SOL    HW129033   3.293   1.150   3.250
 9378SOL    HW229034   3.356   1.206   3.111
 9379SOL     OW29035   5.268   0.229   4.967
 9379SOL    HW129036   5.217   0.235   5.052
 9379SOL    HW229037   5.293   0.321   4.937
 9380SOL     OW29038   3.686   5.695   5.150
 9380SOL    HW129039   3.652   5.605   5.125
 9380SOL    HW229040   3.610   5.758   5.163
 9381SOL     OW29041   5.415   2.966   5.580
 9381SOL    HW129042   5.441   2.975   5.484
 9381SOL    HW229043   5.349   3.037   5.604
 9382SOL     OW29044   4.263   1.116   3.662
 9382SOL    HW129045   4.185   1.146   3.607
 9382SOL    HW229046   4.345   1.113   3.605
 9383SOL     OW29047   5.840   4.915   3.976
 9383SOL    HW129048   5.815   4.889   3.883
 9383SOL    HW229049   5.760   4.907   4.035
 9384SOL     OW29050   3.536   0.183   2.129
 9384SOL    HW129051   3.494   0.095   2.153
 9384SOL    HW229052   3.497   0.217   2.043
 9385SOL     OW29053   4.450   1.394   4.131
 9385SOL    HW129054   4.357   1.359   4.142
 9385SOL    HW229055   4.446   1.489   4.100
 9386SOL     OW29056   3.394   5.673   5.288
 9386SOL    HW129057   3.428   5.767   5.288
 9386SOL    HW229058   3.297   5.673   5.310
 9387SOL     OW29059   3.063   2.508   0.504
 9387SOL    HW129060   3.144   2.453   0.522
 9387SOL    HW229061   3.026   2.485   0.414
 9388SOL     OW29062   1.892   6.098   3.439
 9388SOL    HW129063   1.956   6.028   3.406
 9388SOL    HW229064   1.909   6.184   3.391
 9389SOL     OW29065   3.057   6.840   2.741
 9389SOL    HW129066   3.136   6.893   2.771
 9389SOL    HW229067   3.087   6.758   2.692
 9390SOL     OW29068   5.851   5.353   5.887
 9390SOL    HW129069   5.782   5.404   5.937
 9390SOL    HW229070   5.810   5.271   5.847
 9391SOL     OW29071   0.312   6.825   5.944
 9391SOL    HW129072   0.376   6.748   5.943
 9391SOL    HW229073   0.263   6.827   6.031
 9392SOL     OW29074   5.047   4.365   5.236
 9392SOL    HW129075   5.027   4.437   5.169
 9392SOL    HW229076   5.011   4.392   5.325
 9393SOL     OW29077   2.634   6.862   5.521
 9393SOL    HW129078   2.543   6.876   5.560
 9393SOL    HW229079   2.702   6.910   5.577
 9394SOL     OW29080   6.071   0.470   0.983
 9394SOL    HW129081   6.013   0.547   0.958
 9394SOL    HW229082   6.024   0.414   1.052
 9395SOL     OW29083   2.184   1.026   0.778
 9395SOL    HW129084   2.260   1.009   0.841
 9395SOL    HW229085   2.112   1.075   0.825
 9396SOL     OW29086   1.242   4.463   4.528
 9396SOL    HW129087   1.187   4.405   4.589
 9396SOL    HW229088   1.322   4.497   4.578
 9397SOL     OW29089   2.502   6.397   6.074
 9397SOL    HW129090   2.426   6.341   6.107
 9397SOL    HW229091   2.512   6.477   6.133
 9398SOL     OW29092   6.025   1.129   6.190
 9398SOL    HW129093   5.979   1.216   6.173
 9398SOL    HW229094   6.087   1.109   6.113
 9399SOL     OW29095   0.978   3.324   4.051
 9399SOL    HW129096   0.942   3.295   3.962
 9399SOL    HW229097   1.018   3.415   4.042
 9400SOL     OW29098   4.355   0.306   0.851
 9400SOL    HW129099   4.315   0.215   0.840
 9400SOL    HW229100   4.290   0.375   0.822
 9401SOL     OW29101   7.010   1.752   2.847
 9401SOL    HW129102   6.959   1.784   2.768
 9401SOL    HW229103   0.088   1.767   2.832
 9402SOL     OW29104   1.378   3.925   2.727
 9402SOL    HW129105   1.314   3.877   2.787
 9402SOL    HW229106   1.331   3.955   2.645
 9403SOL     OW29107   6.454   1.391   2.131
 9403SOL    HW129108   6.466   1.490   2.137
 9403SOL    HW229109   6.360   1.370   2.105
 9404SOL     OW29110   0.431   1.876   1.163
 9404SOL    HW129111   0.358   1.943   1.153
 9404SOL    HW229112   0.443   1.854   1.260
 9405SOL     OW29113   1.526   4.200   4.027
 9405SOL    HW129114   1.447   4.168   3.974
 9405SOL    HW229115   1.546   4.295   4.003
 9406SOL     OW29116   1.120   3.275   6.767
 9406SOL    HW129117   1.083   3.242   6.855
 9406SOL    HW229118   1.212   3.238   6.754
 9407SOL     OW29119   2.345   5.289   4.592
 9407SOL    HW129120   2.249   5.292   4.619
 9407SOL    HW229121   2.388   5.378   4.610
 9408SOL     OW29122   0.638   2.116   6.147
 9408SOL    HW129123   0.736   2.111   6.167
 9408SOL    HW229124   0.597   2.026   6.157
 9409SOL     OW29125   6.202   5.607   1.732
 9409SOL    HW129126   6.251   5.591   1.818
 9409SOL    HW229127   6.108   5.635   1.752
 9410SOL     OW29128   3.907   1.206   1.943
 9410SOL    HW129129   3.985   1.235   1.999
 9410SOL    HW229130   3.844   1.153   1.999
 9411SOL     OW29131   4.024   3.204   3.073
 9411SOL    HW129132   4.050   3.194   2.976
 9411SOL    HW229133   4.103   3.183   3.131
 9412SOL     OW29134   1.496   0.164   2.113
 9412SOL    HW129135   1.490   0.238   2.180
 9412SOL    HW229136   1.435   0.089   2.140
 9413SOL     OW29137   4.655   5.277   4.182
 9413SOL    HW129138   4.659   5.250   4.279
 9413SOL    HW229139   4.744   5.311   4.153
 9414SOL     OW29140   3.395   1.690   3.884
 9414SOL    HW129141   3.349   1.601   3.892
 9414SOL    HW229142   3.488   1.676   3.851
 9415SOL     OW29143   2.178   0.107   1.597
 9415SOL    HW129144   2.142   0.111   1.504
 9415SOL    HW229145   2.169   0.196   1.641
 9416SOL     OW29146   0.275   0.658   5.680
 9416SOL    HW129147   0.200   0.675   5.616
 9416SOL    HW229148   0.344   0.600   5.636
 9417SOL     OW29149   3.527   6.698   1.337
 9417SOL    HW129150   3.463   6.628   1.367
 9417SOL    HW229151   3.612   6.689   1.389
 9418SOL     OW29152   2.533   1.245   2.251
 9418SOL    HW129153   2.617   1.201   2.219
 9418SOL    HW229154   2.482   1.281   2.173
 9419SOL     OW29155   1.580   3.401   6.723
 9419SOL    HW129156   1.574   3.316   6.669
 9419SOL    HW229157   1.639   3.466   6.675
 9420SOL     OW29158   5.127   4.264   0.295
 9420SOL    HW129159   5.070   4.346   0.301
 9420SOL    HW229160   5.135   4.223   0.386
 9421SOL     OW29161   2.820   5.252   3.986
 9421SOL    HW129162   2.732   5.250   4.032
 9421SOL    HW229163   2.882   5.185   4.027
 9422SOL     OW29164   2.838   6.100   3.789
 9422SOL    HW129165   2.869   6.033   3.857
 9422SOL    HW229166   2.750   6.138   3.817
 9423SOL     OW29167   3.917   6.419   3.155
 9423SOL    HW129168   3.961   6.390   3.070
 9423SOL    HW229169   3.910   6.342   3.217
 9424SOL     OW29170   5.519   2.115   4.171
 9424SOL    HW129171   5.451   2.188   4.182
 9424SOL    HW229172   5.556   2.090   4.260
 9425SOL     OW29173   5.635   5.251   1.108
 9425SOL    HW129174   5.720   5.206   1.138
 9425SOL    HW229175   5.658   5.330   1.051
 9426SOL     OW29176   2.510   1.962   5.923
 9426SOL    HW129177   2.532   2.036   5.861
 9426SOL    HW229178   2.549   1.981   6.013
 9427SOL     OW29179   2.523   6.065   3.178
 9427SOL    HW129180   2.602   6.118   3.209
 9427SOL    HW229181   2.553   5.974   3.149
 9428SOL     OW29182   6.667   0.039   0.677
 9428SOL    HW129183   6.712   6.969   0.684
 9428SOL    HW229184   6.725   0.109   0.718
 9429SOL     OW29185   2.394   2.400   3.897
 9429SOL    HW129186   2.372   2.383   3.801
 9429SOL    HW229187   2.438   2.489   3.906
 9430SOL     OW29188   0.210   2.388   4.540
 9430SOL    HW129189   0.234   2.298   4.503
 9430SOL    HW229190   0.281   2.419   4.602
 9431SOL     OW29191   0.016   4.737   1.189
 9431SOL    HW129192   0.098   4.742   1.132
 9431SOL    HW229193   0.031   4.786   1.274
 9432SOL     OW29194   5.864   1.603   4.574
 9432SOL    HW129195   5.960   1.632   4.571
 9432SOL    HW229196   5.859   1.504   4.563
 9433SOL     OW29197   3.999   6.661   3.221
 9433SOL    HW129198   3.967   6.567   3.211
 9433SOL    HW229199   3.939   6.710   3.285
 9434SOL     OW29200   6.391   5.643   3.576
 9434SOL    HW129201   6.312   5.633   3.515
 9434SOL    HW229202   6.456   5.707   3.534
 9435SOL     OW29203   0.260   1.796   2.797
 9435SOL    HW129204   0.345   1.793   2.850
 9435SOL    HW229205   0.275   1.755   2.707
 9436SOL     OW29206   1.498   1.359   2.556
 9436SOL    HW129207   1.429   1.413   2.605
 9436SOL    HW229208   1.577   1.417   2.535
 9437SOL     OW29209   0.609   5.075   3.416
 9437SOL    HW129210   0.572   5.083   3.323
 9437SOL    HW229211   0.709   5.073   3.411
 9438SOL     OW29212   1.548   0.005   1.893
 9438SOL    HW129213   1.631   6.981   1.928
 9438SOL    HW229214   1.508   0.064   1.962
 9439SOL     OW29215   0.501   3.390   1.366
 9439SOL    HW129216   0.488   3.420   1.272
 9439SOL    HW229217   0.479   3.292   1.373
 9440SOL     OW29218   3.842   4.911   3.826
 9440SOL    HW129219   3.787   4.926   3.744
 9440SOL    HW229220   3.928   4.866   3.802
 9441SOL     OW29221   6.541   6.084   5.373
 9441SOL    HW129222   6.506   6.015   5.436
 9441SOL    HW229223   6.627   6.052   5.332
 9442SOL     OW29224   4.711   3.397   1.714
 9442SOL    HW129225   4.634   3.333   1.716
 9442SOL    HW229226   4.790   3.355   1.759
 9443SOL     OW29227   2.581   5.353   0.746
 9443SOL    HW129228   2.525   5.433   0.764
 9443SOL    HW229229   2.656   5.350   0.813
 9444SOL     OW29230   1.805   4.856   0.531
 9444SOL    HW129231   1.764   4.930   0.478
 9444SOL    HW229232   1.742   4.828   0.604
 9445SOL     OW29233   7.007   2.492   3.040
 9445SOL    HW129234   6.998   2.393   3.044
 9445SOL    HW229235   6.929   2.531   2.991
 9446SOL     OW29236   0.589   5.115   4.459
 9446SOL    HW129237   0.552   5.025   4.482
 9446SOL    HW229238   0.616   5.117   4.363
 9447SOL     OW29239   5.345   4.692   3.554
 9447SOL    HW129240   5.398   4.617   3.516
 9447SOL    HW229241   5.251   4.662   3.569
 9448SOL     OW29242   6.941   6.844   6.638
 9448SOL    HW129243   6.930   6.941   6.662
 9448SOL    HW229244   7.019   6.806   6.688
 9449SOL     OW29245   5.778   6.631   0.033
 9449SOL    HW129246   5.875   6.607   0.023
 9449SOL    HW229247   5.739   6.648   6.962
 9450SOL     OW29248   2.402   5.410   3.454
 9450SOL    HW129249   2.409   5.463   3.539
 9450SOL    HW229250   2.323   5.442   3.401
 9451SOL     OW29251   4.043   5.939   5.781
 9451SOL    HW129252   3.994   6.023   5.804
 9451SOL    HW229253   3.977   5.866   5.761
 9452SOL     OW29254   1.024   4.181   6.883
 9452SOL    HW129255   0.943   4.162   6.828
 9452SOL    HW229256   0.999   4.190   6.979
 9453SOL     OW29257   2.854   4.734   2.422
 9453SOL    HW129258   2.895   4.682   2.496
 9453SOL    HW229259   2.779   4.681   2.381
 9454SOL     OW29260   3.764   3.057   6.497
 9454SOL    HW129261   3.855   3.059   6.540
 9454SOL    HW229262   3.769   3.003   6.413
 9455SOL     OW29263   2.394   2.166   2.449
 9455SOL    HW129264   2.430   2.129   2.363
 9455SOL    HW229265   2.463   2.224   2.492
 9456SOL     OW29266   6.036   4.122   1.751
 9456SOL    HW129267   5.996   4.206   1.716
 9456SOL    HW229268   6.038   4.125   1.851
 9457SOL     OW29269   0.323   4.551   4.112
 9457SOL    HW129270   0.300   4.647   4.093
 9457SOL    HW229271   0.420   4.536   4.093
 9458SOL     OW29272   6.701   4.079   0.229
 9458SOL    HW129273   6.696   4.016   0.152
 9458SOL    HW229274   6.654   4.039   0.308
 9459SOL     OW29275   5.365   4.895   3.851
 9459SOL    HW129276   5.429   4.966   3.823
 9459SOL    HW229277   5.409   4.805   3.840
 9460SOL     OW29278   2.255   2.989   4.552
 9460SOL    HW129279   2.304   2.927   4.490
 9460SOL    HW229280   2.246   3.078   4.509
 9461SOL     OW29281   0.751   1.566   1.925
 9461SOL    HW129282   0.821   1.627   1.888
 9461SOL    HW229283   0.760   1.561   2.024
 9462SOL     OW29284   1.899   3.209   3.870
 9462SOL    HW129285   1.967   3.182   3.802
 9462SOL    HW229286   1.807   3.199   3.831
 9463SOL     OW29287   5.432   6.474   1.561
 9463SOL    HW129288   5.371   6.475   1.482
 9463SOL    HW229289   5.522   6.440   1.533
 9464SOL     OW29290   5.676   6.957   0.457
 9464SOL    HW129291   5.587   6.962   0.412
 9464SOL    HW229292   5.679   6.877   0.517
 9465SOL     OW29293   6.790   4.292   1.573
 9465SOL    HW129294   6.853   4.326   1.503
 9465SOL    HW229295   6.841   4.242   1.643
 9466SOL     OW29296   3.503   3.942   5.818
 9466SOL    HW129297   3.546   3.879   5.754
 9466SOL    HW229298   3.571   3.972   5.885
 9467SOL     OW29299   0.945   2.608   1.135
 9467SOL    HW129300   0.905   2.547   1.203
 9467SOL    HW229301   0.986   2.554   1.061
 9468SOL     OW29302   6.830   3.595   6.399
 9468SOL    HW129303   6.828   3.594   6.499
 9468SOL    HW229304   6.753   3.542   6.364
 9469SOL     OW29305   0.061   5.744   1.238
 9469SOL    HW129306   0.085   5.760   1.334
 9469SOL    HW229307   0.145   5.737   1.183
 9470SOL     OW29308   4.551   3.570   6.888
 9470SOL    HW129309   4.529   3.621   6.972
 9470SOL    HW229310   4.546   3.632   6.810
 9471SOL     OW29311   6.548   1.859   5.395
 9471SOL    HW129312   6.492   1.802   5.456
 9471SOL    HW229313   6.603   1.922   5.450
 9472SOL     OW29314   1.042   3.922   5.636
 9472SOL    HW129315   1.014   4.007   5.591
 9472SOL    HW229316   1.050   3.937   5.734
 9473SOL     OW29317   2.734   4.421   6.499
 9473SOL    HW129318   2.667   4.464   6.438
 9473SOL    HW229319   2.693   4.408   6.589
 9474SOL     OW29320   6.122   3.416   2.242
 9474SOL    HW129321   6.117   3.375   2.151
 9474SOL    HW229322   6.164   3.352   2.306
 9475SOL     OW29323   4.764   3.882   0.115
 9475SOL    HW129324   4.675   3.895   0.158
 9475SOL    HW229325   4.829   3.948   0.153
 9476SOL     OW29326   4.002   3.623   5.246
 9476SOL    HW129327   4.037   3.556   5.180
 9476SOL    HW229328   4.078   3.676   5.283
 9477SOL     OW29329   0.900   2.868   1.040
 9477SOL    HW129330   0.967   2.900   0.973
 9477SOL    HW229331   0.933   2.784   1.083
 9478SOL     OW29332   5.078   2.873   1.248
 9478SOL    HW129333   5.100   2.968   1.228
 9478SOL    HW229334   5.059   2.825   1.162
 9479SOL     OW29335   3.980   6.606   0.766
 9479SOL    HW129336   4.052   6.650   0.820
 9479SOL    HW229337   4.015   6.585   0.675
 9480SOL     OW29338   5.731   5.396   0.308
 9480SOL    HW129339   5.774   5.416   0.220
 9480SOL    HW229340   5.632   5.383   0.295
 9481SOL     OW29341   5.642   2.168   2.640
 9481SOL    HW129342   5.567   2.148   2.702
 9481SOL    HW229343   5.622   2.251   2.589
 9482SOL     OW29344   6.531   0.473   2.609
 9482SOL    HW129345   6.540   0.566   2.645
 9482SOL    HW229346   6.584   0.410   2.665
 9483SOL     OW29347   1.301   1.194   0.537
 9483SOL    HW129348   1.222   1.143   0.570
 9483SOL    HW229349   1.351   1.232   0.615
 9484SOL     OW29350   2.885   0.300   4.694
 9484SOL    HW129351   2.859   0.280   4.600
 9484SOL    HW229352   2.982   0.325   4.698
 9485SOL     OW29353   0.057   1.608   0.900
 9485SOL    HW129354   0.075   1.673   0.826
 9485SOL    HW229355   6.993   1.635   0.948
 9486SOL     OW29356   4.587   6.237   1.609
 9486SOL    HW129357   4.614   6.249   1.513
 9486SOL    HW229358   4.496   6.195   1.613
 9487SOL     OW29359   3.387   3.983   4.193
 9487SOL    HW129360   3.457   4.050   4.218
 9487SOL    HW229361   3.330   3.964   4.273
 9488SOL     OW29362   2.597   0.351   1.236
 9488SOL    HW129363   2.537   0.431   1.238
 9488SOL    HW229364   2.542   0.268   1.245
 9489SOL     OW29365   5.063   4.547   1.172
 9489SOL    HW129366   5.161   4.569   1.174
 9489SOL    HW229367   5.038   4.498   1.255
 9490SOL     OW29368   6.919   6.311   3.612
 9490SOL    HW129369   7.013   6.281   3.595
 9490SOL    HW229370   6.884   6.358   3.531
 9491SOL     OW29371   6.281   5.411   4.537
 9491SOL    HW129372   6.193   5.396   4.581
 9491SOL    HW229373   6.306   5.331   4.483
 9492SOL     OW29374   3.546   3.238   5.103
 9492SOL    HW129375   3.611   3.307   5.134
 9492SOL    HW229376   3.544   3.235   5.003
 9493SOL     OW29377   3.342   5.526   4.410
 9493SOL    HW129378   3.438   5.514   4.435
 9493SOL    HW229379   3.324   5.622   4.391
 9494SOL     OW29380   5.978   3.185   2.074
 9494SOL    HW129381   5.936   3.212   2.160
 9494SOL    HW229382   5.913   3.200   1.999
 9495SOL     OW29383   0.056   1.606   2.305
 9495SOL    HW129384   0.129   1.674   2.304
 9495SOL    HW229385   0.057   1.557   2.392
 9496SOL     OW29386   4.786   2.467   1.866
 9496SOL    HW129387   4.778   2.563   1.838
 9496SOL    HW229388   4.785   2.461   1.966
 9497SOL     OW29389   4.814   6.206   5.205
 9497SOL    HW129390   4.781   6.196   5.111
 9497SOL    HW229391   4.890   6.143   5.221
 9498SOL     OW29392   6.655   4.404   5.037
 9498SOL    HW129393   6.594   4.354   4.976
 9498SOL    HW229394   6.746   4.411   4.996
 9499SOL     OW29395   0.445   6.125   4.920
 9499SOL    HW129396   0.350   6.122   4.952
 9499SOL    HW229397   0.496   6.050   4.960
 9500SOL     OW29398   4.067   6.575   0.492
 9500SOL    HW129399   4.142   6.536   0.546
 9500SOL    HW229400   4.064   6.531   0.402
 9501SOL     OW29401   1.848   1.203   4.070
 9501SOL    HW129402   1.842   1.273   4.142
 9501SOL    HW229403   1.927   1.144   4.089
 9502SOL     OW29404   6.113   3.859   4.704
 9502SOL    HW129405   6.192   3.817   4.748
 9502SOL    HW229406   6.067   3.919   4.769
 9503SOL     OW29407   6.945   2.624   0.587
 9503SOL    HW129408   0.005   2.582   0.632
 9503SOL    HW229409   6.966   2.720   0.565
 9504SOL     OW29410   6.602   4.199   1.850
 9504SOL    HW129411   6.658   4.119   1.831
 9504SOL    HW229412   6.533   4.209   1.778
 9505SOL     OW29413   5.357   4.355   5.630
 9505SOL    HW129414   5.378   4.343   5.533
 9505SOL    HW229415   5.377   4.449   5.657
 9506SOL     OW29416   1.591   2.678   0.915
 9506SOL    HW129417   1.618   2.696   0.821
 9506SOL    HW229418   1.504   2.629   0.916
 9507SOL     OW29419   6.849   0.811   1.379
 9507SOL    HW129420   6.770   0.870   1.391
 9507SOL    HW229421   6.835   0.754   1.298
 9508SOL     OW29422   5.699   1.895   2.702
 9508SOL    HW129423   5.683   1.884   2.800
 9508SOL    HW229424   5.701   1.993   2.680
 9509SOL     OW29425   0.189   0.827   3.556
 9509SOL    HW129426   0.096   0.813   3.521
 9509SOL    HW229427   0.195   0.918   3.598
 9510SOL     OW29428   1.140   3.389   3.165
 9510SOL    HW129429   1.156   3.464   3.230
 9510SOL    HW229430   1.085   3.424   3.089
 9511SOL     OW29431   1.886   0.981   1.743
 9511SOL    HW129432   1.854   0.986   1.648
 9511SOL    HW229433   1.811   0.952   1.802
 9512SOL     OW29434   6.580   2.540   0.817
 9512SOL    HW129435   6.497   2.515   0.766
 9512SOL    HW229436   6.557   2.557   0.912
 9513SOL     OW29437   2.841   4.736   6.340
 9513SOL    HW129438   2.800   4.824   6.363
 9513SOL    HW229439   2.869   4.689   6.424
 9514SOL     OW29440   2.742   4.635   6.817
 9514SOL    HW129441   2.790   4.717   6.785
 9514SOL    HW229442   2.796   4.554   6.794
 9515SOL     OW29443   2.158   5.956   2.391
 9515SOL    HW129444   2.094   5.981   2.464
 9515SOL    HW229445   2.120   5.880   2.338
 9516SOL     OW29446   5.560   4.764   0.394
 9516SOL    HW129447   5.474   4.713   0.386
 9516SOL    HW229448   5.634   4.709   0.356
 9517SOL     OW29449   1.739   3.757   1.232
 9517SOL    HW129450   1.810   3.689   1.218
 9517SOL    HW229451   1.743   3.789   1.327
 9518SOL     OW29452   2.159   1.734   0.862
 9518SOL    HW129453   2.110   1.703   0.944
 9518SOL    HW229454   2.131   1.828   0.841
 9519SOL     OW29455   2.978   3.205   5.171
 9519SOL    HW129456   3.029   3.138   5.117
 9519SOL    HW229457   2.989   3.295   5.130
 9520SOL     OW29458   2.981   0.408   2.988
 9520SOL    HW129459   3.025   0.490   3.025
 9520SOL    HW229460   3.004   0.329   3.045
 9521SOL     OW29461   5.820   5.475   2.538
 9521SOL    HW129462   5.884   5.440   2.606
 9521SOL    HW229463   5.760   5.400   2.508
 9522SOL     OW29464   3.454   5.314   1.035
 9522SOL    HW129465   3.494   5.401   1.005
 9522SOL    HW229466   3.424   5.261   0.955
 9523SOL     OW29467   3.279   5.404   4.997
 9523SOL    HW129468   3.200   5.465   4.996
 9523SOL    HW229469   3.355   5.448   4.949
 9524SOL     OW29470   3.971   2.603   1.701
 9524SOL    HW129471   3.903   2.672   1.727
 9524SOL    HW229472   3.990   2.611   1.603
 9525SOL     OW29473   2.762   2.596   6.506
 9525SOL    HW129474   2.753   2.520   6.442
 9525SOL    HW229475   2.671   2.630   6.530
 9526SOL     OW29476   5.257   5.660   1.962
 9526SOL    HW129477   5.228   5.615   1.878
 9526SOL    HW229478   5.290   5.590   2.026
 9527SOL     OW29479   0.904   0.264   1.258
 9527SOL    HW129480   0.848   0.228   1.333
 9527SOL    HW229481   0.996   0.223   1.264
 9528SOL     OW29482   6.876   0.800   6.933
 9528SOL    HW129483   6.973   0.775   6.943
 9528SOL    HW229484   6.826   0.722   6.894
 9529SOL     OW29485   0.189   2.885   5.159
 9529SOL    HW129486   0.174   2.913   5.254
 9529SOL    HW229487   0.286   2.865   5.146
 9530SOL     OW29488   1.601   3.255   3.666
 9530SOL    HW129489   1.528   3.269   3.600
 9530SOL    HW229490   1.563   3.224   3.753
 9531SOL     OW29491   3.250   5.173   3.276
 9531SOL    HW129492   3.192   5.131   3.206
 9531SOL    HW229493   3.193   5.218   3.344
 9532SOL     OW29494   0.189   5.972   2.086
 9532SOL    HW129495   0.190   6.045   2.155
 9532SOL    HW229496   0.101   5.972   2.039
 9533SOL     OW29497   6.842   0.594   5.274
 9533SOL    HW129498   6.801   0.614   5.363
 9533SOL    HW229499   6.837   0.675   5.217
 9534SOL     OW29500   6.048   2.909   5.413
 9534SOL    HW129501   6.067   2.818   5.377
 9534SOL    HW229502   5.952   2.914   5.442
 9535SOL     OW29503   2.406   1.289   6.058
 9535SOL    HW129504   2.417   1.376   6.106
 9535SOL    HW229505   2.461   1.290   5.975
 9536SOL     OW29506   2.582   4.962   5.356
 9536SOL    HW129507   2.509   5.006   5.304
 9536SOL    HW229508   2.611   4.878   5.309
 9537SOL     OW29509   2.601   0.303   2.582
 9537SOL    HW129510   2.517   0.251   2.567
 9537SOL    HW229511   2.679   0.240   2.585
 9538SOL     OW29512   6.440   1.782   4.538
 9538SOL    HW129513   6.450   1.871   4.491
 9538SOL    HW229514   6.451   1.795   4.636
 9539SOL     OW29515   2.200   4.286   6.367
 9539SOL    HW129516   2.154   4.200   6.389
 9539SOL    HW229517   2.196   4.302   6.269
 9540SOL     OW29518   4.571   4.376   5.166
 9540SOL    HW129519   4.583   4.339   5.258
 9540SOL    HW229520   4.617   4.316   5.100
 9541SOL     OW29521   2.281   2.258   5.933
 9541SOL    HW129522   2.196   2.300   5.901
 9541SOL    HW229523   2.344   2.245   5.856
 9542SOL     OW29524   4.733   3.797   5.342
 9542SOL    HW129525   4.695   3.742   5.268
 9542SOL    HW229526   4.827   3.770   5.359
 9543SOL     OW29527   4.527   0.934   4.175
 9543SOL    HW129528   4.554   0.843   4.208
 9543SOL    HW229529   4.592   1.002   4.208
 9544SOL     OW29530   5.377   0.726   1.903
 9544SOL    HW129531   5.388   0.771   1.814
 9544SOL    HW229532   5.426   0.777   1.973
 9545SOL     OW29533   6.443   5.401   2.972
 9545SOL    HW129534   6.513   5.461   3.013
 9545SOL    HW229535   6.407   5.339   3.042
 9546SOL     OW29536   2.370   3.834   0.036
 9546SOL    HW129537   2.421   3.769   7.000
 9546SOL    HW229538   2.432   3.876   0.103
 9547SOL     OW29539   2.576   6.052   4.382
 9547SOL    HW129540   2.553   6.068   4.478
 9547SOL    HW229541   2.670   6.079   4.365
 9548SOL     OW29542   6.908   5.234   5.073
 9548SOL    HW129543   6.948   5.220   4.983
 9548SOL    HW229544   6.980   5.245   5.141
 9549SOL     OW29545   3.177   4.995   1.093
 9549SOL    HW129546   3.250   4.980   1.159
 9549SOL    HW229547   3.211   4.978   1.000
 9550SOL     OW29548   6.955   1.105   6.268
 9550SOL    HW129549   6.958   1.203   6.249
 9550SOL    HW229550   0.028   1.068   6.266
 9551SOL     OW29551   0.174   6.793   4.148
 9551SOL    HW129552   0.268   6.778   4.179
 9551SOL    HW229553   0.132   6.706   4.125
 9552SOL     OW29554   1.784   6.329   2.685
 9552SOL    HW129555   1.869   6.363   2.646
 9552SOL    HW229556   1.771   6.367   2.776
 9553SOL     OW29557   5.852   4.410   6.642
 9553SOL    HW129558   5.868   4.361   6.556
 9553SOL    HW229559   5.764   4.458   6.637
 9554SOL     OW29560   2.855   1.185   1.597
 9554SOL    HW129561   2.861   1.150   1.504
 9554SOL    HW229562   2.886   1.280   1.599
 9555SOL     OW29563   6.238   2.635   0.932
 9555SOL    HW129564   6.214   2.545   0.896
 9555SOL    HW229565   6.248   2.630   1.031
 9556SOL     OW29566   2.440   2.052   1.413
 9556SOL    HW129567   2.519   2.097   1.372
 9556SOL    HW229568   2.462   1.956   1.430
 9557SOL     OW29569   6.028   0.572   2.504
 9557SOL    HW129570   5.944   0.533   2.467
 9557SOL    HW229571   6.101   0.504   2.502
 9558SOL     OW29572   6.911   5.253   3.666
 9558SOL    HW129573   6.867   5.176   3.712
 9558SOL    HW229574   6.918   5.330   3.729
 9559SOL     OW29575   6.731   4.199   2.727
 9559SOL    HW129576   6.710   4.236   2.818
 9559SOL    HW229577   6.809   4.248   2.688
 9560SOL     OW29578   2.030   1.418   2.383
 9560SOL    HW129579   2.124   1.452   2.380
 9560SOL    HW229580   1.968   1.490   2.352
 9561SOL     OW29581   3.142   0.044   0.645
 9561SOL    HW129582   3.218   0.022   0.705
 9561SOL    HW229583   3.113   0.139   0.661
 9562SOL     OW29584   3.267   5.794   4.433
 9562SOL    HW129585   3.200   5.807   4.506
 9562SOL    HW229586   3.345   5.856   4.447
 9563SOL     OW29587   6.211   6.411   6.835
 9563SOL    HW129588   6.204   6.503   6.797
 9563SOL    HW229589   6.144   6.400   6.908
 9564SOL     OW29590   2.376   0.340   6.726
 9564SOL    HW129591   2.445   0.411   6.716
 9564SOL    HW229592   2.311   0.345   6.651
 9565SOL     OW29593   4.408   5.929   5.257
 9565SOL    HW129594   4.402   5.982   5.342
 9565SOL    HW229595   4.385   5.833   5.277
 9566SOL     OW29596   3.454   4.623   6.957
 9566SOL    HW129597   3.428   4.638   0.033
 9566SOL    HW229598   3.409   4.691   6.899
 9567SOL     OW29599   6.264   5.260   6.333
 9567SOL    HW129600   6.191   5.192   6.322
 9567SOL    HW229601   6.227   5.351   6.319
 9568SOL     OW29602   4.520   3.483   6.515
 9568SOL    HW129603   4.536   3.558   6.580
 9568SOL    HW229604   4.541   3.396   6.559
 9569SOL     OW29605   6.082   0.854   0.546
 9569SOL    HW129606   6.004   0.906   0.579
 9569SOL    HW229607   6.164   0.911   0.547
 9570SOL     OW29608   0.586   1.540   1.684
 9570SOL    HW129609   0.538   1.453   1.674
 9570SOL    HW229610   0.626   1.546   1.776
 9571SOL     OW29611   2.968   3.052   0.510
 9571SOL    HW129612   3.040   3.025   0.573
 9571SOL    HW229613   2.888   3.083   0.562
 9572SOL     OW29614   1.443   4.925   0.881
 9572SOL    HW129615   1.467   4.982   0.960
 9572SOL    HW229616   1.347   4.901   0.886
 9573SOL     OW29617   0.602   1.179   6.625
 9573SOL    HW129618   0.610   1.197   6.527
 9573SOL    HW229619   0.523   1.228   6.662
 9574SOL     OW29620   3.239   3.450   5.024
 9574SOL    HW129621   3.269   3.437   5.118
 9574SOL    HW229622   3.314   3.424   4.962
 9575SOL     OW29623   6.086   1.209   0.988
 9575SOL    HW129624   6.158   1.205   1.058
 9575SOL    HW229625   6.099   1.291   0.932
 9576SOL     OW29626   3.953   0.873   3.172
 9576SOL    HW129627   3.919   0.832   3.257
 9576SOL    HW229628   3.879   0.876   3.105
 9577SOL     OW29629   0.892   0.945   2.237
 9577SOL    HW129630   0.814   0.894   2.274
 9577SOL    HW229631   0.973   0.926   2.292
 9578SOL     OW29632   5.744   2.863   2.738
 9578SOL    HW129633   5.820   2.838   2.678
 9578SOL    HW229634   5.682   2.785   2.747
 9579SOL     OW29635   0.921   6.653   2.490
 9579SOL    HW129636   0.999   6.683   2.545
 9579SOL    HW229637   0.918   6.554   2.489
 9580SOL     OW29638   5.423   3.490   6.811
 9580SOL    HW129639   5.443   3.554   6.885
 9580SOL    HW229640   5.483   3.410   6.819
 9581SOL     OW29641   2.220   4.708   6.238
 9581SOL    HW129642   2.123   4.712   6.262
 9581SOL    HW229643   2.230   4.674   6.144
 9582SOL     OW29644   4.463   4.485   4.105
 9582SOL    HW129645   4.538   4.419   4.098
 9582SOL    HW229646   4.440   4.499   4.201
 9583SOL     OW29647   2.042   3.321   1.872
 9583SOL    HW129648   1.969   3.367   1.924
 9583SOL    HW229649   2.131   3.358   1.901
 9584SOL     OW29650   5.926   5.725   6.846
 9584SOL    HW129651   5.994   5.675   6.901
 9584SOL    HW229652   5.911   5.676   6.760
 9585SOL     OW29653   5.673   0.393   2.509
 9585SOL    HW129654   5.611   0.469   2.529
 9585SOL    HW229655   5.665   0.324   2.580
 9586SOL     OW29656   5.454   3.507   3.603
 9586SOL    HW129657   5.390   3.507   3.680
 9586SOL    HW229658   5.441   3.591   3.550
 9587SOL     OW29659   6.136   0.309   1.457
 9587SOL    HW129660   6.076   0.378   1.497
 9587SOL    HW229661   6.154   0.333   1.362
 9588SOL     OW29662   0.084   0.868   1.454
 9588SOL    HW129663   0.128   0.825   1.533
 9588SOL    HW229664   0.001   0.817   1.429
 9589SOL     OW29665   2.240   6.475   6.391
 9589SOL    HW129666   2.143   6.498   6.384
 9589SOL    HW229667   2.261   6.445   6.484
 9590SOL     OW29668   0.478   3.723   2.552
 9590SOL    HW129669   0.560   3.779   2.549
 9590SOL    HW229670   0.419   3.747   2.474
 9591SOL     OW29671   2.094   6.829   0.798
 9591SOL    HW129672   2.170   6.790   0.850
 9591SOL    HW229673   2.009   6.785   0.825
 9592SOL     OW29674   3.903   5.160   3.085
 9592SOL    HW129675   3.970   5.101   3.130
 9592SOL    HW229676   3.855   5.215   3.154
 9593SOL     OW29677   5.504   2.431   4.272
 9593SOL    HW129678   5.468   2.400   4.184
 9593SOL    HW229679   5.600   2.403   4.281
 9594SOL     OW29680   6.929   6.770   2.914
 9594SOL    HW129681   6.843   6.754   2.963
 9594SOL    HW229682   6.969   6.682   2.890
 9595SOL     OW29683   2.156   5.563   4.650
 9595SOL    HW129684   2.133   5.644   4.704
 9595SOL    HW229685   2.244   5.578   4.604
 9596SOL     OW29686   0.125   5.338   5.613
 9596SOL    HW129687   0.062   5.403   5.657
 9596SOL    HW229688   0.073   5.275   5.556
 9597SOL     OW29689   6.987   4.279   2.194
 9597SOL    HW129690   6.988   4.193   2.143
 9597SOL    HW229691   6.906   4.282   2.252
 9598SOL     OW29692   0.212   4.299   5.525
 9598SOL    HW129693   0.297   4.340   5.493
 9598SOL    HW229694   0.141   4.310   5.455
 9599SOL     OW29695   3.679   6.936   5.386
 9599SOL    HW129696   3.774   6.958   5.363
 9599SOL    HW229697   3.645   6.868   5.321
 9600SOL     OW29698   1.657   0.652   5.573
 9600SOL    HW129699   1.608   0.718   5.629
 9600SOL    HW229700   1.635   0.559   5.604
 9601SOL     OW29701   6.979   4.281   6.297
 9601SOL    HW129702   7.018   4.194   6.328
 9601SOL    HW229703   6.963   4.278   6.199
 9602SOL     OW29704   6.594   4.680   6.095
 9602SOL    HW129705   6.542   4.666   6.011
 9602SOL    HW229706   6.690   4.695   6.073
 9603SOL     OW29707   2.726   6.337   4.393
 9603SOL    HW129708   2.789   6.404   4.431
 9603SOL    HW229709   2.770   6.247   4.390
 9604SOL     OW29710   4.941   1.208   0.645
 9604SOL    HW129711   4.843   1.211   0.624
 9604SOL    HW229712   4.957   1.140   0.717
 9605SOL     OW29713   1.271   4.803   5.704
 9605SOL    HW129714   1.257   4.850   5.617
 9605SOL    HW229715   1.323   4.719   5.688
 9606SOL     OW29716   1.097   6.810   3.216
 9606SOL    HW129717   1.163   6.772   3.151
 9606SOL    HW229718   1.138   6.888   3.263
 9607SOL     OW29719   0.953   1.276   1.724
 9607SOL    HW129720   0.891   1.269   1.802
 9607SOL    HW229721   1.013   1.196   1.722
 9608SOL     OW29722   6.610   6.908   2.098
 9608SOL    HW129723   6.561   6.828   2.064
 9608SOL    HW229724   6.681   6.878   2.162
 9609SOL     OW29725   1.631   4.208   4.704
 9609SOL    HW129726   1.711   4.262   4.678
 9609SOL    HW229727   1.660   4.120   4.741
 9610SOL     OW29728   1.744   2.436   5.901
 9610SOL    HW129729   1.661   2.393   5.937
 9610SOL    HW229730   1.812   2.443   5.974
 9611SOL     OW29731   6.514   0.249   1.005
 9611SOL    HW129732   6.493   0.251   1.102
 9611SOL    HW229733   6.612   0.235   0.992
 9612SOL     OW29734   7.015   3.208   1.035
 9612SOL    HW129735   0.087   3.179   1.005
 9612SOL    HW229736   6.946   3.168   0.975
 9613SOL     OW29737   5.628   6.685   4.285
 9613SOL    HW129738   5.609   6.669   4.382
 9613SOL    HW229739   5.674   6.774   4.274
 9614SOL     OW29740   3.755   3.954   2.359
 9614SOL    HW129741   3.713   3.984   2.274
 9614SOL    HW229742   3.816   4.025   2.394
 9615SOL     OW29743   2.349   5.772   2.873
 9615SOL    HW129744   2.363   5.722   2.958
 9615SOL    HW229745   2.252   5.766   2.847
 9616SOL     OW29746   3.717   3.059   1.202
 9616SOL    HW129747   3.668   2.990   1.149
 9616SOL    HW229748   3.736   3.139   1.145
 9617SOL     OW29749   1.149   3.588   3.381
 9617SOL    HW129750   1.175   3.669   3.435
 9617SOL    HW229751   1.085   3.533   3.434
 9618SOL     OW29752   3.860   6.727   6.599
 9618SOL    HW129753   3.793   6.794   6.632
 9618SOL    HW229754   3.890   6.751   6.507
 9619SOL     OW29755   1.793   5.533   0.145
 9619SOL    HW129756   1.727   5.490   0.207
 9619SOL    HW229757   1.802   5.478   0.062
 9620SOL     OW29758   4.136   0.222   6.343
 9620SOL    HW129759   4.123   0.127   6.371
 9620SOL    HW229760   4.191   0.270   6.412
 9621SOL     OW29761   1.025   0.158   2.239
 9621SOL    HW129762   1.082   0.239   2.224
 9621SOL    HW229763   1.019   0.140   2.337
 9622SOL     OW29764   6.936   1.294   6.715
 9622SOL    HW129765   6.839   1.303   6.692
 9622SOL    HW229766   6.945   1.272   6.812
 9623SOL     OW29767   4.494   5.609   6.479
 9623SOL    HW129768   4.578   5.558   6.498
 9623SOL    HW229769   4.431   5.551   6.427
 9624SOL     OW29770   5.375   5.301   5.006
 9624SOL    HW129771   5.407   5.316   5.099
 9624SOL    HW229772   5.453   5.306   4.943
 9625SOL     OW29773   5.553   4.308   6.692
 9625SOL    HW129774   5.587   4.259   6.772
 9625SOL    HW229775   5.526   4.243   6.621
 9626SOL     OW29776   1.518   4.517   4.574
 9626SOL    HW129777   1.546   4.506   4.670
 9626SOL    HW229778   1.597   4.504   4.514
 9627SOL     OW29779   1.871   4.220   5.644
 9627SOL    HW129780   1.815   4.203   5.725
 9627SOL    HW229781   1.925   4.303   5.657
 9628SOL     OW29782   5.747   4.112   0.290
 9628SOL    HW129783   5.791   4.079   0.373
 9628SOL    HW229784   5.815   4.116   0.216
 9629SOL     OW29785   6.928   6.107   3.127
 9629SOL    HW129786   6.925   6.206   3.116
 9629SOL    HW229787   6.872   6.064   3.056
 9630SOL     OW29788   6.120   6.292   5.649
 9630SOL    HW129789   6.143   6.386   5.673
 9630SOL    HW229790   6.102   6.240   5.733
 9631SOL     OW29791   4.722   0.884   1.218
 9631SOL    HW129792   4.789   0.849   1.153
 9631SOL    HW229793   4.633   0.841   1.201
 9632SOL     OW29794   2.037   5.570   1.612
 9632SOL    HW129795   2.091   5.642   1.656
 9632SOL    HW229796   2.025   5.494   1.676
 9633SOL     OW29797   4.002   3.035   2.306
 9633SOL    HW129798   3.927   3.071   2.362
 9633SOL    HW229799   4.006   2.936   2.315
 9634SOL     OW29800   5.322   4.305   2.522
 9634SOL    HW129801   5.252   4.375   2.509
 9634SOL    HW229802   5.362   4.313   2.613
 9635SOL     OW29803   0.195   3.961   3.762
 9635SOL    HW129804   0.208   4.010   3.848
 9635SOL    HW229805   0.097   3.950   3.746
 9636SOL     OW29806   4.215   1.464   5.595
 9636SOL    HW129807   4.277   1.437   5.668
 9636SOL    HW229808   4.211   1.564   5.590
 9637SOL     OW29809   2.736   2.704   1.422
 9637SOL    HW129810   2.709   2.721   1.517
 9637SOL    HW229811   2.823   2.654   1.421
 9638SOL     OW29812   6.935   4.260   6.029
 9638SOL    HW129813   6.885   4.320   5.967
 9638SOL    HW229814   6.872   4.197   6.074
 9639SOL     OW29815   4.482   2.556   1.833
 9639SOL    HW129816   4.391   2.515   1.829
 9639SOL    HW229817   4.480   2.644   1.784
 9640SOL     OW29818   4.128   1.344   2.050
 9640SOL    HW129819   4.111   1.427   1.996
 9640SOL    HW229820   4.087   1.355   2.141
 9641SOL     OW29821   5.513   5.308   3.094
 9641SOL    HW129822   5.459   5.293   3.011
 9641SOL    HW229823   5.583   5.378   3.076
 9642SOL     OW29824   1.496   0.263   4.210
 9642SOL    HW129825   1.510   0.174   4.253
 9642SOL    HW229826   1.565   0.277   4.139
 9643SOL     OW29827   5.114   4.335   3.958
 9643SOL    HW129828   5.028   4.384   3.971
 9643SOL    HW229829   5.130   4.321   3.860
 9644SOL     OW29830   2.260   5.985   4.783
 9644SOL    HW129831   2.216   6.052   4.844
 9644SOL    HW229832   2.321   6.032   4.719
 9645SOL     OW29833   1.388   4.524   5.341
 9645SOL    HW129834   1.393   4.501   5.244
 9645SOL    HW229835   1.479   4.552   5.373
 9646SOL     OW29836   3.026   6.639   4.236
 9646SOL    HW129837   2.942   6.687   4.260
 9646SOL    HW229838   3.029   6.622   4.138
 9647SOL     OW29839   6.479   5.955   3.126
 9647SOL    HW129840   6.398   5.911   3.087
 9647SOL    HW229841   6.450   6.020   3.196
 9648SOL     OW29842   5.287   2.758   1.699
 9648SOL    HW129843   5.368   2.740   1.643
 9648SOL    HW229844   5.214   2.794   1.641
 9649SOL     OW29845   2.094   3.543   6.613
 9649SOL    HW129846   2.032   3.470   6.586
 9649SOL    HW229847   2.187   3.521   6.583
 9650SOL     OW29848   6.504   4.945   3.843
 9650SOL    HW129849   6.425   4.920   3.787
 9650SOL    HW229850   6.486   5.033   3.888
 9651SOL     OW29851   3.070   1.024   0.624
 9651SOL    HW129852   2.986   1.005   0.572
 9651SOL    HW229853   3.058   0.995   0.719
 9652SOL     OW29854   0.635   4.519   1.255
 9652SOL    HW129855   0.726   4.519   1.215
 9652SOL    HW229856   0.606   4.425   1.273
 9653SOL     OW29857   4.177   4.533   5.816
 9653SOL    HW129858   4.230   4.451   5.794
 9653SOL    HW229859   4.118   4.515   5.894
 9654SOL     OW29860   3.420   2.891   2.846
 9654SOL    HW129861   3.328   2.931   2.846
 9654SOL    HW229862   3.449   2.875   2.940
 9655SOL     OW29863   6.949   1.381   0.728
 9655SOL    HW129864   6.913   1.469   0.760
 9655SOL    HW229865   0.009   1.355   0.783
 9656SOL     OW29866   4.900   2.736   0.407
 9656SOL    HW129867   4.855   2.806   0.351
 9656SOL    HW229868   4.875   2.646   0.373
 9657SOL     OW29869   4.940   4.240   3.638
 9657SOL    HW129870   5.010   4.190   3.690
 9657SOL    HW229871   4.968   4.244   3.542
 9658SOL     OW29872   5.494   1.876   2.424
 9658SOL    HW129873   5.487   1.973   2.400
 9658SOL    HW229874   5.463   1.862   2.518
 9659SOL     OW29875   2.891   1.477   0.315
 9659SOL    HW129876   2.880   1.503   0.219
 9659SOL    HW229877   2.893   1.378   0.323
 9660SOL     OW29878   0.506   6.374   1.069
 9660SOL    HW129879   0.422   6.396   1.120
 9660SOL    HW229880   0.502   6.279   1.039
 9661SOL     OW29881   4.329   5.686   1.122
 9661SOL    HW129882   4.270   5.752   1.076
 9661SOL    HW229883   4.273   5.618   1.170
 9662SOL     OW29884   5.310   4.151   0.106
 9662SOL    HW129885   5.224   4.195   0.132
 9662SOL    HW229886   5.350   4.106   0.186
 9663SOL     OW29887   0.429   4.673   2.781
 9663SOL    HW129888   0.396   4.739   2.849
 9663SOL    HW229889   0.438   4.583   2.824
 9664SOL     OW29890   5.228   4.075   3.636
 9664SOL    HW129891   5.255   3.995   3.690
 9664SOL    HW229892   5.280   4.154   3.666
 9665SOL     OW29893   6.366   6.274   5.443
 9665SOL    HW129894   6.428   6.198   5.423
 9665SOL    HW229895   6.292   6.241   5.502
 9666SOL     OW29896   6.483   4.655   1.149
 9666SOL    HW129897   6.404   4.678   1.206
 9666SOL    HW229898   6.512   4.561   1.168
 9667SOL     OW29899   4.791   4.295   1.200
 9667SOL    HW129900   4.879   4.329   1.231
 9667SOL    HW229901   4.732   4.372   1.175
 9668SOL     OW29902   1.360   0.443   6.064
 9668SOL    HW129903   1.436   0.470   6.004
 9668SOL    HW229904   1.326   0.524   6.111
 9669SOL     OW29905   2.857   0.406   0.666
 9669SOL    HW129906   2.784   0.414   0.597
 9669SOL    HW229907   2.833   0.334   0.730
 9670SOL     OW29908   0.369   6.289   5.257
 9670SOL    HW129909   0.342   6.235   5.337
 9670SOL    HW229910   0.345   6.240   5.174
 9671SOL     OW29911   0.657   4.557   0.298
 9671SOL    HW129912   0.701   4.612   0.228
 9671SOL    HW229913   0.724   4.497   0.341
 9672SOL     OW29914   1.402   4.799   2.591
 9672SOL    HW129915   1.324   4.814   2.652
 9672SOL    HW229916   1.449   4.886   2.575
 9673SOL     OW29917   3.542   4.007   1.460
 9673SOL    HW129918   3.565   3.968   1.549
 9673SOL    HW229919   3.542   4.106   1.465
 9674SOL     OW29920   3.592   6.473   2.860
 9674SOL    HW129921   3.527   6.456   2.787
 9674SOL    HW229922   3.683   6.440   2.832
 9675SOL     OW29923   5.404   3.805   0.319
 9675SOL    HW129924   5.455   3.891   0.314
 9675SOL    HW229925   5.308   3.822   0.297
 9676SOL     OW29926   1.398   3.184   6.717
 9676SOL    HW129927   1.461   3.247   6.762
 9676SOL    HW229928   1.424   3.090   6.737
 9677SOL     OW29929   6.444   5.294   6.554
 9677SOL    HW129930   6.433   5.394   6.557
 9677SOL    HW229931   6.400   5.259   6.470
 9678SOL     OW29932   3.215   3.713   4.556
 9678SOL    HW129933   3.117   3.728   4.571
 9678SOL    HW229934   3.250   3.779   4.490
 9679SOL     OW29935   2.699   1.970   4.214
 9679SOL    HW129936   2.741   2.047   4.261
 9679SOL    HW229937   2.717   1.975   4.116
 9680SOL     OW29938   5.393   7.018   4.892
 9680SOL    HW129939   5.401   7.013   4.792
 9680SOL    HW229940   5.342   0.081   4.917
 9681SOL     OW29941   2.778   1.741   1.687
 9681SOL    HW129942   2.742   1.650   1.669
 9681SOL    HW229943   2.871   1.734   1.723
 9682SOL     OW29944   5.028   4.597   3.682
 9682SOL    HW129945   5.040   4.696   3.670
 9682SOL    HW229946   4.932   4.573   3.668
 9683SOL     OW29947   2.366   6.464   0.671
 9683SOL    HW129948   2.411   6.544   0.632
 9683SOL    HW229949   2.430   6.387   0.671
 9684SOL     OW29950   0.837   3.612   4.669
 9684SOL    HW129951   0.810   3.624   4.765
 9684SOL    HW229952   0.805   3.523   4.637
 9685SOL     OW29953   4.336   3.550   0.466
 9685SOL    HW129954   4.354   3.484   0.393
 9685SOL    HW229955   4.418   3.562   0.522
 9686SOL     OW29956   0.596   2.961   0.434
 9686SOL    HW129957   0.655   2.979   0.355
 9686SOL    HW229958   0.528   2.891   0.409
 9687SOL     OW29959   6.354   0.071   2.176
 9687SOL    HW129960   6.424   0.011   2.139
 9687SOL    HW229961   6.285   0.090   2.106
 9688SOL     OW29962   0.743   3.906   0.961
 9688SOL    HW129963   0.698   3.832   0.911
 9688SOL    HW229964   0.720   3.899   1.058
 9689SOL     OW29965   0.857   4.651   6.018
 9689SOL    HW129966   0.940   4.598   6.000
 9689SOL    HW229967   0.870   4.707   6.100
 9690SOL     OW29968   4.316   5.945   5.726
 9690SOL    HW129969   4.370   5.934   5.809
 9690SOL    HW229970   4.219   5.948   5.750
 9691SOL     OW29971   3.381   3.771   2.442
 9691SOL    HW129972   3.347   3.681   2.469
 9691SOL    HW229973   3.311   3.841   2.462
 9692SOL     OW29974   4.737   5.443   0.944
 9692SOL    HW129975   4.747   5.349   0.976
 9692SOL    HW229976   4.686   5.445   0.858
 9693SOL     OW29977   5.535   4.366   4.149
 9693SOL    HW129978   5.616   4.373   4.092
 9693SOL    HW229979   5.457   4.408   4.102
 9694SOL     OW29980   3.950   0.658   1.197
 9694SOL    HW129981   3.910   0.729   1.140
 9694SOL    HW229982   3.911   0.663   1.289
 9695SOL     OW29983   0.194   3.355   2.679
 9695SOL    HW129984   0.169   3.263   2.708
 9695SOL    HW229985   0.138   3.382   2.601
 9696SOL     OW29986   6.134   1.745   2.419
 9696SOL    HW129987   6.174   1.660   2.387
 9696SOL    HW229988   6.205   1.815   2.427
 9697SOL     OW29989   0.303   6.441   0.823
 9697SOL    HW129990   0.335   6.346   0.829
 9697SOL    HW229991   0.349   6.487   0.747
 9698SOL     OW29992   5.989   3.146   6.280
 9698SOL    HW129993   5.951   3.121   6.191
 9698SOL    HW229994   6.002   3.246   6.284
 9699SOL     OW29995   1.207   6.124   0.184
 9699SOL    HW129996   1.181   6.071   0.265
 9699SOL    HW229997   1.252   6.064   0.118
 9700SOL     OW29998   6.285   5.229   3.794
 9700SOL    HW129999   6.210   5.283   3.832
 9700SOL    HW230000   6.334   5.182   3.867
 9701SOL     OW30001   4.303   3.687   5.888
 9701SOL    HW130002   4.254   3.705   5.802
 9701SOL    HW230003   4.239   3.649   5.954
 9702SOL     OW30004   4.137   2.667   0.105
 9702SOL    HW130005   4.045   2.697   0.128
 9702SOL    HW230006   4.143   2.568   0.115
 9703SOL     OW30007   5.512   3.664   4.570
 9703SOL    HW130008   5.578   3.736   4.551
 9703SOL    HW230009   5.480   3.623   4.485
 9704SOL     OW30010   3.135   5.187   2.421
 9704SOL    HW130011   3.177   5.097   2.437
 9704SOL    HW230012   3.207   5.256   2.416
 9705SOL     OW30013   6.227   4.317   5.584
 9705SOL    HW130014   6.314   4.335   5.629
 9705SOL    HW230015   6.233   4.233   5.530
 9706SOL     OW30016   2.160   2.297   1.491
 9706SOL    HW130017   2.248   2.308   1.445
 9706SOL    HW230018   2.092   2.354   1.447
 9707SOL     OW30019   5.441   5.250   2.353
 9707SOL    HW130020   5.396   5.161   2.361
 9707SOL    HW230021   5.407   5.310   2.426
 9708SOL     OW30022   1.545   1.635   2.224
 9708SOL    HW130023   1.639   1.601   2.213
 9708SOL    HW230024   1.481   1.565   2.193
 9709SOL     OW30025   4.886   4.546   2.108
 9709SOL    HW130026   4.803   4.507   2.148
 9709SOL    HW230027   4.912   4.492   2.027
 9710SOL     OW30028   6.372   0.307   0.463
 9710SOL    HW130029   6.319   0.384   0.427
 9710SOL    HW230030   6.397   0.325   0.558
 9711SOL     OW30031   3.525   5.670   6.329
 9711SOL    HW130032   3.454   5.708   6.270
 9711SOL    HW230033   3.482   5.630   6.410
 9712SOL     OW30034   6.392   3.284   0.485
 9712SOL    HW130035   6.491   3.279   0.496
 9712SOL    HW230036   6.363   3.380   0.484
 9713SOL     OW30037   2.894   5.893   3.504
 9713SOL    HW130038   2.812   5.944   3.527
 9713SOL    HW230039   2.951   5.947   3.441
 9714SOL     OW30040   4.186   6.348   5.603
 9714SOL    HW130041   4.145   6.283   5.539
 9714SOL    HW230042   4.177   6.312   5.696
 9715SOL     OW30043   5.977   4.917   6.874
 9715SOL    HW130044   5.990   4.990   6.807
 9715SOL    HW230045   5.975   4.828   6.827
 9716SOL     OW30046   3.824   4.196   6.744
 9716SOL    HW130047   3.875   4.275   6.711
 9716SOL    HW230048   3.773   4.221   6.826
 9717SOL     OW30049   4.698   6.384   0.156
 9717SOL    HW130050   4.690   6.336   0.244
 9717SOL    HW230051   4.623   6.356   0.096
 9718SOL     OW30052   4.017   3.029   0.601
 9718SOL    HW130053   4.020   2.993   0.507
 9718SOL    HW230054   3.975   2.962   0.661
 9719SOL     OW30055   5.396   6.634   5.613
 9719SOL    HW130056   5.457   6.636   5.692
 9719SOL    HW230057   5.436   6.686   5.538
 9720SOL     OW30058   0.779   3.478   2.406
 9720SOL    HW130059   0.866   3.443   2.373
 9720SOL    HW230060   0.757   3.433   2.493
 9721SOL     OW30061   0.425   1.527   6.971
 9721SOL    HW130062   0.518   1.563   6.982
 9721SOL    HW230063   0.376   1.583   6.904
 9722SOL     OW30064   3.421   1.406   5.195
 9722SOL    HW130065   3.434   1.445   5.104
 9722SOL    HW230066   3.413   1.306   5.188
 9723SOL     OW30067   5.906   5.357   4.155
 9723SOL    HW130068   5.818   5.402   4.170
 9723SOL    HW230069   5.967   5.376   4.232
 9724SOL     OW30070   2.261   4.904   6.889
 9724SOL    HW130071   2.343   4.879   6.838
 9724SOL    HW230072   2.272   4.995   6.927
 9725SOL     OW30073   4.467   6.042   5.527
 9725SOL    HW130074   4.561   6.058   5.556
 9725SOL    HW230075   4.413   6.010   5.605
 9726SOL     OW30076   4.637   1.671   4.602
 9726SOL    HW130077   4.711   1.736   4.584
 9726SOL    HW230078   4.559   1.720   4.641
 9727SOL     OW30079   0.776   2.547   0.390
 9727SOL    HW130080   0.769   2.621   0.323
 9727SOL    HW230081   0.746   2.580   0.479
 9728SOL     OW30082   6.927   2.105   6.006
 9728SOL    HW130083   0.001   2.081   5.980
 9728SOL    HW230084   6.916   2.204   6.001
 9729SOL     OW30085   1.325   4.026   3.920
 9729SOL    HW130086   1.260   3.974   3.866
 9729SOL    HW230087   1.394   3.965   3.959
 9730SOL     OW30088   0.964   4.347   2.867
 9730SOL    HW130089   0.923   4.264   2.905
 9730SOL    HW230090   1.049   4.322   2.820
 9731SOL     OW30091   4.815   5.484   1.836
 9731SOL    HW130092   4.867   5.400   1.855
 9731SOL    HW230093   4.717   5.463   1.836
 9732SOL     OW30094   0.190   3.146   1.878
 9732SOL    HW130095   0.226   3.116   1.967
 9732SOL    HW230096   0.161   3.241   1.885
 9733SOL     OW30097   5.536   5.916   0.941
 9733SOL    HW130098   5.528   5.872   1.031
 9733SOL    HW230099   5.505   6.011   0.947
 9734SOL     OW30100   6.599   0.234   0.330
 9734SOL    HW130101   6.520   0.252   0.389
 9734SOL    HW230102   6.682   0.269   0.373
 9735SOL     OW30103   1.492   2.697   3.458
 9735SOL    HW130104   1.552   2.696   3.538
 9735SOL    HW230105   1.548   2.689   3.375
 9736SOL     OW30106   5.306   1.810   6.089
 9736SOL    HW130107   5.234   1.747   6.119
 9736SOL    HW230108   5.270   1.903   6.085
 9737SOL     OW30109   5.665   2.315   2.940
 9737SOL    HW130110   5.619   2.346   3.024
 9737SOL    HW230111   5.596   2.286   2.874
 9738SOL     OW30112   1.346   6.839   0.596
 9738SOL    HW130113   1.305   6.786   0.671
 9738SOL    HW230114   1.427   6.887   0.630
 9739SOL     OW30115   5.002   6.080   0.192
 9739SOL    HW130116   5.033   6.067   0.098
 9739SOL    HW230117   4.905   6.104   0.192
 9740SOL     OW30118   5.911   1.300   3.141
 9740SOL    HW130119   5.929   1.251   3.055
 9740SOL    HW230120   5.843   1.249   3.194
 9741SOL     OW30121   2.504   0.795   3.805
 9741SOL    HW130122   2.557   0.722   3.762
 9741SOL    HW230123   2.495   0.776   3.903
 9742SOL     OW30124   3.879   1.182   0.362
 9742SOL    HW130125   3.893   1.098   0.413
 9742SOL    HW230126   3.851   1.255   0.425
 9743SOL     OW30127   6.970   4.488   3.208
 9743SOL    HW130128   6.983   4.441   3.122
 9743SOL    HW230129   6.997   4.584   3.198
 9744SOL     OW30130   2.606   6.914   3.136
 9744SOL    HW130131   2.669   6.991   3.127
 9744SOL    HW230132   2.512   6.947   3.129
 9745SOL     OW30133   5.309   3.089   6.781
 9745SOL    HW130134   5.311   3.133   6.691
 9745SOL    HW230135   5.403   3.074   6.812
 9746SOL     OW30136   5.470   6.258   6.185
 9746SOL    HW130137   5.422   6.346   6.190
 9746SOL    HW230138   5.404   6.184   6.177
 9747SOL     OW30139   3.053   2.243   1.779
 9747SOL    HW130140   3.145   2.209   1.799
 9747SOL    HW230141   3.012   2.279   1.863
 9748SOL     OW30142   0.039   6.531   2.860
 9748SOL    HW130143   0.052   6.440   2.820
 9748SOL    HW230144   0.126   6.564   2.896
 9749SOL     OW30145   1.080   1.335   2.729
 9749SOL    HW130146   1.116   1.270   2.796
 9749SOL    HW230147   1.048   1.286   2.648
 9750SOL     OW30148   6.320   5.800   4.098
 9750SOL    HW130149   6.397   5.759   4.148
 9750SOL    HW230150   6.330   5.780   4.000
 9751SOL     OW30151   1.571   7.010   0.726
 9751SOL    HW130152   1.513   0.061   0.768
 9751SOL    HW230153   1.650   6.993   0.785
 9752SOL     OW30154   3.730   1.702   5.837
 9752SOL    HW130155   3.805   1.640   5.862
 9752SOL    HW230156   3.648   1.648   5.818
 9753SOL     OW30157   1.298   5.911   6.530
 9753SOL    HW130158   1.302   5.959   6.442
 9753SOL    HW230159   1.223   5.949   6.584
 9754SOL     OW30160   2.669   0.206   0.799
 9754SOL    HW130161   2.704   0.289   0.843
 9754SOL    HW230162   2.642   0.141   0.870
 9755SOL     OW30163   3.538   3.929   4.966
 9755SOL    HW130164   3.452   3.881   4.946
 9755SOL    HW230165   3.614   3.863   4.965
 9756SOL     OW30166   6.170   2.096   6.588
 9756SOL    HW130167   6.121   2.183   6.583
 9756SOL    HW230168   6.117   2.025   6.541
 9757SOL     OW30169   5.732   4.352   5.231
 9757SOL    HW130170   5.647   4.352   5.177
 9757SOL    HW230171   5.810   4.337   5.170
 9758SOL     OW30172   2.009   1.174   0.419
 9758SOL    HW130173   1.991   1.246   0.485
 9758SOL    HW230174   2.032   1.215   0.331
 9759SOL     OW30175   0.985   1.938   0.547
 9759SOL    HW130176   0.915   1.902   0.609
 9759SOL    HW230177   0.979   2.038   0.545
 9760SOL     OW30178   4.890   3.268   6.241
 9760SOL    HW130179   4.858   3.296   6.331
 9760SOL    HW230180   4.814   3.227   6.190
 9761SOL     OW30181   1.196   2.493   2.525
 9761SOL    HW130182   1.117   2.529   2.575
 9761SOL    HW230183   1.191   2.521   2.429
 9762SOL     OW30184   3.332   1.452   4.676
 9762SOL    HW130185   3.324   1.537   4.624
 9762SOL    HW230186   3.289   1.463   4.765
 9763SOL     OW30187   5.844   0.869   3.436
 9763SOL    HW130188   5.923   0.822   3.475
 9763SOL    HW230189   5.876   0.944   3.378
 9764SOL     OW30190   6.701   2.470   2.182
 9764SOL    HW130191   6.621   2.527   2.203
 9764SOL    HW230192   6.713   2.402   2.255
 9765SOL     OW30193   6.910   0.151   2.804
 9765SOL    HW130194   6.936   0.225   2.742
 9765SOL    HW230195   6.952   0.065   2.772
 9766SOL     OW30196   2.177   6.790   2.843
 9766SOL    HW130197   2.089   6.784   2.795
 9766SOL    HW230198   2.249   6.752   2.784
 9767SOL     OW30199   2.542   2.731   5.258
 9767SOL    HW130200   2.466   2.679   5.219
 9767SOL    HW230201   2.526   2.828   5.245
 9768SOL     OW30202   4.470   1.410   1.297
 9768SOL    HW130203   4.558   1.406   1.249
 9768SOL    HW230204   4.476   1.477   1.371
 9769SOL     OW30205   3.807   0.792   4.747
 9769SOL    HW130206   3.752   0.720   4.789
 9769SOL    HW230207   3.830   0.766   4.653
 9770SOL     OW30208   3.822   1.381   5.360
 9770SOL    HW130209   3.803   1.361   5.264
 9770SOL    HW230210   3.742   1.360   5.416
 9771SOL     OW30211   2.170   6.115   0.999
 9771SOL    HW130212   2.217   6.028   1.012
 9771SOL    HW230213   2.162   6.135   0.901
 9772SOL     OW30214   2.160   6.278   1.442
 9772SOL    HW130215   2.178   6.296   1.346
 9772SOL    HW230216   2.141   6.181   1.456
 9773SOL     OW30217   5.417   5.671   3.503
 9773SOL    HW130218   5.379   5.656   3.594
 9773SOL    HW230219   5.361   5.625   3.435
 9774SOL     OW30220   0.458   5.511   2.850
 9774SOL    HW130221   0.491   5.606   2.848
 9774SOL    HW230222   0.506   5.460   2.921
 9775SOL     OW30223   2.926   0.011   3.774
 9775SOL    HW130224   2.861   0.049   3.841
 9775SOL    HW230225   2.895   0.033   3.682
 9776SOL     OW30226   1.346   3.870   5.884
 9776SOL    HW130227   1.352   3.784   5.834
 9776SOL    HW230228   1.371   3.946   5.825
 9777SOL     OW30229   5.240   6.067   0.884
 9777SOL    HW130230   5.304   6.126   0.934
 9777SOL    HW230231   5.241   5.975   0.924
 9778SOL     OW30232   6.881   1.602   4.936
 9778SOL    HW130233   6.785   1.620   4.956
 9778SOL    HW230234   6.904   1.509   4.966
 9779SOL     OW30235   0.148   2.392   3.790
 9779SOL    HW130236   0.075   2.407   3.723
 9779SOL    HW230237   0.176   2.296   3.788
 9780SOL     OW30238   2.160   2.064   1.032
 9780SOL    HW130239   2.169   2.032   1.126
 9780SOL    HW230240   2.065   2.090   1.014
 9781SOL     OW30241   2.162   3.223   4.419
 9781SOL    HW130242   2.165   3.284   4.340
 9781SOL    HW230243   2.142   3.276   4.501
 9782SOL     OW30244   0.621   1.500   0.377
 9782SOL    HW130245   0.687   1.425   0.372
 9782SOL    HW230246   0.539   1.477   0.325
 9783SOL     OW30247   4.527   2.491   3.387
 9783SOL    HW130248   4.471   2.436   3.325
 9783SOL    HW230249   4.594   2.542   3.333
 9784SOL     OW30250   3.869   0.706   5.871
 9784SOL    HW130251   3.935   0.673   5.938
 9784SOL    HW230252   3.850   0.634   5.804
 9785SOL     OW30253   6.332   2.406   5.438
 9785SOL    HW130254   6.241   2.366   5.447
 9785SOL    HW230255   6.385   2.388   5.522
 9786SOL     OW30256   2.813   3.465   0.692
 9786SOL    HW130257   2.718   3.439   0.680
 9786SOL    HW230258   2.850   3.499   0.605
 9787SOL     OW30259   3.180   3.649   3.292
 9787SOL    HW130260   3.233   3.565   3.282
 9787SOL    HW230261   3.151   3.658   3.388
 9788SOL     OW30262   0.683   0.235   1.880
 9788SOL    HW130263   0.650   0.168   1.947
 9788SOL    HW230264   0.610   0.258   1.816
 9789SOL     OW30265   1.976   6.500   6.964
 9789SOL    HW130266   2.022   6.450   6.891
 9789SOL    HW230267   2.039   6.567   7.003
 9790SOL     OW30268   6.467   4.359   5.981
 9790SOL    HW130269   6.456   4.441   5.925
 9790SOL    HW230270   6.498   4.283   5.924
 9791SOL     OW30271   0.367   0.514   6.788
 9791SOL    HW130272   0.316   0.550   6.867
 9791SOL    HW230273   0.374   0.414   6.795
 9792SOL     OW30274   3.424   5.211   0.759
 9792SOL    HW130275   3.395   5.221   0.664
 9792SOL    HW230276   3.512   5.164   0.762
 9793SOL     OW30277   4.280   0.124   2.593
 9793SOL    HW130278   4.318   0.057   2.657
 9793SOL    HW230279   4.312   0.216   2.617
 9794SOL     OW30280   6.347   4.562   5.230
 9794SOL    HW130281   6.402   4.499   5.284
 9794SOL    HW230282   6.404   4.638   5.199
 9795SOL     OW30283   1.396   3.236   4.331
 9795SOL    HW130284   1.314   3.238   4.275
 9795SOL    HW230285   1.477   3.237   4.272
 9796SOL     OW30286   4.040   3.743   3.080
 9796SOL    HW130287   3.994   3.790   3.005
 9796SOL    HW230288   4.050   3.805   3.158
 9797SOL     OW30289   1.826   5.365   6.957
 9797SOL    HW130290   1.904   5.304   6.943
 9797SOL    HW230291   1.830   5.440   6.892
 9798SOL     OW30292   2.608   0.893   2.100
 9798SOL    HW130293   2.573   0.828   2.167
 9798SOL    HW230294   2.552   0.889   2.017
 9799SOL     OW30295   2.926   3.948   5.810
 9799SOL    HW130296   2.992   3.932   5.736
 9799SOL    HW230297   2.893   4.043   5.805
 9800SOL     OW30298   5.527   4.699   4.224
 9800SOL    HW130299   5.486   4.656   4.144
 9800SOL    HW230300   5.502   4.648   4.306
 9801SOL     OW30301   4.968   4.492   0.292
 9801SOL    HW130302   4.870   4.484   0.272
 9801SOL    HW230303   4.981   4.503   0.391
 9802SOL     OW30304   4.649   5.179   0.522
 9802SOL    HW130305   4.648   5.086   0.485
 9802SOL    HW230306   4.632   5.176   0.620
 9803SOL     OW30307   1.795   3.382   6.310
 9803SOL    HW130308   1.728   3.369   6.236
 9803SOL    HW230309   1.885   3.351   6.279
 9804SOL     OW30310   0.561   6.035   2.970
 9804SOL    HW130311   0.500   6.054   3.047
 9804SOL    HW230312   0.513   6.052   2.884
 9805SOL     OW30313   0.490   6.809   3.562
 9805SOL    HW130314   0.544   6.726   3.549
 9805SOL    HW230315   0.496   6.866   3.480
 9806SOL     OW30316   1.301   1.382   6.937
 9806SOL    HW130317   1.288   1.351   6.843
 9806SOL    HW230318   1.376   1.331   6.978
 9807SOL     OW30319   3.249   3.827   1.385
 9807SOL    HW130320   3.198   3.771   1.320
 9807SOL    HW230321   3.311   3.888   1.335
 9808SOL     OW30322   3.780   5.671   4.617
 9808SOL    HW130323   3.714   5.698   4.687
 9808SOL    HW230324   3.742   5.690   4.526
 9809SOL     OW30325   0.445   3.780   0.175
 9809SOL    HW130326   0.411   3.687   0.160
 9809SOL    HW230327   0.383   3.829   0.237
 9810SOL     OW30328   3.351   2.142   4.446
 9810SOL    HW130329   3.351   2.219   4.509
 9810SOL    HW230330   3.260   2.101   4.443
 9811SOL     OW30331   5.973   4.704   3.758
 9811SOL    HW130332   6.016   4.636   3.818
 9811SOL    HW230333   5.873   4.701   3.771
 9812SOL     OW30334   3.083   1.843   5.365
 9812SOL    HW130335   3.048   1.806   5.279
 9812SOL    HW230336   3.104   1.941   5.353
 9813SOL     OW30337   5.245   1.817   1.074
 9813SOL    HW130338   5.303   1.880   1.021
 9813SOL    HW230339   5.206   1.865   1.152
 9814SOL     OW30340   6.217   0.901   0.168
 9814SOL    HW130341   6.310   0.937   0.158
 9814SOL    HW230342   6.172   0.899   0.078
 9815SOL     OW30343   4.544   2.629   4.397
 9815SOL    HW130344   4.482   2.550   4.397
 9815SOL    HW230345   4.638   2.597   4.401
 9816SOL     OW30346   0.569   1.580   6.127
 9816SOL    HW130347   0.482   1.608   6.167
 9816SOL    HW230348   0.573   1.609   6.031
 9817SOL     OW30349   1.232   0.290   3.456
 9817SOL    HW130350   1.145   0.316   3.499
 9817SOL    HW230351   1.301   0.277   3.527
 9818SOL     OW30352   6.472   2.032   4.427
 9818SOL    HW130353   6.527   2.073   4.499
 9818SOL    HW230354   6.441   2.103   4.364
 9819SOL     OW30355   4.902   3.094   3.610
 9819SOL    HW130356   4.893   3.149   3.692
 9819SOL    HW230357   4.900   2.997   3.634
 9820SOL     OW30358   4.001   3.185   6.662
 9820SOL    HW130359   4.029   3.096   6.625
 9820SOL    HW230360   4.081   3.236   6.691
 9821SOL     OW30361   6.017   1.180   6.706
 9821SOL    HW130362   6.040   1.277   6.713
 9821SOL    HW230363   5.975   1.149   6.791
 9822SOL     OW30364   1.596   6.925   3.616
 9822SOL    HW130365   1.587   0.005   3.623
 9822SOL    HW230366   1.664   6.893   3.682
 9823SOL     OW30367   3.702   6.943   0.992
 9823SOL    HW130368   3.632   6.910   1.054
 9823SOL    HW230369   3.780   6.979   1.044
 9824SOL     OW30370   1.853   4.647   4.961
 9824SOL    HW130371   1.831   4.720   5.027
 9824SOL    HW230372   1.921   4.586   5.001
 9825SOL     OW30373   3.785   5.112   6.034
 9825SOL    HW130374   3.758   5.129   5.939
 9825SOL    HW230375   3.706   5.075   6.084
 9826SOL     OW30376   4.993   4.940   6.146
 9826SOL    HW130377   5.080   4.925   6.193
 9826SOL    HW230378   5.010   4.986   6.059
 9827SOL     OW30379   2.143   3.348   3.904
 9827SOL    HW130380   2.148   3.446   3.884
 9827SOL    HW230381   2.054   3.313   3.876
 9828SOL     OW30382   2.304   3.110   6.380
 9828SOL    HW130383   2.386   3.124   6.436
 9828SOL    HW230384   2.296   3.185   6.314
 9829SOL     OW30385   2.651   6.002   0.409
 9829SOL    HW130386   2.733   6.020   0.463
 9829SOL    HW230387   2.586   6.078   0.419
 9830SOL     OW30388   5.417   2.512   1.812
 9830SOL    HW130389   5.350   2.585   1.800
 9830SOL    HW230390   5.372   2.423   1.803
 9831SOL     OW30391   1.870   6.015   0.752
 9831SOL    HW130392   1.879   6.019   0.851
 9831SOL    HW230393   1.852   5.920   0.724
 9832SOL     OW30394   5.035   5.828   2.558
 9832SOL    HW130395   5.059   5.905   2.498
 9832SOL    HW230396   5.079   5.840   2.647
 9833SOL     OW30397   3.731   2.939   4.870
 9833SOL    HW130398   3.638   2.903   4.864
 9833SOL    HW230399   3.781   2.889   4.941
 9834SOL     OW30400   3.332   4.397   5.468
 9834SOL    HW130401   3.269   4.330   5.430
 9834SOL    HW230402   3.398   4.425   5.398
 9835SOL     OW30403   3.623   2.550   5.859
 9835SOL    HW130404   3.631   2.500   5.945
 9835SOL    HW230405   3.616   2.484   5.783
 9836SOL     OW30406   6.077   4.531   3.915
 9836SOL    HW130407   6.023   4.452   3.887
 9836SOL    HW230408   6.170   4.523   3.878
 9837SOL     OW30409   3.212   0.035   2.799
 9837SOL    HW130410   3.222   0.086   2.884
 9837SOL    HW230411   3.177   0.095   2.727
 9838SOL     OW30412   0.647   6.610   5.795
 9838SOL    HW130413   0.708   6.632   5.871
 9838SOL    HW230414   0.559   6.579   5.832
 9839SOL     OW30415   5.801   1.116   3.314
 9839SOL    HW130416   5.729   1.179   3.343
 9839SOL    HW230417   5.767   1.061   3.237
 9840SOL     OW30418   0.607   1.113   1.631
 9840SOL    HW130419   0.672   1.169   1.579
 9840SOL    HW230420   0.522   1.105   1.581
 9841SOL     OW30421   1.720   3.704   4.666
 9841SOL    HW130422   1.774   3.625   4.636
 9841SOL    HW230423   1.626   3.695   4.633
 9842SOL     OW30424   4.149   3.641   2.795
 9842SOL    HW130425   4.142   3.573   2.868
 9842SOL    HW230426   4.113   3.728   2.827
 9843SOL     OW30427   5.912   0.986   0.968
 9843SOL    HW130428   5.993   0.944   1.008
 9843SOL    HW230429   5.934   1.080   0.940
 9844SOL     OW30430   5.853   0.631   2.265
 9844SOL    HW130431   5.862   0.717   2.314
 9844SOL    HW230432   5.874   0.645   2.168
 9845SOL     OW30433   3.042   1.394   3.224
 9845SOL    HW130434   2.974   1.327   3.254
 9845SOL    HW230435   3.063   1.378   3.127
 9846SOL     OW30436   4.106   3.428   1.703
 9846SOL    HW130437   4.024   3.463   1.657
 9846SOL    HW230438   4.164   3.504   1.730
 9847SOL     OW30439   3.188   3.053   4.771
 9847SOL    HW130440   3.247   3.019   4.698
 9847SOL    HW230441   3.230   3.035   4.860
 9848SOL     OW30442   3.353   2.769   6.165
 9848SOL    HW130443   3.322   2.707   6.093
 9848SOL    HW230444   3.354   2.863   6.130
 9849SOL     OW30445   0.047   0.092   0.402
 9849SOL    HW130446   6.990   0.033   0.427
 9849SOL    HW230447   0.084   0.135   0.483
 9850SOL     OW30448   6.099   6.921   3.523
 9850SOL    HW130449   6.043   7.000   3.497
 9850SOL    HW230450   6.046   6.837   3.510
 9851SOL     OW30451   4.842   1.878   5.396
 9851SOL    HW130452   4.926   1.919   5.430
 9851SOL    HW230453   4.828   1.905   5.300
 9852SOL     OW30454   4.264   2.324   2.693
 9852SOL    HW130455   4.219   2.365   2.614
 9852SOL    HW230456   4.280   2.227   2.676
 9853SOL     OW30457   4.916   4.823   3.983
 9853SOL    HW130458   4.898   4.845   4.079
 9853SOL    HW230459   4.994   4.875   3.950
 9854SOL     OW30460   0.688   5.803   4.559
 9854SOL    HW130461   0.619   5.735   4.584
 9854SOL    HW230462   0.761   5.759   4.507
 9855SOL     OW30463   2.201   3.858   0.972
 9855SOL    HW130464   2.294   3.889   0.992
 9855SOL    HW230465   2.135   3.924   1.008
 9856SOL     OW30466   4.879   3.834   6.166
 9856SOL    HW130467   4.902   3.820   6.263
 9856SOL    HW230468   4.781   3.851   6.158
 9857SOL     OW30469   4.612   2.156   4.009
 9857SOL    HW130470   4.522   2.190   3.984
 9857SOL    HW230471   4.639   2.194   4.097
 9858SOL     OW30472   0.340   0.958   1.162
 9858SOL    HW130473   0.408   0.981   1.093
 9858SOL    HW230474   0.268   0.902   1.120
 9859SOL     OW30475   5.769   6.880   2.213
 9859SOL    HW130476   5.740   6.972   2.236
 9859SOL    HW230477   5.736   6.816   2.283
 9860SOL     OW30478   0.231   1.498   3.375
 9860SOL    HW130479   0.181   1.411   3.370
 9860SOL    HW230480   0.262   1.522   3.283
 9861SOL     OW30481   3.507   6.843   3.012
 9861SOL    HW130482   3.497   6.882   2.920
 9861SOL    HW230483   3.603   6.851   3.041
 9862SOL     OW30484   3.108   4.270   0.468
 9862SOL    HW130485   3.061   4.330   0.533
 9862SOL    HW230486   3.069   4.281   0.377
 9863SOL     OW30487   3.774   0.221   3.449
 9863SOL    HW130488   3.776   0.253   3.354
 9863SOL    HW230489   3.858   0.248   3.495
 9864SOL     OW30490   3.656   6.102   4.053
 9864SOL    HW130491   3.659   6.169   3.979
 9864SOL    HW230492   3.648   6.150   4.141
 9865SOL     OW30493   1.459   0.782   3.698
 9865SOL    HW130494   1.488   0.770   3.793
 9865SOL    HW230495   1.481   0.874   3.667
 9866SOL     OW30496   5.267   4.782   5.983
 9866SOL    HW130497   5.202   4.783   5.908
 9866SOL    HW230498   5.229   4.833   6.061
 9867SOL     OW30499   5.654   0.853   0.690
 9867SOL    HW130500   5.575   0.809   0.648
 9867SOL    HW230501   5.637   0.870   0.787
 9868SOL     OW30502   0.872   3.993   5.243
 9868SOL    HW130503   0.953   4.051   5.248
 9868SOL    HW230504   0.858   3.948   5.332
 9869SOL     OW30505   1.615   3.095   2.464
 9869SOL    HW130506   1.617   3.193   2.484
 9869SOL    HW230507   1.625   3.044   2.549
 9870SOL     OW30508   3.920   5.961   2.689
 9870SOL    HW130509   3.853   6.022   2.732
 9870SOL    HW230510   3.877   5.915   2.612
 9871SOL     OW30511   0.105   6.270   6.220
 9871SOL    HW130512   0.057   6.311   6.297
 9871SOL    HW230513   0.192   6.232   6.251
 9872SOL     OW30514   2.342   4.762   4.415
 9872SOL    HW130515   2.251   4.721   4.417
 9872SOL    HW230516   2.400   4.717   4.483
 9873SOL     OW30517   3.004   2.169   0.743
 9873SOL    HW130518   2.997   2.073   0.714
 9873SOL    HW230519   3.091   2.207   0.711
 9874SOL     OW30520   0.862   3.501   4.297
 9874SOL    HW130521   0.916   3.495   4.213
 9874SOL    HW230522   0.913   3.552   4.366
 9875SOL     OW30523   6.441   6.728   1.962
 9875SOL    HW130524   6.470   6.641   1.923
 9875SOL    HW230525   6.441   6.798   1.890
 9876SOL     OW30526   6.680   0.975   3.124
 9876SOL    HW130527   6.724   0.923   3.197
 9876SOL    HW230528   6.672   1.071   3.152
 9877SOL     OW30529   0.455   6.276   3.585
 9877SOL    HW130530   0.519   6.273   3.661
 9877SOL    HW230531   0.506   6.274   3.498
 9878SOL     OW30532   2.811   4.864   5.164
 9878SOL    HW130533   2.887   4.845   5.226
 9878SOL    HW230534   2.787   4.780   5.114
 9879SOL     OW30535   5.282   5.598   4.722
 9879SOL    HW130536   5.370   5.579   4.767
 9879SOL    HW230537   5.268   5.533   4.648
 9880SOL     OW30538   2.616   1.063   5.465
 9880SOL    HW130539   2.695   1.122   5.484
 9880SOL    HW230540   2.544   1.082   5.532
 9881SOL     OW30541   0.943   1.369   4.754
 9881SOL    HW130542   1.003   1.385   4.832
 9881SOL    HW230543   0.958   1.440   4.685
 9882SOL     OW30544   1.153   3.255   3.739
 9882SOL    HW130545   1.148   3.164   3.779
 9882SOL    HW230546   1.217   3.311   3.793
 9883SOL     OW30547   1.185   6.376   0.128
 9883SOL    HW130548   1.229   6.394   0.040
 9883SOL    HW230549   1.182   6.277   0.144
 9884SOL     OW30550   4.935   2.067   2.452
 9884SOL    HW130551   4.909   2.138   2.517
 9884SOL    HW230552   5.032   2.044   2.465
 9885SOL     OW30553   6.869   2.434   4.949
 9885SOL    HW130554   6.948   2.428   4.889
 9885SOL    HW230555   6.865   2.353   5.008
 9886SOL     OW30556   1.306   4.236   2.470
 9886SOL    HW130557   1.237   4.293   2.424
 9886SOL    HW230558   1.396   4.257   2.434
 9887SOL     OW30559   3.503   0.582   5.451
 9887SOL    HW130560   3.443   0.616   5.379
 9887SOL    HW230561   3.475   0.489   5.475
 9888SOL     OW30562   5.953   4.544   2.665
 9888SOL    HW130563   5.978   4.501   2.752
 9888SOL    HW230564   5.932   4.640   2.681
 9889SOL     OW30565   0.081   4.905   1.404
 9889SOL    HW130566   0.170   4.865   1.429
 9889SOL    HW230567   0.026   4.917   1.487
 9890SOL     OW30568   1.784   2.227   0.678
 9890SOL    HW130569   1.816   2.229   0.773
 9890SOL    HW230570   1.862   2.218   0.617
 9891SOL     OW30571   4.958   3.715   2.256
 9891SOL    HW130572   4.910   3.633   2.224
 9891SOL    HW230573   5.055   3.708   2.233
 9892SOL     OW30574   6.975   5.084   0.724
 9892SOL    HW130575   6.931   5.005   0.681
 9892SOL    HW230576   6.975   5.072   0.824
 9893SOL     OW30577   0.771   0.274   1.011
 9893SOL    HW130578   0.825   0.356   0.993
 9893SOL    HW230579   0.814   0.221   1.084
 9894SOL     OW30580   2.981   2.233   1.234
 9894SOL    HW130581   2.940   2.324   1.238
 9894SOL    HW230582   2.986   2.195   1.327
 9895SOL     OW30583   6.142   4.746   4.556
 9895SOL    HW130584   6.203   4.825   4.560
 9895SOL    HW230585   6.049   4.776   4.534
 9896SOL     OW30586   6.758   0.674   6.351
 9896SOL    HW130587   6.699   0.734   6.406
 9896SOL    HW230588   6.850   0.713   6.346
 9897SOL     OW30589   5.849   6.088   2.866
 9897SOL    HW130590   5.934   6.138   2.850
 9897SOL    HW230591   5.838   6.070   2.964
 9898SOL     OW30592   1.650   5.751   4.518
 9898SOL    HW130593   1.593   5.805   4.456
 9898SOL    HW230594   1.678   5.807   4.596
 9899SOL     OW30595   1.112   5.788   0.631
 9899SOL    HW130596   1.053   5.828   0.702
 9899SOL    HW230597   1.179   5.727   0.675
 9900SOL     OW30598   1.856   2.804   3.212
 9900SOL    HW130599   1.785   2.746   3.254
 9900SOL    HW230600   1.938   2.749   3.196
 9901SOL     OW30601   2.555   0.564   6.743
 9901SOL    HW130602   2.597   0.629   6.680
 9901SOL    HW230603   2.605   0.564   6.830
 9902SOL     OW30604   3.527   4.782   1.117
 9902SOL    HW130605   3.484   4.866   1.149
 9902SOL    HW230606   3.524   4.779   1.017
 9903SOL     OW30607   5.579   2.340   1.531
 9903SOL    HW130608   5.572   2.435   1.560
 9903SOL    HW230609   5.660   2.299   1.572
 9904SOL     OW30610   1.230   3.799   6.475
 9904SOL    HW130611   1.166   3.816   6.550
 9904SOL    HW230612   1.246   3.885   6.426
 9905SOL     OW30613   1.841   0.345   6.269
 9905SOL    HW130614   1.809   0.314   6.358
 9905SOL    HW230615   1.940   0.356   6.271
 9906SOL     OW30616   2.140   3.535   1.659
 9906SOL    HW130617   2.183   3.509   1.745
 9906SOL    HW230618   2.146   3.460   1.594
 9907SOL     OW30619   0.564   7.010   1.196
 9907SOL    HW130620   0.551   6.985   1.100
 9907SOL    HW230621   0.638   6.955   1.235
 9908SOL     OW30622   6.030   1.736   4.862
 9908SOL    HW130623   5.946   1.783   4.886
 9908SOL    HW230624   6.022   1.639   4.884
 9909SOL     OW30625   4.625   1.584   2.869
 9909SOL    HW130626   4.663   1.499   2.832
 9909SOL    HW230627   4.540   1.606   2.823
 9910SOL     OW30628   1.410   5.074   1.969
 9910SOL    HW130629   1.429   5.002   1.902
 9910SOL    HW230630   1.468   5.061   2.049
 9911SOL     OW30631   2.342   6.056   1.753
 9911SOL    HW130632   2.270   6.124   1.740
 9911SOL    HW230633   2.425   6.101   1.786
 9912SOL     OW30634   3.831   0.610   1.441
 9912SOL    HW130635   3.762   0.538   1.444
 9912SOL    HW230636   3.794   0.694   1.482
 9913SOL     OW30637   6.340   3.841   1.050
 9913SOL    HW130638   6.383   3.826   1.139
 9913SOL    HW230639   6.293   3.758   1.021
 9914SOL     OW30640   6.072   1.244   5.232
 9914SOL    HW130641   6.141   1.316   5.230
 9914SOL    HW230642   6.018   1.251   5.316
 9915SOL     OW30643   5.786   0.887   3.796
 9915SOL    HW130644   5.874   0.887   3.749
 9915SOL    HW230645   5.714   0.860   3.732
 9916SOL     OW30646   2.244   1.903   2.530
 9916SOL    HW130647   2.231   1.824   2.471
 9916SOL    HW230648   2.304   1.970   2.485
 9917SOL     OW30649   5.055   4.656   6.596
 9917SOL    HW130650   5.054   4.556   6.601
 9917SOL    HW230651   5.149   4.689   6.604
 9918SOL     OW30652   2.906   1.808   3.077
 9918SOL    HW130653   2.988   1.819   3.021
 9918SOL    HW230654   2.929   1.820   3.173
 9919SOL     OW30655   0.892   5.272   0.872
 9919SOL    HW130656   0.827   5.195   0.874
 9919SOL    HW230657   0.856   5.346   0.928
 9920SOL     OW30658   5.452   1.741   2.184
 9920SOL    HW130659   5.446   1.809   2.257
 9920SOL    HW230660   5.388   1.766   2.111
 9921SOL     OW30661   4.073   6.832   5.065
 9921SOL    HW130662   4.011   6.796   4.995
 9921SOL    HW230663   4.168   6.814   5.038
 9922SOL     OW30664   2.342   4.429   0.770
 9922SOL    HW130665   2.303   4.345   0.734
 9922SOL    HW230666   2.272   4.500   0.775
 9923SOL     OW30667   5.687   5.022   6.744
 9923SOL    HW130668   5.718   4.956   6.813
 9923SOL    HW230669   5.764   5.078   6.714
 9924SOL     OW30670   6.574   1.553   3.773
 9924SOL    HW130671   6.547   1.463   3.740
 9924SOL    HW230672   6.576   1.618   3.697
 9925SOL     OW30673   0.233   4.036   4.039
 9925SOL    HW130674   0.259   4.128   4.068
 9925SOL    HW230675   0.217   3.979   4.120
 9926SOL     OW30676   4.369   3.119   1.383
 9926SOL    HW130677   4.279   3.075   1.380
 9926SOL    HW230678   4.439   3.056   1.349
 9927SOL     OW30679   0.540   0.155   0.559
 9927SOL    HW130680   0.590   0.163   0.473
 9927SOL    HW230681   0.602   0.175   0.635
 9928SOL     OW30682   5.066   4.919   3.261
 9928SOL    HW130683   5.126   4.974   3.203
 9928SOL    HW230684   5.112   4.834   3.285
 9929SOL     OW30685   3.625   4.170   5.147
 9929SOL    HW130686   3.643   4.086   5.096
 9929SOL    HW230687   3.526   4.186   5.151
 9930SOL     OW30688   6.329   6.408   4.981
 9930SOL    HW130689   6.258   6.383   5.047
 9930SOL    HW230690   6.408   6.348   4.993
 9931SOL     OW30691   0.514   5.590   4.412
 9931SOL    HW130692   0.610   5.570   4.392
 9931SOL    HW230693   0.477   5.648   4.339
 9932SOL     OW30694   3.263   3.085   6.197
 9932SOL    HW130695   3.320   3.076   6.115
 9932SOL    HW230696   3.225   3.177   6.201
 9933SOL     OW30697   0.691   5.785   3.479
 9933SOL    HW130698   0.666   5.749   3.389
 9933SOL    HW230699   0.635   5.740   3.549
 9934SOL     OW30700   6.445   2.318   5.684
 9934SOL    HW130701   6.408   2.299   5.775
 9934SOL    HW230702   6.494   2.237   5.651
 9935SOL     OW30703   3.014   6.358   0.298
 9935SOL    HW130704   3.026   6.435   0.236
 9935SOL    HW230705   2.972   6.389   0.384
 9936SOL     OW30706   6.725   5.015   6.987
 9936SOL    HW130707   6.733   4.916   6.987
 9936SOL    HW230708   6.811   5.056   6.955
 9937SOL     OW30709   0.259   1.409   1.608
 9937SOL    HW130710   0.159   1.415   1.605
 9937SOL    HW230711   0.298   1.470   1.539
 9938SOL     OW30712   6.728   5.103   3.487
 9938SOL    HW130713   6.785   5.164   3.542
 9938SOL    HW230714   6.709   5.019   3.538
 9939SOL     OW30715   4.164   2.421   1.450
 9939SOL    HW130716   4.140   2.330   1.483
 9939SOL    HW230717   4.264   2.428   1.442
 9940SOL     OW30718   0.916   0.506   1.059
 9940SOL    HW130719   0.996   0.549   1.019
 9940SOL    HW230720   0.944   0.443   1.132
 9941SOL     OW30721   3.577   3.191   4.807
 9941SOL    HW130722   3.661   3.236   4.777
 9941SOL    HW230723   3.592   3.092   4.811
 9942SOL     OW30724   2.555   5.686   2.586
 9942SOL    HW130725   2.482   5.734   2.537
 9942SOL    HW230726   2.550   5.711   2.683
 9943SOL     OW30727   0.345   4.342   5.760
 9943SOL    HW130728   0.265   4.335   5.699
 9943SOL    HW230729   0.316   4.329   5.854
 9944SOL     OW30730   0.868   4.423   6.666
 9944SOL    HW130731   0.914   4.510   6.686
 9944SOL    HW230732   0.788   4.413   6.724
 9945SOL     OW30733   4.677   5.475   6.636
 9945SOL    HW130734   4.610   5.446   6.704
 9945SOL    HW230735   4.745   5.403   6.622
 9946SOL     OW30736   6.372   0.447   3.112
 9946SOL    HW130737   6.365   0.356   3.070
 9946SOL    HW230738   6.425   0.507   3.052
 9947SOL     OW30739   2.025   2.455   4.707
 9947SOL    HW130740   2.093   2.513   4.751
 9947SOL    HW230741   2.071   2.386   4.650
 9948SOL     OW30742   5.998   4.362   5.750
 9948SOL    HW130743   5.914   4.308   5.751
 9948SOL    HW230744   6.044   4.351   5.662
 9949SOL     OW30745   6.885   5.474   4.308
 9949SOL    HW130746   6.975   5.484   4.352
 9949SOL    HW230747   6.888   5.399   4.243
 9950SOL     OW30748   5.564   5.975   5.864
 9950SOL    HW130749   5.469   5.999   5.885
 9950SOL    HW230750   5.625   6.026   5.923
 9951SOL     OW30751   7.015   1.310   3.991
 9951SOL    HW130752   0.026   1.358   3.909
 9951SOL    HW230753   0.063   1.322   4.064
 9952SOL     OW30754   1.207   4.650   0.563
 9952SOL    HW130755   1.238   4.567   0.517
 9952SOL    HW230756   1.222   4.728   0.502
 9953SOL     OW30757   5.363   2.667   4.251
 9953SOL    HW130758   5.327   2.693   4.341
 9953SOL    HW230759   5.414   2.582   4.258
 9954SOL     OW30760   0.473   0.289   6.030
 9954SOL    HW130761   0.436   0.273   5.939
 9954SOL    HW230762   0.548   0.355   6.026
 9955SOL     OW30763   5.794   2.948   5.488
 9955SOL    HW130764   5.751   3.038   5.497
 9955SOL    HW230765   5.753   2.886   5.555
 9956SOL     OW30766   1.349   6.510   1.679
 9956SOL    HW130767   1.298   6.532   1.595
 9956SOL    HW230768   1.367   6.595   1.729
 9957SOL     OW30769   5.430   6.162   2.700
 9957SOL    HW130770   5.461   6.082   2.751
 9957SOL    HW230771   5.336   6.184   2.728
 9958SOL     OW30772   2.628   5.569   0.059
 9958SOL    HW130773   2.577   5.594   0.141
 9958SOL    HW230774   2.616   5.471   0.041
 9959SOL     OW30775   4.021   3.924   4.801
 9959SOL    HW130776   4.009   3.905   4.899
 9959SOL    HW230777   4.012   4.022   4.785
 9960SOL     OW30778   0.391   0.328   2.088
 9960SOL    HW130779   0.342   0.367   2.166
 9960SOL    HW230780   0.358   0.370   2.004
 9961SOL     OW30781   1.580   5.299   4.472
 9961SOL    HW130782   1.599   5.210   4.432
 9961SOL    HW230783   1.545   5.287   4.565
 9962SOL     OW30784   5.574   5.913   1.655
 9962SOL    HW130785   5.651   5.934   1.714
 9962SOL    HW230786   5.522   5.996   1.636
 9963SOL     OW30787   2.739   3.547   6.687
 9963SOL    HW130788   2.803   3.521   6.614
 9963SOL    HW230789   2.696   3.634   6.664
 9964SOL     OW30790   5.613   4.435   5.869
 9964SOL    HW130791   5.550   4.358   5.880
 9964SOL    HW230792   5.655   4.457   5.957
 9965SOL     OW30793   3.994   6.501   6.580
 9965SOL    HW130794   4.042   6.504   6.492
 9965SOL    HW230795   3.945   6.587   6.594
 9966SOL     OW30796   2.006   5.758   2.269
 9966SOL    HW130797   1.929   5.694   2.270
 9966SOL    HW230798   2.083   5.716   2.222
 9967SOL     OW30799   6.012   6.824   2.098
 9967SOL    HW130800   6.059   6.907   2.068
 9967SOL    HW230801   5.917   6.847   2.119
 9968SOL     OW30802   3.102   3.746   6.707
 9968SOL    HW130803   3.018   3.795   6.730
 9968SOL    HW230804   3.156   3.733   6.791
 9969SOL     OW30805   1.814   2.487   3.582
 9969SOL    HW130806   1.748   2.545   3.631
 9969SOL    HW230807   1.765   2.421   3.526
 9970SOL     OW30808   5.408   4.141   2.774
 9970SOL    HW130809   5.323   4.123   2.823
 9970SOL    HW230810   5.438   4.058   2.728
 9971SOL     OW30811   2.730   5.181   0.560
 9971SOL    HW130812   2.679   5.109   0.513
 9971SOL    HW230813   2.670   5.226   0.627
 9972SOL     OW30814   3.964   4.619   1.488
 9972SOL    HW130815   4.045   4.669   1.457
 9972SOL    HW230816   3.918   4.578   1.410
 9973SOL     OW30817   4.286   2.284   4.210
 9973SOL    HW130818   4.191   2.296   4.181
 9973SOL    HW230819   4.344   2.270   4.130
 9974SOL     OW30820   6.875   3.047   3.559
 9974SOL    HW130821   6.777   3.067   3.568
 9974SOL    HW230822   6.887   2.953   3.526
 9975SOL     OW30823   6.346   4.930   6.760
 9975SOL    HW130824   6.318   5.026   6.760
 9975SOL    HW230825   6.284   4.877   6.702
 9976SOL     OW30826   1.259   6.454   5.361
 9976SOL    HW130827   1.167   6.433   5.328
 9976SOL    HW230828   1.263   6.550   5.389
 9977SOL     OW30829   0.110   5.293   5.238
 9977SOL    HW130830   0.184   5.311   5.302
 9977SOL    HW230831   0.143   5.303   5.144
 9978SOL     OW30832   6.749   3.148   2.974
 9978SOL    HW130833   6.683   3.073   2.961
 9978SOL    HW230834   6.816   3.147   2.900
 9979SOL     OW30835   6.080   4.727   5.584
 9979SOL    HW130836   6.038   4.693   5.668
 9979SOL    HW230837   6.086   4.654   5.516
 9980SOL     OW30838   1.773   1.527   5.868
 9980SOL    HW130839   1.798   1.431   5.853
 9980SOL    HW230840   1.679   1.542   5.836
 9981SOL     OW30841   2.359   1.949   1.869
 9981SOL    HW130842   2.383   2.045   1.854
 9981SOL    HW230843   2.260   1.941   1.886
 9982SOL     OW30844   0.203   0.435   3.500
 9982SOL    HW130845   0.294   0.414   3.535
 9982SOL    HW230846   0.146   0.468   3.575
 9983SOL     OW30847   0.385   2.683   3.602
 9983SOL    HW130848   0.369   2.656   3.507
 9983SOL    HW230849   0.452   2.757   3.604
 9984SOL     OW30850   1.875   0.922   0.507
 9984SOL    HW130851   1.951   0.863   0.536
 9984SOL    HW230852   1.910   1.008   0.472
 9985SOL     OW30853   2.343   1.189   1.323
 9985SOL    HW130854   2.401   1.261   1.363
 9985SOL    HW230855   2.249   1.223   1.314
 9986SOL     OW30856   5.415   4.251   5.929
 9986SOL    HW130857   5.356   4.298   5.995
 9986SOL    HW230858   5.366   4.239   5.843
 9987SOL     OW30859   6.728   2.849   3.869
 9987SOL    HW130860   6.745   2.762   3.917
 9987SOL    HW230861   6.808   2.874   3.816
 9988SOL     OW30862   0.354   5.308   5.356
 9988SOL    HW130863   0.419   5.363   5.408
 9988SOL    HW230864   0.403   5.232   5.311
 9989SOL     OW30865   6.549   3.973   3.415
 9989SOL    HW130866   6.452   3.951   3.411
 9989SOL    HW230867   6.592   3.952   3.327
 9990SOL     OW30868   2.685   5.667   1.840
 9990SOL    HW130869   2.676   5.659   1.741
 9990SOL    HW230870   2.617   5.609   1.885
 9991SOL     OW30871   2.107   2.601   3.962
 9991SOL    HW130872   2.128   2.512   4.003
 9991SOL    HW230873   2.179   2.666   3.986
 9992SOL     OW30874   5.387   4.997   0.623
 9992SOL    HW130875   5.400   5.086   0.668
 9992SOL    HW230876   5.297   4.996   0.579
 9993SOL     OW30877   3.626   0.603   0.907
 9993SOL    HW130878   3.683   0.526   0.936
 9993SOL    HW230879   3.548   0.611   0.969
 9994SOL     OW30880   7.005   5.052   3.301
 9994SOL    HW130881   6.910   5.025   3.282
 9994SOL    HW230882   7.008   5.148   3.326
 9995SOL     OW30883   4.705   1.362   2.729
 9995SOL    HW130884   4.769   1.287   2.747
 9995SOL    HW230885   4.712   1.389   2.633
 9996SOL     OW30886   2.452   2.982   1.306
 9996SOL    HW130887   2.497   2.913   1.250
 9996SOL    HW230888   2.393   2.937   1.374
 9997SOL     OW30889   3.354   1.917   0.731
 9997SOL    HW130890   3.292   1.870   0.668
 9997SOL    HW230891   3.346   2.015   0.718
 9998SOL     OW30892   5.620   4.368   0.271
 9998SOL    HW130893   5.665   4.287   0.308
 9998SOL    HW230894   5.687   4.441   0.258
 9999SOL     OW30895   0.351   2.689   5.462
 9999SOL    HW130896   0.331   2.635   5.380
 9999SOL    HW230897   0.430   2.649   5.510
10000SOL     OW30898   6.958   3.913   6.839
10000SOL    HW130899   6.982   3.938   6.746
10000SOL    HW230900   6.873   3.861   6.839
10001SOL     OW30901   4.560   0.452   2.455
10001SOL    HW130902   4.620   0.427   2.530
10001SOL    HW230903   4.536   0.371   2.402
10002SOL     OW30904   1.917   6.895   2.496
10002SOL    HW130905   1.875   6.883   2.406
10002SOL    HW230906   2.015   6.879   2.489
10003SOL     OW30907   3.741   1.162   3.296
10003SOL    HW130908   3.704   1.147   3.204
10003SOL    HW230909   3.823   1.107   3.307
10004SOL     OW30910   5.716   2.273   3.988
10004SOL    HW130911   5.714   2.202   4.058
10004SOL    HW230912   5.623   2.293   3.958
10005SOL     OW30913   5.134   0.646   4.394
10005SOL    HW130914   5.166   0.738   4.375
10005SOL    HW230915   5.211   0.582   4.389
10006SOL     OW30916   5.468   6.145   4.016
10006SOL    HW130917   5.483   6.187   4.105
10006SOL    HW230918   5.464   6.045   4.026
10007SOL     OW30919   0.175   4.991   5.561
10007SOL    HW130920   0.130   5.065   5.511
10007SOL    HW230921   0.116   4.961   5.636
10008SOL     OW30922   4.188   1.249   4.481
10008SOL    HW130923   4.286   1.267   4.473
10008SOL    HW230924   4.171   1.185   4.556
10009SOL     OW30925   1.908   3.703   1.711
10009SOL    HW130926   1.983   3.644   1.679
10009SOL    HW230927   1.941   3.797   1.721
10010SOL     OW30928   2.183   0.857   5.638
10010SOL    HW130929   2.127   0.932   5.601
10010SOL    HW230930   2.267   0.849   5.583
10011SOL     OW30931   5.048   1.417   5.314
10011SOL    HW130932   5.109   1.482   5.267
10011SOL    HW230933   4.993   1.467   5.381
10012SOL     OW30934   6.117   1.395   3.282
10012SOL    HW130935   6.138   1.490   3.259
10012SOL    HW230936   6.030   1.369   3.241
10013SOL     OW30937   0.463   1.080   3.244
10013SOL    HW130938   0.532   1.149   3.266
10013SOL    HW230939   0.392   1.080   3.315
10014SOL     OW30940   6.747   3.819   0.698
10014SOL    HW130941   6.804   3.745   0.734
10014SOL    HW230942   6.802   3.902   0.690
10015SOL     OW30943   2.476   4.217   0.296
10015SOL    HW130944   2.526   4.259   0.372
10015SOL    HW230945   2.413   4.284   0.257
10016SOL     OW30946   1.164   0.671   6.485
10016SOL    HW130947   1.261   0.671   6.459
10016SOL    HW230948   1.153   0.720   6.571
10017SOL     OW30949   2.831   1.245   3.311
10017SOL    HW130950   2.770   1.211   3.383
10017SOL    HW230951   2.790   1.228   3.222
10018SOL     OW30952   4.553   0.266   5.514
10018SOL    HW130953   4.646   0.299   5.530
10018SOL    HW230954   4.493   0.343   5.495
10019SOL     OW30955   0.074   2.202   3.033
10019SOL    HW130956   0.156   2.184   2.979
10019SOL    HW230957   0.097   2.203   3.130
10020SOL     OW30958   1.422   2.282   1.399
10020SOL    HW130959   1.380   2.191   1.397
10020SOL    HW230960   1.410   2.322   1.490
10021SOL     OW30961   6.717   2.782   1.557
10021SOL    HW130962   6.808   2.825   1.555
10021SOL    HW230963   6.726   2.685   1.534
10022SOL     OW30964   2.937   1.123   5.917
10022SOL    HW130965   2.892   1.177   5.989
10022SOL    HW230966   2.999   1.057   5.959
10023SOL     OW30967   0.772   5.266   6.947
10023SOL    HW130968   0.855   5.232   6.903
10023SOL    HW230969   0.694   5.251   6.887
10024SOL     OW30970   2.468   6.197   2.142
10024SOL    HW130971   2.391   6.135   2.125
10024SOL    HW230972   2.435   6.292   2.137
10025SOL     OW30973   1.455   2.214   1.129
10025SOL    HW130974   1.366   2.237   1.089
10025SOL    HW230975   1.465   2.260   1.217
10026SOL     OW30976   5.688   6.636   3.606
10026SOL    HW130977   5.787   6.645   3.595
10026SOL    HW230978   5.668   6.608   3.701
10027SOL     OW30979   6.414   4.051   4.728
10027SOL    HW130980   6.376   4.059   4.820
10027SOL    HW230981   6.511   4.078   4.729
10028SOL     OW30982   1.509   0.840   2.208
10028SOL    HW130983   1.527   0.932   2.173
10028SOL    HW230984   1.412   0.831   2.228
10029SOL     OW30985   5.123   1.620   4.913
10029SOL    HW130986   5.219   1.627   4.940
10029SOL    HW230987   5.094   1.524   4.915
10030SOL     OW30988   2.116   7.003   3.643
10030SOL    HW130989   2.049   0.057   3.653
10030SOL    HW230990   2.107   6.962   3.552
10031SOL     OW30991   5.671   4.949   5.008
10031SOL    HW130992   5.597   4.966   5.073
10031SOL    HW230993   5.708   4.857   5.022
10032SOL     OW30994   2.638   1.848   4.541
10032SOL    HW130995   2.689   1.764   4.522
10032SOL    HW230996   2.594   1.841   4.631
10033SOL     OW30997   6.436   2.974   4.477
10033SOL    HW130998   6.355   2.943   4.526
10033SOL    HW230999   6.440   2.930   4.387
10034SOL     OW31000   3.645   0.444   4.107
10034SOL    HW131001   3.730   0.485   4.074
10034SOL    HW231002   3.628   0.472   4.201
10035SOL     OW31003   6.485   4.866   1.696
10035SOL    HW131004   6.491   4.934   1.624
10035SOL    HW231005   6.543   4.787   1.672
10036SOL     OW31006   5.842   2.358   1.264
10036SOL    HW131007   5.756   2.402   1.242
10036SOL    HW231008   5.825   2.278   1.321
10037SOL     OW31009   0.419   1.429   0.225
10037SOL    HW131010   0.409   1.466   0.132
10037SOL    HW231011   0.348   1.361   0.242
10038SOL     OW31012   5.600   0.776   6.961
10038SOL    HW131013   5.523   0.727   6.919
10038SOL    HW231014   5.685   0.744   6.919
10039SOL     OW31015   3.767   0.733   3.720
10039SOL    HW131016   3.771   0.641   3.681
10039SOL    HW231017   3.853   0.781   3.701
10040SOL     OW31018   5.507   5.050   6.246
10040SOL    HW131019   5.573   5.124   6.231
10040SOL    HW231020   5.507   5.025   6.343
10041SOL     OW31021   4.503   5.933   6.741
10041SOL    HW131022   4.589   5.923   6.791
10041SOL    HW231023   4.515   5.904   6.646
10042SOL     OW31024   0.768   1.629   4.155
10042SOL    HW131025   0.793   1.717   4.114
10042SOL    HW231026   0.676   1.604   4.126
10043SOL     OW31027   6.535   1.892   4.795
10043SOL    HW131028   6.596   1.956   4.748
10043SOL    HW231029   6.466   1.944   4.845
10044SOL     OW31030   2.501   2.453   4.876
10044SOL    HW131031   2.513   2.395   4.796
10044SOL    HW231032   2.448   2.404   4.945
10045SOL     OW31033   3.717   0.821   1.573
10045SOL    HW131034   3.742   0.842   1.668
10045SOL    HW231035   3.626   0.857   1.554
10046SOL     OW31036   1.629   3.249   0.868
10046SOL    HW131037   1.541   3.213   0.899
10046SOL    HW231038   1.695   3.174   0.859
10047SOL     OW31039   0.878   3.152   5.312
10047SOL    HW131040   0.967   3.118   5.342
10047SOL    HW231041   0.876   3.158   5.212
10048SOL     OW31042   6.868   6.787   2.497
10048SOL    HW131043   6.953   6.752   2.535
10048SOL    HW231044   6.871   6.887   2.495
10049SOL     OW31045   1.550   1.465   5.425
10049SOL    HW131046   1.615   1.541   5.427
10049SOL    HW231047   1.569   1.404   5.502
10050SOL     OW31048   5.562   3.474   4.753
10050SOL    HW131049   5.471   3.467   4.793
10050SOL    HW231050   5.560   3.536   4.675
10051SOL     OW31051   0.844   4.296   4.390
10051SOL    HW131052   0.891   4.344   4.316
10051SOL    HW231053   0.911   4.251   4.450
10052SOL     OW31054   2.183   1.058   2.969
10052SOL    HW131055   2.103   1.013   2.932
10052SOL    HW231056   2.248   0.990   3.002
10053SOL     OW31057   4.194   5.996   3.969
10053SOL    HW131058   4.185   5.939   4.051
10053SOL    HW231059   4.104   6.010   3.928
10054SOL     OW31060   5.457   4.270   5.386
10054SOL    HW131061   5.482   4.343   5.323
10054SOL    HW231062   5.524   4.196   5.379
10055SOL     OW31063   6.371   2.590   5.669
10055SOL    HW131064   6.389   2.492   5.678
10055SOL    HW231065   6.443   2.633   5.614
10056SOL     OW31066   4.824   4.476   3.245
10056SOL    HW131067   4.752   4.422   3.288
10056SOL    HW231068   4.802   4.573   3.253
10057SOL     OW31069   5.696   3.784   5.531
10057SOL    HW131070   5.619   3.818   5.584
10057SOL    HW231071   5.758   3.860   5.510
10058SOL     OW31072   6.495   3.880   4.535
10058SOL    HW131073   6.434   3.919   4.604
10058SOL    HW231074   6.523   3.951   4.471
10059SOL     OW31075   6.922   2.372   0.966
10059SOL    HW131076   6.906   2.467   0.941
10059SOL    HW231077   6.861   2.312   0.913
10060SOL     OW31078   2.233   2.372   2.457
10060SOL    HW131079   2.285   2.457   2.455
10060SOL    HW231080   2.297   2.295   2.453
10061SOL     OW31081   4.465   1.491   3.700
10061SOL    HW131082   4.513   1.407   3.727
10061SOL    HW231083   4.463   1.498   3.600
10062SOL     OW31084   6.298   6.991   4.315
10062SOL    HW131085   6.372   6.924   4.321
10062SOL    HW231086   6.300   0.030   4.396
10063SOL     OW31087   2.800   1.870   3.868
10063SOL    HW131088   2.747   1.901   3.789
10063SOL    HW231089   2.748   1.802   3.919
10064SOL     OW31090   4.360   6.038   6.148
10064SOL    HW131091   4.345   6.125   6.103
10064SOL    HW231092   4.273   6.003   6.182
10065SOL     OW31093   1.384   0.513   1.939
10065SOL    HW131094   1.336   0.427   1.921
10065SOL    HW231095   1.424   0.511   2.031
10066SOL     OW31096   0.441   3.088   5.172
10066SOL    HW131097   0.361   3.115   5.227
10066SOL    HW231098   0.427   3.116   5.077
10067SOL     OW31099   0.550   2.932   6.212
10067SOL    HW131100   0.539   2.875   6.294
10067SOL    HW231101   0.645   2.960   6.203
10068SOL     OW31102   1.276   3.814   2.953
10068SOL    HW131103   1.179   3.831   2.937
10068SOL    HW231104   1.295   3.821   3.051
10069SOL     OW31105   3.573   4.855   1.535
10069SOL    HW131106   3.672   4.859   1.522
10069SOL    HW231107   3.534   4.947   1.528
10070SOL     OW31108   1.307   5.325   5.029
10070SOL    HW131109   1.292   5.226   5.024
10070SOL    HW231110   1.404   5.344   5.021
10071SOL     OW31111   1.043   0.326   3.854
10071SOL    HW131112   1.017   0.367   3.941
10071SOL    HW231113   1.046   0.226   3.865
10072SOL     OW31114   0.748   1.295   2.758
10072SOL    HW131115   0.708   1.355   2.689
10072SOL    HW231116   0.676   1.239   2.799
10073SOL     OW31117   6.102   3.297   3.697
10073SOL    HW131118   6.058   3.276   3.785
10073SOL    HW231119   6.200   3.306   3.710
10074SOL     OW31120   1.266   5.576   0.781
10074SOL    HW131121   1.309   5.488   0.800
10074SOL    HW231122   1.299   5.644   0.847
10075SOL     OW31123   1.990   0.169   2.507
10075SOL    HW131124   1.950   0.080   2.527
10075SOL    HW231125   2.079   0.177   2.553
10076SOL     OW31126   4.857   5.170   3.216
10076SOL    HW131127   4.910   5.236   3.270
10076SOL    HW231128   4.893   5.168   3.122
10077SOL     OW31129   5.541   2.639   0.074
10077SOL    HW131130   5.446   2.635   0.105
10077SOL    HW231131   5.598   2.673   0.149
10078SOL     OW31132   7.005   6.458   5.107
10078SOL    HW131133   6.908   6.462   5.130
10078SOL    HW231134   0.040   6.452   5.191
10079SOL     OW31135   5.676   2.372   3.434
10079SOL    HW131136   5.674   2.273   3.425
10079SOL    HW231137   5.632   2.399   3.520
10080SOL     OW31138   5.688   1.223   6.308
10080SOL    HW131139   5.689   1.301   6.245
10080SOL    HW231140   5.761   1.235   6.376
10081SOL     OW31141   0.886   1.643   0.200
10081SOL    HW131142   0.962   1.609   0.144
10081SOL    HW231143   0.910   1.636   0.296
10082SOL     OW31144   1.414   5.405   3.369
10082SOL    HW131145   1.435   5.502   3.374
10082SOL    HW231146   1.490   5.356   3.326
10083SOL     OW31147   3.678   6.220   3.555
10083SOL    HW131148   3.607   6.281   3.520
10083SOL    HW231149   3.768   6.250   3.523
10084SOL     OW31150   6.819   6.830   5.056
10084SOL    HW131151   6.767   6.762   5.003
10084SOL    HW231152   6.793   6.922   5.027
10085SOL     OW31153   4.244   6.755   0.153
10085SOL    HW131154   4.311   6.683   0.132
10085SOL    HW231155   4.274   6.808   0.231
10086SOL     OW31156   5.984   6.506   2.474
10086SOL    HW131157   5.963   6.414   2.443
10086SOL    HW231158   6.020   6.560   2.398
10087SOL     OW31159   0.636   6.538   4.591
10087SOL    HW131160   0.551   6.553   4.642
10087SOL    HW231161   0.653   6.616   4.531
10088SOL     OW31162   6.849   1.603   0.246
10088SOL    HW131163   6.923   1.605   0.179
10088SOL    HW231164   6.843   1.512   0.287
10089SOL     OW31165   3.639   1.303   2.734
10089SOL    HW131166   3.666   1.360   2.656
10089SOL    HW231167   3.600   1.217   2.701
10090SOL     OW31168   0.603   4.588   2.135
10090SOL    HW131169   0.521   4.645   2.144
10090SOL    HW231170   0.654   4.589   2.221
10091SOL     OW31171   6.602   6.246   6.471
10091SOL    HW131172   6.551   6.331   6.485
10091SOL    HW231173   6.639   6.215   6.558
10092SOL     OW31174   1.518   3.513   5.130
10092SOL    HW131175   1.433   3.464   5.112
10092SOL    HW231176   1.586   3.450   5.166
10093SOL     OW31177   5.083   3.346   5.226
10093SOL    HW131178   5.097   3.402   5.144
10093SOL    HW231179   4.988   3.357   5.257
10094SOL     OW31180   2.703   6.832   1.209
10094SOL    HW131181   2.708   6.803   1.304
10094SOL    HW231182   2.773   6.901   1.191
10095SOL     OW31183   5.660   2.082   4.626
10095SOL    HW131184   5.576   2.133   4.644
10095SOL    HW231185   5.657   2.044   4.533
10096SOL     OW31186   5.010   0.948   2.364
10096SOL    HW131187   4.979   0.857   2.334
10096SOL    HW231188   4.942   1.017   2.338
10097SOL     OW31189   1.966   2.125   6.442
10097SOL    HW131190   1.911   2.062   6.496
10097SOL    HW231191   1.937   2.219   6.462
10098SOL     OW31192   3.092   5.772   4.846
10098SOL    HW131193   3.054   5.683   4.871
10098SOL    HW231194   3.056   5.842   4.907
10099SOL     OW31195   6.603   4.468   1.492
10099SOL    HW131196   6.679   4.419   1.536
10099SOL    HW231197   6.587   4.428   1.401
10100SOL     OW31198   5.466   4.925   5.613
10100SOL    HW131199   5.565   4.927   5.602
10100SOL    HW231200   5.440   4.966   5.700
10101SOL     OW31201   6.712   3.080   1.745
10101SOL    HW131202   6.805   3.052   1.768
10101SOL    HW231203   6.652   3.000   1.743
10102SOL     OW31204   5.229   0.474   0.638
10102SOL    HW131205   5.310   0.460   0.694
10102SOL    HW231206   5.173   0.391   0.640
10103SOL     OW31207   0.729   0.266   5.720
10103SOL    HW131208   0.704   0.362   5.736
10103SOL    HW231209   0.812   0.244   5.771
10104SOL     OW31210   2.209   1.128   6.177
10104SOL    HW131211   2.120   1.170   6.159
10104SOL    HW231212   2.277   1.169   6.117
10105SOL     OW31213   2.799   1.289   5.698
10105SOL    HW131214   2.798   1.260   5.602
10105SOL    HW231215   2.891   1.318   5.723
10106SOL     OW31216   4.925   6.196   1.455
10106SOL    HW131217   4.864   6.184   1.533
10106SOL    HW231218   5.000   6.257   1.480
10107SOL     OW31219   4.993   4.214   6.824
10107SOL    HW131220   4.899   4.205   6.791
10107SOL    HW231221   4.992   4.232   6.923
10108SOL     OW31222   1.258   2.977   0.538
10108SOL    HW131223   1.338   2.944   0.488
10108SOL    HW231224   1.250   2.928   0.625
10109SOL     OW31225   0.916   0.925   0.422
10109SOL    HW131226   0.957   1.011   0.392
10109SOL    HW231227   0.930   0.855   0.352
10110SOL     OW31228   4.582   5.052   2.470
10110SOL    HW131229   4.581   5.112   2.391
10110SOL    HW231230   4.642   4.975   2.453
10111SOL     OW31231   0.653   3.076   2.134
10111SOL    HW131232   0.743   3.033   2.136
10111SOL    HW231233   0.639   3.128   2.218
10112SOL     OW31234   6.596   3.111   3.238
10112SOL    HW131235   6.646   3.146   3.159
10112SOL    HW231236   6.513   3.167   3.252
10113SOL     OW31237   4.556   1.018   6.827
10113SOL    HW131238   4.608   1.102   6.838
10113SOL    HW231239   4.466   1.029   6.868
10114SOL     OW31240   3.906   2.105   3.140
10114SOL    HW131241   3.986   2.156   3.108
10114SOL    HW231242   3.901   2.109   3.239
10115SOL     OW31243   3.701   1.420   4.152
10115SOL    HW131244   3.782   1.477   4.164
10115SOL    HW231245   3.720   1.328   4.185
10116SOL     OW31246   5.964   0.374   5.758
10116SOL    HW131247   5.962   0.462   5.712
10116SOL    HW231248   5.871   0.346   5.781
10117SOL     OW31249   6.754   5.329   5.267
10117SOL    HW131250   6.714   5.252   5.317
10117SOL    HW231251   6.805   5.295   5.188
10118SOL     OW31252   2.737   5.216   4.716
10118SOL    HW131253   2.646   5.207   4.675
10118SOL    HW231254   2.728   5.240   4.812
10119SOL     OW31255   0.126   4.880   4.198
10119SOL    HW131256   0.106   4.978   4.203
10119SOL    HW231257   0.205   4.865   4.139
10120SOL     OW31258   1.381   2.833   2.849
10120SOL    HW131259   1.368   2.897   2.926
10120SOL    HW231260   1.318   2.857   2.775
10121SOL     OW31261   6.171   4.960   0.444
10121SOL    HW131262   6.200   4.968   0.540
10121SOL    HW231263   6.249   4.932   0.388
10122SOL     OW31264   6.454   1.783   3.632
10122SOL    HW131265   6.410   1.842   3.564
10122SOL    HW231266   6.385   1.746   3.694
10123SOL     OW31267   5.777   6.462   0.771
10123SOL    HW131268   5.817   6.449   0.862
10123SOL    HW231269   5.829   6.409   0.704
10124SOL     OW31270   0.991   5.147   2.421
10124SOL    HW131271   0.894   5.163   2.405
10124SOL    HW231272   1.036   5.126   2.334
10125SOL     OW31273   2.216   1.617   1.514
10125SOL    HW131274   2.176   1.546   1.572
10125SOL    HW231275   2.277   1.674   1.569
10126SOL     OW31276   6.435   0.377   6.639
10126SOL    HW131277   6.364   0.383   6.710
10126SOL    HW231278   6.393   0.391   6.549
10127SOL     OW31279   1.188   4.218   5.971
10127SOL    HW131280   1.186   4.169   6.058
10127SOL    HW231281   1.248   4.170   5.907
10128SOL     OW31282   2.929   0.934   0.051
10128SOL    HW131283   3.010   0.880   0.072
10128SOL    HW231284   2.956   1.029   0.033
10129SOL     OW31285   6.584   1.537   2.749
10129SOL    HW131286   6.600   1.612   2.812
10129SOL    HW231287   6.485   1.519   2.742
10130SOL     OW31288   0.961   2.584   2.122
10130SOL    HW131289   1.007   2.542   2.043
10130SOL    HW231290   1.028   2.601   2.194
10131SOL     OW31291   2.419   1.315   4.487
10131SOL    HW131292   2.403   1.267   4.401
10131SOL    HW231293   2.516   1.337   4.495
10132SOL     OW31294   6.801   6.770   2.237
10132SOL    HW131295   6.821   6.762   2.335
10132SOL    HW231296   6.793   6.679   2.197
10133SOL     OW31297   4.561   5.659   0.730
10133SOL    HW131298   4.627   5.595   0.691
10133SOL    HW231299   4.580   5.751   0.697
10134SOL     OW31300   6.209   0.775   2.560
10134SOL    HW131301   6.280   0.779   2.489
10134SOL    HW231302   6.140   0.707   2.534
10135SOL     OW31303   5.626   0.713   4.030
10135SOL    HW131304   5.636   0.649   4.107
10135SOL    HW231305   5.681   0.794   4.046
10136SOL     OW31306   5.002   2.281   2.813
10136SOL    HW131307   4.993   2.181   2.819
10136SOL    HW231308   5.014   2.307   2.717
10137SOL     OW31309   0.418   5.408   5.711
10137SOL    HW131310   0.327   5.368   5.708
10137SOL    HW231311   0.413   5.506   5.692
10138SOL     OW31312   6.089   1.420   7.018
10138SOL    HW131313   6.052   1.462   0.081
10138SOL    HW231314   6.140   1.338   0.024
10139SOL     OW31315   3.095   3.620   5.935
10139SOL    HW131316   3.191   3.630   5.963
10139SOL    HW231317   3.087   3.640   5.838
10140SOL     OW31318   6.821   5.982   6.062
10140SOL    HW131319   6.779   5.952   6.147
10140SOL    HW231320   6.904   5.928   6.044
10141SOL     OW31321   4.055   1.367   3.853
10141SOL    HW131322   4.067   1.357   3.754
10141SOL    HW231323   3.961   1.393   3.873
10142SOL     OW31324   5.764   6.422   4.998
10142SOL    HW131325   5.777   6.355   5.071
10142SOL    HW231326   5.838   6.489   5.000
10143SOL     OW31327   5.367   3.162   0.615
10143SOL    HW131328   5.462   3.145   0.588
10143SOL    HW231329   5.306   3.130   0.542
10144SOL     OW31330   4.104   6.613   5.244
10144SOL    HW131331   4.077   6.639   5.337
10144SOL    HW231332   4.101   6.693   5.184
10145SOL     OW31333   4.885   5.943   1.293
10145SOL    HW131334   4.889   5.948   1.193
10145SOL    HW231335   4.916   6.029   1.331
10146SOL     OW31336   0.337   3.724   3.816
10146SOL    HW131337   0.301   3.813   3.788
10146SOL    HW231338   0.367   3.729   3.912
10147SOL     OW31339   4.377   5.099   6.376
10147SOL    HW131340   4.457   5.078   6.432
10147SOL    HW231341   4.386   5.053   6.287
10148SOL     OW31342   0.879   4.886   0.365
10148SOL    HW131343   0.868   4.924   0.273
10148SOL    HW231344   0.904   4.789   0.358
10149SOL     OW31345   4.581   5.251   1.880
10149SOL    HW131346   4.636   5.172   1.852
10149SOL    HW231347   4.484   5.233   1.859
10150SOL     OW31348   4.859   3.618   0.887
10150SOL    HW131349   4.940   3.665   0.924
10150SOL    HW231350   4.796   3.597   0.961
10151SOL     OW31351   6.971   6.989   5.803
10151SOL    HW131352   6.905   0.037   5.836
10151SOL    HW231353   0.043   7.012   5.837
10152SOL     OW31354   6.078   6.290   2.920
10152SOL    HW131355   6.089   6.353   2.844
10152SOL    HW231356   6.003   6.321   2.978
10153SOL     OW31357   4.612   5.841   4.189
10153SOL    HW131358   4.567   5.898   4.258
10153SOL    HW231359   4.605   5.745   4.216
10154SOL     OW31360   4.009   5.266   5.654
10154SOL    HW131361   3.963   5.208   5.587
10154SOL    HW231362   4.063   5.208   5.716
10155SOL     OW31363   4.953   2.172   5.765
10155SOL    HW131364   4.915   2.096   5.712
10155SOL    HW231365   4.947   2.256   5.710
10156SOL     OW31366   5.065   0.219   1.435
10156SOL    HW131367   4.967   0.237   1.437
10156SOL    HW231368   5.097   0.220   1.340
10157SOL     OW31369   6.915   2.631   0.888
10157SOL    HW131370   6.847   2.628   0.814
10157SOL    HW231371   6.902   2.713   0.943
10158SOL     OW31372   4.989   6.767   2.477
10158SOL    HW131373   4.972   6.714   2.560
10158SOL    HW231374   4.994   6.705   2.398
10159SOL     OW31375   3.597   3.224   2.943
10159SOL    HW131376   3.559   3.160   3.010
10159SOL    HW231377   3.537   3.304   2.935
10160SOL     OW31378   2.054   4.307   2.718
10160SOL    HW131379   1.968   4.349   2.690
10160SOL    HW231380   2.126   4.332   2.652
10161SOL     OW31381   3.658   4.773   6.135
10161SOL    HW131382   3.637   4.864   6.168
10161SOL    HW231383   3.620   4.761   6.043
10162SOL     OW31384   1.710   4.397   1.834
10162SOL    HW131385   1.791   4.411   1.778
10162SOL    HW231386   1.715   4.455   1.915
10163SOL     OW31387   1.835   5.948   5.080
10163SOL    HW131388   1.793   5.864   5.046
10163SOL    HW231389   1.826   6.021   5.013
10164SOL     OW31390   6.433   3.291   3.672
10164SOL    HW131391   6.502   3.252   3.611
10164SOL    HW231392   6.413   3.226   3.745
10165SOL     OW31393   5.454   2.601   3.743
10165SOL    HW131394   5.361   2.584   3.710
10165SOL    HW231395   5.476   2.698   3.732
10166SOL     OW31396   0.649   2.502   1.003
10166SOL    HW131397   0.710   2.547   1.069
10166SOL    HW231398   0.644   2.557   0.920
10167SOL     OW31399   0.058   5.219   6.381
10167SOL    HW131400   7.000   5.175   6.427
10167SOL    HW231401   0.025   5.294   6.324
10168SOL     OW31402   6.065   1.670   6.598
10168SOL    HW131403   6.013   1.750   6.569
10168SOL    HW231404   6.113   1.691   6.683
10169SOL     OW31405   6.894   4.196   3.108
10169SOL    HW131406   6.931   4.194   3.201
10169SOL    HW231407   6.937   4.126   3.052
10170SOL     OW31408   6.298   5.995   0.147
10170SOL    HW131409   6.269   6.002   0.242
10170SOL    HW231410   6.393   6.025   0.138
10171SOL     OW31411   1.825   2.769   5.440
10171SOL    HW131412   1.827   2.740   5.535
10171SOL    HW231413   1.916   2.801   5.413
10172SOL     OW31414   6.820   0.080   3.199
10172SOL    HW131415   6.907   0.038   3.176
10172SOL    HW231416   6.752   0.009   3.217
10173SOL     OW31417   3.715   4.790   6.874
10173SOL    HW131418   3.660   4.717   6.916
10173SOL    HW231419   3.682   4.879   6.904
10174SOL     OW31420   5.179   6.834   3.305
10174SOL    HW131421   5.209   6.926   3.331
10174SOL    HW231422   5.079   6.830   3.309
10175SOL     OW31423   6.751   2.015   3.008
10175SOL    HW131424   6.825   2.070   2.969
10175SOL    HW231425   6.702   2.068   3.077
10176SOL     OW31426   6.535   3.374   5.707
10176SOL    HW131427   6.574   3.452   5.658
10176SOL    HW231428   6.507   3.403   5.798
10177SOL     OW31429   2.405   0.245   1.487
10177SOL    HW131430   2.388   0.151   1.519
10177SOL    HW231431   2.427   0.243   1.390
10178SOL     OW31432   1.704   1.851   0.443
10178SOL    HW131433   1.704   1.875   0.346
10178SOL    HW231434   1.649   1.768   0.457
10179SOL     OW31435   6.787   4.356   0.280
10179SOL    HW131436   6.842   4.384   0.201
10179SOL    HW231437   6.758   4.261   0.268
10180SOL     OW31438   4.495   6.855   6.843
10180SOL    HW131439   4.511   6.868   6.941
10180SOL    HW231440   4.435   6.928   6.809
10181SOL     OW31441   6.272   4.033   1.646
10181SOL    HW131442   6.189   4.056   1.696
10181SOL    HW231443   6.284   4.097   1.570
10182SOL     OW31444   5.468   1.594   0.244
10182SOL    HW131445   5.419   1.523   0.194
10182SOL    HW231446   5.529   1.643   0.181
10183SOL     OW31447   6.560   2.582   6.244
10183SOL    HW131448   6.647   2.618   6.279
10183SOL    HW231449   6.578   2.503   6.185
10184SOL     OW31450   6.029   3.479   6.580
10184SOL    HW131451   6.019   3.505   6.676
10184SOL    HW231452   6.106   3.417   6.569
10185SOL     OW31453   3.855   5.934   2.239
10185SOL    HW131454   3.896   5.843   2.239
10185SOL    HW231455   3.818   5.954   2.148
10186SOL     OW31456   4.777   3.807   5.796
10186SOL    HW131457   4.720   3.825   5.715
10186SOL    HW231458   4.815   3.893   5.830
10187SOL     OW31459   2.496   4.410   5.683
10187SOL    HW131460   2.570   4.344   5.668
10187SOL    HW231461   2.489   4.432   5.780
10188SOL     OW31462   2.685   6.472   0.064
10188SOL    HW131463   2.739   6.417   0.001
10188SOL    HW231464   2.740   6.549   0.097
10189SOL     OW31465   1.120   1.238   0.094
10189SOL    HW131466   1.046   1.263   0.032
10189SOL    HW231467   1.206   1.278   0.062
10190SOL     OW31468   2.829   3.738   1.290
10190SOL    HW131469   2.871   3.815   1.336
10190SOL    HW231470   2.783   3.769   1.206
10191SOL     OW31471   5.911   5.599   0.831
10191SOL    HW131472   5.845   5.670   0.807
10191SOL    HW231473   5.948   5.557   0.748
10192SOL     OW31474   2.493   1.765   5.211
10192SOL    HW131475   2.451   1.697   5.152
10192SOL    HW231476   2.466   1.749   5.305
10193SOL     OW31477   3.595   3.242   2.661
10193SOL    HW131478   3.641   3.215   2.746
10193SOL    HW231479   3.612   3.338   2.643
10194SOL     OW31480   3.741   0.240   4.599
10194SOL    HW131481   3.738   0.339   4.606
10194SOL    HW231482   3.827   0.207   4.639
10195SOL     OW31483   5.712   0.438   1.467
10195SOL    HW131484   5.685   0.490   1.548
10195SOL    HW231485   5.652   0.358   1.457
10196SOL     OW31486   5.486   1.889   3.523
10196SOL    HW131487   5.445   1.963   3.468
10196SOL    HW231488   5.586   1.894   3.517
10197SOL     OW31489   5.443   0.283   2.977
10197SOL    HW131490   5.488   0.366   3.013
10197SOL    HW231491   5.380   0.248   3.046
10198SOL     OW31492   3.275   6.420   0.755
10198SOL    HW131493   3.196   6.371   0.718
10198SOL    HW231494   3.250   6.463   0.842
10199SOL     OW31495   1.155   1.997   6.975
10199SOL    HW131496   1.212   2.004   6.892
10199SOL    HW231497   1.214   1.996   0.036
10200SOL     OW31498   5.762   3.643   6.096
10200SOL    HW131499   5.818   3.726   6.087
10200SOL    HW231500   5.724   3.640   6.189
10201SOL     OW31501   0.513   5.639   2.362
10201SOL    HW131502   0.463   5.682   2.287
10201SOL    HW231503   0.592   5.590   2.326
10202SOL     OW31504   0.119   4.002   1.175
10202SOL    HW131505   0.205   4.039   1.138
10202SOL    HW231506   0.088   4.060   1.249
10203SOL     OW31507   1.896   2.992   2.789
10203SOL    HW131508   1.925   2.935   2.712
10203SOL    HW231509   1.926   2.949   2.874
10204SOL     OW31510   3.070   4.373   5.914
10204SOL    HW131511   3.082   4.451   5.975
10204SOL    HW231512   3.121   4.295   5.951
10205SOL     OW31513   5.011   1.409   3.530
10205SOL    HW131514   4.952   1.469   3.583
10205SOL    HW231515   5.017   1.442   3.436
10206SOL     OW31516   5.179   6.819   5.900
10206SOL    HW131517   5.190   6.875   5.818
10206SOL    HW231518   5.243   6.743   5.897
10207SOL     OW31519   2.132   1.136   1.734
10207SOL    HW131520   2.043   1.099   1.760
10207SOL    HW231521   2.205   1.088   1.783
10208SOL     OW31522   6.346   5.497   5.215
10208SOL    HW131523   6.288   5.579   5.212
10208SOL    HW231524   6.290   5.417   5.195
10209SOL     OW31525   0.341   1.184   5.915
10209SOL    HW131526   0.308   1.100   5.871
10209SOL    HW231527   0.439   1.196   5.895
10210SOL     OW31528   5.121   0.423   1.730
10210SOL    HW131529   5.063   0.445   1.652
10210SOL    HW231530   5.143   0.325   1.729
10211SOL     OW31531   3.717   6.600   5.498
10211SOL    HW131532   3.814   6.607   5.476
10211SOL    HW231533   3.707   6.561   5.590
10212SOL     OW31534   0.515   1.393   4.358
10212SOL    HW131535   0.458   1.331   4.305
10212SOL    HW231536   0.494   1.488   4.333
10213SOL     OW31537   5.287   1.571   2.514
10213SOL    HW131538   5.361   1.594   2.577
10213SOL    HW231539   5.307   1.484   2.469
10214SOL     OW31540   6.592   0.467   2.018
10214SOL    HW131541   6.589   0.535   2.091
10214SOL    HW231542   6.573   0.512   1.930
10215SOL     OW31543   2.899   3.414   5.828
10215SOL    HW131544   2.988   3.435   5.869
10215SOL    HW231545   2.900   3.322   5.790
10216SOL     OW31546   6.397   0.041   0.677
10216SOL    HW131547   6.372   0.065   0.771
10216SOL    HW231548   6.496   0.046   0.667
10217SOL     OW31549   2.636   1.359   4.268
10217SOL    HW131550   2.572   1.433   4.248
10217SOL    HW231551   2.723   1.398   4.297
10218SOL     OW31552   1.151   1.616   1.411
10218SOL    HW131553   1.200   1.579   1.489
10218SOL    HW231554   1.216   1.660   1.349
10219SOL     OW31555   0.606   2.142   2.466
10219SOL    HW131556   0.565   2.109   2.381
10219SOL    HW231557   0.552   2.110   2.544
10220SOL     OW31558   4.150   1.372   1.497
10220SOL    HW131559   4.055   1.364   1.526
10220SOL    HW231560   4.206   1.400   1.575
10221SOL     OW31561   2.109   1.329   4.573
10221SOL    HW131562   2.156   1.333   4.661
10221SOL    HW231563   2.130   1.411   4.521
10222SOL     OW31564   1.060   3.675   4.957
10222SOL    HW131565   1.122   3.652   4.882
10222SOL    HW231566   1.074   3.611   5.033
10223SOL     OW31567   1.419   5.124   6.461
10223SOL    HW131568   1.447   5.112   6.366
10223SOL    HW231569   1.499   5.151   6.516
10224SOL     OW31570   1.603   1.313   4.209
10224SOL    HW131571   1.591   1.387   4.276
10224SOL    HW231572   1.638   1.232   4.254
10225SOL     OW31573   1.129   6.248   5.100
10225SOL    HW131574   1.085   6.296   5.175
10225SOL    HW231575   1.104   6.151   5.103
10226SOL     OW31576   3.125   0.901   6.763
10226SOL    HW131577   3.148   0.816   6.716
10226SOL    HW231578   3.185   0.913   6.842
10227SOL     OW31579   4.616   4.593   0.898
10227SOL    HW131580   4.601   4.560   0.991
10227SOL    HW231581   4.594   4.521   0.832
10228SOL     OW31582   0.658   5.452   2.225
10228SOL    HW131583   0.729   5.382   2.233
10228SOL    HW231584   0.568   5.409   2.234
10229SOL     OW31585   1.191   1.177   3.337
10229SOL    HW131586   1.234   1.191   3.426
10229SOL    HW231587   1.109   1.120   3.348
10230SOL     OW31588   0.018   0.489   3.306
10230SOL    HW131589   0.086   0.471   3.378
10230SOL    HW231590   0.059   0.472   3.217
10231SOL     OW31591   7.010   6.736   5.210
10231SOL    HW131592   6.945   6.761   5.138
10231SOL    HW231593   0.084   6.738   5.174
10232SOL     OW31594   4.220   0.828   4.511
10232SOL    HW131595   4.206   0.759   4.439
10232SOL    HW231596   4.143   0.826   4.575
10233SOL     OW31597   4.791   2.904   5.330
10233SOL    HW131598   4.753   2.833   5.271
10233SOL    HW231599   4.766   2.994   5.296
10234SOL     OW31600   5.141   0.240   0.750
10234SOL    HW131601   5.209   0.177   0.788
10234SOL    HW231602   5.056   0.233   0.802
10235SOL     OW31603   4.314   1.308   0.324
10235SOL    HW131604   4.279   1.340   0.412
10235SOL    HW231605   4.249   1.330   0.252
10236SOL     OW31606   1.835   6.703   1.768
10236SOL    HW131607   1.851   6.605   1.782
10236SOL    HW231608   1.821   6.721   1.671
10237SOL     OW31609   6.162   4.020   1.166
10237SOL    HW131610   6.226   3.966   1.112
10237SOL    HW231611   6.089   3.960   1.201
10238SOL     OW31612   3.718   3.750   4.966
10238SOL    HW131613   3.708   3.672   4.903
10238SOL    HW231614   3.814   3.764   4.987
10239SOL     OW31615   1.250   4.338   5.649
10239SOL    HW131616   1.199   4.310   5.567
10239SOL    HW231617   1.340   4.295   5.648
10240SOL     OW31618   1.091   4.413   2.420
10240SOL    HW131619   1.129   4.445   2.333
10240SOL    HW231620   1.108   4.481   2.491
10241SOL     OW31621   0.232   0.776   1.684
10241SOL    HW131622   0.172   0.696   1.681
10241SOL    HW231623   0.317   0.752   1.732
10242SOL     OW31624   0.883   2.130   6.180
10242SOL    HW131625   0.969   2.098   6.140
10242SOL    HW231626   0.868   2.225   6.156
10243SOL     OW31627   6.909   5.339   1.364
10243SOL    HW131628   6.981   5.273   1.345
10243SOL    HW231629   6.865   5.316   1.451
10244SOL     OW31630   1.773   4.446   0.118
10244SOL    HW131631   1.696   4.384   0.101
10244SOL    HW231632   1.789   4.453   0.216
10245SOL     OW31633   2.175   3.539   6.900
10245SOL    HW131634   2.148   3.567   6.808
10245SOL    HW231635   2.257   3.590   6.928
10246SOL     OW31636   3.235   4.122   4.645
10246SOL    HW131637   3.286   4.175   4.713
10246SOL    HW231638   3.144   4.101   4.681
10247SOL     OW31639   0.736   5.232   5.318
10247SOL    HW131640   0.705   5.198   5.229
10247SOL    HW231641   0.669   5.296   5.355
10248SOL     OW31642   3.049   0.450   2.286
10248SOL    HW131643   3.041   0.394   2.369
10248SOL    HW231644   3.002   0.404   2.210
10249SOL     OW31645   3.065   0.756   5.709
10249SOL    HW131646   3.009   0.839   5.701
10249SOL    HW231647   3.123   0.764   5.790
10250SOL     OW31648   0.183   2.025   1.165
10250SOL    HW131649   0.117   2.018   1.240
10250SOL    HW231650   0.136   2.014   1.077
10251SOL     OW31651   2.393   3.024   6.064
10251SOL    HW131652   2.438   2.947   6.109
10251SOL    HW231653   2.385   3.006   5.966
10252SOL     OW31654   6.268   6.872   0.481
10252SOL    HW131655   6.242   6.780   0.510
10252SOL    HW231656   6.315   6.919   0.556
10253SOL     OW31657   4.779   5.536   7.003
10253SOL    HW131658   4.821   5.584   6.926
10253SOL    HW231659   4.699   5.586   0.015
10254SOL     OW31660   3.622   2.106   4.421
10254SOL    HW131661   3.532   2.136   4.451
10254SOL    HW231662   3.682   2.095   4.500
10255SOL     OW31663   1.847   6.171   1.289
10255SOL    HW131664   1.858   6.218   1.201
10255SOL    HW231665   1.935   6.140   1.323
10256SOL     OW31666   5.328   0.125   1.371
10256SOL    HW131667   5.234   0.094   1.385
10256SOL    HW231668   5.346   0.134   1.273
10257SOL     OW31669   0.742   4.475   5.254
10257SOL    HW131670   0.833   4.463   5.215
10257SOL    HW231671   0.748   4.481   5.354
10258SOL     OW31672   5.232   0.117   3.712
10258SOL    HW131673   5.186   0.030   3.733
10258SOL    HW231674   5.325   0.115   3.748
10259SOL     OW31675   1.116   4.962   3.123
10259SOL    HW131676   1.109   5.054   3.160
10259SOL    HW231677   1.154   4.901   3.193
10260SOL     OW31678   0.034   6.887   2.706
10260SOL    HW131679   7.013   6.830   2.778
10260SOL    HW231680   0.121   6.848   2.678
10261SOL     OW31681   6.818   6.038   2.117
10261SOL    HW131682   6.879   6.062   2.041
10261SOL    HW231683   6.730   6.084   2.105
10262SOL     OW31684   3.006   5.519   4.918
10262SOL    HW131685   2.934   5.548   4.982
10262SOL    HW231686   3.000   5.420   4.904
10263SOL     OW31687   5.149   1.637   6.594
10263SOL    HW131688   5.102   1.561   6.550
10263SOL    HW231689   5.246   1.634   6.571
10264SOL     OW31690   6.249   1.658   6.788
10264SOL    HW131691   6.278   1.626   6.878
10264SOL    HW231692   6.329   1.674   6.731
10265SOL     OW31693   3.324   1.834   2.715
10265SOL    HW131694   3.352   1.926   2.741
10265SOL    HW231695   3.403   1.783   2.682
10266SOL     OW31696   3.773   3.551   5.660
10266SOL    HW131697   3.681   3.589   5.672
10266SOL    HW231698   3.823   3.604   5.591
10267SOL     OW31699   6.704   1.862   6.883
10267SOL    HW131700   6.768   1.908   6.822
10267SOL    HW231701   6.637   1.928   6.918
10268SOL     OW31702   5.143   6.322   1.586
10268SOL    HW131703   5.176   6.398   1.642
10268SOL    HW231704   5.167   6.236   1.629
10269SOL     OW31705   1.854   1.237   5.483
10269SOL    HW131706   1.863   1.327   5.440
10269SOL    HW231707   1.767   1.196   5.458
10270SOL     OW31708   2.017   6.030   1.426
10270SOL    HW131709   2.001   5.932   1.413
10270SOL    HW231710   1.990   6.056   1.519
10271SOL     OW31711   3.291   3.304   0.557
10271SOL    HW131712   3.276   3.398   0.527
10271SOL    HW231713   3.243   3.288   0.643
10272SOL     OW31714   1.156   0.835   4.151
10272SOL    HW131715   1.101   0.865   4.073
10272SOL    HW231716   1.227   0.902   4.169
10273SOL     OW31717   3.901   6.008   3.856
10273SOL    HW131718   3.833   6.034   3.924
10273SOL    HW231719   3.888   5.912   3.831
10274SOL     OW31720   1.400   4.579   5.696
10274SOL    HW131721   1.487   4.547   5.659
10274SOL    HW231722   1.329   4.510   5.679
10275SOL     OW31723   1.291   0.009   2.212
10275SOL    HW131724   1.284   0.040   2.307
10275SOL    HW231725   1.204   6.990   2.182
10276SOL     OW31726   6.790   5.477   6.506
10276SOL    HW131727   6.726   5.542   6.546
10276SOL    HW231728   6.866   5.461   6.569
10277SOL     OW31729   2.735   6.309   4.010
10277SOL    HW131730   2.830   6.310   4.042
10277SOL    HW231731   2.674   6.316   4.089
10278SOL     OW31732   6.269   1.270   5.738
10278SOL    HW131733   6.363   1.263   5.772
10278SOL    HW231734   6.254   1.362   5.702
10279SOL     OW31735   3.796   0.510   3.595
10279SOL    HW131736   3.723   0.495   3.529
10279SOL    HW231737   3.796   0.438   3.663
10280SOL     OW31738   2.058   4.535   1.298
10280SOL    HW131739   2.146   4.490   1.317
10280SOL    HW231740   2.017   4.493   1.216
10281SOL     OW31741   5.326   2.216   2.604
10281SOL    HW131742   5.379   2.196   2.686
10281SOL    HW231743   5.296   2.130   2.561
10282SOL     OW31744   6.506   3.272   4.147
10282SOL    HW131745   6.541   3.259   4.055
10282SOL    HW231746   6.568   3.332   4.198
10283SOL     OW31747   1.045   2.981   1.273
10283SOL    HW131748   1.076   2.888   1.292
10283SOL    HW231749   0.965   2.978   1.214
10284SOL     OW31750   5.598   3.989   5.702
10284SOL    HW131751   5.498   3.992   5.693
10284SOL    HW231752   5.624   3.917   5.767
10285SOL     OW31753   4.813   0.526   1.656
10285SOL    HW131754   4.858   0.513   1.568
10285SOL    HW231755   4.724   0.482   1.655
10286SOL     OW31756   3.140   1.872   2.968
10286SOL    HW131757   3.218   1.859   2.906
10286SOL    HW231758   3.174   1.895   3.059
10287SOL     OW31759   1.778   6.902   1.964
10287SOL    HW131760   1.789   6.820   1.908
10287SOL    HW231761   1.833   6.976   1.926
10288SOL     OW31762   5.390   5.817   2.312
10288SOL    HW131763   5.452   5.889   2.282
10288SOL    HW231764   5.418   5.784   2.402
10289SOL     OW31765   3.550   0.867   1.194
10289SOL    HW131766   3.553   0.783   1.247
10289SOL    HW231767   3.495   0.936   1.242
10290SOL     OW31768   3.566   4.117   2.745
10290SOL    HW131769   3.476   4.142   2.781
10290SOL    HW231770   3.563   4.115   2.645
10291SOL     OW31771   4.113   0.279   3.886
10291SOL    HW131772   4.173   0.224   3.827
10291SOL    HW231773   4.096   0.231   3.972
10292SOL     OW31774   0.604   2.127   4.539
10292SOL    HW131775   0.634   2.212   4.496
10292SOL    HW231776   0.587   2.143   4.636
10293SOL     OW31777   1.716   6.113   3.060
10293SOL    HW131778   1.619   6.132   3.042
10293SOL    HW231779   1.724   6.051   3.138
10294SOL     OW31780   4.858   3.289   3.401
10294SOL    HW131781   4.864   3.226   3.479
10294SOL    HW231782   4.855   3.383   3.435
10295SOL     OW31783   5.614   4.648   5.665
10295SOL    HW131784   5.665   4.621   5.583
10295SOL    HW231785   5.637   4.587   5.741
10296SOL     OW31786   5.697   4.397   6.138
10296SOL    HW131787   5.758   4.318   6.142
10296SOL    HW231788   5.638   4.397   6.218
10297SOL     OW31789   2.530   6.362   4.203
10297SOL    HW131790   2.444   6.371   4.253
10297SOL    HW231791   2.605   6.348   4.268
10298SOL     OW31792   4.269   4.661   3.525
10298SOL    HW131793   4.304   4.710   3.605
10298SOL    HW231794   4.313   4.572   3.518
10299SOL     OW31795   4.340   4.754   3.120
10299SOL    HW131796   4.372   4.670   3.077
10299SOL    HW231797   4.253   4.736   3.167
10300SOL     OW31798   1.539   4.142   2.143
10300SOL    HW131799   1.585   4.154   2.055
10300SOL    HW231800   1.486   4.224   2.164
10301SOL     OW31801   5.699   2.050   3.076
10301SOL    HW131802   5.704   2.142   3.037
10301SOL    HW231803   5.767   2.041   3.149
10302SOL     OW31804   1.385   6.077   2.889
10302SOL    HW131805   1.460   6.142   2.880
10302SOL    HW231806   1.332   6.099   2.971
10303SOL     OW31807   4.060   4.407   1.026
10303SOL    HW131808   4.090   4.353   1.105
10303SOL    HW231809   4.129   4.477   1.005
10304SOL     OW31810   6.217   0.371   3.858
10304SOL    HW131811   6.151   0.323   3.916
10304SOL    HW231812   6.237   0.460   3.898
10305SOL     OW31813   1.210   6.246   6.810
10305SOL    HW131814   1.277   6.253   6.883
10305SOL    HW231815   1.191   6.149   6.791
10306SOL     OW31816   4.543   5.396   6.880
10306SOL    HW131817   4.472   5.449   6.833
10306SOL    HW231818   4.529   5.299   6.864
10307SOL     OW31819   1.615   1.288   5.240
10307SOL    HW131820   1.587   1.360   5.304
10307SOL    HW231821   1.694   1.320   5.187
10308SOL     OW31822   3.198   5.103   3.946
10308SOL    HW131823   3.165   5.030   3.885
10308SOL    HW231824   3.141   5.105   4.028
10309SOL     OW31825   6.459   6.836   3.737
10309SOL    HW131826   6.479   6.876   3.648
10309SOL    HW231827   6.514   6.881   3.807
10310SOL     OW31828   3.058   4.003   1.639
10310SOL    HW131829   2.979   4.005   1.577
10310SOL    HW231830   3.030   4.039   1.728
10311SOL     OW31831   0.727   5.524   1.399
10311SOL    HW131832   0.806   5.577   1.431
10311SOL    HW231833   0.664   5.585   1.351
10312SOL     OW31834   3.756   5.245   1.091
10312SOL    HW131835   3.674   5.211   1.044
10312SOL    HW231836   3.808   5.303   1.028
10313SOL     OW31837   4.516   6.943   2.087
10313SOL    HW131838   4.448   7.003   2.046
10313SOL    HW231839   4.472   6.859   2.118
10314SOL     OW31840   6.342   0.493   0.960
10314SOL    HW131841   6.370   0.411   0.910
10314SOL    HW231842   6.250   0.480   0.996
10315SOL     OW31843   6.457   5.819   5.165
10315SOL    HW131844   6.372   5.767   5.154
10315SOL    HW231845   6.470   5.879   5.087
10316SOL     OW31846   0.024   3.286   4.512
10316SOL    HW131847   0.040   3.219   4.439
10316SOL    HW231848   6.946   3.305   4.521
10317SOL     OW31849   3.727   4.555   5.901
10317SOL    HW131850   3.722   4.519   5.808
10317SOL    HW231851   3.707   4.653   5.899
10318SOL     OW31852   6.005   5.369   1.861
10318SOL    HW131853   6.048   5.353   1.772
10318SOL    HW231854   6.008   5.285   1.915
10319SOL     OW31855   0.514   4.857   4.509
10319SOL    HW131856   0.592   4.798   4.527
10319SOL    HW231857   0.439   4.803   4.471
10320SOL     OW31858   0.800   0.519   0.713
10320SOL    HW131859   0.716   0.549   0.668
10320SOL    HW231860   0.819   0.579   0.791
10321SOL     OW31861   3.849   6.303   4.767
10321SOL    HW131862   3.858   6.260   4.677
10321SOL    HW231863   3.937   6.338   4.797
10322SOL     OW31864   6.748   6.041   0.503
10322SOL    HW131865   6.661   5.997   0.480
10322SOL    HW231866   6.823   5.978   0.485
10323SOL     OW31867   6.859   3.477   6.642
10323SOL    HW131868   6.853   3.377   6.634
10323SOL    HW231869   6.772   3.512   6.676
10324SOL     OW31870   3.294   3.171   3.074
10324SOL    HW131871   3.298   3.125   3.163
10324SOL    HW231872   3.255   3.109   3.007
10325SOL     OW31873   6.623   4.316   3.981
10325SOL    HW131874   6.538   4.300   3.931
10325SOL    HW231875   6.621   4.408   4.020
10326SOL     OW31876   5.058   2.478   0.072
10326SOL    HW131877   4.970   2.441   0.040
10326SOL    HW231878   5.131   2.414   0.049
10327SOL     OW31879   2.324   1.277   2.604
10327SOL    HW131880   2.377   1.362   2.614
10327SOL    HW231881   2.263   1.267   2.682
10328SOL     OW31882   5.841   3.524   2.303
10328SOL    HW131883   5.936   3.493   2.298
10328SOL    HW231884   5.808   3.514   2.396
10329SOL     OW31885   2.797   0.706   4.117
10329SOL    HW131886   2.854   0.786   4.134
10329SOL    HW231887   2.842   0.646   4.051
10330SOL     OW31888   3.476   5.106   3.167
10330SOL    HW131889   3.468   5.086   3.069
10330SOL    HW231890   3.385   5.127   3.205
10331SOL     OW31891   5.598   0.766   3.333
10331SOL    HW131892   5.683   0.788   3.381
10331SOL    HW231893   5.520   0.805   3.384
10332SOL     OW31894   7.010   2.081   0.943
10332SOL    HW131895   0.024   2.175   0.931
10332SOL    HW231896   6.915   2.076   0.914
10333SOL     OW31897   5.574   4.946   4.079
10333SOL    HW131898   5.517   4.871   4.112
10333SOL    HW231899   5.515   5.023   4.053
10334SOL     OW31900   1.941   5.135   3.825
10334SOL    HW131901   1.976   5.052   3.781
10334SOL    HW231902   2.004   5.163   3.898
10335SOL     OW31903   2.029   4.967   6.759
10335SOL    HW131904   2.127   4.970   6.777
10335SOL    HW231905   2.014   4.960   6.661
10336SOL     OW31906   4.535   6.511   2.279
10336SOL    HW131907   4.580   6.545   2.362
10336SOL    HW231908   4.602   6.506   2.205
10337SOL     OW31909   0.223   5.240   4.988
10337SOL    HW131910   0.300   5.192   5.031
10337SOL    HW231911   0.228   5.228   4.889
10338SOL     OW31912   3.477   6.789   1.093
10338SOL    HW131913   3.490   6.703   1.044
10338SOL    HW231914   3.508   6.779   1.187
10339SOL     OW31915   3.970   5.700   1.030
10339SOL    HW131916   3.887   5.702   1.086
10339SOL    HW231917   4.041   5.649   1.077
10340SOL     OW31918   2.311   5.484   6.881
10340SOL    HW131919   2.329   5.388   6.858
10340SOL    HW231920   2.244   5.522   6.817
10341SOL     OW31921   2.422   2.557   2.244
10341SOL    HW131922   2.491   2.501   2.199
10341SOL    HW231923   2.384   2.622   2.179
10342SOL     OW31924   1.964   6.407   6.406
10342SOL    HW131925   1.880   6.404   6.352
10342SOL    HW231926   1.997   6.314   6.422
10343SOL     OW31927   2.020   4.320   6.686
10343SOL    HW131928   2.093   4.385   6.669
10343SOL    HW231929   1.983   4.334   6.778
10344SOL     OW31930   4.127   3.756   4.602
10344SOL    HW131931   4.205   3.796   4.555
10344SOL    HW231932   4.086   3.825   4.662
10345SOL     OW31933   2.326   1.392   6.917
10345SOL    HW131934   2.320   1.398   7.016
10345SOL    HW231935   2.363   1.477   6.880
10346SOL     OW31936   5.206   0.210   0.299
10346SOL    HW131937   5.301   0.236   0.281
10346SOL    HW231938   5.198   0.175   0.393
10347SOL     OW31939   5.284   1.671   0.790
10347SOL    HW131940   5.362   1.612   0.773
10347SOL    HW231941   5.276   1.689   0.888
10348SOL     OW31942   6.011   0.915   6.376
10348SOL    HW131943   6.030   0.994   6.319
10348SOL    HW231944   6.097   0.876   6.410
10349SOL     OW31945   6.061   0.762   0.866
10349SOL    HW131946   6.050   0.799   0.774
10349SOL    HW231947   5.975   0.720   0.896
10350SOL     OW31948   3.664   5.824   4.360
10350SOL    HW131949   3.754   5.868   4.359
10350SOL    HW231950   3.646   5.783   4.270
10351SOL     OW31951   6.435   4.913   5.098
10351SOL    HW131952   6.502   4.839   5.098
10351SOL    HW231953   6.432   4.955   5.189
10352SOL     OW31954   5.787   1.999   6.874
10352SOL    HW131955   5.800   2.098   6.881
10352SOL    HW231956   5.694   1.976   6.903
10353SOL     OW31957   0.023   3.212   3.403
10353SOL    HW131958   7.014   3.171   3.317
10353SOL    HW231959   6.970   3.200   3.472
10354SOL     OW31960   0.647   4.147   0.933
10354SOL    HW131961   0.582   4.161   0.859
10354SOL    HW231962   0.685   4.055   0.928
10355SOL     OW31963   1.309   1.773   1.256
10355SOL    HW131964   1.407   1.756   1.264
10355SOL    HW231965   1.278   1.748   1.165
10356SOL     OW31966   0.642   2.870   6.658
10356SOL    HW131967   0.591   2.840   6.739
10356SOL    HW231968   0.738   2.843   6.667
10357SOL     OW31969   2.027   2.433   6.419
10357SOL    HW131970   2.072   2.405   6.334
10357SOL    HW231971   2.095   2.442   6.492
10358SOL     OW31972   1.626   2.727   2.546
10358SOL    HW131973   1.620   2.810   2.601
10358SOL    HW231974   1.686   2.661   2.591
10359SOL     OW31975   4.803   2.576   2.416
10359SOL    HW131976   4.773   2.653   2.359
10359SOL    HW231977   4.724   2.519   2.439
10360SOL     OW31978   5.273   5.046   3.149
10360SOL    HW131979   5.272   5.037   3.049
10360SOL    HW231980   5.363   5.018   3.184
10361SOL     OW31981   1.929   1.554   1.652
10361SOL    HW131982   1.840   1.559   1.696
10361SOL    HW231983   1.978   1.641   1.665
10362SOL     OW31984   0.208   5.255   1.919
10362SOL    HW131985   0.177   5.221   2.008
10362SOL    HW231986   0.278   5.193   1.882
10363SOL     OW31987   4.432   3.177   0.239
10363SOL    HW131988   4.417   3.274   0.219
10363SOL    HW231989   4.489   3.137   0.168
10364SOL     OW31990   5.084   5.171   0.935
10364SOL    HW131991   5.048   5.078   0.933
10364SOL    HW231992   5.171   5.174   0.886
10365SOL     OW31993   6.087   5.325   0.130
10365SOL    HW131994   6.001   5.365   0.098
10365SOL    HW231995   6.092   5.229   0.102
10366SOL     OW31996   4.616   6.831   3.282
10366SOL    HW131997   4.590   6.885   3.362
10366SOL    HW231998   4.656   6.890   3.212
10367SOL     OW31999   6.594   1.986   1.938
10367SOL    HW132000   6.654   1.937   1.875
10367SOL    HW232001   6.630   1.980   2.031
10368SOL     OW32002   2.810   1.027   1.909
10368SOL    HW132003   2.760   0.954   1.956
10368SOL    HW232004   2.858   1.082   1.977
10369SOL     OW32005   2.935   6.611   5.740
10369SOL    HW132006   2.863   6.643   5.802
10369SOL    HW232007   2.978   6.690   5.695
10370SOL     OW32008   6.287   1.470   4.240
10370SOL    HW132009   6.281   1.448   4.143
10370SOL    HW232010   6.342   1.401   4.286
10371SOL     OW32011   3.642   6.455   3.218
10371SOL    HW132012   3.739   6.441   3.201
10371SOL    HW232013   3.623   6.553   3.227
10372SOL     OW32014   2.924   0.642   1.397
10372SOL    HW132015   2.905   0.739   1.410
10372SOL    HW232016   2.998   0.614   1.458
10373SOL     OW32017   0.369   0.138   4.586
10373SOL    HW132018   0.367   0.119   4.684
10373SOL    HW232019   0.405   0.059   4.537
10374SOL     OW32020   2.681   6.598   4.018
10374SOL    HW132021   2.718   6.639   4.101
10374SOL    HW232022   2.696   6.499   4.020
10375SOL     OW32023   3.011   2.285   6.048
10375SOL    HW132024   3.107   2.257   6.055
10375SOL    HW232025   2.953   2.209   6.078
10376SOL     OW32026   1.692   6.251   3.620
10376SOL    HW132027   1.776   6.196   3.625
10376SOL    HW232028   1.675   6.277   3.525
10377SOL     OW32029   0.216   2.063   2.007
10377SOL    HW132030   0.175   1.981   1.966
10377SOL    HW232031   0.315   2.060   1.995
10378SOL     OW32032   0.344   5.684   5.620
10378SOL    HW132033   0.332   5.657   5.525
10378SOL    HW232034   0.255   5.708   5.659
10379SOL     OW32035   2.835   6.088   4.407
10379SOL    HW132036   2.919   6.128   4.443
10379SOL    HW232037   2.851   5.992   4.384
10380SOL     OW32038   1.471   1.894   4.825
10380SOL    HW132039   1.551   1.946   4.855
10380SOL    HW232040   1.421   1.947   4.757
10381SOL     OW32041   4.088   4.234   1.264
10381SOL    HW132042   4.014   4.174   1.296
10381SOL    HW232043   4.173   4.207   1.309
10382SOL     OW32044   2.940   5.745   1.986
10382SOL    HW132045   2.976   5.837   1.975
10382SOL    HW232046   2.848   5.740   1.947
10383SOL     OW32047   2.084   4.099   0.312
10383SOL    HW132048   2.017   4.028   0.291
10383SOL    HW232049   2.173   4.057   0.327
10384SOL     OW32050   6.242   6.381   1.036
10384SOL    HW132051   6.276   6.473   1.015
10384SOL    HW232052   6.314   6.315   1.017
10385SOL     OW32053   3.790   5.291   6.254
10385SOL    HW132054   3.795   5.263   6.158
10385SOL    HW232055   3.730   5.228   6.304
10386SOL     OW32056   0.322   0.918   5.781
10386SOL    HW132057   0.323   0.821   5.757
10386SOL    HW232058   0.258   0.967   5.723
10387SOL     OW32059   5.189   3.191   3.566
10387SOL    HW132060   5.167   3.275   3.516
10387SOL    HW232061   5.104   3.141   3.587
10388SOL     OW32062   2.772   0.257   0.230
10388SOL    HW132063   2.839   0.317   0.274
10388SOL    HW232064   2.819   0.197   0.165
10389SOL     OW32065   6.303   3.845   0.266
10389SOL    HW132066   6.204   3.845   0.251
10389SOL    HW232067   6.335   3.939   0.274
10390SOL     OW32068   1.803   2.506   0.235
10390SOL    HW132069   1.862   2.548   0.304
10390SOL    HW232070   1.707   2.526   0.256
10391SOL     OW32071   1.570   6.411   3.796
10391SOL    HW132072   1.617   6.362   3.723
10391SOL    HW232073   1.608   6.502   3.806
10392SOL     OW32074   5.746   4.911   5.602
10392SOL    HW132075   5.747   4.852   5.683
10392SOL    HW232076   5.839   4.923   5.569
10393SOL     OW32077   1.822   3.933   3.697
10393SOL    HW132078   1.922   3.930   3.689
10393SOL    HW232079   1.795   4.014   3.749
10394SOL     OW32080   2.736   5.596   4.514
10394SOL    HW132081   2.809   5.528   4.506
10394SOL    HW232082   2.715   5.633   4.424
10395SOL     OW32083   0.099   6.516   1.473
10395SOL    HW132084   0.042   6.572   1.412
10395SOL    HW232085   0.180   6.567   1.499
10396SOL     OW32086   4.241   1.617   3.808
10396SOL    HW132087   4.320   1.568   3.771
10396SOL    HW232088   4.168   1.551   3.828
10397SOL     OW32089   3.116   2.175   3.139
10397SOL    HW132090   3.171   2.183   3.222
10397SOL    HW232091   3.028   2.219   3.153
10398SOL     OW32092   5.478   2.194   0.674
10398SOL    HW132093   5.544   2.123   0.697
10398SOL    HW232094   5.522   2.264   0.618
10399SOL     OW32095   5.215   2.279   3.555
10399SOL    HW132096   5.219   2.179   3.565
10399SOL    HW232097   5.133   2.304   3.504
10400SOL     OW32098   4.391   6.520   0.281
10400SOL    HW132099   4.416   6.613   0.308
10400SOL    HW232100   4.473   6.464   0.270
10401SOL     OW32101   6.428   6.980   3.129
10401SOL    HW132102   6.412   0.058   3.147
10401SOL    HW232103   6.362   6.925   3.181
10402SOL     OW32104   6.339   2.912   5.414
10402SOL    HW132105   6.363   2.921   5.317
10402SOL    HW232106   6.240   2.910   5.424
10403SOL     OW32107   4.914   1.270   3.843
10403SOL    HW132108   4.883   1.356   3.883
10403SOL    HW232109   4.905   1.274   3.743
10404SOL     OW32110   6.145   6.639   5.282
10404SOL    HW132111   6.108   6.727   5.311
10404SOL    HW232112   6.071   6.584   5.241
10405SOL     OW32113   1.009   0.662   5.192
10405SOL    HW132114   0.983   0.691   5.099
10405SOL    HW232115   1.107   0.677   5.204
10406SOL     OW32116   2.688   4.797   2.985
10406SOL    HW132117   2.763   4.804   2.920
10406SOL    HW232118   2.725   4.783   3.077
10407SOL     OW32119   2.743   6.694   5.920
10407SOL    HW132120   2.653   6.653   5.903
10407SOL    HW232121   2.758   6.701   6.018
10408SOL     OW32122   4.423   0.320   1.621
10408SOL    HW132123   4.449   0.416   1.630
10408SOL    HW232124   4.472   0.279   1.544
10409SOL     OW32125   0.070   4.710   0.739
10409SOL    HW132126   0.125   4.760   0.672
10409SOL    HW232127   7.006   4.677   0.696
10410SOL     OW32128   5.679   1.853   1.226
10410SOL    HW132129   5.585   1.884   1.220
10410SOL    HW232130   5.711   1.858   1.321
10411SOL     OW32131   3.378   6.760   3.589
10411SOL    HW132132   3.325   6.700   3.530
10411SOL    HW232133   3.327   6.844   3.606
10412SOL     OW32134   0.218   1.228   0.276
10412SOL    HW132135   0.135   1.244   0.223
10412SOL    HW232136   0.227   1.131   0.297
10413SOL     OW32137   6.538   2.868   0.632
10413SOL    HW132138   6.493   2.782   0.657
10413SOL    HW232139   6.589   2.903   0.711
10414SOL     OW32140   4.058   4.262   5.809
10414SOL    HW132141   3.983   4.203   5.779
10414SOL    HW232142   4.025   4.324   5.880
10415SOL     OW32143   1.643   3.481   4.333
10415SOL    HW132144   1.687   3.446   4.415
10415SOL    HW232145   1.693   3.561   4.300
10416SOL     OW32146   6.116   0.125   4.775
10416SOL    HW132147   6.131   0.066   4.854
10416SOL    HW232148   6.033   0.095   4.728
10417SOL     OW32149   2.953   5.254   4.574
10417SOL    HW132150   2.869   5.254   4.629
10417SOL    HW232151   3.029   5.224   4.631
10418SOL     OW32152   6.866   4.184   6.645
10418SOL    HW132153   6.902   4.100   6.606
10418SOL    HW232154   6.930   4.259   6.628
10419SOL     OW32155   1.725   0.159   6.107
10419SOL    HW132156   1.693   0.095   6.176
10419SOL    HW232157   1.740   0.249   6.150
10420SOL     OW32158   6.801   3.713   3.369
10420SOL    HW132159   6.745   3.630   3.366
10420SOL    HW232160   6.851   3.723   3.283
10421SOL     OW32161   0.541   1.661   3.699
10421SOL    HW132162   0.619   1.698   3.749
10421SOL    HW232163   0.521   1.720   3.621
10422SOL     OW32164   6.964   3.138   5.790
10422SOL    HW132165   6.987   3.231   5.760
10422SOL    HW232166   0.029   3.084   5.800
10423SOL     OW32167   6.342   5.312   5.022
10423SOL    HW132168   6.311   5.381   4.956
10423SOL    HW232169   6.442   5.310   5.023
10424SOL     OW32170   5.374   2.753   0.666
10424SOL    HW132171   5.318   2.792   0.739
10424SOL    HW232172   5.315   2.703   0.602
10425SOL     OW32173   0.926   0.287   1.764
10425SOL    HW132174   0.970   0.354   1.824
10425SOL    HW232175   0.838   0.261   1.802
10426SOL     OW32176   6.653   4.916   0.251
10426SOL    HW132177   6.623   4.854   0.179
10426SOL    HW232178   6.732   4.969   0.218
10427SOL     OW32179   3.656   0.479   6.314
10427SOL    HW132180   3.736   0.538   6.320
10427SOL    HW232181   3.581   0.528   6.270
10428SOL     OW32182   3.494   0.941   3.813
10428SOL    HW132183   3.498   0.871   3.884
10428SOL    HW232184   3.546   0.911   3.734
10429SOL     OW32185   0.191   5.184   0.656
10429SOL    HW132186   0.100   5.150   0.680
10429SOL    HW232187   0.256   5.109   0.658
10430SOL     OW32188   5.076   6.561   4.175
10430SOL    HW132189   5.116   6.483   4.223
10430SOL    HW232190   5.059   6.635   4.239
10431SOL     OW32191   3.374   6.004   4.079
10431SOL    HW132192   3.465   5.965   4.062
10431SOL    HW232193   3.313   5.932   4.112
10432SOL     OW32194   5.971   6.616   5.051
10432SOL    HW132195   6.015   6.686   4.994
10432SOL    HW232196   5.930   6.659   5.131
10433SOL     OW32197   1.918   6.269   1.039
10433SOL    HW132198   1.991   6.202   1.051
10433SOL    HW232199   1.955   6.351   0.996
10434SOL     OW32200   4.321   6.596   3.511
10434SOL    HW132201   4.388   6.540   3.461
10434SOL    HW232202   4.255   6.536   3.555
10435SOL     OW32203   0.352   0.407   4.494
10435SOL    HW132204   0.273   0.453   4.536
10435SOL    HW232205   0.356   0.312   4.526
10436SOL     OW32206   0.744   5.113   6.083
10436SOL    HW132207   0.683   5.170   6.028
10436SOL    HW232208   0.718   5.017   6.073
10437SOL     OW32209   5.657   5.271   6.185
10437SOL    HW132210   5.630   5.357   6.142
10437SOL    HW232211   5.734   5.231   6.134
10438SOL     OW32212   6.072   6.365   0.786
10438SOL    HW132213   6.032   6.453   0.761
10438SOL    HW232214   6.083   6.360   0.885
10439SOL     OW32215   3.868   1.269   5.856
10439SOL    HW132216   3.937   1.330   5.819
10439SOL    HW232217   3.911   1.182   5.882
10440SOL     OW32218   0.991   6.578   0.535
10440SOL    HW132219   0.959   6.657   0.484
10440SOL    HW232220   0.997   6.498   0.475
10441SOL     OW32221   3.914   0.698   0.412
10441SOL    HW132222   3.934   0.795   0.426
10441SOL    HW232223   3.853   0.667   0.485
10442SOL     OW32224   3.127   6.299   6.150
10442SOL    HW132225   3.144   6.382   6.098
10442SOL    HW232226   3.129   6.220   6.088
10443SOL     OW32227   5.251   3.970   4.803
10443SOL    HW132228   5.327   3.991   4.864
10443SOL    HW232229   5.187   4.047   4.800
10444SOL     OW32230   3.781   6.121   4.510
10444SOL    HW132231   3.787   6.087   4.604
10444SOL    HW232232   3.842   6.069   4.451
10445SOL     OW32233   0.933   5.382   4.302
10445SOL    HW132234   1.020   5.400   4.258
10445SOL    HW232235   0.947   5.330   4.386
10446SOL     OW32236   1.115   2.924   5.228
10446SOL    HW132237   1.026   2.891   5.260
10446SOL    HW232238   1.146   3.000   5.285
10447SOL     OW32239   6.706   0.965   2.223
10447SOL    HW132240   6.720   0.977   2.125
10447SOL    HW232241   6.736   1.047   2.272
10448SOL     OW32242   3.731   1.552   1.604
10448SOL    HW132243   3.755   1.644   1.635
10448SOL    HW232244   3.801   1.487   1.635
10449SOL     OW32245   2.089   5.278   4.708
10449SOL    HW132246   2.046   5.284   4.618
10449SOL    HW232247   2.072   5.363   4.758
10450SOL     OW32248   0.070   1.838   0.754
10450SOL    HW132249   7.019   1.899   0.790
10450SOL    HW232250   0.072   1.844   0.654
10451SOL     OW32251   1.681   5.164   2.623
10451SOL    HW132252   1.776   5.131   2.626
10451SOL    HW232253   1.660   5.212   2.708
10452SOL     OW32254   5.734   3.473   3.195
10452SOL    HW132255   5.805   3.516   3.139
10452SOL    HW232256   5.696   3.540   3.258
10453SOL     OW32257   4.417   5.442   1.680
10453SOL    HW132258   4.460   5.476   1.764
10453SOL    HW232259   4.484   5.444   1.605
10454SOL     OW32260   4.730   3.015   1.031
10454SOL    HW132261   4.674   2.989   1.110
10454SOL    HW232262   4.703   2.960   0.952
10455SOL     OW32263   6.773   5.331   2.115
10455SOL    HW132264   6.840   5.405   2.126
10455SOL    HW232265   6.807   5.248   2.160
10456SOL     OW32266   2.694   6.386   1.090
10456SOL    HW132267   2.652   6.330   1.017
10456SOL    HW232268   2.750   6.327   1.149
10457SOL     OW32269   3.372   3.354   2.356
10457SOL    HW132270   3.469   3.331   2.345
10457SOL    HW232271   3.322   3.273   2.387
10458SOL     OW32272   0.327   1.219   6.202
10458SOL    HW132273   0.311   1.139   6.260
10458SOL    HW232274   0.308   1.194   6.107
10459SOL     OW32275   4.883   5.083   2.554
10459SOL    HW132276   4.812   5.153   2.558
10459SOL    HW232277   4.966   5.122   2.515
10460SOL     OW32278   1.526   5.130   1.599
10460SOL    HW132279   1.519   5.223   1.562
10460SOL    HW232280   1.437   5.102   1.634
10461SOL     OW32281   1.189   5.597   5.517
10461SOL    HW132282   1.165   5.607   5.420
10461SOL    HW232283   1.107   5.579   5.570
10462SOL     OW32284   5.967   1.546   2.847
10462SOL    HW132285   5.940   1.452   2.828
10462SOL    HW232286   5.964   1.600   2.763
10463SOL     OW32287   4.057   2.855   5.627
10463SOL    HW132288   4.073   2.946   5.666
10463SOL    HW232289   4.069   2.860   5.528
10464SOL     OW32290   6.008   6.347   1.193
10464SOL    HW132291   6.090   6.319   1.143
10464SOL    HW232292   5.971   6.268   1.243
10465SOL     OW32293   5.880   6.516   1.016
10465SOL    HW132294   5.902   6.457   1.093
10465SOL    HW232295   5.948   6.589   1.009
10466SOL     OW32296   4.605   5.061   5.273
10466SOL    HW132297   4.510   5.081   5.297
10466SOL    HW232298   4.664   5.137   5.302
10467SOL     OW32299   1.004   1.887   5.529
10467SOL    HW132300   1.060   1.918   5.452
10467SOL    HW232301   0.937   1.821   5.496
10468SOL     OW32302   3.616   4.957   3.349
10468SOL    HW132303   3.568   5.018   3.286
10468SOL    HW232304   3.676   4.896   3.297
10469SOL     OW32305   3.727   2.375   6.450
10469SOL    HW132306   3.639   2.412   6.422
10469SOL    HW232307   3.737   2.382   6.549
10470SOL     OW32308   2.553   1.965   3.140
10470SOL    HW132309   2.549   1.895   3.068
10470SOL    HW232310   2.527   1.924   3.228
10471SOL     OW32311   2.081   3.127   1.011
10471SOL    HW132312   2.079   3.178   0.925
10471SOL    HW232313   2.174   3.125   1.047
10472SOL     OW32314   3.101   5.641   1.017
10472SOL    HW132315   3.189   5.675   1.052
10472SOL    HW232316   3.063   5.575   1.082
10473SOL     OW32317   5.564   0.354   0.573
10473SOL    HW132318   5.493   0.349   0.503
10473SOL    HW232319   5.652   0.324   0.534
10474SOL     OW32320   4.270   1.440   4.796
10474SOL    HW132321   4.333   1.364   4.779
10474SOL    HW232322   4.289   1.480   4.885
10475SOL     OW32323   4.217   6.318   2.324
10475SOL    HW132324   4.169   6.232   2.344
10475SOL    HW232325   4.211   6.336   2.225
10476SOL     OW32326   6.901   5.827   6.690
10476SOL    HW132327   6.919   5.733   6.720
10476SOL    HW232328   6.938   5.841   6.599
10477SOL     OW32329   6.510   2.360   4.882
10477SOL    HW132330   6.565   2.426   4.832
10477SOL    HW232331   6.549   2.345   4.973
10478SOL     OW32332   0.164   0.226   0.984
10478SOL    HW132333   0.245   0.268   0.942
10478SOL    HW232334   0.180   0.212   1.081
10479SOL     OW32335   6.908   2.781   1.915
10479SOL    HW132336   7.006   2.761   1.913
10479SOL    HW232337   6.894   2.879   1.896
10480SOL     OW32338   5.956   0.399   1.227
10480SOL    HW132339   5.877   0.460   1.226
10480SOL    HW232340   5.927   0.307   1.254
10481SOL     OW32341   2.360   0.732   5.260
10481SOL    HW132342   2.353   0.773   5.169
10481SOL    HW232343   2.274   0.687   5.284
10482SOL     OW32344   0.756   5.958   4.781
10482SOL    HW132345   0.739   6.056   4.771
10482SOL    HW232346   0.718   5.910   4.702
10483SOL     OW32347   0.037   5.316   0.262
10483SOL    HW132348   6.985   5.355   0.204
10483SOL    HW232349   0.005   5.316   0.357
10484SOL     OW32350   6.766   0.709   1.132
10484SOL    HW132351   6.776   0.804   1.105
10484SOL    HW232352   6.731   0.656   1.055
10485SOL     OW32353   3.250   3.093   2.408
10485SOL    HW132354   3.281   3.068   2.500
10485SOL    HW232355   3.259   3.015   2.347
10486SOL     OW32356   6.575   0.617   5.842
10486SOL    HW132357   6.597   0.663   5.756
10486SOL    HW232358   6.501   0.552   5.826
10487SOL     OW32359   4.483   2.070   1.369
10487SOL    HW132360   4.529   2.009   1.305
10487SOL    HW232361   4.406   2.021   1.412
10488SOL     OW32362   1.923   1.912   6.174
10488SOL    HW132363   1.917   2.007   6.146
10488SOL    HW232364   1.915   1.853   6.094
10489SOL     OW32365   6.209   6.131   4.429
10489SOL    HW132366   6.219   6.087   4.340
10489SOL    HW232367   6.236   6.068   4.501
10490SOL     OW32368   5.875   1.024   0.647
10490SOL    HW132369   5.847   1.075   0.566
10490SOL    HW232370   5.796   0.975   0.685
10491SOL     OW32371   2.252   2.795   6.308
10491SOL    HW132372   2.163   2.774   6.348
10491SOL    HW232373   2.273   2.892   6.323
10492SOL     OW32374   4.219   5.725   0.617
10492SOL    HW132375   4.185   5.742   0.525
10492SOL    HW232376   4.270   5.639   0.618
10493SOL     OW32377   2.864   5.587   1.155
10493SOL    HW132378   2.927   5.549   1.223
10493SOL    HW232379   2.875   5.538   1.069
10494SOL     OW32380   6.755   4.152   5.636
10494SOL    HW132381   6.782   4.248   5.621
10494SOL    HW232382   6.709   4.118   5.554
10495SOL     OW32383   6.145   6.607   0.628
10495SOL    HW132384   6.059   6.623   0.580
10495SOL    HW232385   6.195   6.533   0.583
10496SOL     OW32386   6.464   4.378   4.847
10496SOL    HW132387   6.534   4.440   4.812
10496SOL    HW232388   6.374   4.413   4.822
10497SOL     OW32389   1.411   6.551   2.412
10497SOL    HW132390   1.413   6.490   2.334
10497SOL    HW232391   1.318   6.585   2.427
10498SOL     OW32392   5.603   6.308   1.200
10498SOL    HW132393   5.672   6.273   1.137
10498SOL    HW232394   5.573   6.234   1.260
10499SOL     OW32395   4.908   6.451   1.274
10499SOL    HW132396   4.926   6.535   1.222
10499SOL    HW232397   4.902   6.473   1.371
10500SOL     OW32398   5.752   2.360   5.478
10500SOL    HW132399   5.749   2.449   5.525
10500SOL    HW232400   5.725   2.372   5.383
10501SOL     OW32401   2.348   6.071   2.857
10501SOL    HW132402   2.301   6.102   2.939
10501SOL    HW232403   2.355   5.971   2.857
10502SOL     OW32404   2.470   3.853   1.072
10502SOL    HW132405   2.421   3.779   1.119
10502SOL    HW232406   2.558   3.819   1.040
10503SOL     OW32407   5.911   4.349   0.197
10503SOL    HW132408   5.938   4.281   0.264
10503SOL    HW232409   5.981   4.356   0.126
10504SOL     OW32410   0.291   2.346   5.578
10504SOL    HW132411   0.293   2.446   5.575
10504SOL    HW232412   0.378   2.312   5.610
10505SOL     OW32413   5.231   6.362   1.965
10505SOL    HW132414   5.294   6.418   2.018
10505SOL    HW232415   5.187   6.418   1.895
10506SOL     OW32416   0.593   3.543   0.532
10506SOL    HW132417   0.572   3.632   0.491
10506SOL    HW232418   0.515   3.481   0.518
10507SOL     OW32419   1.865   5.586   6.815
10507SOL    HW132420   1.835   5.672   6.856
10507SOL    HW232421   1.959   5.596   6.780
10508SOL     OW32422   1.150   6.136   4.241
10508SOL    HW132423   1.130   6.044   4.276
10508SOL    HW232424   1.231   6.132   4.183
10509SOL     OW32425   5.991   4.316   4.748
10509SOL    HW132426   6.089   4.322   4.729
10509SOL    HW232427   5.943   4.384   4.692
10510SOL     OW32428   4.775   6.665   0.120
10510SOL    HW132429   4.754   6.573   0.154
10510SOL    HW232430   4.858   6.699   0.164
10511SOL     OW32431   2.745   1.442   1.942
10511SOL    HW132432   2.751   1.542   1.942
10511SOL    HW232433   2.818   1.405   2.000
10512SOL     OW32434   3.953   6.543   5.946
10512SOL    HW132435   3.912   6.619   5.996
10512SOL    HW232436   4.051   6.560   5.935
10513SOL     OW32437   6.638   2.829   3.226
10513SOL    HW132438   6.633   2.797   3.132
10513SOL    HW232439   6.620   2.928   3.229
10514SOL     OW32440   1.375   1.887   1.773
10514SOL    HW132441   1.382   1.946   1.692
10514SOL    HW232442   1.466   1.862   1.803
10515SOL     OW32443   2.473   2.661   3.930
10515SOL    HW132444   2.415   2.713   3.993
10515SOL    HW232445   2.449   2.684   3.836
10516SOL     OW32446   2.728   1.937   0.435
10516SOL    HW132447   2.663   1.887   0.378
10516SOL    HW232448   2.789   1.991   0.376
10517SOL     OW32449   1.388   4.345   1.189
10517SOL    HW132450   1.351   4.266   1.139
10517SOL    HW232451   1.323   4.421   1.184
10518SOL     OW32452   0.340   5.504   1.927
10518SOL    HW132453   0.292   5.419   1.907
10518SOL    HW232454   0.280   5.565   1.979
10519SOL     OW32455   2.963   4.714   0.939
10519SOL    HW132456   2.951   4.809   0.909
10519SOL    HW232457   2.995   4.713   1.034
10520SOL     OW32458   6.511   2.247   6.223
10520SOL    HW132459   6.449   2.302   6.280
10520SOL    HW232460   6.550   2.173   6.278
10521SOL     OW32461   6.500   5.051   1.475
10521SOL    HW132462   6.590   5.009   1.467
10521SOL    HW232463   6.497   5.135   1.421
10522SOL     OW32464   0.409   2.801   3.079
10522SOL    HW132465   0.475   2.798   3.005
10522SOL    HW232466   0.371   2.709   3.094
10523SOL     OW32467   0.227   4.542   2.973
10523SOL    HW132468   0.158   4.473   2.954
10523SOL    HW232469   0.188   4.633   2.959
10524SOL     OW32470   0.629   5.351   4.062
10524SOL    HW132471   0.666   5.320   3.975
10524SOL    HW232472   0.538   5.390   4.048
10525SOL     OW32473   3.939   6.976   5.299
10525SOL    HW132474   3.954   6.931   5.211
10525SOL    HW232475   4.025   6.980   5.350
10526SOL     OW32476   0.658   6.502   1.779
10526SOL    HW132477   0.719   6.434   1.737
10526SOL    HW232478   0.676   6.592   1.739
10527SOL     OW32479   1.081   0.294   5.963
10527SOL    HW132480   1.011   0.289   6.035
10527SOL    HW232481   1.087   0.388   5.929
10528SOL     OW32482   0.664   4.435   6.397
10528SOL    HW132483   0.724   4.482   6.332
10528SOL    HW232484   0.706   4.436   6.487
10529SOL     OW32485   1.509   5.587   5.040
10529SOL    HW132486   1.543   5.493   5.037
10529SOL    HW232487   1.513   5.621   5.134
10530SOL     OW32488   1.179   6.162   5.941
10530SOL    HW132489   1.093   6.111   5.935
10530SOL    HW232490   1.228   6.154   5.855
10531SOL     OW32491   2.931   2.230   4.004
10531SOL    HW132492   2.871   2.275   3.939
10531SOL    HW232493   2.971   2.148   3.962
10532SOL     OW32494   6.505   6.721   6.770
10532SOL    HW132495   6.475   6.806   6.727
10532SOL    HW232496   6.568   6.741   6.845
10533SOL     OW32497   3.131   6.173   4.591
10533SOL    HW132498   3.210   6.147   4.646
10533SOL    HW232499   3.162   6.196   4.498
10534SOL     OW32500   6.958   5.522   2.093
10534SOL    HW132501   6.915   5.613   2.095
10534SOL    HW232502   0.011   5.518   2.162
10535SOL     OW32503   1.640   1.319   1.704
10535SOL    HW132504   1.610   1.413   1.686
10535SOL    HW232505   1.566   1.269   1.748
10536SOL     OW32506   4.386   6.960   4.225
10536SOL    HW132507   4.353   6.867   4.242
10536SOL    HW232508   4.483   6.957   4.202
10537SOL     OW32509   4.947   6.322   4.029
10537SOL    HW132510   5.036   6.341   3.987
10537SOL    HW232511   4.924   6.226   4.016
10538SOL     OW32512   5.780   4.036   2.482
10538SOL    HW132513   5.762   4.082   2.569
10538SOL    HW232514   5.774   4.102   2.407
10539SOL     OW32515   5.770   5.602   1.312
10539SOL    HW132516   5.713   5.681   1.333
10539SOL    HW232517   5.854   5.606   1.367
10540SOL     OW32518   2.206   4.134   6.119
10540SOL    HW132519   2.180   4.095   6.208
10540SOL    HW232520   2.127   4.134   6.058
10541SOL     OW32521   3.512   2.913   3.849
10541SOL    HW132522   3.573   2.910   3.770
10541SOL    HW232523   3.418   2.926   3.817
10542SOL     OW32524   6.823   0.036   4.911
10542SOL    HW132525   6.765   0.108   4.874
10542SOL    HW232526   6.851   6.994   4.837
10543SOL     OW32527   0.538   1.874   4.439
10543SOL    HW132528   0.561   1.962   4.480
10543SOL    HW232529   0.472   1.826   4.497
10544SOL     OW32530   2.169   6.429   3.166
10544SOL    HW132531   2.099   6.366   3.198
10544SOL    HW232532   2.126   6.505   3.117
10545SOL     OW32533   1.344   2.404   1.641
10545SOL    HW132534   1.404   2.433   1.715
10545SOL    HW232535   1.250   2.395   1.675
10546SOL     OW32536   3.991   6.143   1.135
10546SOL    HW132537   3.976   6.071   1.203
10546SOL    HW232538   3.974   6.107   1.044
10547SOL     OW32539   4.704   1.407   4.265
10547SOL    HW132540   4.741   1.315   4.277
10547SOL    HW232541   4.635   1.407   4.193
10548SOL     OW32542   0.578   4.155   3.883
10548SOL    HW132543   0.549   4.095   3.809
10548SOL    HW232544   0.625   4.102   3.953
10549SOL     OW32545   0.495   1.132   0.963
10549SOL    HW132546   0.577   1.189   0.955
10549SOL    HW232547   0.478   1.085   0.877
10550SOL     OW32548   4.359   6.878   3.433
10550SOL    HW132549   4.406   6.919   3.511
10550SOL    HW232550   4.355   6.779   3.445
10551SOL     OW32551   2.235   1.874   5.945
10551SOL    HW132552   2.247   1.795   6.005
10551SOL    HW232553   2.324   1.901   5.908
10552SOL     OW32554   2.373   0.943   5.084
10552SOL    HW132555   2.438   0.982   5.150
10552SOL    HW232556   2.291   1.000   5.081
10553SOL     OW32557   6.946   4.536   0.537
10553SOL    HW132558   6.981   4.466   0.475
10553SOL    HW232559   6.852   4.559   0.511
10554SOL     OW32560   5.379   5.495   2.539
10554SOL    HW132561   5.425   5.471   2.625
10554SOL    HW232562   5.426   5.573   2.497
10555SOL     OW32563   2.793   2.375   0.703
10555SOL    HW132564   2.818   2.471   0.689
10555SOL    HW232565   2.875   2.319   0.711
10556SOL     OW32566   3.227   1.027   3.649
10556SOL    HW132567   3.154   1.088   3.680
10556SOL    HW232568   3.272   0.985   3.728
10557SOL     OW32569   1.855   3.158   4.138
10557SOL    HW132570   1.861   3.155   4.038
10557SOL    HW232571   1.937   3.201   4.175
10558SOL     OW32572   3.485   5.677   5.982
10558SOL    HW132573   3.581   5.701   5.969
10558SOL    HW232574   3.445   5.735   6.052
10559SOL     OW32575   3.796   0.793   0.774
10559SOL    HW132576   3.718   0.730   0.780
10559SOL    HW232577   3.815   0.832   0.864
10560SOL     OW32578   4.185   6.303   2.005
10560SOL    HW132579   4.276   6.318   1.964
10560SOL    HW232580   4.158   6.208   1.990
10561SOL     OW32581   3.641   4.413   1.674
10561SOL    HW132582   3.617   4.501   1.715
10561SOL    HW232583   3.597   4.339   1.724
10562SOL     OW32584   3.916   5.712   0.111
10562SOL    HW132585   3.827   5.685   0.076
10562SOL    HW232586   3.956   5.782   0.052
10563SOL     OW32587   0.809   0.589   1.304
10563SOL    HW132588   0.836   0.498   1.337
10563SOL    HW232589   0.846   0.604   1.213
10564SOL     OW32590   6.129   6.176   3.920
10564SOL    HW132591   6.166   6.145   4.008
10564SOL    HW232592   6.196   6.233   3.873
10565SOL     OW32593   6.531   6.731   5.888
10565SOL    HW132594   6.494   6.745   5.796
10565SOL    HW232595   6.627   6.760   5.890
10566SOL     OW32596   2.602   2.332   6.925
10566SOL    HW132597   2.508   2.304   6.942
10566SOL    HW232598   2.640   2.277   6.851
10567SOL     OW32599   2.209   2.705   5.787
10567SOL    HW132600   2.269   2.784   5.803
10567SOL    HW232601   2.182   2.702   5.691
10568SOL     OW32602   6.181   2.525   0.126
10568SOL    HW132603   6.216   2.518   0.219
10568SOL    HW232604   6.120   2.448   0.106
10569SOL     OW32605   5.496   0.943   1.389
10569SOL    HW132606   5.461   0.932   1.297
10569SOL    HW232607   5.499   0.854   1.435
10570SOL     OW32608   1.785   4.720   3.637
10570SOL    HW132609   1.817   4.703   3.544
10570SOL    HW232610   1.861   4.706   3.701
10571SOL     OW32611   0.358   3.944   5.359
10571SOL    HW132612   0.377   3.940   5.457
10571SOL    HW232613   0.275   3.998   5.343
10572SOL     OW32614   6.831   5.094   2.211
10572SOL    HW132615   6.870   5.046   2.289
10572SOL    HW232616   6.813   5.030   2.137
10573SOL     OW32617   4.961   0.776   4.902
10573SOL    HW132618   5.001   0.832   4.975
10573SOL    HW232619   4.996   0.682   4.909
10574SOL     OW32620   6.446   1.013   4.017
10574SOL    HW132621   6.397   1.063   4.089
10574SOL    HW232622   6.524   1.068   3.986
10575SOL     OW32623   6.220   0.985   3.710
10575SOL    HW132624   6.143   0.921   3.703
10575SOL    HW232625   6.306   0.933   3.710
10576SOL     OW32626   1.399   5.178   3.018
10576SOL    HW132627   1.453   5.116   3.076
10576SOL    HW232628   1.330   5.125   2.968
10577SOL     OW32629   2.430   4.853   0.535
10577SOL    HW132630   2.448   4.857   0.633
10577SOL    HW232631   2.505   4.898   0.485
10578SOL     OW32632   4.996   0.960   3.397
10578SOL    HW132633   4.918   0.901   3.377
10578SOL    HW232634   5.080   0.906   3.394
10579SOL     OW32635   3.259   2.983   1.393
10579SOL    HW132636   3.228   2.890   1.411
10579SOL    HW232637   3.186   3.035   1.348
10580SOL     OW32638   6.448   6.461   6.265
10580SOL    HW132639   6.358   6.429   6.295
10580SOL    HW232640   6.499   6.495   6.344
10581SOL     OW32641   5.106   0.028   2.883
10581SOL    HW132642   5.093   0.128   2.880
10581SOL    HW232643   5.132   7.015   2.792
10582SOL     OW32644   5.310   4.645   6.351
10582SOL    HW132645   5.280   4.691   6.435
10582SOL    HW232646   5.395   4.596   6.369
10583SOL     OW32647   4.491   0.619   4.308
10583SOL    HW132648   4.540   0.664   4.383
10583SOL    HW232649   4.510   0.521   4.310
10584SOL     OW32650   6.547   0.042   6.755
10584SOL    HW132651   6.564   0.130   6.798
10584SOL    HW232652   6.587   6.989   6.811
10585SOL     OW32653   2.074   2.094   5.600
10585SOL    HW132654   2.085   2.005   5.645
10585SOL    HW232655   2.019   2.154   5.658
10586SOL     OW32656   5.036   4.864   5.380
10586SOL    HW132657   5.099   4.821   5.445
10586SOL    HW232658   4.942   4.842   5.406
10587SOL     OW32659   6.952   5.581   6.783
10587SOL    HW132660   7.005   5.505   6.821
10587SOL    HW232661   6.857   5.553   6.770
10588SOL     OW32662   1.861   1.879   5.330
10588SOL    HW132663   1.789   1.927   5.280
10588SOL    HW232664   1.862   1.783   5.304
10589SOL     OW32665   5.482   0.016   4.239
10589SOL    HW132666   5.506   0.034   4.144
10589SOL    HW232667   5.543   6.966   4.276
10590SOL     OW32668   0.351   6.263   1.649
10590SOL    HW132669   0.431   6.223   1.694
10590SOL    HW232670   0.294   6.191   1.612
10591SOL     OW32671   2.483   1.775   1.139
10591SOL    HW132672   2.410   1.741   1.199
10591SOL    HW232673   2.442   1.818   1.059
10592SOL     OW32674   5.672   2.775   4.181
10592SOL    HW132675   5.579   2.742   4.199
10592SOL    HW232676   5.731   2.698   4.158
10593SOL     OW32677   1.608   6.546   0.734
10593SOL    HW132678   1.648   6.637   0.723
10593SOL    HW232679   1.622   6.493   0.651
10594SOL     OW32680   4.551   1.899   2.854
10594SOL    HW132681   4.511   1.808   2.843
10594SOL    HW232682   4.540   1.929   2.948
10595SOL     OW32683   5.999   0.050   0.015
10595SOL    HW132684   6.007   6.975   0.048
10595SOL    HW232685   6.062   0.064   6.958
10596SOL     OW32686   5.185   0.859   6.807
10596SOL    HW132687   5.182   0.759   6.801
10596SOL    HW232688   5.159   0.889   6.899
10597SOL     OW32689   2.203   0.329   5.287
10597SOL    HW132690   2.168   0.416   5.250
10597SOL    HW232691   2.259   0.284   5.217
10598SOL     OW32692   2.534   2.133   6.673
10598SOL    HW132693   2.493   2.217   6.637
10598SOL    HW232694   2.465   2.082   6.725
10599SOL     OW32695   6.250   3.936   6.588
10599SOL    HW132696   6.285   3.875   6.517
10599SOL    HW232697   6.164   3.978   6.557
10600SOL     OW32698   3.695   2.037   1.179
10600SOL    HW132699   3.619   2.095   1.211
10600SOL    HW232700   3.658   1.958   1.131
10601SOL     OW32701   1.083   5.163   5.561
10601SOL    HW132702   1.077   5.078   5.509
10601SOL    HW232703   1.046   5.238   5.506
10602SOL     OW32704   1.146   1.352   1.144
10602SOL    HW132705   1.196   1.361   1.231
10602SOL    HW232706   1.111   1.259   1.136
10603SOL     OW32707   4.907   6.776   3.317
10603SOL    HW132708   4.845   6.726   3.378
10603SOL    HW232709   4.877   6.765   3.223
10604SOL     OW32710   6.976   6.270   4.911
10604SOL    HW132711   6.985   6.341   4.981
10604SOL    HW232712   6.880   6.248   4.897
10605SOL     OW32713   2.020   0.035   6.762
10605SOL    HW132714   1.946   6.988   6.772
10605SOL    HW232715   2.032   0.056   6.665
10606SOL     OW32716   6.646   1.124   1.835
10606SOL    HW132717   6.713   1.082   1.775
10606SOL    HW232718   6.592   1.053   1.881
10607SOL     OW32719   4.037   4.941   0.660
10607SOL    HW132720   4.008   4.850   0.689
10607SOL    HW232721   4.008   4.956   0.565
10608SOL     OW32722   6.812   3.370   3.536
10608SOL    HW132723   6.753   3.411   3.467
10608SOL    HW232724   6.870   3.440   3.577
10609SOL     OW32725   2.282   6.940   6.733
10609SOL    HW132726   2.332   7.007   6.678
10609SOL    HW232727   2.184   6.951   6.719
10610SOL     OW32728   0.184   1.945   4.423
10610SOL    HW132729   0.129   2.021   4.459
10610SOL    HW232730   0.150   1.859   4.461
10611SOL     OW32731   2.688   5.070   6.029
10611SOL    HW132732   2.621   5.012   5.984
10611SOL    HW232733   2.767   5.083   5.970
10612SOL     OW32734   5.137   2.054   4.319
10612SOL    HW132735   5.193   1.971   4.313
10612SOL    HW232736   5.044   2.033   4.287
10613SOL     OW32737   6.115   5.651   4.863
10613SOL    HW132738   6.207   5.653   4.825
10613SOL    HW232739   6.059   5.721   4.819
10614SOL     OW32740   5.459   1.432   4.660
10614SOL    HW132741   5.382   1.384   4.703
10614SOL    HW232742   5.543   1.381   4.677
10615SOL     OW32743   3.397   1.115   5.523
10615SOL    HW132744   3.339   1.195   5.509
10615SOL    HW232745   3.491   1.145   5.543
10616SOL     OW32746   3.266   6.365   6.677
10616SOL    HW132747   3.222   6.283   6.641
10616SOL    HW232748   3.359   6.342   6.708
10617SOL     OW32749   2.312   4.431   1.383
10617SOL    HW132750   2.377   4.383   1.325
10617SOL    HW232751   2.269   4.366   1.446
10618SOL     OW32752   0.755   5.039   5.515
10618SOL    HW132753   0.663   5.034   5.555
10618SOL    HW232754   0.750   5.081   5.425
10619SOL     OW32755   0.666   2.769   3.207
10619SOL    HW132756   0.697   2.708   3.134
10619SOL    HW232757   0.568   2.784   3.198
10620SOL     OW32758   1.622   6.934   5.382
10620SOL    HW132759   1.605   6.943   5.283
10620SOL    HW232760   1.712   6.894   5.396
10621SOL     OW32761   0.210   4.370   2.027
10621SOL    HW132762   0.148   4.354   2.104
10621SOL    HW232763   0.173   4.326   1.945
10622SOL     OW32764   4.433   2.330   1.550
10622SOL    HW132765   4.522   2.375   1.548
10622SOL    HW232766   4.433   2.254   1.485
10623SOL     OW32767   6.521   5.686   5.395
10623SOL    HW132768   6.473   5.605   5.361
10623SOL    HW232769   6.519   5.757   5.324
10624SOL     OW32770   0.487   2.374   5.135
10624SOL    HW132771   0.429   2.435   5.190
10624SOL    HW232772   0.567   2.347   5.189
10625SOL     OW32773   0.593   4.038   1.625
10625SOL    HW132774   0.674   4.078   1.581
10625SOL    HW232775   0.614   3.944   1.652
10626SOL     OW32776   3.099   2.655   0.888
10626SOL    HW132777   3.185   2.608   0.869
10626SOL    HW232778   3.063   2.692   0.803
10627SOL     OW32779   6.272   1.112   6.680
10627SOL    HW132780   6.177   1.102   6.710
10627SOL    HW232781   6.275   1.159   6.592
10628SOL     OW32782   4.607   6.936   1.029
10628SOL    HW132783   4.696   6.957   0.990
10628SOL    HW232784   4.618   6.908   1.125
10629SOL     OW32785   3.282   4.923   4.631
10629SOL    HW132786   3.293   4.842   4.688
10629SOL    HW232787   3.246   4.998   4.687
10630SOL     OW32788   5.925   1.218   2.522
10630SOL    HW132789   5.910   1.314   2.496
10630SOL    HW232790   5.856   1.161   2.479
10631SOL     OW32791   3.752   4.416   5.507
10631SOL    HW132792   3.733   4.513   5.491
10631SOL    HW232793   3.679   4.377   5.563
10632SOL     OW32794   4.952   6.275   3.673
10632SOL    HW132795   4.867   6.234   3.640
10632SOL    HW232796   4.980   6.231   3.758
10633SOL     OW32797   2.474   2.378   1.386
10633SOL    HW132798   2.431   2.342   1.303
10633SOL    HW232799   2.564   2.335   1.397
10634SOL     OW32800   1.760   5.342   0.390
10634SOL    HW132801   1.812   5.294   0.320
10634SOL    HW232802   1.774   5.298   0.478
10635SOL     OW32803   1.953   3.285   6.615
10635SOL    HW132804   1.855   3.271   6.629
10635SOL    HW232805   1.988   3.213   6.554
10636SOL     OW32806   0.054   2.308   1.435
10636SOL    HW132807   6.996   2.352   1.480
10636SOL    HW232808   0.024   2.224   1.390
10637SOL     OW32809   1.269   5.332   6.536
10637SOL    HW132810   1.327   5.254   6.512
10637SOL    HW232811   1.173   5.305   6.530
10638SOL     OW32812   5.537   6.302   3.039
10638SOL    HW132813   5.509   6.381   2.985
10638SOL    HW232814   5.462   6.236   3.044
10639SOL     OW32815   1.865   3.572   2.402
10639SOL    HW132816   1.870   3.627   2.485
10639SOL    HW232817   1.933   3.604   2.336
10640SOL     OW32818   4.911   0.402   3.498
10640SOL    HW132819   4.990   0.380   3.555
10640SOL    HW232820   4.861   0.479   3.538
10641SOL     OW32821   2.132   1.575   2.942
10641SOL    HW132822   2.145   1.492   2.888
10641SOL    HW232823   2.192   1.573   3.022
10642SOL     OW32824   6.127   1.674   0.524
10642SOL    HW132825   6.106   1.596   0.464
10642SOL    HW232826   6.205   1.652   0.581
10643SOL     OW32827   2.396   6.324   5.366
10643SOL    HW132828   2.377   6.422   5.362
10643SOL    HW232829   2.319   6.273   5.328
10644SOL     OW32830   5.694   3.459   1.251
10644SOL    HW132831   5.698   3.367   1.211
10644SOL    HW232832   5.773   3.472   1.311
10645SOL     OW32833   2.320   2.411   4.156
10645SOL    HW132834   2.384   2.480   4.188
10645SOL    HW232835   2.349   2.379   4.065
10646SOL     OW32836   6.681   0.545   6.108
10646SOL    HW132837   6.701   0.588   6.196
10646SOL    HW232838   6.647   0.613   6.044
10647SOL     OW32839   3.585   5.411   5.098
10647SOL    HW132840   3.513   5.435   5.032
10647SOL    HW232841   3.598   5.312   5.098
10648SOL     OW32842   6.086   5.007   6.242
10648SOL    HW132843   5.990   5.030   6.257
10648SOL    HW232844   6.097   4.967   6.151
10649SOL     OW32845   0.984   3.462   2.943
10649SOL    HW132846   0.922   3.384   2.934
10649SOL    HW232847   0.954   3.537   2.883
10650SOL     OW32848   0.494   0.741   4.234
10650SOL    HW132849   0.407   0.759   4.279
10650SOL    HW232850   0.566   0.794   4.278
10651SOL     OW32851   6.330   5.579   5.773
10651SOL    HW132852   6.374   5.492   5.754
10651SOL    HW232853   6.367   5.617   5.858
10652SOL     OW32854   2.083   0.050   6.491
10652SOL    HW132855   1.997   0.048   6.439
10652SOL    HW232856   2.156   0.008   6.437
10653SOL     OW32857   3.891   5.962   5.349
10653SOL    HW132858   3.936   5.872   5.350
10653SOL    HW232859   3.880   5.993   5.255
10654SOL     OW32860   5.143   0.766   5.848
10654SOL    HW132861   5.085   0.830   5.898
10654SOL    HW232862   5.205   0.720   5.912
10655SOL     OW32863   1.462   4.873   0.128
10655SOL    HW132864   1.488   4.931   0.205
10655SOL    HW232865   1.538   4.811   0.107
10656SOL     OW32866   6.721   1.215   2.351
10656SOL    HW132867   6.809   1.252   2.320
10656SOL    HW232868   6.646   1.262   2.305
10657SOL     OW32869   5.909   0.756   4.638
10657SOL    HW132870   5.842   0.810   4.689
10657SOL    HW232871   5.863   0.681   4.590
10658SOL     OW32872   5.985   4.055   4.856
10658SOL    HW132873   5.992   4.137   4.800
10658SOL    HW232874   6.036   4.067   4.941
10659SOL     OW32875   1.042   4.801   0.726
10659SOL    HW132876   1.036   4.895   0.693
10659SOL    HW232877   1.081   4.743   0.654
10660SOL     OW32878   6.040   3.918   6.072
10660SOL    HW132879   5.986   3.873   6.002
10660SOL    HW232880   6.122   3.958   6.031
10661SOL     OW32881   1.595   6.333   1.001
10661SOL    HW132882   1.530   6.402   0.969
10661SOL    HW232883   1.687   6.372   1.002
10662SOL     OW32884   4.351   0.631   2.445
10662SOL    HW132885   4.342   0.646   2.543
10662SOL    HW232886   4.437   0.583   2.426
10663SOL     OW32887   0.892   1.344   2.987
10663SOL    HW132888   0.854   1.332   2.895
10663SOL    HW232889   0.991   1.328   2.984
10664SOL     OW32890   6.235   4.044   5.230
10664SOL    HW132891   6.288   4.097   5.163
10664SOL    HW232892   6.138   4.065   5.220
10665SOL     OW32893   1.501   2.025   6.952
10665SOL    HW132894   1.447   1.941   6.958
10665SOL    HW232895   1.493   2.064   6.861
10666SOL     OW32896   2.992   4.112   1.878
10666SOL    HW132897   3.003   4.075   1.971
10666SOL    HW232898   2.963   4.207   1.883
10667SOL     OW32899   4.808   2.530   3.595
10667SOL    HW132900   4.832   2.573   3.681
10667SOL    HW232901   4.709   2.520   3.588
10668SOL     OW32902   2.924   1.327   4.854
10668SOL    HW132903   2.954   1.328   4.759
10668SOL    HW232904   2.827   1.303   4.858
10669SOL     OW32905   6.538   0.617   1.275
10669SOL    HW132906   6.620   0.659   1.236
10669SOL    HW232907   6.485   0.574   1.202
10670SOL     OW32908   5.563   4.447   4.928
10670SOL    HW132909   5.549   4.349   4.922
10670SOL    HW232910   5.586   4.483   4.837
10671SOL     OW32911   1.577   1.911   4.433
10671SOL    HW132912   1.614   1.894   4.524
10671SOL    HW232913   1.634   1.980   4.387
10672SOL     OW32914   6.653   4.329   2.090
10672SOL    HW132915   6.613   4.280   2.013
10672SOL    HW232916   6.585   4.391   2.129
10673SOL     OW32917   0.368   0.991   6.977
10673SOL    HW132918   0.334   1.085   6.981
10673SOL    HW232919   0.458   0.986   7.019
10674SOL     OW32920   3.981   3.448   3.997
10674SOL    HW132921   3.946   3.416   4.085
10674SOL    HW232922   4.032   3.374   3.953
10675SOL     OW32923   2.153   0.377   6.536
10675SOL    HW132924   2.162   0.390   6.437
10675SOL    HW232925   2.070   0.324   6.555
10676SOL     OW32926   0.190   6.143   5.017
10676SOL    HW132927   0.143   6.085   5.085
10676SOL    HW232928   0.122   6.196   4.967
10677SOL     OW32929   1.320   0.509   1.459
10677SOL    HW132930   1.360   0.425   1.424
10677SOL    HW232931   1.271   0.490   1.544
10678SOL     OW32932   4.662   5.172   4.443
10678SOL    HW132933   4.598   5.097   4.462
10678SOL    HW232934   4.649   5.244   4.511
10679SOL     OW32935   3.999   5.642   6.469
10679SOL    HW132936   3.955   5.604   6.388
10679SOL    HW232937   4.051   5.571   6.516
10680SOL     OW32938   3.795   2.127   4.052
10680SOL    HW132939   3.778   2.129   3.953
10680SOL    HW232940   3.717   2.168   4.100
10681SOL     OW32941   6.965   3.819   0.305
10681SOL    HW132942   6.891   3.762   0.267
10681SOL    HW232943   6.963   3.909   0.262
10682SOL     OW32944   6.998   2.294   5.399
10682SOL    HW132945   0.055   2.304   5.336
10682SOL    HW232946   7.011   2.358   5.476
10683SOL     OW32947   4.864   0.864   3.710
10683SOL    HW132948   4.820   0.952   3.694
10683SOL    HW232949   4.963   0.874   3.699
10684SOL     OW32950   4.773   4.579   2.613
10684SOL    HW132951   4.700   4.523   2.651
10684SOL    HW232952   4.798   4.544   2.523
10685SOL     OW32953   0.877   5.725   1.471
10685SOL    HW132954   0.909   5.743   1.564
10685SOL    HW232955   0.938   5.771   1.406
10686SOL     OW32956   1.070   3.927   5.947
10686SOL    HW132957   1.036   3.833   5.937
10686SOL    HW232958   1.169   3.929   5.935
10687SOL     OW32959   6.301   5.238   4.263
10687SOL    HW132960   6.373   5.170   4.279
10687SOL    HW232961   6.248   5.212   4.182
10688SOL     OW32962   5.769   3.059   2.913
10688SOL    HW132963   5.755   2.985   2.847
10688SOL    HW232964   5.844   3.117   2.882
10689SOL     OW32965   6.634   0.300   3.147
10689SOL    HW132966   6.564   0.255   3.091
10689SOL    HW232967   6.718   0.246   3.145
10690SOL     OW32968   0.405   5.459   3.968
10690SOL    HW132969   0.325   5.519   3.976
10690SOL    HW232970   0.401   5.411   3.880
10691SOL     OW32971   1.526   1.912   2.240
10691SOL    HW132972   1.563   1.821   2.220
10691SOL    HW232973   1.568   1.979   2.177
10692SOL     OW32974   2.163   6.838   4.178
10692SOL    HW132975   2.185   6.757   4.233
10692SOL    HW232976   2.112   6.810   4.097
10693SOL     OW32977   1.329   5.643   1.291
10693SOL    HW132978   1.266   5.712   1.328
10693SOL    HW232979   1.298   5.615   1.200
10694SOL     OW32980   5.185   6.330   0.035
10694SOL    HW132981   5.202   6.427   0.019
10694SOL    HW232982   5.138   6.291   6.975
10695SOL     OW32983   1.197   2.205   2.570
10695SOL    HW132984   1.183   2.304   2.563
10695SOL    HW232985   1.285   2.181   2.530
10696SOL     OW32986   6.297   4.442   3.566
10696SOL    HW132987   6.354   4.447   3.484
10696SOL    HW232988   6.260   4.349   3.576
10697SOL     OW32989   0.608   6.638   5.041
10697SOL    HW132990   0.578   6.580   4.965
10697SOL    HW232991   0.560   6.610   5.125
10698SOL     OW32992   5.678   4.359   7.002
10698SOL    HW132993   5.581   4.382   6.991
10698SOL    HW232994   5.692   4.319   0.073
10699SOL     OW32995   4.080   4.436   1.642
10699SOL    HW132996   4.062   4.476   1.732
10699SOL    HW232997   4.037   4.493   1.572
10700SOL     OW32998   5.590   6.501   0.447
10700SOL    HW132999   5.537   6.560   0.508
10700SOL    HW233000   5.549   6.502   0.356
10701SOL     OW33001   2.426   6.806   6.942
10701SOL    HW133002   2.517   6.845   6.936
10701SOL    HW233003   2.366   6.848   6.873
10702SOL     OW33004   5.514   3.310   1.783
10702SOL    HW133005   5.473   3.346   1.868
10702SOL    HW233006   5.441   3.292   1.717
10703SOL     OW33007   2.762   3.110   5.294
10703SOL    HW133008   2.679   3.066   5.261
10703SOL    HW233009   2.820   3.134   5.216
10704SOL     OW33010   5.824   5.644   2.349
10704SOL    HW133011   5.821   5.575   2.421
10704SOL    HW233012   5.743   5.637   2.291
10705SOL     OW33013   6.168   4.954   1.921
10705SOL    HW133014   6.095   4.961   1.989
10705SOL    HW233015   6.191   4.858   1.906
10706SOL     OW33016   4.518   0.858   2.775
10706SOL    HW133017   4.523   0.815   2.866
10706SOL    HW233018   4.601   0.837   2.724
10707SOL     OW33019   0.100   0.127   4.418
10707SOL    HW133020   0.061   0.038   4.392
10707SOL    HW233021   0.186   0.112   4.468
10708SOL     OW33022   3.815   1.171   1.333
10708SOL    HW133023   3.868   1.095   1.371
10708SOL    HW233024   3.755   1.208   1.404
10709SOL     OW33025   5.172   5.136   5.628
10709SOL    HW133026   5.211   5.169   5.542
10709SOL    HW233027   5.246   5.122   5.694
10710SOL     OW33028   6.886   0.513   4.437
10710SOL    HW133029   6.939   0.522   4.353
10710SOL    HW233030   6.889   0.417   4.468
10711SOL     OW33031   2.077   6.866   4.508
10711SOL    HW133032   2.033   6.926   4.441
10711SOL    HW233033   2.006   6.817   4.560
10712SOL     OW33034   2.893   0.621   1.877
10712SOL    HW133035   2.951   0.652   1.803
10712SOL    HW233036   2.884   0.521   1.873
10713SOL     OW33037   0.483   3.577   2.246
10713SOL    HW133038   0.469   3.478   2.246
10713SOL    HW233039   0.576   3.598   2.278
10714SOL     OW33040   5.847   3.472   5.117
10714SOL    HW133041   5.875   3.441   5.208
10714SOL    HW233042   5.855   3.396   5.052
10715SOL     OW33043   5.043   0.685   2.702
10715SOL    HW133044   5.117   0.683   2.770
10715SOL    HW233045   4.959   0.718   2.746
10716SOL     OW33046   6.036   1.855   3.428
10716SOL    HW133047   5.956   1.876   3.484
10716SOL    HW233048   6.058   1.758   3.435
10717SOL     OW33049   0.594   2.103   1.588
10717SOL    HW133050   0.587   2.003   1.584
10717SOL    HW233051   0.527   2.143   1.526
10718SOL     OW33052   1.479   2.941   6.756
10718SOL    HW133053   1.574   2.937   6.788
10718SOL    HW233054   1.425   2.871   6.803
10719SOL     OW33055   6.371   5.557   2.621
10719SOL    HW133056   6.337   5.613   2.545
10719SOL    HW233057   6.413   5.474   2.584
10720SOL     OW33058   0.323   4.091   5.004
10720SOL    HW133059   0.234   4.081   4.960
10720SOL    HW233060   0.377   4.159   4.955
10721SOL     OW33061   5.593   3.811   5.085
10721SOL    HW133062   5.638   3.853   5.005
10721SOL    HW233063   5.661   3.794   5.156
10722SOL     OW33064   0.698   5.133   6.607
10722SOL    HW133065   0.703   5.157   6.510
10722SOL    HW233066   0.756   5.053   6.624
10723SOL     OW33067   0.441   3.186   5.773
10723SOL    HW133068   0.500   3.267   5.777
10723SOL    HW233069   0.493   3.109   5.738
10724SOL     OW33070   6.262   1.341   6.496
10724SOL    HW133071   6.354   1.367   6.467
10724SOL    HW233072   6.219   1.418   6.544
10725SOL     OW33073   1.222   5.657   4.423
10725SOL    HW133074   1.193   5.648   4.518
10725SOL    HW233075   1.316   5.622   4.413
10726SOL     OW33076   5.441   0.149   5.223
10726SOL    HW133077   5.447   0.106   5.132
10726SOL    HW233078   5.345   0.155   5.250
10727SOL     OW33079   0.349   5.003   5.019
10727SOL    HW133080   0.259   4.963   5.005
10727SOL    HW233081   0.406   4.988   4.938
10728SOL     OW33082   7.003   6.064   6.702
10728SOL    HW133083   0.084   6.062   6.696
10728SOL    HW233084   6.969   5.972   6.725
10729SOL     OW33085   5.460   1.681   1.780
10729SOL    HW133086   5.436   1.719   1.690
10729SOL    HW233087   5.380   1.639   1.821
10730SOL     OW33088   1.809   1.342   1.477
10730SOL    HW133089   1.759   1.287   1.544
10730SOL    HW233090   1.846   1.423   1.522
10731SOL     OW33091   2.846   6.119   0.599
10731SOL    HW133092   2.822   6.213   0.622
10731SOL    HW233093   2.931   6.118   0.546
10732SOL     OW33094   6.155   5.083   4.442
10732SOL    HW133095   6.177   5.153   4.374
10732SOL    HW233096   6.058   5.086   4.463
10733SOL     OW33097   6.858   1.711   1.009
10733SOL    HW133098   6.813   1.677   0.927
10733SOL    HW233099   6.808   1.791   1.043
10734SOL     OW33100   0.993   0.691   0.268
10734SOL    HW133101   1.049   0.638   0.333
10734SOL    HW233102   0.991   0.643   0.180
10735SOL     OW33103   0.950   2.866   2.907
10735SOL    HW133104   0.989   2.851   2.998
10735SOL    HW233105   0.998   2.941   2.862
10736SOL     OW33106   1.607   0.250   3.172
10736SOL    HW133107   1.671   0.173   3.169
10736SOL    HW233108   1.657   0.336   3.166
10737SOL     OW33109   2.206   1.934   1.271
10737SOL    HW133110   2.202   1.959   1.368
10737SOL    HW233111   2.133   1.870   1.250
10738SOL     OW33112   2.732   0.385   3.323
10738SOL    HW133113   2.806   0.431   3.372
10738SOL    HW233114   2.770   0.334   3.246
10739SOL     OW33115   1.186   1.729   1.016
10739SOL    HW133116   1.099   1.692   1.046
10739SOL    HW233117   1.248   1.654   0.992
10740SOL     OW33118   6.993   4.283   4.974
10740SOL    HW133119   0.046   4.345   4.944
10740SOL    HW233120   6.920   4.282   4.906
10741SOL     OW33121   5.466   0.099   1.123
10741SOL    HW133122   5.491   0.090   1.026
10741SOL    HW233123   5.496   0.189   1.156
10742SOL     OW33124   5.158   0.465   1.043
10742SOL    HW133125   5.178   0.500   1.134
10742SOL    HW233126   5.196   0.373   1.033
10743SOL     OW33127   2.624   1.284   5.125
10743SOL    HW133128   2.619   1.336   5.210
10743SOL    HW233129   2.612   1.187   5.144
10744SOL     OW33130   3.421   1.612   1.193
10744SOL    HW133131   3.500   1.551   1.189
10744SOL    HW233132   3.340   1.564   1.161
10745SOL     OW33133   0.268   5.548   6.631
10745SOL    HW133134   0.302   5.506   6.547
10745SOL    HW233135   0.280   5.486   6.708
10746SOL     OW33136   1.880   4.235   1.273
10746SOL    HW133137   1.903   4.286   1.190
10746SOL    HW233138   1.805   4.281   1.320
10747SOL     OW33139   4.192   1.018   4.101
10747SOL    HW133140   4.193   0.983   4.007
10747SOL    HW233141   4.251   0.961   4.158
10748SOL     OW33142   4.750   1.259   0.901
10748SOL    HW133143   4.813   1.332   0.877
10748SOL    HW233144   4.662   1.274   0.855
10749SOL     OW33145   0.806   5.890   2.708
10749SOL    HW133146   0.853   5.837   2.637
10749SOL    HW233147   0.796   5.985   2.677
10750SOL     OW33148   4.528   5.998   4.925
10750SOL    HW133149   4.465   6.075   4.938
10750SOL    HW233150   4.555   5.961   5.014
10751SOL     OW33151   1.865   4.087   4.352
10751SOL    HW133152   1.767   4.101   4.339
10751SOL    HW233153   1.908   4.070   4.263
10752SOL     OW33154   6.026   3.991   6.393
10752SOL    HW133155   5.974   3.963   6.474
10752SOL    HW233156   5.971   3.975   6.311
10753SOL     OW33157   4.823   5.960   4.386
10753SOL    HW133158   4.799   5.919   4.298
10753SOL    HW233159   4.888   6.034   4.371
10754SOL     OW33160   0.691   1.558   2.965
10754SOL    HW133161   0.633   1.480   2.941
10754SOL    HW233162   0.757   1.530   3.035
10755SOL     OW33163   6.645   0.824   6.529
10755SOL    HW133164   6.724   0.829   6.591
10755SOL    HW233165   6.561   0.833   6.582
10756SOL     OW33166   6.906   5.057   0.225
10756SOL    HW133167   6.930   5.070   0.129
10756SOL    HW233168   6.906   5.146   0.271
10757SOL     OW33169   1.811   2.923   0.224
10757SOL    HW133170   1.825   3.022   0.223
10757SOL    HW233171   1.722   2.903   0.264
10758SOL     OW33172   0.547   6.973   3.977
10758SOL    HW133173   0.485   6.945   3.904
10758SOL    HW233174   0.618   0.013   3.940
10759SOL     OW33175   1.861   3.364   1.238
10759SOL    HW133176   1.906   3.451   1.214
10759SOL    HW233177   1.764   3.381   1.256
10760SOL     OW33178   6.507   1.641   2.179
10760SOL    HW133179   6.527   1.720   2.237
10760SOL    HW233180   6.472   1.673   2.091
10761SOL     OW33181   0.849   0.334   6.195
10761SOL    HW133182   0.894   0.396   6.260
10761SOL    HW233183   0.819   0.252   6.243
10762SOL     OW33184   3.929   1.788   4.497
10762SOL    HW133185   3.892   1.848   4.426
10762SOL    HW233186   3.980   1.843   4.563
10763SOL     OW33187   5.189   6.252   2.808
10763SOL    HW133188   5.213   6.349   2.817
10763SOL    HW233189   5.094   6.244   2.780
10764SOL     OW33190   5.342   2.729   5.780
10764SOL    HW133191   5.372   2.813   5.735
10764SOL    HW233192   5.316   2.749   5.875
10765SOL     OW33193   5.391   2.016   6.872
10765SOL    HW133194   5.369   1.948   6.942
10765SOL    HW233195   5.321   2.016   6.801
10766SOL     OW33196   4.607   3.766   0.520
10766SOL    HW133197   4.632   3.816   0.603
10766SOL    HW233198   4.640   3.672   0.525
10767SOL     OW33199   1.323   0.811   0.142
10767SOL    HW133200   1.316   0.841   0.237
10767SOL    HW233201   1.352   0.715   0.139
10768SOL     OW33202   4.706   4.161   1.743
10768SOL    HW133203   4.648   4.208   1.809
10768SOL    HW233204   4.732   4.071   1.779
10769SOL     OW33205   2.374   4.538   5.025
10769SOL    HW133206   2.387   4.601   5.101
10769SOL    HW233207   2.348   4.448   5.061
10770SOL     OW33208   5.754   1.075   5.135
10770SOL    HW133209   5.749   1.128   5.220
10770SOL    HW233210   5.843   1.089   5.092
10771SOL     OW33211   6.396   0.574   3.354
10771SOL    HW133212   6.298   0.566   3.372
10771SOL    HW233213   6.418   0.525   3.270
10772SOL     OW33214   6.271   6.403   4.323
10772SOL    HW133215   6.264   6.306   4.344
10772SOL    HW233216   6.362   6.437   4.349
10773SOL     OW33217   6.518   5.638   6.954
10773SOL    HW133218   6.435   5.588   6.975
10773SOL    HW233219   6.497   5.735   6.945
10774SOL     OW33220   2.288   1.421   0.201
10774SOL    HW133221   2.275   1.484   0.279
10774SOL    HW233222   2.206   1.364   0.192
10775SOL     OW33223   0.293   5.099   1.113
10775SOL    HW133224   0.239   5.102   1.197
10775SOL    HW233225   0.269   5.177   1.054
10776SOL     OW33226   0.132   1.116   6.589
10776SOL    HW133227   0.055   1.179   6.582
10776SOL    HW233228   0.170   1.119   6.681
10777SOL     OW33229   3.349   5.362   3.103
10777SOL    HW133230   3.445   5.333   3.098
10777SOL    HW233231   3.305   5.319   3.181
10778SOL     OW33232   5.963   0.184   4.284
10778SOL    HW133233   5.990   0.096   4.323
10778SOL    HW233234   5.963   0.253   4.355
10779SOL     OW33235   6.737   3.669   4.005
10779SOL    HW133236   6.670   3.644   3.935
10779SOL    HW233237   6.697   3.655   4.096
10780SOL     OW33238   2.101   0.644   4.046
10780SOL    HW133239   2.020   0.701   4.055
10780SOL    HW233240   2.147   0.666   3.959
10781SOL     OW33241   4.536   1.245   3.852
10781SOL    HW133242   4.553   1.257   3.950
10781SOL    HW233243   4.445   1.206   3.839
10782SOL     OW33244   5.882   1.732   1.893
10782SOL    HW133245   5.789   1.705   1.920
10782SOL    HW233246   5.926   1.655   1.845
10783SOL     OW33247   0.571   3.368   3.134
10783SOL    HW133248   0.521   3.415   3.060
10783SOL    HW233249   0.664   3.404   3.140
10784SOL     OW33250   3.601   6.517   4.317
10784SOL    HW133251   3.683   6.572   4.335
10784SOL    HW233252   3.536   6.572   4.265
10785SOL     OW33253   0.209   4.508   1.018
10785SOL    HW133254   0.273   4.513   1.095
10785SOL    HW233255   0.180   4.601   0.993
10786SOL     OW33256   5.820   4.232   3.529
10786SOL    HW133257   5.892   4.174   3.490
10786SOL    HW233258   5.824   4.323   3.487
10787SOL     OW33259   2.317   1.338   4.775
10787SOL    HW133260   2.351   1.265   4.716
10787SOL    HW233261   2.364   1.423   4.752
10788SOL     OW33262   1.910   4.280   6.213
10788SOL    HW133263   1.842   4.252   6.145
10788SOL    HW233264   1.987   4.324   6.168
10789SOL     OW33265   0.296   3.124   6.463
10789SOL    HW133266   0.281   3.027   6.480
10789SOL    HW233267   0.376   3.155   6.514
10790SOL     OW33268   1.473   0.152   1.609
10790SOL    HW133269   1.469   0.131   1.707
10790SOL    HW233270   1.433   0.242   1.593
10791SOL     OW33271   6.687   6.872   1.352
10791SOL    HW133272   6.784   6.894   1.361
10791SOL    HW233273   6.634   6.956   1.344
10792SOL     OW33274   2.982   3.794   4.109
10792SOL    HW133275   3.075   3.832   4.106
10792SOL    HW233276   2.983   3.707   4.158
10793SOL     OW33277   5.393   3.252   4.410
10793SOL    HW133278   5.393   3.209   4.500
10793SOL    HW233279   5.328   3.205   4.350
10794SOL     OW33280   3.015   3.814   3.518
10794SOL    HW133281   2.997   3.829   3.615
10794SOL    HW233282   3.041   3.901   3.475
10795SOL     OW33283   6.487   4.798   1.979
10795SOL    HW133284   6.427   4.874   2.006
10795SOL    HW233285   6.509   4.806   1.882
10796SOL     OW33286   5.759   0.334   5.988
10796SOL    HW133287   5.834   0.346   6.054
10796SOL    HW233288   5.734   0.423   5.950
10797SOL     OW33289   3.821   2.733   1.294
10797SOL    HW133290   3.770   2.809   1.335
10797SOL    HW233291   3.808   2.733   1.195
10798SOL     OW33292   3.099   0.301   0.651
10798SOL    HW133293   3.010   0.345   0.641
10798SOL    HW233294   3.149   0.345   0.726
10799SOL     OW33295   3.974   1.006   1.764
10799SOL    HW133296   3.962   1.079   1.831
10799SOL    HW233297   3.914   0.929   1.788
10800SOL     OW33298   0.418   6.555   6.270
10800SOL    HW133299   0.473   6.639   6.267
10800SOL    HW233300   0.331   6.570   6.224
10801SOL     OW33301   0.612   6.083   6.170
10801SOL    HW133302   0.660   6.116   6.251
10801SOL    HW233303   0.616   6.153   6.098
10802SOL     OW33304   1.116   0.813   2.881
10802SOL    HW133305   1.186   0.781   2.816
10802SOL    HW233306   1.150   0.803   2.974
10803SOL     OW33307   2.245   4.603   5.971
10803SOL    HW133308   2.336   4.563   5.967
10803SOL    HW233309   2.211   4.618   5.878
10804SOL     OW33310   5.573   3.162   2.124
10804SOL    HW133311   5.580   3.084   2.062
10804SOL    HW233312   5.513   3.232   2.083
10805SOL     OW33313   4.277   6.612   6.518
10805SOL    HW133314   4.274   6.524   6.566
10805SOL    HW233315   4.232   6.681   6.574
10806SOL     OW33316   3.993   4.000   5.966
10806SOL    HW133317   3.988   4.098   5.984
10806SOL    HW233318   4.076   3.963   6.008
10807SOL     OW33319   1.229   6.856   2.501
10807SOL    HW133320   1.216   6.948   2.538
10807SOL    HW233321   1.232   6.790   2.576
10808SOL     OW33322   0.561   2.584   5.575
10808SOL    HW133323   0.631   2.561   5.508
10808SOL    HW233324   0.589   2.551   5.665
10809SOL     OW33325   3.109   4.882   3.340
10809SOL    HW133326   3.189   4.904   3.395
10809SOL    HW233327   3.106   4.941   3.260
10810SOL     OW33328   1.433   0.037   3.927
10810SOL    HW133329   1.345   0.005   3.961
10810SOL    HW233330   1.491   6.977   3.906
10811SOL     OW33331   4.132   4.000   6.311
10811SOL    HW133332   4.141   3.976   6.215
10811SOL    HW233333   4.162   4.095   6.325
10812SOL     OW33334   0.617   3.966   0.032
10812SOL    HW133335   0.567   3.891   0.076
10812SOL    HW233336   0.629   4.041   0.097
10813SOL     OW33337   1.654   3.930   6.700
10813SOL    HW133338   1.720   3.865   6.662
10813SOL    HW233339   1.584   3.950   6.631
10814SOL     OW33340   1.082   0.203   6.379
10814SOL    HW133341   1.181   0.210   6.376
10814SOL    HW233342   1.051   0.137   6.311
10815SOL     OW33343   4.481   4.474   3.439
10815SOL    HW133344   4.470   4.565   3.397
10815SOL    HW233345   4.524   4.413   3.373
10816SOL     OW33346   3.261   3.486   2.144
10816SOL    HW133347   3.305   3.448   2.226
10816SOL    HW233348   3.283   3.429   2.065
10817SOL     OW33349   4.362   0.492   3.458
10817SOL    HW133350   4.413   0.508   3.542
10817SOL    HW233351   4.320   0.578   3.427
10818SOL     OW33352   4.488   4.564   5.435
10818SOL    HW133353   4.414   4.591   5.497
10818SOL    HW233354   4.553   4.506   5.484
10819SOL     OW33355   6.516   4.914   6.182
10819SOL    HW133356   6.598   4.970   6.192
10819SOL    HW233357   6.539   4.829   6.134
10820SOL     OW33358   0.146   5.165   4.236
10820SOL    HW133359   0.071   5.222   4.201
10820SOL    HW233360   0.231   5.188   4.189
10821SOL     OW33361   4.691   0.559   3.116
10821SOL    HW133362   4.630   0.493   3.159
10821SOL    HW233363   4.784   0.547   3.150
10822SOL     OW33364   6.807   2.661   2.919
10822SOL    HW133365   6.855   2.680   2.833
10822SOL    HW233366   6.733   2.726   2.931
10823SOL     OW33367   1.194   0.452   1.673
10823SOL    HW133368   1.211   0.403   1.758
10823SOL    HW233369   1.142   0.535   1.692
10824SOL     OW33370   6.742   1.215   3.206
10824SOL    HW133371   6.762   1.286   3.274
10824SOL    HW233372   6.756   1.252   3.114
10825SOL     OW33373   2.404   1.973   6.372
10825SOL    HW133374   2.358   2.009   6.454
10825SOL    HW233375   2.343   1.978   6.294
10826SOL     OW33376   1.007   2.823   3.644
10826SOL    HW133377   1.092   2.770   3.639
10826SOL    HW233378   0.955   2.810   3.560
10827SOL     OW33379   0.075   3.134   4.302
10827SOL    HW133380   0.145   3.068   4.276
10827SOL    HW233381   0.053   3.191   4.223
10828SOL     OW33382   1.455   4.341   0.863
10828SOL    HW133383   1.394   4.320   0.940
10828SOL    HW233384   1.465   4.261   0.805
10829SOL     OW33385   4.711   2.684   0.067
10829SOL    HW133386   4.702   2.618   0.142
10829SOL    HW233387   4.707   2.777   0.104
10830SOL     OW33388   5.193   1.854   2.827
10830SOL    HW133389   5.225   1.862   2.921
10830SOL    HW233390   5.163   1.760   2.810
10831SOL     OW33391   2.990   6.161   3.124
10831SOL    HW133392   3.089   6.168   3.132
10831SOL    HW233393   2.953   6.249   3.095
10832SOL     OW33394   0.981   2.989   6.118
10832SOL    HW133395   1.062   2.982   6.059
10832SOL    HW233396   0.902   2.948   6.070
10833SOL     OW33397   0.716   0.808   1.966
10833SOL    HW133398   0.800   0.853   1.937
10833SOL    HW233399   0.737   0.714   1.994
10834SOL     OW33400   0.342   1.623   0.791
10834SOL    HW133401   0.259   1.623   0.737
10834SOL    HW233402   0.320   1.643   0.887
10835SOL     OW33403   5.769   2.686   0.502
10835SOL    HW133404   5.773   2.587   0.516
10835SOL    HW233405   5.714   2.728   0.574
10836SOL     OW33406   6.094   1.463   4.866
10836SOL    HW133407   6.179   1.478   4.917
10836SOL    HW233408   6.114   1.413   4.782
10837SOL     OW33409   6.441   5.571   1.128
10837SOL    HW133410   6.512   5.530   1.071
10837SOL    HW233411   6.484   5.622   1.203
10838SOL     OW33412   6.871   5.734   3.907
10838SOL    HW133413   6.889   5.815   3.962
10838SOL    HW233414   6.803   5.756   3.837
10839SOL     OW33415   4.365   3.111   1.769
10839SOL    HW133416   4.378   3.079   1.675
10839SOL    HW233417   4.433   3.068   1.828
10840SOL     OW33418   2.872   5.830   2.667
10840SOL    HW133419   2.912   5.890   2.736
10840SOL    HW233420   2.789   5.789   2.703
10841SOL     OW33421   6.654   4.945   5.639
10841SOL    HW133422   6.555   4.960   5.629
10841SOL    HW233423   6.690   5.007   5.709
10842SOL     OW33424   4.894   2.411   1.446
10842SOL    HW133425   4.799   2.430   1.471
10842SOL    HW233426   4.953   2.427   1.525
10843SOL     OW33427   0.929   1.653   1.570
10843SOL    HW133428   1.006   1.645   1.507
10843SOL    HW233429   0.858   1.589   1.544
10844SOL     OW33430   0.401   6.525   3.289
10844SOL    HW133431   0.461   6.590   3.335
10844SOL    HW233432   0.324   6.504   3.349
10845SOL     OW33433   3.499   6.775   5.534
10845SOL    HW133434   3.561   6.697   5.525
10845SOL    HW233435   3.552   6.860   5.529
10846SOL     OW33436   5.441   0.925   0.411
10846SOL    HW133437   5.468   0.832   0.435
10846SOL    HW233438   5.476   0.947   0.319
10847SOL     OW33439   3.496   3.122   6.534
10847SOL    HW133440   3.475   3.214   6.567
10847SOL    HW233441   3.595   3.111   6.527
10848SOL     OW33442   2.292   3.645   0.291
10848SOL    HW133443   2.308   3.707   0.214
10848SOL    HW233444   2.203   3.600   0.278
10849SOL     OW33445   2.142   4.706   4.073
10849SOL    HW133446   2.097   4.661   4.151
10849SOL    HW233447   2.167   4.799   4.099
10850SOL     OW33448   2.377   6.507   6.656
10850SOL    HW133449   2.372   6.507   6.756
10850SOL    HW233450   2.415   6.420   6.625
10851SOL     OW33451   2.025   3.310   0.440
10851SOL    HW133452   1.955   3.309   0.512
10851SOL    HW233453   2.029   3.401   0.399
10852SOL     OW33454   0.937   0.216   6.945
10852SOL    HW133455   0.914   0.197   6.849
10852SOL    HW233456   0.854   0.232   6.997
10853SOL     OW33457   1.716   2.551   5.327
10853SOL    HW133458   1.773   2.483   5.374
10853SOL    HW233459   1.742   2.642   5.358
10854SOL     OW33460   4.332   4.717   5.709
10854SOL    HW133461   4.285   4.791   5.661
10854SOL    HW233462   4.264   4.654   5.746
10855SOL     OW33463   3.752   0.409   0.671
10855SOL    HW133464   3.769   0.423   0.769
10855SOL    HW233465   3.675   0.466   0.642
10856SOL     OW33466   5.217   1.036   0.296
10856SOL    HW133467   5.289   1.030   0.366
10856SOL    HW233468   5.158   0.956   0.302
10857SOL     OW33469   6.909   2.210   3.269
10857SOL    HW133470   6.959   2.270   3.332
10857SOL    HW233471   6.964   2.129   3.250
10858SOL     OW33472   0.781   1.675   6.785
10858SOL    HW133473   0.850   1.615   6.746
10858SOL    HW233474   0.807   1.770   6.772
10859SOL     OW33475   1.119   4.105   4.283
10859SOL    HW133476   1.032   4.061   4.265
10859SOL    HW233477   1.172   4.112   4.199
10860SOL     OW33478   0.083   2.245   5.773
10860SOL    HW133479   0.157   2.280   5.715
10860SOL    HW233480   7.014   2.275   5.737
10861SOL     OW33481   3.678   3.770   3.431
10861SOL    HW133482   3.618   3.849   3.426
10861SOL    HW233483   3.722   3.755   3.343
10862SOL     OW33484   2.261   1.395   6.470
10862SOL    HW133485   2.350   1.405   6.515
10862SOL    HW233486   2.274   1.358   6.378
10863SOL     OW33487   3.858   0.621   4.128
10863SOL    HW133488   3.894   0.665   4.210
10863SOL    HW233489   3.807   0.688   4.074
10864SOL     OW33490   2.107   6.444   0.636
10864SOL    HW133491   2.205   6.433   0.650
10864SOL    HW233492   2.078   6.534   0.667
10865SOL     OW33493   0.234   1.509   1.873
10865SOL    HW133494   0.159   1.461   1.919
10865SOL    HW233495   0.255   1.462   1.787
10866SOL     OW33496   5.531   4.324   0.758
10866SOL    HW133497   5.548   4.255   0.828
10866SOL    HW233498   5.510   4.412   0.802
10867SOL     OW33499   3.660   3.972   6.694
10867SOL    HW133500   3.564   3.972   6.723
10867SOL    HW233501   3.708   4.047   6.739
10868SOL     OW33502   4.642   1.816   4.108
10868SOL    HW133503   4.630   1.895   4.168
10868SOL    HW233504   4.697   1.747   4.155
10869NA      NA33505   6.501   2.518   5.326
10870NA      NA33506   4.470   4.613   5.175
10871NA      NA33507   1.992   3.113   2.209
10872NA      NA33508   5.152   3.759   4.918
10873NA      NA33509   4.203   2.463   5.370
10874NA      NA33510   3.421   4.687   1.644
10875NA      NA33511   6.832   4.852   0.409
10876NA      NA33512   3.481   3.681   3.937
10877NA      NA33513   5.170   6.045   0.350
10878NA      NA33514   3.263   6.808   5.437
10879NA      NA33515   5.530   5.451   1.569
10880NA      NA33516   2.315   0.406   4.313
10881NA      NA33517   3.601   5.449   2.762
10882NA      NA33518   3.776   3.723   2.269
   7.01942   7.01942   7.01942
