Generated by trjconv : CNT in water t= 189.00000
33518
    1C        C    1   2.843   2.769   4.745
    1C        C    2   2.895   2.713   4.864
    1C        C    3   2.838   2.764   4.981
    1C        C    4   2.848   2.773   4.259
    1C        C    5   2.902   2.727   4.381
    1C        C    6   2.851   2.776   4.503
    1C        C    7   3.010   2.634   4.626
    1C        C    8   2.897   2.720   4.624
    1C        C    9   3.076   2.597   4.745
    1C        C   10   3.012   2.633   4.865
    1C        C   11   3.182   2.492   4.974
    1C        C   12   3.061   2.562   4.976
    1C        C   13   2.855   2.776   3.771
    1C        C   14   2.904   2.725   3.893
    1C        C   15   2.856   2.780   4.014
    1C        C   16   3.017   2.643   4.138
    1C        C   17   2.905   2.729   4.137
    1C        C   18   3.079   2.607   4.259
    1C        C   19   3.017   2.645   4.381
    1C        C   20   3.207   2.556   4.503
    1C        C   21   3.076   2.609   4.504
    1C        C   22   3.277   2.526   4.621
    1C        C   23   3.206   2.540   4.742
    1C        C   24   3.413   2.477   4.865
    1C        C   25   3.272   2.499   4.862
    1C        C   26   3.488   2.478   4.983
    1C        C   27   2.850   2.770   3.281
    1C        C   28   2.908   2.728   3.403
    1C        C   29   2.858   2.777   3.525
    1C        C   30   3.017   2.640   3.651
    1C        C   31   2.907   2.729   3.648
    1C        C   32   3.078   2.605   3.774
    1C        C   33   3.018   2.642   3.896
    1C        C   34   3.208   2.547   4.016
    1C        C   35   3.077   2.600   4.017
    1C        C   36   3.277   2.529   4.138
    1C        C   37   3.210   2.553   4.260
    1C        C   38   3.415   2.503   4.381
    1C        C   39   3.277   2.534   4.382
    1C        C   40   3.488   2.495   4.501
    1C        C   41   3.416   2.499   4.623
    1C        C   42   3.629   2.481   4.745
    1C        C   43   3.487   2.484   4.744
    1C        C   44   3.704   2.485   4.864
    1C        C   45   3.627   2.475   4.981
    1C        C   46   2.845   2.759   2.794
    1C        C   47   2.898   2.715   2.917
    1C        C   48   2.844   2.762   3.039
    1C        C   49   3.020   2.639   3.163
    1C        C   50   2.907   2.724   3.160
    1C        C   51   3.080   2.602   3.285
    1C        C   52   3.020   2.641   3.407
    1C        C   53   3.209   2.546   3.531
    1C        C   54   3.079   2.602   3.529
    1C        C   55   3.277   2.521   3.652
    1C        C   56   3.205   2.544   3.771
    1C        C   57   3.412   2.496   3.892
    1C        C   58   3.274   2.524   3.893
    1C        C   59   3.485   2.492   4.013
    1C        C   60   3.416   2.504   4.136
    1C        C   61   3.627   2.497   4.258
    1C        C   62   3.486   2.500   4.259
    1C        C   63   3.701   2.499   4.378
    1C        C   64   3.629   2.499   4.500
    1C        C   65   3.835   2.540   4.622
    1C        C   66   3.698   2.505   4.624
    1C        C   67   3.905   2.559   4.743
    1C        C   68   3.840   2.525   4.863
    1C        C   69   4.048   2.584   4.978
    1C        C   70   3.920   2.529   4.978
    1C        C   71   2.826   2.738   2.309
    1C        C   72   2.886   2.694   2.429
    1C        C   73   2.831   2.744   2.550
    1C        C   74   3.008   2.627   2.673
    1C        C   75   2.895   2.711   2.671
    1C        C   76   3.071   2.596   2.795
    1C        C   77   3.012   2.632   2.918
    1C        C   78   3.205   2.541   3.038
    1C        C   79   3.076   2.599   3.040
    1C        C   80   3.275   2.529   3.160
    1C        C   81   3.211   2.549   3.285
    1C        C   82   3.413   2.494   3.403
    1C        C   83   3.274   2.521   3.408
    1C        C   84   3.486   2.494   3.524
    1C        C   85   3.417   2.500   3.647
    1C        C   86   3.625   2.495   3.768
    1C        C   87   3.484   2.491   3.771
    1C        C   88   3.695   2.507   3.891
    1C        C   89   3.627   2.493   4.014
    1C        C   90   3.832   2.546   4.137
    1C        C   91   3.696   2.508   4.136
    1C        C   92   3.900   2.572   4.259
    1C        C   93   3.836   2.540   4.381
    1C        C   94   4.027   2.635   4.498
    1C        C   95   3.903   2.568   4.502
    1C        C   96   4.090   2.669   4.620
    1C        C   97   4.029   2.629   4.742
    1C        C   98   4.187   2.766   4.864
    1C        C   99   4.099   2.653   4.863
    1C        C  100   4.218   2.838   4.980
    1C        C  101   2.826   2.733   2.068
    1C        C  102   2.991   2.595   2.189
    1C        C  103   2.877   2.682   2.188
    1C        C  104   3.067   2.576   2.308
    1C        C  105   3.003   2.615   2.427
    1C        C  106   3.199   2.537   2.552
    1C        C  107   3.067   2.589   2.550
    1C        C  108   3.269   2.518   2.673
    1C        C  109   3.201   2.540   2.795
    1C        C  110   3.410   2.493   2.915
    1C        C  111   3.271   2.515   2.916
    1C        C  112   3.481   2.490   3.037
    1C        C  113   3.412   2.498   3.160
    1C        C  114   3.624   2.496   3.281
    1C        C  115   3.483   2.485   3.281
    1C        C  116   3.695   2.509   3.403
    1C        C  117   3.627   2.498   3.526
    1C        C  118   3.836   2.538   3.646
    1C        C  119   3.699   2.502   3.648
    1C        C  120   3.900   2.564   3.770
    1C        C  121   3.831   2.544   3.891
    1C        C  122   4.021   2.638   4.012
    1C        C  123   3.896   2.573   4.014
    1C        C  124   4.083   2.675   4.133
    1C        C  125   4.025   2.637   4.256
    1C        C  126   4.196   2.766   4.378
    1C        C  127   4.087   2.676   4.377
    1C        C  128   4.242   2.820   4.500
    1C        C  129   4.194   2.765   4.621
    1C        C  130   4.321   2.936   4.742
    1C        C  131   4.240   2.819   4.743
    1C        C  132   4.354   3.002   4.862
    1C        C  133   4.287   2.959   4.977
    1C        C  134   3.170   2.464   2.082
    1C        C  135   3.037   2.510   2.084
    1C        C  136   3.258   2.478   2.189
    1C        C  137   3.198   2.521   2.309
    1C        C  138   3.406   2.481   2.426
    1C        C  139   3.267   2.506   2.432
    1C        C  140   3.479   2.480   2.547
    1C        C  141   3.408   2.498   2.668
    1C        C  142   3.620   2.501   2.790
    1C        C  143   3.479   2.494   2.791
    1C        C  144   3.690   2.507   2.912
    1C        C  145   3.622   2.496   3.035
    1C        C  146   3.828   2.540   3.157
    1C        C  147   3.692   2.502   3.158
    1C        C  148   3.899   2.563   3.278
    1C        C  149   3.833   2.538   3.400
    1C        C  150   4.027   2.623   3.525
    1C        C  151   3.901   2.560   3.523
    1C        C  152   4.084   2.665   3.647
    1C        C  153   4.026   2.629   3.770
    1C        C  154   4.190   2.769   3.888
    1C        C  155   4.082   2.677   3.890
    1C        C  156   4.242   2.815   4.011
    1C        C  157   4.194   2.762   4.133
    1C        C  158   4.334   2.923   4.253
    1C        C  159   4.249   2.810   4.255
    1C        C  160   4.369   2.987   4.374
    1C        C  161   4.328   2.932   4.497
    1C        C  162   4.438   3.113   4.617
    1C        C  163   4.367   2.991   4.620
    1C        C  164   4.470   3.181   4.736
    1C        C  165   4.433   3.119   4.857
    1C        C  166   4.515   3.319   4.971
    1C        C  167   4.483   3.184   4.971
    1C        C  168   3.476   2.435   2.074
    1C        C  169   3.398   2.460   2.188
    1C        C  170   3.619   2.464   2.305
    1C        C  171   3.477   2.463   2.305
    1C        C  172   3.692   2.485   2.424
    1C        C  173   3.620   2.483   2.546
    1C        C  174   3.827   2.537   2.665
    1C        C  175   3.689   2.505   2.667
    1C        C  176   3.892   2.565   2.787
    1C        C  177   3.828   2.540   2.910
    1C        C  178   4.020   2.625   3.034
    1C        C  179   3.894   2.560   3.034
    1C        C  180   4.083   2.659   3.155
    1C        C  181   4.026   2.625   3.280
    1C        C  182   4.191   2.756   3.397
    1C        C  183   4.086   2.662   3.402
    1C        C  184   4.241   2.804   3.520
    1C        C  185   4.193   2.755   3.644
    1C        C  186   4.336   2.917   3.765
    1C        C  187   4.242   2.811   3.764
    1C        C  188   4.378   2.976   3.886
    1C        C  189   4.336   2.920   4.009
    1C        C  190   4.444   3.103   4.128
    1C        C  191   4.379   2.977   4.131
    1C        C  192   4.469   3.173   4.248
    1C        C  193   4.439   3.110   4.371
    1C        C  194   4.504   3.311   4.490
    1C        C  195   4.467   3.175   4.493
    1C        C  196   4.523   3.384   4.609
    1C        C  197   4.513   3.317   4.733
    1C        C  198   4.552   3.533   4.847
    1C        C  199   4.536   3.391   4.853
    1C        C  200   4.579   3.617   4.959
    1C        C  201   3.615   2.423   2.068
    1C        C  202   3.826   2.509   2.180
    1C        C  203   3.693   2.457   2.183
    1C        C  204   3.897   2.543   2.299
    1C        C  205   3.829   2.520   2.421
    1C        C  206   4.019   2.617   2.542
    1C        C  207   3.896   2.549   2.542
    1C        C  208   4.080   2.657   2.663
    1C        C  209   4.021   2.624   2.787
    1C        C  210   4.187   2.751   2.908
    1C        C  211   4.078   2.662   2.910
    1C        C  212   4.242   2.800   3.029
    1C        C  213   4.194   2.747   3.151
    1C        C  214   4.332   2.908   3.273
    1C        C  215   4.244   2.798   3.273
    1C        C  216   4.367   2.971   3.395
    1C        C  217   4.330   2.914   3.519
    1C        C  218   4.435   3.098   3.638
    1C        C  219   4.373   2.972   3.641
    1C        C  220   4.460   3.168   3.759
    1C        C  221   4.438   3.104   3.883
    1C        C  222   4.505   3.305   4.002
    1C        C  223   4.469   3.168   4.005
    1C        C  224   4.521   3.377   4.122
    1C        C  225   4.508   3.309   4.245
    1C        C  226   4.522   3.520   4.365
    1C        C  227   4.519   3.379   4.367
    1C        C  228   4.517   3.596   4.484
    1C        C  229   4.527   3.525   4.606
    1C        C  230   4.500   3.740   4.723
    1C        C  231   4.536   3.602   4.724
    1C        C  232   4.496   3.818   4.841
    1C        C  233   4.541   3.752   4.956
    1C        C  234   4.023   2.605   2.062
    1C        C  235   3.898   2.542   2.065
    1C        C  236   4.088   2.650   2.178
    1C        C  237   4.023   2.608   2.296
    1C        C  238   4.195   2.732   2.423
    1C        C  239   4.083   2.645   2.419
    1C        C  240   4.248   2.787   2.542
    1C        C  241   4.190   2.745   2.664
    1C        C  242   4.335   2.902   2.785
    1C        C  243   4.238   2.799   2.785
    1C        C  244   4.380   2.959   2.906
    1C        C  245   4.335   2.906   3.029
    1C        C  246   4.432   3.095   3.149
    1C        C  247   4.373   2.966   3.151
    1C        C  248   4.461   3.161   3.271
    1C        C  249   4.429   3.098   3.394
    1C        C  250   4.494   3.301   3.514
    1C        C  251   4.460   3.164   3.515
    1C        C  252   4.509   3.373   3.634
    1C        C  253   4.496   3.304   3.757
    1C        C  254   4.520   3.515   3.879
    1C        C  255   4.512   3.374   3.879
    1C        C  256   4.518   3.591   3.998
    1C        C  257   4.521   3.519   4.120
    1C        C  258   4.484   3.727   4.239
    1C        C  259   4.516   3.589   4.242
    1C        C  260   4.461   3.798   4.359
    1C        C  261   4.487   3.734   4.482
    1C        C  262   4.427   3.941   4.600
    1C        C  263   4.471   3.807   4.602
    1C        C  264   4.395   4.008   4.720
    1C        C  265   4.430   3.943   4.841
    1C        C  266   4.323   4.133   4.958
    1C        C  267   4.389   4.010   4.956
    1C        C  268   4.263   2.779   2.064
    1C        C  269   4.203   2.731   2.182
    1C        C  270   4.344   2.889   2.300
    1C        C  271   4.257   2.776   2.304
    1C        C  272   4.385   2.950   2.420
    1C        C  273   4.342   2.893   2.542
    1C        C  274   4.446   3.081   2.663
    1C        C  275   4.378   2.957   2.662
    1C        C  276   4.477   3.149   2.783
    1C        C  277   4.444   3.085   2.905
    1C        C  278   4.502   3.290   3.025
    1C        C  279   4.469   3.153   3.026
    1C        C  280   4.507   3.364   3.146
    1C        C  281   4.502   3.296   3.270
    1C        C  282   4.515   3.510   3.390
    1C        C  283   4.508   3.368   3.391
    1C        C  284   4.512   3.583   3.511
    1C        C  285   4.511   3.514   3.634
    1C        C  286   4.490   3.725   3.751
    1C        C  287   4.510   3.585   3.757
    1C        C  288   4.471   3.794   3.873
    1C        C  289   4.490   3.729   3.997
    1C        C  290   4.420   3.931   4.114
    1C        C  291   4.471   3.799   4.118
    1C        C  292   4.391   3.998   4.235
    1C        C  293   4.422   3.933   4.356
    1C        C  294   4.325   4.125   4.478
    1C        C  295   4.397   4.003   4.477
    1C        C  296   4.284   4.187   4.598
    1C        C  297   4.322   4.129   4.721
    1C        C  298   4.196   4.311   4.839
    1C        C  299   4.279   4.195   4.840
    1C        C  300   4.167   4.393   4.953
    1C        C  301   4.355   2.882   2.063
    1C        C  302   4.469   3.070   2.177
    1C        C  303   4.395   2.947   2.181
    1C        C  304   4.485   3.142   2.298
    1C        C  305   4.446   3.078   2.418
    1C        C  306   4.502   3.283   2.537
    1C        C  307   4.469   3.145   2.539
    1C        C  308   4.513   3.355   2.658
    1C        C  309   4.506   3.287   2.782
    1C        C  310   4.522   3.500   2.900
    1C        C  311   4.516   3.359   2.903
    1C        C  312   4.518   3.574   3.021
    1C        C  313   4.514   3.505   3.144
    1C        C  314   4.491   3.716   3.264
    1C        C  315   4.514   3.576   3.266
    1C        C  316   4.471   3.789   3.384
    1C        C  317   4.492   3.723   3.507
    1C        C  318   4.422   3.925   3.624
    1C        C  319   4.473   3.793   3.628
    1C        C  320   4.388   3.987   3.746
    1C        C  321   4.421   3.926   3.869
    1C        C  322   4.313   4.110   3.989
    1C        C  323   4.391   3.992   3.991
    1C        C  324   4.279   4.175   4.110
    1C        C  325   4.321   4.121   4.234
    1C        C  326   4.187   4.286   4.353
    1C        C  327   4.282   4.181   4.355
    1C        C  328   4.138   4.340   4.474
    1C        C  329   4.193   4.295   4.596
    1C        C  330   4.027   4.437   4.713
    1C        C  331   4.142   4.353   4.714
    1C        C  332   3.974   4.496   4.830
    1C        C  333   4.056   4.478   4.942
    1C        C  334   4.560   3.267   2.064
    1C        C  335   4.532   3.130   2.064
    1C        C  336   4.540   3.350   2.175
    1C        C  337   4.517   3.281   2.296
    1C        C  338   4.521   3.496   2.411
    1C        C  339   4.514   3.355   2.417
    1C        C  340   4.519   3.568   2.533
    1C        C  341   4.515   3.496   2.655
    1C        C  342   4.497   3.708   2.774
    1C        C  343   4.514   3.568   2.777
    1C        C  344   4.480   3.778   2.895
    1C        C  345   4.493   3.713   3.020
    1C        C  346   4.426   3.916   3.137
    1C        C  347   4.472   3.782   3.141
    1C        C  348   4.391   3.984   3.255
    1C        C  349   4.414   3.918   3.378
    1C        C  350   4.315   4.104   3.503
    1C        C  351   4.392   3.985   3.500
    1C        C  352   4.272   4.164   3.623
    1C        C  353   4.315   4.108   3.745
    1C        C  354   4.180   4.273   3.867
    1C        C  355   4.274   4.168   3.867
    1C        C  356   4.128   4.324   3.988
    1C        C  357   4.186   4.281   4.110
    1C        C  358   4.012   4.405   4.230
    1C        C  359   4.129   4.327   4.231
    1C        C  360   3.955   4.449   4.352
    1C        C  361   4.022   4.421   4.472
    1C        C  362   3.829   4.516   4.595
    1C        C  363   3.960   4.465   4.592
    1C        C  364   3.764   4.552   4.715
    1C        C  365   3.843   4.548   4.832
    1C        C  366   3.633   4.586   4.951
    1C        C  367   3.771   4.572   4.950
    1C        C  368   4.514   3.565   2.054
    1C        C  369   4.528   3.490   2.171
    1C        C  370   4.503   3.707   2.289
    1C        C  371   4.518   3.567   2.289
    1C        C  372   4.487   3.779   2.410
    1C        C  373   4.502   3.708   2.531
    1C        C  374   4.433   3.909   2.649
    1C        C  375   4.488   3.779   2.652
    1C        C  376   4.394   3.970   2.770
    1C        C  377   4.428   3.910   2.893
    1C        C  378   4.313   4.092   3.009
    1C        C  379   4.392   3.975   3.014
    1C        C  380   4.273   4.155   3.129
    1C        C  381   4.312   4.101   3.254
    1C        C  382   4.178   4.261   3.376
    1C        C  383   4.273   4.156   3.378
    1C        C  384   4.125   4.310   3.497
    1C        C  385   4.176   4.268   3.622
    1C        C  386   4.009   4.397   3.743
    1C        C  387   4.125   4.317   3.745
    1C        C  388   3.946   4.434   3.864
    1C        C  389   4.011   4.403   3.986
    1C        C  390   3.820   4.495   4.108
    1C        C  391   3.949   4.438   4.108
    1C        C  392   3.755   4.521   4.231
    1C        C  393   3.825   4.505   4.353
    1C        C  394   3.618   4.553   4.474
    1C        C  395   3.756   4.527   4.474
    1C        C  396   3.549   4.570   4.596
    1C        C  397   3.625   4.574   4.716
    1C        C  398   3.414   4.550   4.841
    1C        C  399   3.552   4.582   4.837
    1C        C  400   3.343   4.515   4.956
    1C        C  401   4.502   3.704   2.051
    1C        C  402   4.454   3.915   2.166
    1C        C  403   4.493   3.779   2.168
    1C        C  404   4.415   3.978   2.286
    1C        C  405   4.437   3.911   2.409
    1C        C  406   4.327   4.096   2.525
    1C        C  407   4.403   3.977   2.529
    1C        C  408   4.280   4.151   2.646
    1C        C  409   4.316   4.088   2.767
    1C        C  410   4.172   4.250   2.885
    1C        C  411   4.271   4.149   2.887
    1C        C  412   4.123   4.302   3.007
    1C        C  413   4.178   4.259   3.130
    1C        C  414   4.005   4.381   3.251
    1C        C  415   4.124   4.304   3.253
    1C        C  416   3.945   4.414   3.374
    1C        C  417   4.008   4.389   3.498
    1C        C  418   3.817   4.483   3.618
    1C        C  419   3.947   4.428   3.620
    1C        C  420   3.751   4.514   3.739
    1C        C  421   3.816   4.489   3.862
    1C        C  422   3.613   4.540   3.985
    1C        C  423   3.753   4.517   3.985
    1C        C  424   3.545   4.544   4.109
    1C        C  425   3.616   4.546   4.231
    1C        C  426   3.404   4.543   4.355
    1C        C  427   3.545   4.556   4.353
    1C        C  428   3.337   4.539   4.479
    1C        C  429   3.409   4.554   4.599
    1C        C  430   3.200   4.515   4.722
    1C        C  431   3.339   4.543   4.722
    1C        C  432   3.128   4.496   4.843
    1C        C  433   3.206   4.496   4.960
    1C        C  434   4.382   4.121   2.050
    1C        C  435   4.440   3.994   2.051
    1C        C  436   4.300   4.158   2.162
    1C        C  437   4.332   4.093   2.285
    1C        C  438   4.181   4.250   2.399
    1C        C  439   4.283   4.152   2.403
    1C        C  440   4.126   4.297   2.520
    1C        C  441   4.180   4.251   2.643
    1C        C  442   4.007   4.381   2.763
    1C        C  443   4.119   4.295   2.762
    1C        C  444   3.944   4.416   2.884
    1C        C  445   4.004   4.378   3.006
    1C        C  446   3.814   4.472   3.130
    1C        C  447   3.944   4.416   3.128
    1C        C  448   3.749   4.497   3.253
    1C        C  449   3.817   4.474   3.374
    1C        C  450   3.611   4.531   3.495
    1C        C  451   3.748   4.496   3.495
    1C        C  452   3.542   4.542   3.618
    1C        C  453   3.612   4.537   3.741
    1C        C  454   3.401   4.542   3.864
    1C        C  455   3.542   4.549   3.863
    1C        C  456   3.333   4.532   3.988
    1C        C  457   3.404   4.540   4.110
    1C        C  458   3.198   4.498   4.239
    1C        C  459   3.335   4.532   4.233
    1C        C  460   3.129   4.482   4.361
    1C        C  461   3.198   4.511   4.481
    1C        C  462   3.000   4.431   4.603
    1C        C  463   3.129   4.489   4.602
    1C        C  464   2.934   4.398   4.723
    1C        C  465   2.995   4.443   4.843
    1C        C  466   2.805   4.338   4.958
    1C        C  467   2.910   4.431   4.958
    1C        C  468   4.121   4.280   2.040
    1C        C  469   4.187   4.245   2.158
    1C        C  470   4.006   4.369   2.276
    1C        C  471   4.130   4.299   2.277
    1C        C  472   3.941   4.401   2.397
    1C        C  473   4.010   4.377   2.517
    1C        C  474   3.815   4.463   2.640
    1C        C  475   3.946   4.410   2.639
    1C        C  476   3.750   4.496   2.761
    1C        C  477   3.815   4.473   2.884
    1C        C  478   3.609   4.521   3.009
    1C        C  479   3.748   4.492   3.007
    1C        C  480   3.538   4.528   3.130
    1C        C  481   3.610   4.525   3.252
    1C        C  482   3.399   4.534   3.376
    1C        C  483   3.540   4.538   3.374
    1C        C  484   3.328   4.530   3.498
    1C        C  485   3.400   4.539   3.619
    1C        C  486   3.195   4.493   3.746
    1C        C  487   3.331   4.531   3.742
    1C        C  488   3.130   4.473   3.870
    1C        C  489   3.197   4.496   3.992
    1C        C  490   3.009   4.405   4.115
    1C        C  491   3.132   4.474   4.116
    1C        C  492   2.952   4.369   4.239
    1C        C  493   3.005   4.415   4.362
    1C        C  494   2.825   4.303   4.482
    1C        C  495   2.937   4.389   4.483
    1C        C  496   2.775   4.254   4.604
    1C        C  497   2.820   4.312   4.725
    1C        C  498   2.666   4.165   4.846
    1C        C  499   2.755   4.274   4.844
    1C        C  500   2.600   4.115   4.959
    1C        C  501   4.001   4.351   2.041
    1C        C  502   3.813   4.461   2.150
    1C        C  503   3.943   4.406   2.155
    1C        C  504   3.745   4.475   2.273
    1C        C  505   3.808   4.449   2.397
    1C        C  506   3.604   4.504   2.520
    1C        C  507   3.743   4.476   2.519
    1C        C  508   3.537   4.516   2.644
    1C        C  509   3.610   4.514   2.765
    1C        C  510   3.398   4.516   2.886
    1C        C  511   3.539   4.523   2.886
    1C        C  512   3.325   4.515   3.007
    1C        C  513   3.397   4.526   3.128
    1C        C  514   3.194   4.487   3.256
    1C        C  515   3.331   4.520   3.253
    1C        C  516   3.127   4.463   3.378
    1C        C  517   3.192   4.492   3.501
    1C        C  518   3.002   4.403   3.625
    1C        C  519   3.128   4.466   3.624
    1C        C  520   2.942   4.368   3.748
    1C        C  521   3.008   4.403   3.869
    1C        C  522   2.838   4.279   3.994
    1C        C  523   2.952   4.363   3.992
    1C        C  524   2.791   4.232   4.118
    1C        C  525   2.838   4.287   4.240
    1C        C  526   2.694   4.133   4.364
    1C        C  527   2.777   4.247   4.361
    1C        C  528   2.652   4.078   4.487
    1C        C  529   2.690   4.141   4.608
    1C        C  530   2.579   3.962   4.730
    1C        C  531   2.635   4.092   4.729
    1C        C  532   2.539   3.899   4.852
    1C        C  533   2.528   3.995   4.957
    1C        C  534   3.615   4.553   2.039
    1C        C  535   3.750   4.514   2.037
    1C        C  536   3.535   4.528   2.155
    1C        C  537   3.607   4.508   2.276
    1C        C  538   3.394   4.505   2.400
    1C        C  539   3.535   4.512   2.397
    1C        C  540   3.323   4.508   2.523
    1C        C  541   3.396   4.519   2.643
    1C        C  542   3.186   4.485   2.766
    1C        C  543   3.325   4.510   2.765
    1C        C  544   3.121   4.461   2.889
    1C        C  545   3.188   4.480   3.011
    1C        C  546   2.998   4.396   3.134
    1C        C  547   3.125   4.458   3.136
    1C        C  548   2.942   4.358   3.258
    1C        C  549   3.003   4.396   3.380
    1C        C  550   2.833   4.274   3.506
    1C        C  551   2.942   4.364   3.504
    1C        C  552   2.780   4.228   3.629
    1C        C  553   2.831   4.280   3.749
    1C        C  554   2.695   4.121   3.878
    1C        C  555   2.784   4.230   3.873
    1C        C  556   2.657   4.062   4.000
    1C        C  557   2.699   4.124   4.120
    1C        C  558   2.595   3.944   4.247
    1C        C  559   2.655   4.071   4.243
    1C        C  560   2.561   3.883   4.370
    1C        C  561   2.583   3.955   4.490
    1C        C  562   2.530   3.750   4.616
    1C        C  563   2.557   3.888   4.612
    1C        C  564   2.513   3.682   4.739
    1C        C  565   2.520   3.757   4.859
    1C        C  566   2.533   3.544   4.979
    1C        C  567   2.514   3.682   4.976
    1C        C  568   3.324   4.462   2.041
    1C        C  569   3.395   4.503   2.155
    1C        C  570   3.184   4.469   2.281
    1C        C  571   3.324   4.497   2.278
    1C        C  572   3.114   4.456   2.403
    1C        C  573   3.185   4.477   2.523
    1C        C  574   2.992   4.393   2.648
    1C        C  575   3.118   4.458   2.645
    1C        C  576   2.934   4.354   2.771
    1C        C  577   2.995   4.396   2.891
    1C        C  578   2.827   4.269   3.018
    1C        C  579   2.935   4.359   3.013
    1C        C  580   2.774   4.223   3.141
    1C        C  581   2.831   4.271   3.261
    1C        C  582   2.696   4.111   3.386
    1C        C  583   2.780   4.224   3.385
    1C        C  584   2.656   4.058   3.510
    1C        C  585   2.690   4.119   3.633
    1C        C  586   2.593   3.933   3.756
    1C        C  587   2.657   4.059   3.756
    1C        C  588   2.566   3.871   3.880
    1C        C  589   2.591   3.937   4.003
    1C        C  590   2.528   3.739   4.128
    1C        C  591   2.568   3.875   4.127
    1C        C  592   2.517   3.673   4.252
    1C        C  593   2.527   3.746   4.373
    1C        C  594   2.509   3.536   4.499
    1C        C  595   2.517   3.676   4.496
    1C        C  596   2.512   3.466   4.622
    1C        C  597   2.508   3.539   4.742
    1C        C  598   2.532   3.326   4.865
    1C        C  599   2.526   3.467   4.862
    1C        C  600   2.537   3.251   4.983
    1C        C  601   3.191   4.427   2.045
    1C        C  602   2.977   4.394   2.161
    1C        C  603   3.114   4.438   2.161
    1C        C  604   2.922   4.358   2.287
    1C        C  605   2.985   4.399   2.406
    1C        C  606   2.818   4.268   2.527
    1C        C  607   2.926   4.359   2.528
    1C        C  608   2.769   4.220   2.651
    1C        C  609   2.825   4.264   2.773
    1C        C  610   2.681   4.113   2.896
    1C        C  611   2.777   4.217   2.897
    1C        C  612   2.643   4.056   3.019
    1C        C  613   2.685   4.113   3.141
    1C        C  614   2.586   3.929   3.266
    1C        C  615   2.649   4.055   3.265
    1C        C  616   2.561   3.866   3.390
    1C        C  617   2.589   3.933   3.512
    1C        C  618   2.525   3.732   3.639
    1C        C  619   2.563   3.868   3.634
    1C        C  620   2.513   3.666   3.763
    1C        C  621   2.525   3.736   3.885
    1C        C  622   2.501   3.527   4.014
    1C        C  623   2.508   3.668   4.007
    1C        C  624   2.510   3.458   4.137
    1C        C  625   2.512   3.532   4.257
    1C        C  626   2.534   3.322   4.382
    1C        C  627   2.517   3.462   4.379
    1C        C  628   2.555   3.252   4.504
    1C        C  629   2.539   3.327   4.623
    1C        C  630   2.598   3.122   4.744
    1C        C  631   2.551   3.256   4.744
    1C        C  632   2.618   3.049   4.865
    1C        C  633   2.559   3.113   4.979
    1C        C  634   2.780   4.306   2.052
    1C        C  635   2.889   4.394   2.049
    1C        C  636   2.747   4.231   2.166
    1C        C  637   2.808   4.272   2.286
    1C        C  638   2.673   4.109   2.410
    1C        C  639   2.760   4.220   2.408
    1C        C  640   2.633   4.052   2.533
    1C        C  641   2.679   4.111   2.653
    1C        C  642   2.577   3.926   2.778
    1C        C  643   2.640   4.052   2.775
    1C        C  644   2.554   3.859   2.901
    1C        C  645   2.581   3.929   3.021
    1C        C  646   2.521   3.727   3.150
    1C        C  647   2.557   3.863   3.144
    1C        C  648   2.508   3.659   3.273
    1C        C  649   2.523   3.730   3.394
    1C        C  650   2.505   3.521   3.519
    1C        C  651   2.508   3.662   3.517
    1C        C  652   2.515   3.455   3.644
    1C        C  653   2.509   3.525   3.767
    1C        C  654   2.537   3.319   3.890
    1C        C  655   2.507   3.457   3.891
    1C        C  656   2.556   3.251   4.013
    1C        C  657   2.540   3.320   4.135
    1C        C  658   2.610   3.125   4.259
    1C        C  659   2.557   3.256   4.259
    1C        C  660   2.635   3.057   4.380
    1C        C  661   2.608   3.121   4.503
    1C        C  662   2.712   2.937   4.626
    1C        C  663   2.636   3.056   4.625
    1C        C  664   2.748   2.875   4.747
    1C        C  665   2.697   2.930   4.868
    1C        C  666   2.747   2.869   4.984
    1C        C  667   2.676   4.024   2.056
    1C        C  668   2.679   4.107   2.169
    1C        C  669   2.586   3.912   2.292
    1C        C  670   2.639   4.044   2.289
    1C        C  671   2.554   3.849   2.414
    1C        C  672   2.577   3.922   2.533
    1C        C  673   2.511   3.724   2.659
    1C        C  674   2.554   3.858   2.657
    1C        C  675   2.507   3.652   2.781
    1C        C  676   2.521   3.722   2.903
    1C        C  677   2.506   3.516   3.029
    1C        C  678   2.511   3.657   3.028
    1C        C  679   2.503   3.446   3.152
    1C        C  680   2.499   3.518   3.274
    1C        C  681   2.531   3.310   3.401
    1C        C  682   2.508   3.450   3.397
    1C        C  683   2.558   3.247   3.524
    1C        C  684   2.538   3.316   3.646
    1C        C  685   2.607   3.117   3.772
    1C        C  686   2.555   3.248   3.769
    1C        C  687   2.638   3.054   3.894
    1C        C  688   2.606   3.119   4.015
    1C        C  689   2.715   2.938   4.139
    1C        C  690   2.640   3.058   4.138
    1C        C  691   2.756   2.880   4.261
    1C        C  692   2.715   2.940   4.382
    1C        C  693   2.761   2.885   4.504
    1C        C  694   2.624   3.894   2.057
    1C        C  695   2.522   3.705   2.175
    1C        C  696   2.570   3.837   2.173
    1C        C  697   2.499   3.639   2.297
    1C        C  698   2.513   3.714   2.416
    1C        C  699   2.486   3.508   2.545
    1C        C  700   2.494   3.649   2.540
    1C        C  701   2.499   3.436   2.666
    1C        C  702   2.502   3.511   2.785
    1C        C  703   2.525   3.303   2.910
    1C        C  704   2.506   3.443   2.908
    1C        C  705   2.548   3.239   3.034
    1C        C  706   2.531   3.308   3.156
    1C        C  707   2.601   3.109   3.278
    1C        C  708   2.548   3.240   3.279
    1C        C  709   2.636   3.050   3.402
    1C        C  710   2.609   3.115   3.525
    1C        C  711   2.720   2.938   3.649
    1C        C  712   2.641   3.056   3.649
    1C        C  713   2.763   2.883   3.771
    1C        C  714   2.714   2.935   3.893
    1C        C  715   2.762   2.886   4.017
    1C        C  716   2.447   3.501   2.066
    1C        C  717   2.480   3.637   2.060
    1C        C  718   2.462   3.421   2.184
    1C        C  719   2.480   3.498   2.303
    1C        C  720   2.513   3.292   2.427
    1C        C  721   2.487   3.431   2.427
    1C        C  722   2.541   3.225   2.548
    1C        C  723   2.525   3.297   2.668
    1C        C  724   2.593   3.098   2.793
    1C        C  725   2.541   3.229   2.791
    1C        C  726   2.624   3.037   2.916
    1C        C  727   2.598   3.106   3.036
    1C        C  728   2.710   2.924   3.160
    1C        C  729   2.633   3.043   3.158
    1C        C  730   2.751   2.871   3.284
    1C        C  731   2.713   2.932   3.405
    1C        C  732   2.758   2.877   3.527
    1C        C  733   2.489   3.198   2.074
    1C        C  734   2.483   3.279   2.188
    1C        C  735   2.570   3.082   2.311
    1C        C  736   2.514   3.213   2.310
    1C        C  737   2.602   3.014   2.430
    1C        C  738   2.581   3.089   2.548
    1C        C  739   2.700   2.915   2.671
    1C        C  740   2.624   3.034   2.671
    1C        C  741   2.745   2.860   2.794
    1C        C  742   2.702   2.919   2.914
    1C        C  743   2.747   2.865   3.037
    1C        C  744   2.540   3.068   2.078
    1C        C  745   2.681   2.897   2.188
    1C        C  746   2.602   3.015   2.191
    1C        C  747   2.730   2.842   2.309
    1C        C  748   2.686   2.901   2.430
    1C        C  749   2.738   2.850   2.551
    1C        C  750   2.741   2.842   2.074
    1C        C  751   3.652   2.310   1.979
    1C        O  752   3.694   2.198   2.019
    1C        O  753   3.681   2.331   1.843
    1C        C  754   4.631   3.059   1.979
    1C        O  755   4.628   3.053   1.853
    1C        O  756   4.739   2.995   2.040
    1C        C  757   4.456   4.223   1.972
    1C        O  758   4.556   4.283   2.021
    1C        O  759   4.439   4.250   1.836
    1C        C  760   3.571   4.652   1.938
    1C        O  761   3.609   4.771   1.951
    1C        O  762   3.571   4.605   1.806
    1C        C  763   2.872   4.516   1.965
    1C        O  764   2.845   4.513   1.842
    1C        O  765   2.839   4.642   2.014
    1C        C  766   2.340   3.466   1.970
    1C        O  767   2.374   3.444   1.850
    1C        O  768   2.207   3.509   1.971
    1C        C  769   4.692   3.590   5.050
    1C        O  770   4.677   3.577   5.175
    1C        O  771   4.826   3.564   5.016
    1C        C  772   4.268   4.463   5.035
    1C        O  773   4.285   4.451   5.159
    1C        O  774   4.388   4.519   4.987
    1C        C  775   4.145   2.507   5.059
    1C        O  776   4.226   2.424   5.009
    1C        O  777   4.172   2.528   5.195
    1C        C  778   2.879   4.554   5.034
    1C        O  779   2.780   4.629   5.015
    1C        O  780   2.923   4.562   5.167
    1C        C  781   2.468   3.041   5.072
    1C        O  782   2.351   3.009   5.041
    1C        O  783   2.499   3.038   5.208
    1C        C  784   2.426   3.992   5.065
    1C        O  785   2.310   4.033   5.036
    1C        O  786   2.450   3.953   5.198
    1C        C  787   2.943   2.415   2.020
    1C        O  788   2.912   2.426   1.898
    1C        O  789   2.860   2.335   2.097
    1C        C  790   3.165   2.360   5.037
    1C        O  791   3.095   2.273   4.978
    1C        O  792   3.191   2.348   5.174
    1C        H  793   4.266   3.029   5.055
    1C        H  794   4.167   2.813   5.070
    1C        H  795   4.491   3.136   5.066
    1C        H  796   4.470   3.368   5.055
    1C        H  797   4.582   3.811   5.035
    1C        H  798   4.402   3.960   5.050
    1C        H  799   4.364   4.204   5.027
    1C        H  800   4.016   4.511   5.036
    1C        H  801   3.823   4.621   5.030
    1C        H  802   3.588   4.630   5.037
    1C        H  803   3.394   4.460   5.033
    1C        H  804   3.171   4.446   5.048
    1C        H  805   3.905   2.453   5.052
    1C        H  806   3.675   2.442   5.070
    1C        H  807   2.996   2.541   5.058
    1C        H  808   3.437   2.458   5.076
    1C        H  809   2.872   2.725   5.074
    1C        H  810   2.711   2.898   5.081
    1C        H  811   2.538   3.299   5.079
    1C        H  812   2.562   3.496   5.070
    1C        H  813   2.516   3.727   5.074
    1C        H  814   2.589   4.170   5.050
    1C        H  815   2.798   4.284   5.050
    1C        H  816   2.686   2.857   1.984
    1C        H  817   2.822   2.670   1.981
    1C        H  818   3.212   2.445   1.985
    1C        H  819   3.426   2.426   1.979
    1C        H  820   3.878   2.478   1.981
    1C        H  821   4.084   2.577   1.979
    1C        H  822   4.230   2.744   1.968
    1C        H  823   4.434   2.876   1.990
    1C        H  824   4.568   3.306   1.964
    1C        H  825   4.531   3.514   1.961
    1C        H  826   4.472   3.753   1.961
    1C        H  827   3.796   4.517   1.940
    1C        H  828   3.938   4.339   1.956
    1C        H  829   4.138   4.214   1.957
    1C        H  830   4.502   3.969   1.967
    1C        H  831   2.654   3.824   1.981
    1C        H  832   2.733   4.043   1.968
    1C        H  833   2.752   4.269   1.956
    1C        H  834   3.359   4.505   1.949
    1C        H  835   3.139   4.445   1.952
    1C        H  836   2.492   2.997   2.013
    1C        H  837   2.441   3.227   1.983
    1C        H  838   2.496   3.675   1.961
    2V3OU   H29  839   2.806   3.549   1.956
    2V3OU   C27  840   2.786   3.501   2.055
    2V3OU   H27  841   2.730   3.568   2.125
    2V3OU   H28  842   2.727   3.406   2.048
    2V3OU   O11  843   2.909   3.474   2.122
    2V3OU   C15  844   2.924   3.401   2.239
    2V3OU   C13  845   3.052   3.372   2.290
    2V3OU   C14  846   3.077   3.268   2.381
    2V3OU   C16  847   2.973   3.188   2.427
    2V3OU    H6  848   2.994   3.103   2.493
    2V3OU   C12  849   3.214   3.231   2.422
    2V3OU    O2  850   3.237   3.124   2.483
    2V3OU   C10  851   3.328   3.309   2.373
    2V3OU    C8  852   3.461   3.271   2.389
    2V3OU   O10  853   3.490   3.150   2.442
    2V3OU   H26  854   3.403   3.112   2.466
    2V3OU    C6  855   3.570   3.348   2.337
    2V3OU    C5  856   3.542   3.467   2.271
    2V3OU    C4  857   3.707   3.290   2.346
    2V3OU    H4  858   3.730   3.224   2.435
    2V3OU    H5  859   3.712   3.225   2.254
    2V3OU    C2  860   3.815   3.398   2.336
    2V3OU    O6  861   3.804   3.480   2.453
    2V3OU   H21  862   3.756   3.557   2.420
    2V3OU    C3  863   3.787   3.498   2.224
    2V3OU    H2  864   3.863   3.580   2.220
    2V3OU    H3  865   3.788   3.442   2.127
    2V3OU   C25  866   3.950   3.326   2.325
    2V3OU    O7  867   4.005   3.293   2.221
    2V3OU   C26  868   4.030   3.285   2.447
    2V3OU   H22  869   4.068   3.378   2.497
    2V3OU   H23  870   4.119   3.225   2.415
    2V3OU    O8  871   3.964   3.203   2.541
    2V3OU   H24  872   3.922   3.254   2.613
    2V3OU    C1  873   3.651   3.565   2.235
    2V3OU    H1  874   3.625   3.615   2.137
    2V3OU    O3  875   3.664   3.651   2.348
    2V3OU   C19  876   3.624   3.788   2.340
    2V3OU    H9  877   3.531   3.799   2.276
    2V3OU    O4  878   3.715   3.848   2.250
    2V3OU   C20  879   3.846   3.876   2.301
    2V3OU   H10  880   3.894   3.775   2.315
    2V3OU   C24  881   3.612   3.853   2.478
    2V3OU   H16  882   3.550   3.789   2.546
    2V3OU   H17  883   3.561   3.952   2.474
    2V3OU   C23  884   3.752   3.872   2.536
    2V3OU   H15  885   3.796   3.770   2.559
    2V3OU    N1  886   3.736   3.949   2.658
    2V3OU   H19  887   3.814   3.927   2.717
    2V3OU   H20  888   3.648   3.931   2.701
    2V3OU   C21  889   3.847   3.946   2.437
    2V3OU   H11  890   3.952   3.931   2.475
    2V3OU    O5  891   3.822   4.086   2.432
    2V3OU   H18  892   3.779   4.110   2.516
    2V3OU   C22  893   3.907   3.955   2.187
    2V3OU   H12  894   3.857   4.055   2.176
    2V3OU   H13  895   3.905   3.894   2.093
    2V3OU   H14  896   4.017   3.967   2.204
    2V3OU   C11  897   3.162   3.467   2.269
    2V3OU    O1  898   3.134   3.585   2.237
    2V3OU    C9  899   3.301   3.426   2.296
    2V3OU    C7  900   3.406   3.503   2.247
    2V3OU    O9  901   3.391   3.626   2.186
    2V3OU   H25  902   3.294   3.629   2.180
    2V3OU   C17  903   2.822   3.313   2.283
    2V3OU    H7  904   2.722   3.350   2.263
    2V3OU   C18  905   2.847   3.209   2.371
    2V3OU    H8  906   2.771   3.160   2.434
    3SOL     OW  907   3.262   4.736   0.795
    3SOL    HW1  908   3.345   4.732   0.850
    3SOL    HW2  909   3.266   4.664   0.725
    4SOL     OW  910   6.740   6.464   1.637
    4SOL    HW1  911   6.811   6.416   1.585
    4SOL    HW2  912   6.781   6.540   1.687
    5SOL     OW  913   4.100   1.907   2.920
    5SOL    HW1  914   4.090   1.814   2.883
    5SOL    HW2  915   4.097   1.903   3.020
    6SOL     OW  916   4.228   1.479   1.193
    6SOL    HW1  917   4.328   1.478   1.190
    6SOL    HW2  918   4.194   1.385   1.191
    7SOL     OW  919   6.433   3.856   2.252
    7SOL    HW1  920   6.474   3.825   2.338
    7SOL    HW2  921   6.462   3.949   2.232
    8SOL     OW  922   2.656   0.005   6.199
    8SOL    HW1  923   2.690   6.934   6.200
    8SOL    HW2  924   2.729   0.068   6.226
    9SOL     OW  925   6.663   5.428   6.124
    9SOL    HW1  926   6.592   5.362   6.101
    9SOL    HW2  927   6.724   5.439   6.045
   10SOL     OW  928   0.978   4.959   6.040
   10SOL    HW1  929   0.892   4.966   5.989
   10SOL    HW2  930   1.000   4.862   6.056
   11SOL     OW  931   2.906   0.123   6.829
   11SOL    HW1  932   2.940   0.168   6.746
   11SOL    HW2  933   2.954   0.036   6.842
   12SOL     OW  934   3.834   6.254   4.264
   12SOL    HW1  935   3.792   6.233   4.353
   12SOL    HW2  936   3.792   6.197   4.193
   13SOL     OW  937   3.621   5.500   3.705
   13SOL    HW1  938   3.626   5.553   3.790
   13SOL    HW2  939   3.526   5.472   3.689
   14SOL     OW  940   5.045   5.287   6.362
   14SOL    HW1  941   5.012   5.379   6.386
   14SOL    HW2  942   5.145   5.289   6.356
   15SOL     OW  943   1.137   5.863   0.972
   15SOL    HW1  944   1.171   5.838   1.063
   15SOL    HW2  945   1.195   5.935   0.934
   16SOL     OW  946   5.631   3.239   5.524
   16SOL    HW1  947   5.675   3.293   5.595
   16SOL    HW2  948   5.695   3.225   5.449
   17SOL     OW  949   5.557   6.256   5.565
   17SOL    HW1  950   5.553   6.265   5.466
   17SOL    HW2  951   5.494   6.321   5.607
   18SOL     OW  952   3.102   1.180   5.982
   18SOL    HW1  953   3.154   1.154   5.900
   18SOL    HW2  954   3.050   1.101   6.014
   19SOL     OW  955   0.470   0.084   3.372
   19SOL    HW1  956   0.542   0.038   3.320
   19SOL    HW2  957   0.480   0.061   3.469
   20SOL     OW  958   5.235   2.288   4.594
   20SOL    HW1  959   5.182   2.305   4.677
   20SOL    HW2  960   5.293   2.208   4.608
   21SOL     OW  961   3.149   2.135   2.312
   21SOL    HW1  962   3.061   2.172   2.341
   21SOL    HW2  963   3.162   2.150   2.214
   22SOL     OW  964   2.145   6.882   0.241
   22SOL    HW1  965   2.241   6.903   0.222
   22SOL    HW2  966   2.137   6.788   0.275
   23SOL     OW  967   4.577   6.548   3.407
   23SOL    HW1  968   4.481   6.521   3.407
   23SOL    HW2  969   4.599   6.593   3.494
   24SOL     OW  970   4.884   0.980   3.008
   24SOL    HW1  971   4.941   1.047   2.960
   24SOL    HW2  972   4.867   1.010   3.101
   25SOL     OW  973   3.170   6.855   5.055
   25SOL    HW1  974   3.122   6.814   4.978
   25SOL    HW2  975   3.129   6.823   5.141
   26SOL     OW  976   6.217   1.026   0.576
   26SOL    HW1  977   6.210   1.016   0.676
   26SOL    HW2  978   6.228   1.122   0.552
   27SOL     OW  979   0.609   1.822   1.750
   27SOL    HW1  980   0.677   1.831   1.822
   27SOL    HW2  981   0.625   1.891   1.679
   28SOL     OW  982   3.594   1.425   6.915
   28SOL    HW1  983   3.605   1.423   6.816
   28SOL    HW2  984   3.497   1.425   6.938
   29SOL     OW  985   4.968   3.119   1.623
   29SOL    HW1  986   4.952   3.115   1.524
   29SOL    HW2  987   5.009   3.207   1.646
   30SOL     OW  988   3.278   0.707   4.492
   30SOL    HW1  989   3.267   0.727   4.395
   30SOL    HW2  990   3.271   0.793   4.544
   31SOL     OW  991   0.770   2.346   5.529
   31SOL    HW1  992   0.789   2.389   5.441
   31SOL    HW2  993   0.760   2.247   5.517
   32SOL     OW  994   0.239   1.671   3.022
   32SOL    HW1  995   0.147   1.649   2.991
   32SOL    HW2  996   0.305   1.615   2.972
   33SOL     OW  997   2.310   3.810   6.986
   33SOL    HW1  998   2.310   3.796   6.887
   33SOL    HW2  999   2.216   3.808   7.020
   34SOL     OW 1000   2.364   1.599   3.028
   34SOL    HW1 1001   2.363   1.680   2.968
   34SOL    HW2 1002   2.283   1.601   3.087
   35SOL     OW 1003   3.282   2.759   6.793
   35SOL    HW1 1004   3.367   2.807   6.771
   35SOL    HW2 1005   3.233   2.738   6.709
   36SOL     OW 1006   6.323   0.728   5.687
   36SOL    HW1 1007   6.306   0.641   5.734
   36SOL    HW2 1008   6.237   0.761   5.648
   37SOL     OW 1009   1.120   0.224   0.388
   37SOL    HW1 1010   1.044   0.241   0.451
   37SOL    HW2 1011   1.095   0.257   0.297
   38SOL     OW 1012   7.023   4.441   2.191
   38SOL    HW1 1013   0.008   4.468   2.095
   38SOL    HW2 1014   6.942   4.383   2.202
   39SOL     OW 1015   6.576   4.977   6.829
   39SOL    HW1 1016   6.509   5.020   6.768
   39SOL    HW2 1017   6.631   4.911   6.777
   40SOL     OW 1018   5.260   1.865   1.281
   40SOL    HW1 1019   5.190   1.836   1.347
   40SOL    HW2 1020   5.319   1.934   1.324
   41SOL     OW 1021   6.663   0.032   4.163
   41SOL    HW1 1022   6.576   0.023   4.211
   41SOL    HW2 1023   6.734   0.058   4.227
   42SOL     OW 1024   2.634   5.673   5.488
   42SOL    HW1 1025   2.587   5.702   5.405
   42SOL    HW2 1026   2.619   5.741   5.560
   43SOL     OW 1027   5.470   6.274   5.296
   43SOL    HW1 1028   5.528   6.327   5.234
   43SOL    HW2 1029   5.378   6.313   5.297
   44SOL     OW 1030   5.883   1.718   6.448
   44SOL    HW1 1031   5.825   1.779   6.502
   44SOL    HW2 1032   5.842   1.627   6.444
   45SOL     OW 1033   3.351   6.792   3.082
   45SOL    HW1 1034   3.440   6.748   3.070
   45SOL    HW2 1035   3.305   6.801   2.994
   46SOL     OW 1036   1.382   3.124   3.650
   46SOL    HW1 1037   1.413   3.061   3.721
   46SOL    HW2 1038   1.448   3.198   3.641
   47SOL     OW 1039   4.859   4.805   1.215
   47SOL    HW1 1040   4.929   4.866   1.254
   47SOL    HW2 1041   4.874   4.712   1.249
   48SOL     OW 1042   6.886   2.640   5.811
   48SOL    HW1 1043   6.985   2.624   5.812
   48SOL    HW2 1044   6.862   2.694   5.731
   49SOL     OW 1045   4.798   4.101   1.958
   49SOL    HW1 1046   4.748   4.061   1.881
   49SOL    HW2 1047   4.741   4.169   2.003
   50SOL     OW 1048   6.391   2.685   5.588
   50SOL    HW1 1049   6.326   2.759   5.574
   50SOL    HW2 1050   6.432   2.659   5.501
   51SOL     OW 1051   3.330   6.324   2.594
   51SOL    HW1 1052   3.256   6.371   2.642
   51SOL    HW2 1053   3.314   6.330   2.495
   52SOL     OW 1054   5.217   2.280   3.307
   52SOL    HW1 1055   5.259   2.370   3.294
   52SOL    HW2 1056   5.121   2.283   3.279
   53SOL     OW 1057   3.894   6.907   4.922
   53SOL    HW1 1058   3.815   6.920   4.862
   53SOL    HW2 1059   3.896   6.813   4.956
   54SOL     OW 1060   3.623   4.570   1.018
   54SOL    HW1 1061   3.585   4.636   0.952
   54SOL    HW2 1062   3.715   4.599   1.045
   55SOL     OW 1063   3.346   1.451   6.318
   55SOL    HW1 1064   3.387   1.535   6.284
   55SOL    HW2 1065   3.365   1.376   6.254
   56SOL     OW 1066   0.176   0.357   1.132
   56SOL    HW1 1067   0.241   0.285   1.108
   56SOL    HW2 1068   0.123   0.382   1.051
   57SOL     OW 1069   5.212   0.440   0.552
   57SOL    HW1 1070   5.131   0.453   0.495
   57SOL    HW2 1071   5.196   0.481   0.642
   58SOL     OW 1072   6.554   6.902   5.809
   58SOL    HW1 1073   6.588   6.995   5.823
   58SOL    HW2 1074   6.477   6.904   5.745
   59SOL     OW 1075   1.318   1.325   5.811
   59SOL    HW1 1076   1.238   1.383   5.827
   59SOL    HW2 1077   1.303   1.270   5.729
   60SOL     OW 1078   5.471   1.022   5.617
   60SOL    HW1 1079   5.558   0.973   5.627
   60SOL    HW2 1080   5.431   1.037   5.707
   61SOL     OW 1081   5.137   1.839   5.192
   61SOL    HW1 1082   5.201   1.902   5.234
   61SOL    HW2 1083   5.132   1.857   5.094
   62SOL     OW 1084   6.832   1.179   3.223
   62SOL    HW1 1085   6.823   1.190   3.124
   62SOL    HW2 1086   6.929   1.177   3.248
   63SOL     OW 1087   5.625   1.770   3.887
   63SOL    HW1 1088   5.657   1.799   3.976
   63SOL    HW2 1089   5.693   1.710   3.844
   64SOL     OW 1090   0.436   3.785   6.046
   64SOL    HW1 1091   0.517   3.842   6.057
   64SOL    HW2 1092   0.397   3.764   6.135
   65SOL     OW 1093   6.703   4.478   5.356
   65SOL    HW1 1094   6.649   4.394   5.368
   65SOL    HW2 1095   6.684   4.540   5.431
   66SOL     OW 1096   3.714   0.817   5.984
   66SOL    HW1 1097   3.718   0.728   6.030
   66SOL    HW2 1098   3.629   0.863   6.007
   67SOL     OW 1099   5.294   4.406   5.647
   67SOL    HW1 1100   5.345   4.449   5.573
   67SOL    HW2 1101   5.329   4.439   5.735
   68SOL     OW 1102   5.458   0.671   6.604
   68SOL    HW1 1103   5.417   0.735   6.669
   68SOL    HW2 1104   5.547   0.641   6.638
   69SOL     OW 1105   0.972   3.515   6.487
   69SOL    HW1 1106   0.946   3.475   6.399
   69SOL    HW2 1107   1.066   3.488   6.509
   70SOL     OW 1108   5.694   5.275   4.193
   70SOL    HW1 1109   5.779   5.243   4.235
   70SOL    HW2 1110   5.714   5.351   4.131
   71SOL     OW 1111   4.327   1.576   3.090
   71SOL    HW1 1112   4.242   1.615   3.055
   71SOL    HW2 1113   4.372   1.523   3.018
   72SOL     OW 1114   2.484   6.044   4.747
   72SOL    HW1 1115   2.577   6.022   4.779
   72SOL    HW2 1116   2.488   6.126   4.690
   73SOL     OW 1117   3.398   0.927   0.810
   73SOL    HW1 1118   3.469   0.991   0.780
   73SOL    HW2 1119   3.342   0.900   0.732
   74SOL     OW 1120   5.510   6.602   6.157
   74SOL    HW1 1121   5.531   6.568   6.065
   74SOL    HW2 1122   5.424   6.562   6.188
   75SOL     OW 1123   3.897   0.052   6.786
   75SOL    HW1 1124   3.915   7.001   6.851
   75SOL    HW2 1125   3.903   0.017   6.693
   76SOL     OW 1126   2.519   2.504   0.841
   76SOL    HW1 1127   2.485   2.418   0.878
   76SOL    HW2 1128   2.538   2.567   0.916
   77SOL     OW 1129   6.284   6.279   3.578
   77SOL    HW1 1130   6.189   6.276   3.548
   77SOL    HW2 1131   6.288   6.290   3.677
   78SOL     OW 1132   5.667   0.395   6.023
   78SOL    HW1 1133   5.603   0.374   5.949
   78SOL    HW2 1134   5.758   0.359   6.000
   79SOL     OW 1135   3.238   6.595   0.277
   79SOL    HW1 1136   3.193   6.658   0.213
   79SOL    HW2 1137   3.326   6.568   0.239
   80SOL     OW 1138   5.412   2.254   3.893
   80SOL    HW1 1139   5.339   2.260   3.962
   80SOL    HW2 1140   5.435   2.158   3.878
   81SOL     OW 1141   2.062   0.364   3.397
   81SOL    HW1 1142   2.116   0.419   3.461
   81SOL    HW2 1143   2.119   0.291   3.360
   82SOL     OW 1144   6.659   5.063   0.815
   82SOL    HW1 1145   6.585   5.118   0.775
   82SOL    HW2 1146   6.629   4.968   0.824
   83SOL     OW 1147   0.585   0.582   0.662
   83SOL    HW1 1148   0.531   0.586   0.577
   83SOL    HW2 1149   0.620   0.673   0.682
   84SOL     OW 1150   5.395   3.061   3.626
   84SOL    HW1 1151   5.460   2.987   3.645
   84SOL    HW2 1152   5.441   3.134   3.575
   85SOL     OW 1153   2.138   1.793   4.616
   85SOL    HW1 1154   2.231   1.759   4.606
   85SOL    HW2 1155   2.094   1.750   4.695
   86SOL     OW 1156   6.980   0.499   5.150
   86SOL    HW1 1157   6.892   0.490   5.104
   86SOL    HW2 1158   0.031   0.494   5.082
   87SOL     OW 1159   5.245   3.661   0.684
   87SOL    HW1 1160   5.178   3.718   0.636
   87SOL    HW2 1161   5.198   3.581   0.724
   88SOL     OW 1162   3.716   1.719   6.164
   88SOL    HW1 1163   3.804   1.758   6.191
   88SOL    HW2 1164   3.717   1.700   6.066
   89SOL     OW 1165   0.882   2.441   5.301
   89SOL    HW1 1166   0.952   2.408   5.364
   89SOL    HW2 1167   0.878   2.382   5.221
   90SOL     OW 1168   4.007   5.957   2.652
   90SOL    HW1 1169   3.950   5.876   2.659
   90SOL    HW2 1170   3.968   6.019   2.584
   91SOL     OW 1171   4.735   4.448   5.061
   91SOL    HW1 1172   4.718   4.353   5.087
   91SOL    HW2 1173   4.718   4.460   4.964
   92SOL     OW 1174   3.527   3.992   0.151
   92SOL    HW1 1175   3.479   4.062   0.203
   92SOL    HW2 1176   3.623   3.990   0.178
   93SOL     OW 1177   2.591   3.699   6.464
   93SOL    HW1 1178   2.515   3.635   6.453
   93SOL    HW2 1179   2.624   3.726   6.373
   94SOL     OW 1180   2.602   6.226   6.052
   94SOL    HW1 1181   2.607   6.140   6.001
   94SOL    HW2 1182   2.587   6.302   5.988
   95SOL     OW 1183   1.192   0.611   3.071
   95SOL    HW1 1184   1.179   0.644   2.978
   95SOL    HW2 1185   1.111   0.632   3.126
   96SOL     OW 1186   2.991   0.461   4.993
   96SOL    HW1 1187   3.020   0.394   4.925
   96SOL    HW2 1188   3.071   0.494   5.044
   97SOL     OW 1189   1.759   2.992   5.755
   97SOL    HW1 1190   1.849   2.995   5.710
   97SOL    HW2 1191   1.701   3.064   5.718
   98SOL     OW 1192   6.578   3.613   0.854
   98SOL    HW1 1193   6.593   3.702   0.812
   98SOL    HW2 1194   6.523   3.624   0.937
   99SOL     OW 1195   4.236   3.548   1.140
   99SOL    HW1 1196   4.157   3.605   1.161
   99SOL    HW2 1197   4.238   3.469   1.200
  100SOL     OW 1198   6.903   7.008   4.954
  100SOL    HW1 1199   6.883   0.001   4.857
  100SOL    HW2 1200   6.862   6.921   4.983
  101SOL     OW 1201   1.506   5.538   2.262
  101SOL    HW1 1202   1.520   5.556   2.359
  101SOL    HW2 1203   1.560   5.458   2.235
  102SOL     OW 1204   4.242   0.165   2.717
  102SOL    HW1 1205   4.208   0.174   2.811
  102SOL    HW2 1206   4.204   0.082   2.676
  103SOL     OW 1207   2.889   0.961   2.174
  103SOL    HW1 1208   2.980   0.975   2.137
  103SOL    HW2 1209   2.853   1.049   2.207
  104SOL     OW 1210   0.537   5.207   2.573
  104SOL    HW1 1211   0.557   5.113   2.600
  104SOL    HW2 1212   0.593   5.270   2.626
  105SOL     OW 1213   6.764   2.749   6.825
  105SOL    HW1 1214   6.684   2.755   6.764
  105SOL    HW2 1215   6.780   2.839   6.866
  106SOL     OW 1216   3.787   6.327   4.992
  106SOL    HW1 1217   3.838   6.351   5.075
  106SOL    HW2 1218   3.689   6.344   5.007
  107SOL     OW 1219   2.318   1.676   1.917
  107SOL    HW1 1220   2.378   1.610   1.963
  107SOL    HW2 1221   2.287   1.638   1.830
  108SOL     OW 1222   3.745   5.351   5.683
  108SOL    HW1 1223   3.744   5.309   5.774
  108SOL    HW2 1224   3.651   5.367   5.652
  109SOL     OW 1225   6.982   0.743   1.457
  109SOL    HW1 1226   0.022   0.815   1.488
  109SOL    HW2 1227   0.008   0.678   1.399
  110SOL     OW 1228   3.241   5.471   5.426
  110SOL    HW1 1229   3.191   5.425   5.499
  110SOL    HW2 1230   3.257   5.407   5.351
  111SOL     OW 1231   2.664   1.308   4.256
  111SOL    HW1 1232   2.693   1.356   4.339
  111SOL    HW2 1233   2.572   1.271   4.269
  112SOL     OW 1234   4.909   0.050   5.977
  112SOL    HW1 1235   4.821   0.012   6.005
  112SOL    HW2 1236   4.936   0.013   5.889
  113SOL     OW 1237   5.989   5.992   3.182
  113SOL    HW1 1238   5.986   5.977   3.083
  113SOL    HW2 1239   6.083   5.979   3.214
  114SOL     OW 1240   1.210   0.664   1.270
  114SOL    HW1 1241   1.205   0.576   1.223
  114SOL    HW2 1242   1.140   0.725   1.234
  115SOL     OW 1243   4.075   1.411   3.540
  115SOL    HW1 1244   4.083   1.506   3.568
  115SOL    HW2 1245   3.985   1.396   3.497
  116SOL     OW 1246   5.623   5.075   1.557
  116SOL    HW1 1247   5.652   5.163   1.594
  116SOL    HW2 1248   5.658   5.064   1.464
  117SOL     OW 1249   1.249   1.873   0.593
  117SOL    HW1 1250   1.193   1.791   0.582
  117SOL    HW2 1251   1.286   1.875   0.686
  118SOL     OW 1252   1.862   1.077   3.390
  118SOL    HW1 1253   1.902   1.042   3.475
  118SOL    HW2 1254   1.804   1.156   3.410
  119SOL     OW 1255   0.680   0.988   7.011
  119SOL    HW1 1256   0.636   0.931   6.942
  119SOL    HW2 1257   0.750   0.934   0.035
  120SOL     OW 1258   6.601   6.822   0.502
  120SOL    HW1 1259   6.601   6.881   0.422
  120SOL    HW2 1260   6.527   6.756   0.494
  121SOL     OW 1261   2.205   3.376   6.163
  121SOL    HW1 1262   2.191   3.287   6.120
  121SOL    HW2 1263   2.130   3.438   6.137
  122SOL     OW 1264   1.962   4.458   6.262
  122SOL    HW1 1265   2.019   4.465   6.344
  122SOL    HW2 1266   1.964   4.364   6.229
  123SOL     OW 1267   0.113   1.404   2.055
  123SOL    HW1 1268   0.170   1.480   2.086
  123SOL    HW2 1269   0.166   1.345   1.995
  124SOL     OW 1270   4.736   3.224   0.888
  124SOL    HW1 1271   4.649   3.192   0.852
  124SOL    HW2 1272   4.797   3.249   0.813
  125SOL     OW 1273   3.570   1.881   1.519
  125SOL    HW1 1274   3.576   1.948   1.592
  125SOL    HW2 1275   3.653   1.825   1.518
  126SOL     OW 1276   2.783   3.476   1.036
  126SOL    HW1 1277   2.719   3.523   1.097
  126SOL    HW2 1278   2.798   3.383   1.070
  127SOL     OW 1279   0.927   5.388   6.547
  127SOL    HW1 1280   0.839   5.359   6.510
  127SOL    HW2 1281   0.938   5.487   6.533
  128SOL     OW 1282   4.931   3.120   1.348
  128SOL    HW1 1283   4.866   3.048   1.321
  128SOL    HW2 1284   4.911   3.204   1.297
  129SOL     OW 1285   2.359   2.838   6.051
  129SOL    HW1 1286   2.406   2.868   5.968
  129SOL    HW2 1287   2.352   2.914   6.115
  130SOL     OW 1288   0.645   1.646   4.026
  130SOL    HW1 1289   0.680   1.569   4.079
  130SOL    HW2 1290   0.722   1.700   3.992
  131SOL     OW 1291   5.300   1.985   3.644
  131SOL    HW1 1292   5.229   1.916   3.657
  131SOL    HW2 1293   5.257   2.074   3.627
  132SOL     OW 1294   2.352   2.127   1.365
  132SOL    HW1 1295   2.332   2.107   1.461
  132SOL    HW2 1296   2.363   2.225   1.352
  133SOL     OW 1297   4.635   6.317   4.139
  133SOL    HW1 1298   4.713   6.297   4.080
  133SOL    HW2 1299   4.666   6.372   4.217
  134SOL     OW 1300   6.445   1.868   2.408
  134SOL    HW1 1301   6.369   1.902   2.464
  134SOL    HW2 1302   6.486   1.789   2.452
  135SOL     OW 1303   5.608   3.578   3.537
  135SOL    HW1 1304   5.685   3.575   3.600
  135SOL    HW2 1305   5.639   3.555   3.445
  136SOL     OW 1306   3.251   3.843   5.684
  136SOL    HW1 1307   3.240   3.937   5.651
  136SOL    HW2 1308   3.325   3.840   5.751
  137SOL     OW 1309   5.441   1.732   4.518
  137SOL    HW1 1310   5.388   1.805   4.475
  137SOL    HW2 1311   5.391   1.696   4.598
  138SOL     OW 1312   0.906   4.496   3.110
  138SOL    HW1 1313   0.940   4.526   3.021
  138SOL    HW2 1314   0.905   4.574   3.174
  139SOL     OW 1315   2.255   6.911   4.604
  139SOL    HW1 1316   2.199   6.969   4.544
  139SOL    HW2 1317   2.196   6.847   4.653
  140SOL     OW 1318   0.738   5.624   2.623
  140SOL    HW1 1319   0.663   5.621   2.557
  140SOL    HW2 1320   0.717   5.562   2.699
  141SOL     OW 1321   6.319   3.288   5.181
  141SOL    HW1 1322   6.229   3.244   5.184
  141SOL    HW2 1323   6.314   3.379   5.223
  142SOL     OW 1324   1.927   4.225   0.563
  142SOL    HW1 1325   1.854   4.275   0.517
  142SOL    HW2 1326   1.991   4.188   0.495
  143SOL     OW 1327   5.957   4.466   1.247
  143SOL    HW1 1328   5.929   4.370   1.239
  143SOL    HW2 1329   5.948   4.495   1.342
  144SOL     OW 1330   1.175   6.490   5.811
  144SOL    HW1 1331   1.261   6.464   5.856
  144SOL    HW2 1332   1.110   6.523   5.880
  145SOL     OW 1333   0.031   5.886   0.160
  145SOL    HW1 1334   0.006   5.938   0.242
  145SOL    HW2 1335   6.974   5.878   0.100
  146SOL     OW 1336   4.695   0.461   6.318
  146SOL    HW1 1337   4.782   0.488   6.360
  146SOL    HW2 1338   4.712   0.399   6.242
  147SOL     OW 1339   6.563   3.928   7.022
  147SOL    HW1 1340   6.475   3.964   6.992
  147SOL    HW2 1341   6.589   3.971   0.086
  148SOL     OW 1342   0.157   5.261   6.411
  148SOL    HW1 1343   0.123   5.182   6.462
  148SOL    HW2 1344   0.079   5.311   6.372
  149SOL     OW 1345   2.906   1.677   4.316
  149SOL    HW1 1346   2.814   1.644   4.295
  149SOL    HW2 1347   2.906   1.777   4.316
  150SOL     OW 1348   5.690   5.810   6.815
  150SOL    HW1 1349   5.642   5.778   6.897
  150SOL    HW2 1350   5.661   5.756   6.736
  151SOL     OW 1351   3.065   2.233   1.023
  151SOL    HW1 1352   3.104   2.144   1.001
  151SOL    HW2 1353   2.966   2.231   1.011
  152SOL     OW 1354   1.361   0.796   2.892
  152SOL    HW1 1355   1.266   0.779   2.864
  152SOL    HW2 1356   1.369   0.891   2.924
  153SOL     OW 1357   2.777   0.447   1.687
  153SOL    HW1 1358   2.828   0.524   1.726
  153SOL    HW2 1359   2.808   0.362   1.729
  154SOL     OW 1360   0.664   2.193   2.559
  154SOL    HW1 1361   0.741   2.249   2.527
  154SOL    HW2 1362   0.690   2.146   2.643
  155SOL     OW 1363   6.587   1.670   3.064
  155SOL    HW1 1364   6.609   1.703   3.156
  155SOL    HW2 1365   6.643   1.590   3.043
  156SOL     OW 1366   0.532   2.078   0.726
  156SOL    HW1 1367   0.502   1.993   0.683
  156SOL    HW2 1368   0.482   2.155   0.686
  157SOL     OW 1369   5.597   2.723   1.213
  157SOL    HW1 1370   5.626   2.768   1.129
  157SOL    HW2 1371   5.554   2.790   1.274
  158SOL     OW 1372   2.000   5.835   2.599
  158SOL    HW1 1373   2.034   5.907   2.539
  158SOL    HW2 1374   1.925   5.787   2.554
  159SOL     OW 1375   4.272   4.618   2.137
  159SOL    HW1 1376   4.244   4.522   2.131
  159SOL    HW2 1377   4.344   4.636   2.070
  160SOL     OW 1378   5.887   5.187   0.448
  160SOL    HW1 1379   5.861   5.120   0.378
  160SOL    HW2 1380   5.979   5.220   0.430
  161SOL     OW 1381   1.823   5.960   4.265
  161SOL    HW1 1382   1.786   5.996   4.179
  161SOL    HW2 1383   1.920   5.938   4.253
  162SOL     OW 1384   3.938   6.188   6.856
  162SOL    HW1 1385   3.981   6.277   6.841
  162SOL    HW2 1386   3.839   6.199   6.860
  163SOL     OW 1387   5.583   5.782   0.655
  163SOL    HW1 1388   5.664   5.749   0.706
  163SOL    HW2 1389   5.520   5.706   0.641
  164SOL     OW 1390   6.174   4.418   0.199
  164SOL    HW1 1391   6.184   4.410   0.100
  164SOL    HW2 1392   6.170   4.328   0.241
  165SOL     OW 1393   5.192   3.122   1.290
  165SOL    HW1 1394   5.097   3.113   1.321
  165SOL    HW2 1395   5.217   3.043   1.235
  166SOL     OW 1396   6.987   4.880   3.426
  166SOL    HW1 1397   0.051   4.929   3.430
  166SOL    HW2 1398   6.990   4.803   3.490
  167SOL     OW 1399   5.216   2.977   0.097
  167SOL    HW1 1400   5.173   3.010   0.181
  167SOL    HW2 1401   5.299   2.926   0.120
  168SOL     OW 1402   2.557   2.889   1.288
  168SOL    HW1 1403   2.563   2.957   1.215
  168SOL    HW2 1404   2.465   2.851   1.291
  169SOL     OW 1405   4.793   1.021   1.669
  169SOL    HW1 1406   4.777   0.937   1.721
  169SOL    HW2 1407   4.707   1.053   1.631
  170SOL     OW 1408   1.351   1.225   3.590
  170SOL    HW1 1409   1.345   1.320   3.561
  170SOL    HW2 1410   1.362   1.222   3.690
  171SOL     OW 1411   3.879   4.257   6.901
  171SOL    HW1 1412   3.802   4.194   6.910
  171SOL    HW2 1413   3.844   4.350   6.891
  172SOL     OW 1414   6.103   1.733   3.833
  172SOL    HW1 1415   6.152   1.649   3.853
  172SOL    HW2 1416   6.156   1.812   3.865
  173SOL     OW 1417   0.001   1.884   4.516
  173SOL    HW1 1418   0.039   1.943   4.444
  173SOL    HW2 1419   6.950   1.932   4.563
  174SOL     OW 1420   3.528   5.178   3.780
  174SOL    HW1 1421   3.559   5.174   3.685
  174SOL    HW2 1422   3.474   5.261   3.794
  175SOL     OW 1423   2.396   0.119   1.616
  175SOL    HW1 1424   2.348   0.123   1.528
  175SOL    HW2 1425   2.494   0.111   1.599
  176SOL     OW 1426   1.390   4.517   0.806
  176SOL    HW1 1427   1.326   4.592   0.824
  176SOL    HW2 1428   1.339   4.437   0.775
  177SOL     OW 1429   5.938   3.427   2.910
  177SOL    HW1 1430   5.937   3.367   2.830
  177SOL    HW2 1431   5.844   3.452   2.934
  178SOL     OW 1432   2.306   2.419   6.871
  178SOL    HW1 1433   2.230   2.360   6.898
  178SOL    HW2 1434   2.379   2.413   6.939
  179SOL     OW 1435   2.847   1.317   5.912
  179SOL    HW1 1436   2.932   1.271   5.938
  179SOL    HW2 1437   2.770   1.255   5.927
  180SOL     OW 1438   1.432   6.557   0.211
  180SOL    HW1 1439   1.500   6.556   0.284
  180SOL    HW2 1440   1.343   6.583   0.248
  181SOL     OW 1441   3.187   2.439   6.519
  181SOL    HW1 1442   3.108   2.394   6.560
  181SOL    HW2 1443   3.266   2.378   6.524
  182SOL     OW 1444   3.342   1.380   4.251
  182SOL    HW1 1445   3.323   1.477   4.261
  182SOL    HW2 1446   3.259   1.327   4.269
  183SOL     OW 1447   3.545   2.078   3.461
  183SOL    HW1 1448   3.500   2.088   3.549
  183SOL    HW2 1449   3.591   2.163   3.437
  184SOL     OW 1450   1.983   6.300   4.270
  184SOL    HW1 1451   1.992   6.387   4.223
  184SOL    HW2 1452   1.921   6.240   4.219
  185SOL     OW 1453   0.486   1.413   6.277
  185SOL    HW1 1454   0.486   1.363   6.191
  185SOL    HW2 1455   0.508   1.351   6.352
  186SOL     OW 1456   5.370   1.095   4.302
  186SOL    HW1 1457   5.336   1.070   4.211
  186SOL    HW2 1458   5.423   1.179   4.296
  187SOL     OW 1459   4.183   0.206   3.507
  187SOL    HW1 1460   4.114   0.249   3.565
  187SOL    HW2 1461   4.268   0.258   3.512
  188SOL     OW 1462   0.360   1.651   2.583
  188SOL    HW1 1463   0.365   1.591   2.504
  188SOL    HW2 1464   0.450   1.655   2.627
  189SOL     OW 1465   2.197   5.461   1.461
  189SOL    HW1 1466   2.228   5.537   1.519
  189SOL    HW2 1467   2.188   5.494   1.367
  190SOL     OW 1468   4.971   2.149   4.532
  190SOL    HW1 1469   4.965   2.212   4.455
  190SOL    HW2 1470   5.067   2.139   4.559
  191SOL     OW 1471   5.619   6.213   6.881
  191SOL    HW1 1472   5.565   6.240   6.801
  191SOL    HW2 1473   5.706   6.175   6.852
  192SOL     OW 1474   0.787   5.897   2.032
  192SOL    HW1 1475   0.852   5.965   2.066
  192SOL    HW2 1476   0.697   5.914   2.072
  193SOL     OW 1477   4.848   2.792   5.596
  193SOL    HW1 1478   4.877   2.795   5.691
  193SOL    HW2 1479   4.898   2.719   5.549
  194SOL     OW 1480   3.867   1.092   2.974
  194SOL    HW1 1481   3.862   0.994   2.993
  194SOL    HW2 1482   3.812   1.142   3.041
  195SOL     OW 1483   1.802   0.336   4.704
  195SOL    HW1 1484   1.865   0.414   4.711
  195SOL    HW2 1485   1.711   0.370   4.679
  196SOL     OW 1486   2.796   0.312   0.374
  196SOL    HW1 1487   2.799   0.297   0.472
  196SOL    HW2 1488   2.769   0.228   0.328
  197SOL     OW 1489   2.872   0.066   1.599
  197SOL    HW1 1490   2.915   0.102   1.682
  197SOL    HW2 1491   2.938   0.065   1.524
  198SOL     OW 1492   4.815   0.674   2.729
  198SOL    HW1 1493   4.764   0.695   2.812
  198SOL    HW2 1494   4.761   0.612   2.671
  199SOL     OW 1495   6.796   2.067   3.688
  199SOL    HW1 1496   6.895   2.078   3.680
  199SOL    HW2 1497   6.762   2.127   3.761
  200SOL     OW 1498   1.459   3.729   0.503
  200SOL    HW1 1499   1.447   3.826   0.483
  200SOL    HW2 1500   1.513   3.687   0.430
  201SOL     OW 1501   7.011   0.106   6.109
  201SOL    HW1 1502   6.916   0.080   6.096
  201SOL    HW2 1503   7.016   0.193   6.157
  202SOL     OW 1504   3.709   1.091   0.089
  202SOL    HW1 1505   3.802   1.124   0.103
  202SOL    HW2 1506   3.652   1.116   0.168
  203SOL     OW 1507   5.884   2.642   5.571
  203SOL    HW1 1508   5.875   2.545   5.548
  203SOL    HW2 1509   5.960   2.681   5.519
  204SOL     OW 1510   1.153   0.295   4.634
  204SOL    HW1 1511   1.101   0.212   4.616
  204SOL    HW2 1512   1.233   0.273   4.690
  205SOL     OW 1513   0.478   2.315   3.204
  205SOL    HW1 1514   0.388   2.335   3.166
  205SOL    HW2 1515   0.533   2.398   3.204
  206SOL     OW 1516   0.530   4.635   0.736
  206SOL    HW1 1517   0.442   4.598   0.704
  206SOL    HW2 1518   0.521   4.664   0.831
  207SOL     OW 1519   6.431   1.711   3.818
  207SOL    HW1 1520   6.371   1.631   3.810
  207SOL    HW2 1521   6.440   1.736   3.915
  208SOL     OW 1522   6.835   4.230   5.582
  208SOL    HW1 1523   6.915   4.172   5.596
  208SOL    HW2 1524   6.783   4.198   5.503
  209SOL     OW 1525   0.405   5.509   4.092
  209SOL    HW1 1526   0.372   5.519   4.187
  209SOL    HW2 1527   0.468   5.583   4.071
  210SOL     OW 1528   4.730   1.216   0.555
  210SOL    HW1 1529   4.806   1.280   0.542
  210SOL    HW2 1530   4.648   1.250   0.508
  211SOL     OW 1531   1.627   6.576   2.437
  211SOL    HW1 1532   1.605   6.506   2.369
  211SOL    HW2 1533   1.725   6.596   2.433
  212SOL     OW 1534   1.389   3.734   1.572
  212SOL    HW1 1535   1.480   3.768   1.548
  212SOL    HW2 1536   1.397   3.659   1.638
  213SOL     OW 1537   2.809   7.015   0.511
  213SOL    HW1 1538   2.784   0.086   0.534
  213SOL    HW2 1539   2.907   7.002   0.526
  214SOL     OW 1540   3.756   5.316   2.659
  214SOL    HW1 1541   3.765   5.217   2.646
  214SOL    HW2 1542   3.776   5.362   2.573
  215SOL     OW 1543   2.850   3.563   0.673
  215SOL    HW1 1544   2.752   3.541   0.672
  215SOL    HW2 1545   2.868   3.628   0.747
  216SOL     OW 1546   1.222   5.652   3.199
  216SOL    HW1 1547   1.240   5.712   3.121
  216SOL    HW2 1548   1.183   5.706   3.273
  217SOL     OW 1549   1.123   2.809   4.118
  217SOL    HW1 1550   1.111   2.845   4.211
  217SOL    HW2 1551   1.034   2.805   4.072
  218SOL     OW 1552   1.043   3.227   4.220
  218SOL    HW1 1553   1.108   3.182   4.158
  218SOL    HW2 1554   1.086   3.309   4.258
  219SOL     OW 1555   4.166   0.453   0.297
  219SOL    HW1 1556   4.264   0.452   0.278
  219SOL    HW2 1557   4.137   0.363   0.328
  220SOL     OW 1558   3.069   0.017   1.827
  220SOL    HW1 1559   3.131   0.061   1.892
  220SOL    HW2 1560   3.031   6.956   1.868
  221SOL     OW 1561   5.917   4.133   0.923
  221SOL    HW1 1562   5.912   4.069   1.001
  221SOL    HW2 1563   5.885   4.223   0.952
  222SOL     OW 1564   1.273   4.805   5.437
  222SOL    HW1 1565   1.245   4.857   5.518
  222SOL    HW2 1566   1.299   4.712   5.464
  223SOL     OW 1567   6.454   3.341   6.356
  223SOL    HW1 1568   6.419   3.435   6.364
  223SOL    HW2 1569   6.539   3.342   6.304
  224SOL     OW 1570   2.853   1.892   5.906
  224SOL    HW1 1571   2.871   1.929   5.997
  224SOL    HW2 1572   2.876   1.795   5.903
  225SOL     OW 1573   5.079   3.889   6.689
  225SOL    HW1 1574   5.092   3.970   6.632
  225SOL    HW2 1575   4.983   3.862   6.687
  226SOL     OW 1576   1.050   1.452   5.813
  226SOL    HW1 1577   1.009   1.386   5.750
  226SOL    HW2 1578   1.098   1.522   5.761
  227SOL     OW 1579   0.762   4.088   1.449
  227SOL    HW1 1580   0.678   4.034   1.450
  227SOL    HW2 1581   0.759   4.154   1.524
  228SOL     OW 1582   2.372   0.017   3.571
  228SOL    HW1 1583   2.288   7.001   3.532
  228SOL    HW2 1584   2.450   7.018   3.512
  229SOL     OW 1585   6.405   6.296   5.903
  229SOL    HW1 1586   6.380   6.202   5.881
  229SOL    HW2 1587   6.403   6.351   5.819
  230SOL     OW 1588   3.774   4.859   3.424
  230SOL    HW1 1589   3.851   4.795   3.434
  230SOL    HW2 1590   3.737   4.851   3.332
  231SOL     OW 1591   6.027   1.462   6.894
  231SOL    HW1 1592   5.985   1.547   6.927
  231SOL    HW2 1593   6.125   1.465   6.910
  232SOL     OW 1594   0.567   3.438   6.550
  232SOL    HW1 1595   0.535   3.465   6.459
  232SOL    HW2 1596   0.640   3.370   6.542
  233SOL     OW 1597   3.449   1.129   3.105
  233SOL    HW1 1598   3.477   1.123   3.009
  233SOL    HW2 1599   3.359   1.087   3.115
  234SOL     OW 1600   5.119   0.665   6.167
  234SOL    HW1 1601   5.142   0.756   6.200
  234SOL    HW2 1602   5.028   0.667   6.125
  235SOL     OW 1603   4.734   2.770   1.881
  235SOL    HW1 1604   4.729   2.856   1.932
  235SOL    HW2 1605   4.692   2.697   1.935
  236SOL     OW 1606   5.771   2.788   6.933
  236SOL    HW1 1607   5.760   2.886   6.915
  236SOL    HW2 1608   5.831   2.776   7.012
  237SOL     OW 1609   6.985   4.544   1.949
  237SOL    HW1 1610   6.902   4.581   1.989
  237SOL    HW2 1611   6.962   4.494   1.866
  238SOL     OW 1612   5.557   0.865   0.588
  238SOL    HW1 1613   5.596   0.874   0.497
  238SOL    HW2 1614   5.458   0.879   0.584
  239SOL     OW 1615   1.046   4.588   6.444
  239SOL    HW1 1616   0.979   4.659   6.468
  239SOL    HW2 1617   1.052   4.579   6.345
  240SOL     OW 1618   6.524   2.775   3.418
  240SOL    HW1 1619   6.425   2.758   3.419
  240SOL    HW2 1620   6.571   2.700   3.464
  241SOL     OW 1621   2.844   2.295   4.940
  241SOL    HW1 1622   2.935   2.266   4.967
  241SOL    HW2 1623   2.795   2.330   5.020
  242SOL     OW 1624   3.750   4.095   4.171
  242SOL    HW1 1625   3.694   4.040   4.110
  242SOL    HW2 1626   3.718   4.084   4.265
  243SOL     OW 1627   4.480   0.847   6.534
  243SOL    HW1 1628   4.408   0.905   6.493
  243SOL    HW2 1629   4.507   0.886   6.622
  244SOL     OW 1630   6.221   3.579   5.597
  244SOL    HW1 1631   6.202   3.491   5.552
  244SOL    HW2 1632   6.244   3.563   5.693
  245SOL     OW 1633   5.134   2.420   4.020
  245SOL    HW1 1634   5.177   2.494   4.072
  245SOL    HW2 1635   5.160   2.332   4.059
  246SOL     OW 1636   5.288   2.002   3.344
  246SOL    HW1 1637   5.263   2.095   3.315
  246SOL    HW2 1638   5.279   1.995   3.443
  247SOL     OW 1639   2.896   1.479   0.044
  247SOL    HW1 1640   2.905   1.524   0.133
  247SOL    HW2 1641   2.827   1.407   0.050
  248SOL     OW 1642   4.109   1.551   2.685
  248SOL    HW1 1643   4.170   1.476   2.711
  248SOL    HW2 1644   4.150   1.604   2.611
  249SOL     OW 1645   4.217   0.646   4.610
  249SOL    HW1 1646   4.270   0.573   4.653
  249SOL    HW2 1647   4.201   0.720   4.676
  250SOL     OW 1648   5.190   3.543   0.366
  250SOL    HW1 1649   5.223   3.450   0.358
  250SOL    HW2 1650   5.113   3.546   0.431
  251SOL     OW 1651   4.673   3.684   5.605
  251SOL    HW1 1652   4.649   3.587   5.611
  251SOL    HW2 1653   4.754   3.701   5.661
  252SOL     OW 1654   0.113   5.945   5.175
  252SOL    HW1 1655   0.036   5.884   5.193
  252SOL    HW2 1656   0.108   6.023   5.237
  253SOL     OW 1657   2.805   4.966   6.492
  253SOL    HW1 1658   2.857   5.017   6.424
  253SOL    HW2 1659   2.766   4.884   6.450
  254SOL     OW 1660   6.046   1.980   3.959
  254SOL    HW1 1661   6.055   2.075   3.988
  254SOL    HW2 1662   5.977   1.975   3.886
  255SOL     OW 1663   1.294   4.707   5.127
  255SOL    HW1 1664   1.345   4.776   5.074
  255SOL    HW2 1665   1.270   4.745   5.216
  256SOL     OW 1666   6.246   3.866   6.296
  256SOL    HW1 1667   6.227   3.961   6.323
  256SOL    HW2 1668   6.343   3.846   6.309
  257SOL     OW 1669   4.960   0.464   3.874
  257SOL    HW1 1670   4.935   0.375   3.913
  257SOL    HW2 1671   4.937   0.536   3.939
  258SOL     OW 1672   2.391   5.206   5.182
  258SOL    HW1 1673   2.378   5.297   5.142
  258SOL    HW2 1674   2.318   5.188   5.248
  259SOL     OW 1675   6.369   2.125   2.784
  259SOL    HW1 1676   6.378   2.224   2.775
  259SOL    HW2 1677   6.277   2.103   2.815
  260SOL     OW 1678   4.234   7.004   1.907
  260SOL    HW1 1679   4.192   0.061   1.863
  260SOL    HW2 1680   4.166   6.932   1.918
  261SOL     OW 1681   6.846   3.099   0.145
  261SOL    HW1 1682   6.832   3.198   0.142
  261SOL    HW2 1683   6.759   3.052   0.131
  262SOL     OW 1684   0.538   3.645   6.999
  262SOL    HW1 1685   0.564   3.550   7.016
  262SOL    HW2 1686   0.545   3.664   6.901
  263SOL     OW 1687   2.188   0.578   4.607
  263SOL    HW1 1688   2.195   0.670   4.570
  263SOL    HW2 1689   2.205   0.580   4.705
  264SOL     OW 1690   5.746   3.063   6.927
  264SOL    HW1 1691   5.674   3.127   6.900
  264SOL    HW2 1692   5.761   3.070   0.003
  265SOL     OW 1693   5.290   6.504   2.771
  265SOL    HW1 1694   5.368   6.546   2.819
  265SOL    HW2 1695   5.320   6.419   2.728
  266SOL     OW 1696   3.345   2.726   6.077
  266SOL    HW1 1697   3.342   2.803   6.014
  266SOL    HW2 1698   3.406   2.656   6.041
  267SOL     OW 1699   0.961   1.540   6.491
  267SOL    HW1 1700   0.863   1.559   6.496
  267SOL    HW2 1701   0.986   1.473   6.561
  268SOL     OW 1702   3.700   1.449   6.277
  268SOL    HW1 1703   3.690   1.528   6.215
  268SOL    HW2 1704   3.711   1.482   6.371
  269SOL     OW 1705   1.758   3.496   1.274
  269SOL    HW1 1706   1.675   3.449   1.243
  269SOL    HW2 1707   1.800   3.543   1.196
  270SOL     OW 1708   1.227   6.426   0.529
  270SOL    HW1 1709   1.209   6.380   0.616
  270SOL    HW2 1710   1.319   6.465   0.531
  271SOL     OW 1711   6.884   1.747   6.790
  271SOL    HW1 1712   6.839   1.833   6.811
  271SOL    HW2 1713   6.885   1.689   6.872
  272SOL     OW 1714   3.759   5.248   4.097
  272SOL    HW1 1715   3.696   5.171   4.112
  272SOL    HW2 1716   3.852   5.219   4.119
  273SOL     OW 1717   2.381   4.322   4.207
  273SOL    HW1 1718   2.440   4.393   4.169
  273SOL    HW2 1719   2.393   4.318   4.306
  274SOL     OW 1720   3.820   1.891   3.341
  274SOL    HW1 1721   3.795   1.806   3.296
  274SOL    HW2 1722   3.916   1.912   3.322
  275SOL     OW 1723   6.374   5.250   3.820
  275SOL    HW1 1724   6.346   5.201   3.738
  275SOL    HW2 1725   6.337   5.343   3.819
  276SOL     OW 1726   6.559   6.580   2.782
  276SOL    HW1 1727   6.492   6.655   2.786
  276SOL    HW2 1728   6.530   6.507   2.844
  277SOL     OW 1729   1.831   4.419   0.361
  277SOL    HW1 1730   1.866   4.513   0.366
  277SOL    HW2 1731   1.840   4.386   0.267
  278SOL     OW 1732   0.050   4.965   1.845
  278SOL    HW1 1733   0.100   4.879   1.846
  278SOL    HW2 1734   6.977   4.949   1.822
  279SOL     OW 1735   5.806   3.380   4.218
  279SOL    HW1 1736   5.823   3.467   4.264
  279SOL    HW2 1737   5.887   3.322   4.224
  280SOL     OW 1738   2.985   6.704   3.561
  280SOL    HW1 1739   2.993   6.608   3.534
  280SOL    HW2 1740   3.074   6.738   3.592
  281SOL     OW 1741   2.709   4.204   1.614
  281SOL    HW1 1742   2.754   4.116   1.600
  281SOL    HW2 1743   2.614   4.198   1.585
  282SOL     OW 1744   3.285   1.225   6.172
  282SOL    HW1 1745   3.204   1.252   6.120
  282SOL    HW2 1746   3.260   1.151   6.235
  283SOL     OW 1747   6.478   1.952   6.354
  283SOL    HW1 1748   6.576   1.955   6.376
  283SOL    HW2 1749   6.439   1.866   6.387
  284SOL     OW 1750   1.427   4.354   3.566
  284SOL    HW1 1751   1.328   4.366   3.573
  284SOL    HW2 1752   1.467   4.347   3.658
  285SOL     OW 1753   5.878   4.810   4.754
  285SOL    HW1 1754   5.816   4.866   4.809
  285SOL    HW2 1755   5.834   4.724   4.730
  286SOL     OW 1756   3.405   5.953   6.146
  286SOL    HW1 1757   3.465   5.873   6.143
  286SOL    HW2 1758   3.461   6.036   6.149
  287SOL     OW 1759   0.863   3.943   0.728
  287SOL    HW1 1760   0.913   3.941   0.641
  287SOL    HW2 1761   0.858   3.850   0.765
  288SOL     OW 1762   3.572   1.471   6.658
  288SOL    HW1 1763   3.527   1.559   6.647
  288SOL    HW2 1764   3.524   1.401   6.605
  289SOL     OW 1765   0.876   4.184   5.294
  289SOL    HW1 1766   0.839   4.176   5.387
  289SOL    HW2 1767   0.844   4.107   5.239
  290SOL     OW 1768   6.030   2.225   4.729
  290SOL    HW1 1769   5.963   2.156   4.701
  290SOL    HW2 1770   6.118   2.181   4.748
  291SOL     OW 1771   1.504   2.429   4.593
  291SOL    HW1 1772   1.548   2.380   4.518
  291SOL    HW2 1773   1.564   2.503   4.624
  292SOL     OW 1774   1.405   2.980   3.425
  292SOL    HW1 1775   1.331   2.977   3.357
  292SOL    HW2 1776   1.381   3.045   3.497
  293SOL     OW 1777   4.258   6.101   2.615
  293SOL    HW1 1778   4.164   6.089   2.645
  293SOL    HW2 1779   4.290   6.193   2.639
  294SOL     OW 1780   1.218   5.693   6.652
  294SOL    HW1 1781   1.256   5.777   6.613
  294SOL    HW2 1782   1.140   5.663   6.597
  295SOL     OW 1783   3.330   1.608   3.562
  295SOL    HW1 1784   3.368   1.688   3.517
  295SOL    HW2 1785   3.242   1.584   3.520
  296SOL     OW 1786   3.802   2.158   3.315
  296SOL    HW1 1787   3.889   2.182   3.272
  296SOL    HW2 1788   3.803   2.061   3.340
  297SOL     OW 1789   2.549   4.498   3.550
  297SOL    HW1 1790   2.554   4.594   3.578
  297SOL    HW2 1791   2.605   4.484   3.469
  298SOL     OW 1792   3.308   6.008   1.363
  298SOL    HW1 1793   3.335   6.105   1.365
  298SOL    HW2 1794   3.387   5.951   1.380
  299SOL     OW 1795   5.378   3.270   6.247
  299SOL    HW1 1796   5.323   3.215   6.310
  299SOL    HW2 1797   5.443   3.211   6.199
  300SOL     OW 1798   6.569   0.660   2.787
  300SOL    HW1 1799   6.532   0.750   2.806
  300SOL    HW2 1800   6.634   0.666   2.711
  301SOL     OW 1801   4.845   3.367   1.289
  301SOL    HW1 1802   4.790   3.419   1.223
  301SOL    HW2 1803   4.858   3.421   1.372
  302SOL     OW 1804   0.988   0.675   3.259
  302SOL    HW1 1805   0.972   0.743   3.331
  302SOL    HW2 1806   0.915   0.606   3.263
  303SOL     OW 1807   5.899   0.824   2.043
  303SOL    HW1 1808   5.997   0.811   2.058
  303SOL    HW2 1809   5.871   0.775   1.961
  304SOL     OW 1810   2.534   0.426   3.823
  304SOL    HW1 1811   2.526   0.523   3.846
  304SOL    HW2 1812   2.573   0.376   3.900
  305SOL     OW 1813   0.444   3.479   0.248
  305SOL    HW1 1814   0.363   3.432   0.212
  305SOL    HW2 1815   0.526   3.430   0.220
  306SOL     OW 1816   1.671   1.346   3.642
  306SOL    HW1 1817   1.667   1.258   3.690
  306SOL    HW2 1818   1.765   1.363   3.612
  307SOL     OW 1819   4.883   6.904   0.850
  307SOL    HW1 1820   4.787   6.906   0.825
  307SOL    HW2 1821   4.893   6.930   0.947
  308SOL     OW 1822   6.526   3.677   5.153
  308SOL    HW1 1823   6.504   3.731   5.072
  308SOL    HW2 1824   6.569   3.736   5.221
  309SOL     OW 1825   3.911   4.570   6.489
  309SOL    HW1 1826   3.875   4.477   6.499
  309SOL    HW2 1827   3.879   4.608   6.401
  310SOL     OW 1828   6.669   6.636   5.834
  310SOL    HW1 1829   6.690   6.618   5.931
  310SOL    HW2 1830   6.649   6.733   5.821
  311SOL     OW 1831   6.271   5.553   1.372
  311SOL    HW1 1832   6.195   5.599   1.326
  311SOL    HW2 1833   6.348   5.545   1.309
  312SOL     OW 1834   4.564   1.575   5.832
  312SOL    HW1 1835   4.544   1.661   5.785
  312SOL    HW2 1836   4.662   1.569   5.850
  313SOL     OW 1837   2.987   4.176   1.748
  313SOL    HW1 1838   3.053   4.184   1.672
  313SOL    HW2 1839   2.926   4.255   1.748
  314SOL     OW 1840   3.198   5.291   6.897
  314SOL    HW1 1841   3.139   5.331   6.966
  314SOL    HW2 1842   3.170   5.196   6.881
  315SOL     OW 1843   0.790   3.210   3.351
  315SOL    HW1 1844   0.834   3.259   3.426
  315SOL    HW2 1845   0.707   3.259   3.323
  316SOL     OW 1846   2.446   2.345   3.961
  316SOL    HW1 1847   2.493   2.379   3.880
  316SOL    HW2 1848   2.495   2.266   3.998
  317SOL     OW 1849   1.099   0.400   1.213
  317SOL    HW1 1850   1.103   0.402   1.313
  317SOL    HW2 1851   1.006   0.419   1.182
  318SOL     OW 1852   0.989   6.150   6.730
  318SOL    HW1 1853   1.030   6.167   6.820
  318SOL    HW2 1854   0.904   6.202   6.721
  319SOL     OW 1855   0.083   0.963   3.244
  319SOL    HW1 1856   7.019   0.914   3.232
  319SOL    HW2 1857   0.119   0.988   3.154
  320SOL     OW 1858   5.455   2.209   6.789
  320SOL    HW1 1859   5.394   2.211   6.868
  320SOL    HW2 1860   5.415   2.263   6.715
  321SOL     OW 1861   2.802   1.440   1.878
  321SOL    HW1 1862   2.874   1.486   1.929
  321SOL    HW2 1863   2.802   1.473   1.783
  322SOL     OW 1864   3.375   3.709   4.770
  322SOL    HW1 1865   3.308   3.665   4.709
  322SOL    HW2 1866   3.360   3.676   4.863
  323SOL     OW 1867   0.531   3.358   6.802
  323SOL    HW1 1868   0.453   3.296   6.792
  323SOL    HW2 1869   0.534   3.420   6.723
  324SOL     OW 1870   2.329   2.812   3.993
  324SOL    HW1 1871   2.271   2.749   3.941
  324SOL    HW2 1872   2.395   2.759   4.047
  325SOL     OW 1873   2.034   3.114   1.925
  325SOL    HW1 1874   2.119   3.138   1.878
  325SOL    HW2 1875   1.989   3.197   1.958
  326SOL     OW 1876   1.863   5.492   6.472
  326SOL    HW1 1877   1.927   5.497   6.395
  326SOL    HW2 1878   1.883   5.411   6.526
  327SOL     OW 1879   1.590   5.405   3.769
  327SOL    HW1 1880   1.558   5.359   3.686
  327SOL    HW2 1881   1.587   5.341   3.846
  328SOL     OW 1882   3.253   5.147   2.172
  328SOL    HW1 1883   3.272   5.096   2.256
  328SOL    HW2 1884   3.218   5.084   2.103
  329SOL     OW 1885   2.912   3.811   4.362
  329SOL    HW1 1886   2.915   3.840   4.266
  329SOL    HW2 1887   2.977   3.865   4.415
  330SOL     OW 1888   3.396   6.348   1.708
  330SOL    HW1 1889   3.317   6.409   1.700
  330SOL    HW2 1890   3.457   6.382   1.780
  331SOL     OW 1891   4.567   4.813   6.629
  331SOL    HW1 1892   4.566   4.913   6.626
  331SOL    HW2 1893   4.620   4.783   6.709
  332SOL     OW 1894   3.447   1.974   4.437
  332SOL    HW1 1895   3.386   2.043   4.397
  332SOL    HW2 1896   3.465   1.998   4.533
  333SOL     OW 1897   3.327   6.888   6.561
  333SOL    HW1 1898   3.296   6.836   6.640
  333SOL    HW2 1899   3.409   6.940   6.585
  334SOL     OW 1900   2.585   0.284   0.781
  334SOL    HW1 1901   2.532   0.199   0.789
  334SOL    HW2 1902   2.539   0.357   0.830
  335SOL     OW 1903   3.705   6.726   4.309
  335SOL    HW1 1904   3.762   6.713   4.228
  335SOL    HW2 1905   3.762   6.725   4.391
  336SOL     OW 1906   2.169   0.936   4.304
  336SOL    HW1 1907   2.268   0.929   4.289
  336SOL    HW2 1908   2.138   1.027   4.274
  337SOL     OW 1909   0.168   3.636   0.656
  337SOL    HW1 1910   0.231   3.611   0.582
  337SOL    HW2 1911   0.214   3.701   0.718
  338SOL     OW 1912   2.819   2.291   0.856
  338SOL    HW1 1913   2.901   2.263   0.807
  338SOL    HW2 1914   2.740   2.289   0.794
  339SOL     OW 1915   3.907   6.672   4.498
  339SOL    HW1 1916   3.981   6.618   4.538
  339SOL    HW2 1917   3.849   6.707   4.572
  340SOL     OW 1918   5.017   4.164   4.541
  340SOL    HW1 1919   4.954   4.233   4.578
  340SOL    HW2 1920   4.965   4.081   4.520
  341SOL     OW 1921   6.273   6.897   4.143
  341SOL    HW1 1922   6.346   6.945   4.192
  341SOL    HW2 1923   6.282   6.914   4.045
  342SOL     OW 1924   5.573   4.079   0.268
  342SOL    HW1 1925   5.551   3.991   0.225
  342SOL    HW2 1926   5.515   4.092   0.348
  343SOL     OW 1927   1.987   5.978   0.915
  343SOL    HW1 1928   1.982   5.992   1.014
  343SOL    HW2 1929   1.897   5.953   0.880
  344SOL     OW 1930   1.792   5.342   1.517
  344SOL    HW1 1931   1.810   5.433   1.556
  344SOL    HW2 1932   1.867   5.317   1.456
  345SOL     OW 1933   6.776   1.242   5.733
  345SOL    HW1 1934   6.772   1.156   5.784
  345SOL    HW2 1935   6.692   1.293   5.747
  346SOL     OW 1936   1.963   0.737   1.802
  346SOL    HW1 1937   1.952   0.762   1.898
  346SOL    HW2 1938   2.058   0.751   1.775
  347SOL     OW 1939   4.111   6.388   6.312
  347SOL    HW1 1940   4.047   6.408   6.238
  347SOL    HW2 1941   4.192   6.446   6.303
  348SOL     OW 1942   4.930   5.275   1.212
  348SOL    HW1 1943   4.893   5.217   1.285
  348SOL    HW2 1944   4.890   5.367   1.219
  349SOL     OW 1945   6.607   4.286   1.993
  349SOL    HW1 1946   6.677   4.249   1.933
  349SOL    HW2 1947   6.641   4.369   2.037
  350SOL     OW 1948   3.664   3.358   1.697
  350SOL    HW1 1949   3.667   3.268   1.654
  350SOL    HW2 1950   3.725   3.358   1.777
  351SOL     OW 1951   2.451   2.025   0.437
  351SOL    HW1 1952   2.358   2.061   0.442
  351SOL    HW2 1953   2.510   2.091   0.391
  352SOL     OW 1954   3.668   7.005   4.707
  352SOL    HW1 1955   3.612   7.011   4.625
  352SOL    HW2 1956   3.660   0.067   4.759
  353SOL     OW 1957   2.852   0.203   0.950
  353SOL    HW1 1958   2.776   0.219   0.888
  353SOL    HW2 1959   2.876   0.106   0.949
  354SOL     OW 1960   4.609   2.152   0.247
  354SOL    HW1 1961   4.542   2.180   0.315
  354SOL    HW2 1962   4.630   2.229   0.187
  355SOL     OW 1963   6.740   3.075   3.126
  355SOL    HW1 1964   6.707   3.062   3.219
  355SOL    HW2 1965   6.839   3.060   3.123
  356SOL     OW 1966   4.245   5.660   4.473
  356SOL    HW1 1967   4.336   5.677   4.436
  356SOL    HW2 1968   4.220   5.564   4.458
  357SOL     OW 1969   6.655   7.007   5.531
  357SOL    HW1 1970   6.717   0.001   5.607
  357SOL    HW2 1971   6.569   0.033   5.548
  358SOL     OW 1972   5.362   0.060   1.876
  358SOL    HW1 1973   5.434   0.094   1.937
  358SOL    HW2 1974   5.308   7.013   1.923
  359SOL     OW 1975   1.666   2.215   2.549
  359SOL    HW1 1976   1.734   2.143   2.566
  359SOL    HW2 1977   1.682   2.291   2.612
  360SOL     OW 1978   2.418   6.514   6.100
  360SOL    HW1 1979   2.360   6.435   6.078
  360SOL    HW2 1980   2.514   6.492   6.082
  361SOL     OW 1981   5.260   5.557   2.739
  361SOL    HW1 1982   5.170   5.576   2.778
  361SOL    HW2 1983   5.256   5.474   2.683
  362SOL     OW 1984   3.495   3.778   0.817
  362SOL    HW1 1985   3.550   3.709   0.864
  362SOL    HW2 1986   3.553   3.854   0.788
  363SOL     OW 1987   4.356   5.037   3.736
  363SOL    HW1 1988   4.314   5.113   3.787
  363SOL    HW2 1989   4.325   5.039   3.641
  364SOL     OW 1990   0.331   5.746   5.506
  364SOL    HW1 1991   0.253   5.731   5.445
  364SOL    HW2 1992   0.346   5.664   5.562
  365SOL     OW 1993   4.847   5.687   2.356
  365SOL    HW1 1994   4.798   5.602   2.375
  365SOL    HW2 1995   4.872   5.731   2.442
  366SOL     OW 1996   5.588   1.244   0.438
  366SOL    HW1 1997   5.529   1.293   0.375
  366SOL    HW2 1998   5.680   1.284   0.436
  367SOL     OW 1999   5.112   2.879   0.896
  367SOL    HW1 2000   5.198   2.909   0.855
  367SOL    HW2 2001   5.124   2.789   0.937
  368SOL     OW 2002   0.594   4.191   4.744
  368SOL    HW1 2003   0.658   4.137   4.799
  368SOL    HW2 2004   0.513   4.212   4.799
  369SOL     OW 2005   6.515   4.775   1.636
  369SOL    HW1 2006   6.592   4.774   1.572
  369SOL    HW2 2007   6.509   4.686   1.682
  370SOL     OW 2008   3.278   1.797   5.573
  370SOL    HW1 2009   3.245   1.810   5.480
  370SOL    HW2 2010   3.373   1.828   5.580
  371SOL     OW 2011   2.370   3.515   6.380
  371SOL    HW1 2012   2.335   3.426   6.354
  371SOL    HW2 2013   2.301   3.585   6.359
  372SOL     OW 2014   6.529   0.720   4.947
  372SOL    HW1 2015   6.569   0.761   4.865
  372SOL    HW2 2016   6.461   0.782   4.985
  373SOL     OW 2017   6.445   6.385   5.422
  373SOL    HW1 2018   6.391   6.403   5.340
  373SOL    HW2 2019   6.441   6.287   5.443
  374SOL     OW 2020   4.423   6.910   2.563
  374SOL    HW1 2021   4.430   6.848   2.641
  374SOL    HW2 2022   4.502   6.972   2.562
  375SOL     OW 2023   6.987   4.842   3.839
  375SOL    HW1 2024   0.009   4.787   3.909
  375SOL    HW2 2025   6.961   4.930   3.878
  376SOL     OW 2026   1.894   3.405   3.901
  376SOL    HW1 2027   1.969   3.340   3.885
  376SOL    HW2 2028   1.853   3.431   3.814
  377SOL     OW 2029   6.106   2.815   1.934
  377SOL    HW1 2030   6.076   2.792   1.842
  377SOL    HW2 2031   6.155   2.737   1.973
  378SOL     OW 2032   3.556   2.524   5.446
  378SOL    HW1 2033   3.519   2.446   5.396
  378SOL    HW2 2034   3.487   2.559   5.510
  379SOL     OW 2035   6.194   4.236   1.662
  379SOL    HW1 2036   6.208   4.264   1.567
  379SOL    HW2 2037   6.282   4.228   1.708
  380SOL     OW 2038   2.601   1.642   1.920
  380SOL    HW1 2039   2.530   1.680   1.860
  380SOL    HW2 2040   2.688   1.639   1.872
  381SOL     OW 2041   1.912   4.571   1.660
  381SOL    HW1 2042   1.854   4.532   1.589
  381SOL    HW2 2043   1.931   4.501   1.729
  382SOL     OW 2044   4.911   5.707   6.433
  382SOL    HW1 2045   4.996   5.653   6.439
  382SOL    HW2 2046   4.889   5.744   6.523
  383SOL     OW 2047   6.237   3.178   6.257
  383SOL    HW1 2048   6.273   3.160   6.165
  383SOL    HW2 2049   6.301   3.238   6.306
  384SOL     OW 2050   0.788   4.003   4.963
  384SOL    HW1 2051   0.854   4.071   4.932
  384SOL    HW2 2052   0.796   3.921   4.905
  385SOL     OW 2053   4.587   6.250   0.022
  385SOL    HW1 2054   4.599   6.308   6.964
  385SOL    HW2 2055   4.496   6.265   0.061
  386SOL     OW 2056   3.770   6.891   5.319
  386SOL    HW1 2057   3.804   6.944   5.241
  386SOL    HW2 2058   3.738   6.802   5.288
  387SOL     OW 2059   0.151   6.213   3.543
  387SOL    HW1 2060   0.186   6.141   3.483
  387SOL    HW2 2061   0.070   6.181   3.591
  388SOL     OW 2062   0.745   1.903   4.515
  388SOL    HW1 2063   0.656   1.885   4.555
  388SOL    HW2 2064   0.813   1.915   4.588
  389SOL     OW 2065   4.346   4.069   1.687
  389SOL    HW1 2066   4.403   3.987   1.695
  389SOL    HW2 2067   4.384   4.141   1.746
  390SOL     OW 2068   3.437   0.988   0.065
  390SOL    HW1 2069   3.499   0.931   0.119
  390SOL    HW2 2070   3.474   1.080   0.059
  391SOL     OW 2071   2.505   4.164   5.361
  391SOL    HW1 2072   2.484   4.243   5.303
  391SOL    HW2 2073   2.478   4.080   5.314
  392SOL     OW 2074   1.780   3.111   2.281
  392SOL    HW1 2075   1.733   3.148   2.201
  392SOL    HW2 2076   1.843   3.181   2.317
  393SOL     OW 2077   1.487   5.461   0.559
  393SOL    HW1 2078   1.509   5.472   0.655
  393SOL    HW2 2079   1.571   5.462   0.504
  394SOL     OW 2080   0.715   2.894   6.705
  394SOL    HW1 2081   0.639   2.900   6.640
  394SOL    HW2 2082   0.762   2.982   6.710
  395SOL     OW 2083   5.238   4.507   1.967
  395SOL    HW1 2084   5.241   4.413   1.932
  395SOL    HW2 2085   5.298   4.564   1.911
  396SOL     OW 2086   2.374   2.005   2.266
  396SOL    HW1 2087   2.426   2.040   2.188
  396SOL    HW2 2088   2.431   2.007   2.348
  397SOL     OW 2089   5.307   1.176   5.434
  397SOL    HW1 2090   5.354   1.121   5.502
  397SOL    HW2 2091   5.374   1.224   5.377
  398SOL     OW 2092   1.011   6.202   4.592
  398SOL    HW1 2093   1.003   6.105   4.570
  398SOL    HW2 2094   1.022   6.254   4.507
  399SOL     OW 2095   6.548   5.898   4.175
  399SOL    HW1 2096   6.599   5.891   4.260
  399SOL    HW2 2097   6.534   5.806   4.137
  400SOL     OW 2098   6.829   6.556   5.004
  400SOL    HW1 2099   6.755   6.535   4.940
  400SOL    HW2 2100   6.835   6.655   5.017
  401SOL     OW 2101   6.136   0.335   6.389
  401SOL    HW1 2102   6.104   0.385   6.309
  401SOL    HW2 2103   6.123   0.390   6.471
  402SOL     OW 2104   6.370   0.268   2.373
  402SOL    HW1 2105   6.405   0.358   2.400
  402SOL    HW2 2106   6.444   0.201   2.378
  403SOL     OW 2107   3.296   0.142   6.787
  403SOL    HW1 2108   3.213   0.092   6.812
  403SOL    HW2 2109   3.315   0.211   6.857
  404SOL     OW 2110   3.288   6.055   5.530
  404SOL    HW1 2111   3.229   5.987   5.573
  404SOL    HW2 2112   3.272   6.144   5.573
  405SOL     OW 2113   2.300   4.187   3.494
  405SOL    HW1 2114   2.293   4.275   3.446
  405SOL    HW2 2115   2.394   4.153   3.486
  406SOL     OW 2116   0.810   5.013   5.122
  406SOL    HW1 2117   0.849   4.957   5.196
  406SOL    HW2 2118   0.770   4.953   5.053
  407SOL     OW 2119   1.563   3.043   3.883
  407SOL    HW1 2120   1.611   2.971   3.931
  407SOL    HW2 2121   1.515   3.102   3.948
  408SOL     OW 2122   3.612   2.119   3.096
  408SOL    HW1 2123   3.670   2.170   3.159
  408SOL    HW2 2124   3.665   2.091   3.016
  409SOL     OW 2125   6.956   3.741   1.992
  409SOL    HW1 2126   6.884   3.750   2.062
  409SOL    HW2 2127   6.936   3.802   1.916
  410SOL     OW 2128   1.489   1.965   1.290
  410SOL    HW1 2129   1.579   1.970   1.246
  410SOL    HW2 2130   1.475   1.874   1.328
  411SOL     OW 2131   7.014   2.147   2.035
  411SOL    HW1 2132   6.942   2.090   1.996
  411SOL    HW2 2133   0.010   2.118   2.128
  412SOL     OW 2134   2.872   5.081   2.624
  412SOL    HW1 2135   2.786   5.063   2.671
  412SOL    HW2 2136   2.893   5.004   2.563
  413SOL     OW 2137   3.744   5.031   2.007
  413SOL    HW1 2138   3.725   4.933   2.001
  413SOL    HW2 2139   3.658   5.082   2.011
  414SOL     OW 2140   3.199   0.305   3.725
  414SOL    HW1 2141   3.136   0.379   3.751
  414SOL    HW2 2142   3.263   0.339   3.656
  415SOL     OW 2143   0.104   1.824   0.379
  415SOL    HW1 2144   0.036   1.846   0.310
  415SOL    HW2 2145   0.194   1.815   0.337
  416SOL     OW 2146   5.252   4.263   4.464
  416SOL    HW1 2147   5.330   4.202   4.447
  416SOL    HW2 2148   5.172   4.209   4.490
  417SOL     OW 2149   2.211   1.217   6.699
  417SOL    HW1 2150   2.143   1.269   6.647
  417SOL    HW2 2151   2.291   1.274   6.716
  418SOL     OW 2152   3.111   0.112   5.069
  418SOL    HW1 2153   3.125   0.017   5.038
  418SOL    HW2 2154   3.153   0.174   5.003
  419SOL     OW 2155   0.122   6.682   2.597
  419SOL    HW1 2156   0.148   6.779   2.603
  419SOL    HW2 2157   0.033   6.675   2.552
  420SOL     OW 2158   5.430   0.931   6.504
  420SOL    HW1 2159   5.517   0.953   6.548
  420SOL    HW2 2160   5.416   0.832   6.505
  421SOL     OW 2161   5.754   4.310   5.489
  421SOL    HW1 2162   5.814   4.356   5.424
  421SOL    HW2 2163   5.663   4.352   5.486
  422SOL     OW 2164   4.898   1.524   0.766
  422SOL    HW1 2165   4.976   1.478   0.808
  422SOL    HW2 2166   4.832   1.548   0.838
  423SOL     OW 2167   2.601   0.349   6.489
  423SOL    HW1 2168   2.679   0.296   6.455
  423SOL    HW2 2169   2.623   0.389   6.578
  424SOL     OW 2170   1.830   5.438   3.174
  424SOL    HW1 2171   1.827   5.353   3.227
  424SOL    HW2 2172   1.874   5.509   3.228
  425SOL     OW 2173   4.753   1.018   5.019
  425SOL    HW1 2174   4.772   1.004   4.921
  425SOL    HW2 2175   4.835   0.996   5.072
  426SOL     OW 2176   2.504   2.643   5.167
  426SOL    HW1 2177   2.472   2.736   5.184
  426SOL    HW2 2178   2.470   2.611   5.078
  427SOL     OW 2179   5.068   1.143   4.033
  427SOL    HW1 2180   5.113   1.096   3.957
  427SOL    HW2 2181   5.090   1.241   4.030
  428SOL     OW 2182   2.298   1.016   4.714
  428SOL    HW1 2183   2.215   1.033   4.768
  428SOL    HW2 2184   2.374   0.995   4.776
  429SOL     OW 2185   0.685   5.498   4.360
  429SOL    HW1 2186   0.724   5.531   4.446
  429SOL    HW2 2187   0.635   5.413   4.377
  430SOL     OW 2188   1.612   0.234   3.644
  430SOL    HW1 2189   1.590   0.143   3.607
  430SOL    HW2 2190   1.539   0.264   3.705
  431SOL     OW 2191   2.689   1.914   0.931
  431SOL    HW1 2192   2.620   1.848   0.962
  431SOL    HW2 2193   2.685   1.996   0.989
  432SOL     OW 2194   5.357   1.791   0.965
  432SOL    HW1 2195   5.285   1.780   1.033
  432SOL    HW2 2196   5.445   1.804   1.012
  433SOL     OW 2197   3.686   6.318   6.234
  433SOL    HW1 2198   3.707   6.221   6.247
  433SOL    HW2 2199   3.760   6.361   6.182
  434SOL     OW 2200   4.033   6.261   3.789
  434SOL    HW1 2201   4.034   6.162   3.807
  434SOL    HW2 2202   4.042   6.277   3.691
  435SOL     OW 2203   3.952   1.598   5.619
  435SOL    HW1 2204   3.857   1.566   5.615
  435SOL    HW2 2205   3.966   1.670   5.551
  436SOL     OW 2206   3.490   5.888   3.300
  436SOL    HW1 2207   3.554   5.815   3.324
  436SOL    HW2 2208   3.537   5.976   3.306
  437SOL     OW 2209   6.934   1.207   4.685
  437SOL    HW1 2210   6.991   1.125   4.687
  437SOL    HW2 2211   6.854   1.194   4.743
  438SOL     OW 2212   1.232   4.797   3.011
  438SOL    HW1 2213   1.294   4.719   3.026
  438SOL    HW2 2214   1.236   4.857   3.091
  439SOL     OW 2215   5.932   0.917   2.892
  439SOL    HW1 2216   5.922   0.947   2.986
  439SOL    HW2 2217   5.990   0.981   2.842
  440SOL     OW 2218   3.680   0.994   6.848
  440SOL    HW1 2219   3.694   0.899   6.875
  440SOL    HW2 2220   3.659   1.049   6.928
  441SOL     OW 2221   6.596   4.221   2.826
  441SOL    HW1 2222   6.696   4.221   2.836
  441SOL    HW2 2223   6.563   4.315   2.816
  442SOL     OW 2224   4.711   4.167   5.956
  442SOL    HW1 2225   4.620   4.197   5.927
  442SOL    HW2 2226   4.716   4.068   5.955
  443SOL     OW 2227   5.053   4.471   3.046
  443SOL    HW1 2228   4.971   4.528   3.054
  443SOL    HW2 2229   5.043   4.410   2.968
  444SOL     OW 2230   3.847   1.401   0.275
  444SOL    HW1 2231   3.769   1.428   0.219
  444SOL    HW2 2232   3.917   1.358   0.218
  445SOL     OW 2233   2.675   6.290   2.824
  445SOL    HW1 2234   2.665   6.251   2.733
  445SOL    HW2 2235   2.655   6.220   2.893
  446SOL     OW 2236   5.061   5.891   2.815
  446SOL    HW1 2237   5.119   5.965   2.848
  446SOL    HW2 2238   5.106   5.803   2.834
  447SOL     OW 2239   6.277   3.777   6.021
  447SOL    HW1 2240   6.283   3.849   6.090
  447SOL    HW2 2241   6.222   3.810   5.944
  448SOL     OW 2242   2.484   1.345   2.578
  448SOL    HW1 2243   2.530   1.262   2.608
  448SOL    HW2 2244   2.545   1.423   2.587
  449SOL     OW 2245   1.998   2.660   3.463
  449SOL    HW1 2246   2.010   2.568   3.427
  449SOL    HW2 2247   1.940   2.657   3.545
  450SOL     OW 2248   0.286   4.730   3.505
  450SOL    HW1 2249   0.310   4.650   3.560
  450SOL    HW2 2250   0.262   4.806   3.566
  451SOL     OW 2251   0.021   2.086   3.561
  451SOL    HW1 2252   0.049   2.005   3.612
  451SOL    HW2 2253   0.044   2.168   3.613
  452SOL     OW 2254   3.733   6.575   2.743
  452SOL    HW1 2255   3.699   6.498   2.796
  452SOL    HW2 2256   3.816   6.612   2.786
  453SOL     OW 2257   4.292   0.345   0.020
  453SOL    HW1 2258   4.326   0.418   0.080
  453SOL    HW2 2259   4.368   0.295   7.003
  454SOL     OW 2260   6.731   4.051   6.361
  454SOL    HW1 2261   6.656   4.083   6.418
  454SOL    HW2 2262   6.763   3.962   6.395
  455SOL     OW 2263   0.082   4.114   5.644
  455SOL    HW1 2264   0.160   4.074   5.596
  455SOL    HW2 2265   0.110   4.137   5.738
  456SOL     OW 2266   1.601   1.134   3.915
  456SOL    HW1 2267   1.611   1.035   3.926
  456SOL    HW2 2268   1.677   1.180   3.960
  457SOL     OW 2269   1.698   5.888   6.020
  457SOL    HW1 2270   1.649   5.824   5.961
  457SOL    HW2 2271   1.718   5.845   6.108
  458SOL     OW 2272   2.850   1.757   2.813
  458SOL    HW1 2273   2.896   1.779   2.899
  458SOL    HW2 2274   2.765   1.707   2.833
  459SOL     OW 2275   2.090   0.412   5.246
  459SOL    HW1 2276   2.168   0.399   5.307
  459SOL    HW2 2277   2.045   0.499   5.267
  460SOL     OW 2278   1.088   1.560   5.222
  460SOL    HW1 2279   1.141   1.637   5.257
  460SOL    HW2 2280   1.145   1.506   5.160
  461SOL     OW 2281   6.685   4.649   5.583
  461SOL    HW1 2282   6.664   4.630   5.678
  461SOL    HW2 2283   6.654   4.741   5.559
  462SOL     OW 2284   3.182   3.588   4.647
  462SOL    HW1 2285   3.178   3.499   4.601
  462SOL    HW2 2286   3.094   3.606   4.691
  463SOL     OW 2287   5.813   6.734   2.472
  463SOL    HW1 2288   5.854   6.818   2.508
  463SOL    HW2 2289   5.775   6.680   2.547
  464SOL     OW 2290   3.497   6.012   5.801
  464SOL    HW1 2291   3.404   6.023   5.835
  464SOL    HW2 2292   3.493   5.969   5.710
  465SOL     OW 2293   1.371   2.112   0.816
  465SOL    HW1 2294   1.336   2.188   0.760
  465SOL    HW2 2295   1.294   2.057   0.849
  466SOL     OW 2296   3.401   6.213   4.864
  466SOL    HW1 2297   3.308   6.246   4.850
  466SOL    HW2 2298   3.444   6.263   4.939
  467SOL     OW 2299   0.666   2.021   2.763
  467SOL    HW1 2300   0.717   2.028   2.848
  467SOL    HW2 2301   0.568   2.010   2.783
  468SOL     OW 2302   4.694   0.131   6.580
  468SOL    HW1 2303   4.692   0.098   6.485
  468SOL    HW2 2304   4.675   0.229   6.581
  469SOL     OW 2305   2.820   4.364   5.596
  469SOL    HW1 2306   2.851   4.459   5.599
  469SOL    HW2 2307   2.837   4.327   5.504
  470SOL     OW 2308   2.945   5.564   3.137
  470SOL    HW1 2309   2.937   5.661   3.161
  470SOL    HW2 2310   2.862   5.516   3.165
  471SOL     OW 2311   2.830   2.272   3.749
  471SOL    HW1 2312   2.803   2.175   3.752
  471SOL    HW2 2313   2.812   2.308   3.658
  472SOL     OW 2314   5.950   4.317   6.609
  472SOL    HW1 2315   5.908   4.230   6.583
  472SOL    HW2 2316   5.944   4.328   6.709
  473SOL     OW 2317   6.746   2.488   2.488
  473SOL    HW1 2318   6.839   2.476   2.523
  473SOL    HW2 2319   6.686   2.421   2.532
  474SOL     OW 2320   5.929   6.039   4.833
  474SOL    HW1 2321   5.851   6.024   4.893
  474SOL    HW2 2322   5.997   5.967   4.848
  475SOL     OW 2323   5.475   2.805   0.769
  475SOL    HW1 2324   5.552   2.778   0.827
  475SOL    HW2 2325   5.507   2.819   0.676
  476SOL     OW 2326   0.571   4.198   1.859
  476SOL    HW1 2327   0.518   4.247   1.929
  476SOL    HW2 2328   0.570   4.100   1.879
  477SOL     OW 2329   2.951   6.104   3.893
  477SOL    HW1 2330   2.865   6.147   3.921
  477SOL    HW2 2331   2.946   6.080   3.796
  478SOL     OW 2332   4.520   5.683   2.660
  478SOL    HW1 2333   4.498   5.666   2.756
  478SOL    HW2 2334   4.567   5.771   2.653
  479SOL     OW 2335   4.107   3.307   4.217
  479SOL    HW1 2336   4.051   3.224   4.215
  479SOL    HW2 2337   4.107   3.349   4.126
  480SOL     OW 2338   1.406   0.063   2.930
  480SOL    HW1 2339   1.431   0.157   2.950
  480SOL    HW2 2340   1.448   0.035   2.843
  481SOL     OW 2341   0.874   5.826   1.149
  481SOL    HW1 2342   0.786   5.839   1.195
  481SOL    HW2 2343   0.871   5.741   1.096
  482SOL     OW 2344   5.782   4.251   2.770
  482SOL    HW1 2345   5.705   4.288   2.718
  482SOL    HW2 2346   5.798   4.307   2.851
  483SOL     OW 2347   5.747   2.233   2.572
  483SOL    HW1 2348   5.678   2.165   2.546
  483SOL    HW2 2349   5.748   2.243   2.671
  484SOL     OW 2350   2.113   4.459   4.408
  484SOL    HW1 2351   2.116   4.360   4.415
  484SOL    HW2 2352   2.023   4.492   4.436
  485SOL     OW 2353   5.574   3.412   2.528
  485SOL    HW1 2354   5.491   3.359   2.548
  485SOL    HW2 2355   5.618   3.374   2.446
  486SOL     OW 2356   5.998   0.097   6.752
  486SOL    HW1 2357   5.931   0.055   6.813
  486SOL    HW2 2358   6.028   0.030   6.684
  487SOL     OW 2359   0.186   6.998   3.419
  487SOL    HW1 2360   0.214   6.902   3.426
  487SOL    HW2 2361   0.168   0.012   3.510
  488SOL     OW 2362   1.916   0.110   3.511
  488SOL    HW1 2363   1.966   0.066   3.437
  488SOL    HW2 2364   1.976   0.119   3.591
  489SOL     OW 2365   6.597   6.092   4.593
  489SOL    HW1 2366   6.548   6.053   4.515
  489SOL    HW2 2367   6.674   6.147   4.560
  490SOL     OW 2368   1.549   5.379   6.014
  490SOL    HW1 2369   1.540   5.396   6.112
  490SOL    HW2 2370   1.638   5.411   5.983
  491SOL     OW 2371   0.125   2.793   0.075
  491SOL    HW1 2372   0.076   2.798   0.162
  491SOL    HW2 2373   0.081   2.726   0.016
  492SOL     OW 2374   1.489   1.677   5.796
  492SOL    HW1 2375   1.530   1.587   5.783
  492SOL    HW2 2376   1.446   1.681   5.886
  493SOL     OW 2377   2.467   6.604   5.047
  493SOL    HW1 2378   2.538   6.571   5.109
  493SOL    HW2 2379   2.497   6.591   4.952
  494SOL     OW 2380   2.394   0.452   5.683
  494SOL    HW1 2381   2.363   0.366   5.643
  494SOL    HW2 2382   2.316   0.513   5.696
  495SOL     OW 2383   4.284   6.008   5.680
  495SOL    HW1 2384   4.196   5.978   5.717
  495SOL    HW2 2385   4.314   5.945   5.609
  496SOL     OW 2386   6.090   1.995   2.839
  496SOL    HW1 2387   6.057   2.076   2.889
  496SOL    HW2 2388   6.070   1.913   2.892
  497SOL     OW 2389   3.479   0.938   6.056
  497SOL    HW1 2390   3.390   0.971   6.024
  497SOL    HW2 2391   3.542   1.016   6.065
  498SOL     OW 2392   0.291   5.737   1.996
  498SOL    HW1 2393   0.261   5.825   1.959
  498SOL    HW2 2394   0.375   5.750   2.049
  499SOL     OW 2395   3.306   5.092   6.286
  499SOL    HW1 2396   3.373   5.165   6.299
  499SOL    HW2 2397   3.216   5.122   6.318
  500SOL     OW 2398   5.750   2.690   6.676
  500SOL    HW1 2399   5.660   2.700   6.634
  500SOL    HW2 2400   5.754   2.745   6.759
  501SOL     OW 2401   1.750   0.017   2.878
  501SOL    HW1 2402   1.727   0.106   2.838
  501SOL    HW2 2403   1.689   6.970   2.842
  502SOL     OW 2404   1.790   4.836   5.787
  502SOL    HW1 2405   1.749   4.753   5.825
  502SOL    HW2 2406   1.875   4.856   5.836
  503SOL     OW 2407   3.204   4.255   6.681
  503SOL    HW1 2408   3.296   4.281   6.652
  503SOL    HW2 2409   3.182   4.163   6.648
  504SOL     OW 2410   6.799   6.565   2.253
  504SOL    HW1 2411   6.831   6.617   2.173
  504SOL    HW2 2412   6.753   6.482   2.222
  505SOL     OW 2413   4.155   6.985   5.314
  505SOL    HW1 2414   4.118   7.011   5.404
  505SOL    HW2 2415   4.153   6.886   5.305
  506SOL     OW 2416   3.222   5.825   3.345
  506SOL    HW1 2417   3.314   5.848   3.312
  506SOL    HW2 2418   3.220   5.831   3.445
  507SOL     OW 2419   4.357   0.824   1.809
  507SOL    HW1 2420   4.294   0.776   1.871
  507SOL    HW2 2421   4.306   0.859   1.730
  508SOL     OW 2422   6.844   3.980   4.136
  508SOL    HW1 2423   6.899   3.918   4.191
  508SOL    HW2 2424   6.768   3.930   4.095
  509SOL     OW 2425   4.676   0.579   6.817
  509SOL    HW1 2426   4.596   0.637   6.831
  509SOL    HW2 2427   4.750   0.608   6.878
  510SOL     OW 2428   6.632   4.454   6.147
  510SOL    HW1 2429   6.548   4.447   6.201
  510SOL    HW2 2430   6.651   4.367   6.103
  511SOL     OW 2431   1.577   1.267   6.568
  511SOL    HW1 2432   1.596   1.204   6.643
  511SOL    HW2 2433   1.535   1.217   6.492
  512SOL     OW 2434   5.280   2.544   6.930
  512SOL    HW1 2435   5.242   2.549   6.837
  512SOL    HW2 2436   5.294   2.449   6.955
  513SOL     OW 2437   5.775   6.994   2.195
  513SOL    HW1 2438   5.862   6.947   2.186
  513SOL    HW2 2439   5.779   0.058   2.144
  514SOL     OW 2440   6.705   6.776   4.243
  514SOL    HW1 2441   6.739   6.816   4.158
  514SOL    HW2 2442   6.610   6.749   4.231
  515SOL     OW 2443   2.628   0.661   6.523
  515SOL    HW1 2444   2.727   0.654   6.510
  515SOL    HW2 2445   2.585   0.687   6.437
  516SOL     OW 2446   2.454   4.211   1.423
  516SOL    HW1 2447   2.373   4.185   1.476
  516SOL    HW2 2448   2.435   4.295   1.372
  517SOL     OW 2449   3.119   5.434   2.686
  517SOL    HW1 2450   3.088   5.469   2.597
  517SOL    HW2 2451   3.040   5.406   2.740
  518SOL     OW 2452   2.135   3.288   3.639
  518SOL    HW1 2453   2.150   3.316   3.734
  518SOL    HW2 2454   2.136   3.188   3.633
  519SOL     OW 2455   6.522   6.438   4.045
  519SOL    HW1 2456   6.601   6.473   4.095
  519SOL    HW2 2457   6.552   6.406   3.955
  520SOL     OW 2458   1.033   3.278   0.031
  520SOL    HW1 2459   0.956   3.314   7.001
  520SOL    HW2 2460   0.999   3.222   0.106
  521SOL     OW 2461   4.828   4.955   4.224
  521SOL    HW1 2462   4.804   4.948   4.127
  521SOL    HW2 2463   4.817   5.049   4.254
  522SOL     OW 2464   4.281   3.725   1.426
  522SOL    HW1 2465   4.269   3.742   1.524
  522SOL    HW2 2466   4.221   3.650   1.398
  523SOL     OW 2467   0.023   6.541   1.856
  523SOL    HW1 2468   6.989   6.611   1.812
  523SOL    HW2 2469   0.117   6.574   1.862
  524SOL     OW 2470   0.454   3.176   2.030
  524SOL    HW1 2471   0.516   3.141   1.960
  524SOL    HW2 2472   0.502   3.181   2.118
  525SOL     OW 2473   0.846   3.091   6.834
  525SOL    HW1 2474   0.869   3.021   6.902
  525SOL    HW2 2475   0.833   3.179   6.880
  526SOL     OW 2476   3.512   7.016   4.475
  526SOL    HW1 2477   3.513   6.931   4.422
  526SOL    HW2 2478   3.418   0.028   4.481
  527SOL     OW 2479   1.379   2.018   0.233
  527SOL    HW1 2480   1.431   1.939   0.263
  527SOL    HW2 2481   1.290   2.019   0.278
  528SOL     OW 2482   0.320   3.795   3.759
  528SOL    HW1 2483   0.347   3.863   3.827
  528SOL    HW2 2484   0.248   3.833   3.701
  529SOL     OW 2485   3.192   0.214   5.734
  529SOL    HW1 2486   3.166   0.120   5.709
  529SOL    HW2 2487   3.195   0.223   5.833
  530SOL     OW 2488   3.400   3.164   2.006
  530SOL    HW1 2489   3.425   3.258   1.983
  530SOL    HW2 2490   3.300   3.156   2.007
  531SOL     OW 2491   2.572   0.764   2.741
  531SOL    HW1 2492   2.586   0.837   2.674
  531SOL    HW2 2493   2.576   0.802   2.833
  532SOL     OW 2494   2.018   3.399   0.318
  532SOL    HW1 2495   2.086   3.367   0.253
  532SOL    HW2 2496   1.928   3.399   0.275
  533SOL     OW 2497   4.833   0.225   3.730
  533SOL    HW1 2498   4.768   0.295   3.758
  533SOL    HW2 2499   4.805   0.137   3.766
  534SOL     OW 2500   1.175   5.736   1.411
  534SOL    HW1 2501   1.089   5.782   1.435
  534SOL    HW2 2502   1.226   5.715   1.494
  535SOL     OW 2503   6.373   4.290   3.423
  535SOL    HW1 2504   6.471   4.304   3.435
  535SOL    HW2 2505   6.358   4.210   3.364
  536SOL     OW 2506   6.541   5.839   3.169
  536SOL    HW1 2507   6.628   5.789   3.175
  536SOL    HW2 2508   6.516   5.873   3.260
  537SOL     OW 2509   3.921   0.003   4.124
  537SOL    HW1 2510   3.829   0.019   4.087
  537SOL    HW2 2511   3.917   0.002   4.224
  538SOL     OW 2512   1.586   4.970   5.392
  538SOL    HW1 2513   1.674   4.952   5.349
  538SOL    HW2 2514   1.553   4.887   5.438
  539SOL     OW 2515   1.344   5.678   1.623
  539SOL    HW1 2516   1.330   5.643   1.716
  539SOL    HW2 2517   1.440   5.666   1.598
  540SOL     OW 2518   1.726   1.179   4.314
  540SOL    HW1 2519   1.726   1.104   4.380
  540SOL    HW2 2520   1.743   1.142   4.222
  541SOL     OW 2521   4.249   5.528   3.405
  541SOL    HW1 2522   4.292   5.533   3.315
  541SOL    HW2 2523   4.317   5.498   3.473
  542SOL     OW 2524   3.883   5.629   6.681
  542SOL    HW1 2525   3.795   5.592   6.710
  542SOL    HW2 2526   3.896   5.720   6.721
  543SOL     OW 2527   5.491   3.579   4.025
  543SOL    HW1 2528   5.437   3.496   4.037
  543SOL    HW2 2529   5.431   3.658   4.023
  544SOL     OW 2530   0.721   4.806   0.135
  544SOL    HW1 2531   0.714   4.828   0.232
  544SOL    HW2 2532   0.697   4.887   0.080
  545SOL     OW 2533   5.320   1.326   1.252
  545SOL    HW1 2534   5.357   1.329   1.344
  545SOL    HW2 2535   5.297   1.418   1.221
  546SOL     OW 2536   0.450   4.570   1.701
  546SOL    HW1 2537   0.357   4.590   1.670
  546SOL    HW2 2538   0.457   4.588   1.799
  547SOL     OW 2539   3.551   2.199   0.275
  547SOL    HW1 2540   3.589   2.226   0.187
  547SOL    HW2 2541   3.613   2.226   0.349
  548SOL     OW 2542   3.300   3.455   0.548
  548SOL    HW1 2543   3.288   3.544   0.593
  548SOL    HW2 2544   3.215   3.403   0.554
  549SOL     OW 2545   4.797   2.575   0.684
  549SOL    HW1 2546   4.808   2.478   0.706
  549SOL    HW2 2547   4.785   2.627   0.769
  550SOL     OW 2548   6.809   4.353   3.722
  550SOL    HW1 2549   6.855   4.441   3.729
  550SOL    HW2 2550   6.875   4.279   3.737
  551SOL     OW 2551   6.669   1.143   0.910
  551SOL    HW1 2552   6.693   1.100   0.998
  551SOL    HW2 2553   6.753   1.171   0.864
  552SOL     OW 2554   5.255   5.168   5.209
  552SOL    HW1 2555   5.173   5.167   5.151
  552SOL    HW2 2556   5.331   5.129   5.158
  553SOL     OW 2557   3.279   0.763   4.215
  553SOL    HW1 2558   3.366   0.720   4.192
  553SOL    HW2 2559   3.212   0.741   4.144
  554SOL     OW 2560   5.591   5.736   0.050
  554SOL    HW1 2561   5.593   5.637   0.056
  554SOL    HW2 2562   5.655   5.776   0.116
  555SOL     OW 2563   3.558   5.673   5.177
  555SOL    HW1 2564   3.491   5.608   5.142
  555SOL    HW2 2565   3.650   5.639   5.160
  556SOL     OW 2566   5.218   1.752   4.727
  556SOL    HW1 2567   5.208   1.652   4.726
  556SOL    HW2 2568   5.142   1.793   4.676
  557SOL     OW 2569   0.018   4.768   6.026
  557SOL    HW1 2570   6.987   4.695   6.070
  557SOL    HW2 2571   0.066   4.730   5.947
  558SOL     OW 2572   4.056   3.770   3.668
  558SOL    HW1 2573   4.124   3.828   3.623
  558SOL    HW2 2574   4.005   3.719   3.599
  559SOL     OW 2575   6.449   6.101   5.431
  559SOL    HW1 2576   6.512   6.054   5.369
  559SOL    HW2 2577   6.485   6.096   5.524
  560SOL     OW 2578   6.866   3.332   3.965
  560SOL    HW1 2579   6.828   3.418   3.931
  560SOL    HW2 2580   6.849   3.260   3.898
  561SOL     OW 2581   6.619   3.066   6.123
  561SOL    HW1 2582   6.701   3.038   6.073
  561SOL    HW2 2583   6.641   3.145   6.181
  562SOL     OW 2584   4.633   0.058   5.621
  562SOL    HW1 2585   4.546   0.089   5.583
  562SOL    HW2 2586   4.664   0.123   5.690
  563SOL     OW 2587   1.745   1.546   4.109
  563SOL    HW1 2588   1.750   1.575   4.013
  563SOL    HW2 2589   1.761   1.624   4.169
  564SOL     OW 2590   0.052   1.531   6.510
  564SOL    HW1 2591   0.114   1.576   6.575
  564SOL    HW2 2592   0.104   1.463   6.457
  565SOL     OW 2593   2.990   3.278   3.881
  565SOL    HW1 2594   2.951   3.357   3.833
  565SOL    HW2 2595   3.075   3.251   3.836
  566SOL     OW 2596   2.442   4.866   2.615
  566SOL    HW1 2597   2.498   4.819   2.547
  566SOL    HW2 2598   2.361   4.904   2.570
  567SOL     OW 2599   2.768   2.524   0.420
  567SOL    HW1 2600   2.692   2.579   0.384
  567SOL    HW2 2601   2.817   2.481   0.344
  568SOL     OW 2602   5.695   6.784   0.726
  568SOL    HW1 2603   5.607   6.784   0.679
  568SOL    HW2 2604   5.699   6.861   0.789
  569SOL     OW 2605   1.133   2.850   0.895
  569SOL    HW1 2606   1.051   2.907   0.897
  569SOL    HW2 2607   1.129   2.783   0.969
  570SOL     OW 2608   3.111   0.202   6.280
  570SOL    HW1 2609   3.134   0.111   6.314
  570SOL    HW2 2610   3.153   0.272   6.338
  571SOL     OW 2611   2.898   4.909   3.662
  571SOL    HW1 2612   2.841   4.838   3.622
  571SOL    HW2 2613   2.926   4.973   3.591
  572SOL     OW 2614   2.119   5.772   4.670
  572SOL    HW1 2615   2.041   5.822   4.633
  572SOL    HW2 2616   2.176   5.739   4.594
  573SOL     OW 2617   6.123   1.505   5.488
  573SOL    HW1 2618   6.105   1.432   5.554
  573SOL    HW2 2619   6.143   1.590   5.538
  574SOL     OW 2620   3.413   0.760   5.293
  574SOL    HW1 2621   3.503   0.718   5.301
  574SOL    HW2 2622   3.372   0.737   5.205
  575SOL     OW 2623   4.532   2.640   1.074
  575SOL    HW1 2624   4.451   2.595   1.035
  575SOL    HW2 2625   4.506   2.688   1.158
  576SOL     OW 2626   1.822   3.216   3.066
  576SOL    HW1 2627   1.788   3.297   3.113
  576SOL    HW2 2628   1.756   3.187   2.997
  577SOL     OW 2629   0.759   0.734   2.487
  577SOL    HW1 2630   0.805   0.813   2.445
  577SOL    HW2 2631   0.701   0.766   2.562
  578SOL     OW 2632   2.066   5.627   6.789
  578SOL    HW1 2633   2.072   5.725   6.772
  578SOL    HW2 2634   2.136   5.600   6.856
  579SOL     OW 2635   1.873   4.829   2.615
  579SOL    HW1 2636   1.905   4.779   2.534
  579SOL    HW2 2637   1.878   4.770   2.695
  580SOL     OW 2638   4.633   4.928   5.348
  580SOL    HW1 2639   4.637   4.832   5.319
  580SOL    HW2 2640   4.542   4.964   5.328
  581SOL     OW 2641   0.944   3.281   3.567
  581SOL    HW1 2642   0.955   3.187   3.598
  581SOL    HW2 2643   0.970   3.343   3.640
  582SOL     OW 2644   4.866   5.468   3.532
  582SOL    HW1 2645   4.941   5.416   3.571
  582SOL    HW2 2646   4.812   5.409   3.472
  583SOL     OW 2647   2.874   5.345   5.274
  583SOL    HW1 2648   2.814   5.356   5.353
  583SOL    HW2 2649   2.834   5.277   5.212
  584SOL     OW 2650   3.261   6.724   6.194
  584SOL    HW1 2651   3.248   6.824   6.195
  584SOL    HW2 2652   3.297   6.695   6.283
  585SOL     OW 2653   4.127   0.200   1.205
  585SOL    HW1 2654   4.111   0.252   1.121
  585SOL    HW2 2655   4.186   0.121   1.185
  586SOL     OW 2656   3.638   0.548   0.882
  586SOL    HW1 2657   3.579   0.621   0.916
  586SOL    HW2 2658   3.726   0.587   0.853
  587SOL     OW 2659   5.390   2.146   2.216
  587SOL    HW1 2660   5.472   2.159   2.160
  587SOL    HW2 2661   5.309   2.155   2.158
  588SOL     OW 2662   1.866   5.336   1.069
  588SOL    HW1 2663   1.886   5.245   1.104
  588SOL    HW2 2664   1.902   5.345   0.976
  589SOL     OW 2665   3.046   5.853   1.280
  589SOL    HW1 2666   3.058   5.850   1.180
  589SOL    HW2 2667   2.979   5.924   1.302
  590SOL     OW 2668   5.416   1.228   0.648
  590SOL    HW1 2669   5.475   1.246   0.569
  590SOL    HW2 2670   5.397   1.129   0.653
  591SOL     OW 2671   4.304   6.118   3.605
  591SOL    HW1 2672   4.303   6.199   3.664
  591SOL    HW2 2673   4.295   6.036   3.661
  592SOL     OW 2674   4.688   0.605   3.573
  592SOL    HW1 2675   4.670   0.601   3.475
  592SOL    HW2 2676   4.665   0.696   3.608
  593SOL     OW 2677   4.161   2.060   4.722
  593SOL    HW1 2678   4.171   1.962   4.709
  593SOL    HW2 2679   4.132   2.078   4.816
  594SOL     OW 2680   5.965   1.127   0.667
  594SOL    HW1 2681   6.042   1.079   0.626
  594SOL    HW2 2682   5.950   1.093   0.760
  595SOL     OW 2683   5.145   6.429   3.687
  595SOL    HW1 2684   5.064   6.471   3.646
  595SOL    HW2 2685   5.191   6.372   3.619
  596SOL     OW 2686   0.228   4.883   3.746
  596SOL    HW1 2687   0.141   4.874   3.794
  596SOL    HW2 2688   0.232   4.972   3.701
  597SOL     OW 2689   2.846   0.401   6.044
  597SOL    HW1 2690   2.837   0.399   5.944
  597SOL    HW2 2691   2.828   0.494   6.077
  598SOL     OW 2692   3.178   3.968   4.743
  598SOL    HW1 2693   3.109   3.974   4.814
  598SOL    HW2 2694   3.266   4.002   4.778
  599SOL     OW 2695   2.049   6.371   1.993
  599SOL    HW1 2696   2.112   6.313   2.044
  599SOL    HW2 2697   2.091   6.398   1.906
  600SOL     OW 2698   0.154   3.368   5.944
  600SOL    HW1 2699   0.087   3.399   6.012
  600SOL    HW2 2700   0.111   3.366   5.854
  601SOL     OW 2701   1.548   1.145   4.905
  601SOL    HW1 2702   1.501   1.082   4.842
  601SOL    HW2 2703   1.537   1.239   4.872
  602SOL     OW 2704   3.150   0.261   6.000
  602SOL    HW1 2705   3.141   0.248   6.099
  602SOL    HW2 2706   3.104   0.346   5.974
  603SOL     OW 2707   1.731   1.708   5.553
  603SOL    HW1 2708   1.749   1.675   5.460
  603SOL    HW2 2709   1.817   1.709   5.605
  604SOL     OW 2710   0.413   2.613   1.636
  604SOL    HW1 2711   0.479   2.654   1.573
  604SOL    HW2 2712   0.375   2.685   1.694
  605SOL     OW 2713   0.164   4.723   1.878
  605SOL    HW1 2714   0.148   4.694   1.784
  605SOL    HW2 2715   0.109   4.666   1.940
  606SOL     OW 2716   4.375   6.636   5.736
  606SOL    HW1 2717   4.306   6.587   5.788
  606SOL    HW2 2718   4.345   6.730   5.719
  607SOL     OW 2719   0.556   4.842   5.703
  607SOL    HW1 2720   0.471   4.882   5.736
  607SOL    HW2 2721   0.560   4.850   5.603
  608SOL     OW 2722   3.615   7.018   6.925
  608SOL    HW1 2723   3.607   0.021   6.829
  608SOL    HW2 2724   3.525   6.991   6.960
  609SOL     OW 2725   3.764   2.543   1.696
  609SOL    HW1 2726   3.705   2.624   1.705
  609SOL    HW2 2727   3.736   2.474   1.762
  610SOL     OW 2728   4.223   2.395   0.270
  610SOL    HW1 2729   4.264   2.476   0.229
  610SOL    HW2 2730   4.285   2.356   0.338
  611SOL     OW 2731   4.016   6.943   2.851
  611SOL    HW1 2732   4.023   6.924   2.753
  611SOL    HW2 2733   3.948   7.014   2.867
  612SOL     OW 2734   2.695   5.194   4.646
  612SOL    HW1 2735   2.762   5.122   4.660
  612SOL    HW2 2736   2.660   5.225   4.735
  613SOL     OW 2737   5.519   4.669   4.971
  613SOL    HW1 2738   5.508   4.578   5.012
  613SOL    HW2 2739   5.460   4.677   4.891
  614SOL     OW 2740   5.146   4.779   4.869
  614SOL    HW1 2741   5.206   4.720   4.815
  614SOL    HW2 2742   5.067   4.726   4.901
  615SOL     OW 2743   0.187   3.424   0.895
  615SOL    HW1 2744   0.139   3.392   0.813
  615SOL    HW2 2745   0.242   3.505   0.873
  616SOL     OW 2746   6.149   2.641   2.795
  616SOL    HW1 2747   6.096   2.718   2.759
  616SOL    HW2 2748   6.238   2.639   2.749
  617SOL     OW 2749   1.551   4.637   6.750
  617SOL    HW1 2750   1.559   4.677   6.659
  617SOL    HW2 2751   1.631   4.663   6.805
  618SOL     OW 2752   1.949   2.368   1.584
  618SOL    HW1 2753   1.906   2.320   1.661
  618SOL    HW2 2754   1.895   2.351   1.501
  619SOL     OW 2755   2.107   2.144   0.832
  619SOL    HW1 2756   2.184   2.201   0.803
  619SOL    HW2 2757   2.140   2.070   0.891
  620SOL     OW 2758   4.307   1.754   0.379
  620SOL    HW1 2759   4.349   1.840   0.353
  620SOL    HW2 2760   4.208   1.765   0.381
  621SOL     OW 2761   5.772   4.907   6.652
  621SOL    HW1 2762   5.764   5.003   6.627
  621SOL    HW2 2763   5.863   4.890   6.689
  622SOL     OW 2764   1.467   1.389   0.006
  622SOL    HW1 2765   1.551   1.441   7.015
  622SOL    HW2 2766   1.467   1.308   6.971
  623SOL     OW 2767   0.666   6.024   5.667
  623SOL    HW1 2768   0.605   5.993   5.594
  623SOL    HW2 2769   0.738   6.082   5.629
  624SOL     OW 2770   0.602   3.105   2.262
  624SOL    HW1 2771   0.682   3.046   2.263
  624SOL    HW2 2772   0.626   3.195   2.300
  625SOL     OW 2773   2.854   2.020   1.693
  625SOL    HW1 2774   2.786   2.005   1.622
  625SOL    HW2 2775   2.906   2.103   1.673
  626SOL     OW 2776   2.221   5.753   3.680
  626SOL    HW1 2777   2.321   5.758   3.674
  626SOL    HW2 2778   2.193   5.659   3.696
  627SOL     OW 2779   4.864   0.054   0.641
  627SOL    HW1 2780   4.797   0.116   0.681
  627SOL    HW2 2781   4.901   7.017   0.712
  628SOL     OW 2782   4.710   5.013   4.779
  628SOL    HW1 2783   4.782   5.004   4.710
  628SOL    HW2 2784   4.705   5.108   4.809
  629SOL     OW 2785   0.420   0.207   1.122
  629SOL    HW1 2786   0.519   0.214   1.104
  629SOL    HW2 2787   0.405   0.200   1.221
  630SOL     OW 2788   5.481   2.471   2.235
  630SOL    HW1 2789   5.389   2.486   2.201
  630SOL    HW2 2790   5.529   2.408   2.174
  631SOL     OW 2791   2.983   0.611   5.311
  631SOL    HW1 2792   2.992   0.706   5.281
  631SOL    HW2 2793   3.059   0.558   5.274
  632SOL     OW 2794   2.458   1.195   0.346
  632SOL    HW1 2795   2.463   1.256   0.268
  632SOL    HW2 2796   2.469   1.100   0.315
  633SOL     OW 2797   3.380   5.422   0.302
  633SOL    HW1 2798   3.360   5.518   0.284
  633SOL    HW2 2799   3.352   5.366   0.224
  634SOL     OW 2800   4.284   4.789   1.807
  634SOL    HW1 2801   4.357   4.744   1.859
  634SOL    HW2 2802   4.195   4.754   1.837
  635SOL     OW 2803   4.533   6.746   3.136
  635SOL    HW1 2804   4.483   6.661   3.123
  635SOL    HW2 2805   4.522   6.777   3.230
  636SOL     OW 2806   5.134   5.535   6.472
  636SOL    HW1 2807   5.130   5.518   6.570
  636SOL    HW2 2808   5.204   5.604   6.454
  637SOL     OW 2809   5.433   4.962   1.984
  637SOL    HW1 2810   5.381   4.929   1.905
  637SOL    HW2 2811   5.427   4.895   2.058
  638SOL     OW 2812   4.911   1.409   2.346
  638SOL    HW1 2813   4.890   1.449   2.436
  638SOL    HW2 2814   5.004   1.435   2.320
  639SOL     OW 2815   4.875   4.883   2.264
  639SOL    HW1 2816   4.911   4.835   2.343
  639SOL    HW2 2817   4.856   4.978   2.289
  640SOL     OW 2818   2.260   4.383   5.530
  640SOL    HW1 2819   2.275   4.289   5.499
  640SOL    HW2 2820   2.347   4.431   5.534
  641SOL     OW 2821   0.972   5.546   4.533
  641SOL    HW1 2822   1.008   5.635   4.562
  641SOL    HW2 2823   1.001   5.476   4.598
  642SOL     OW 2824   0.501   4.005   4.170
  642SOL    HW1 2825   0.493   4.023   4.072
  642SOL    HW2 2826   0.596   4.015   4.198
  643SOL     OW 2827   6.041   5.396   5.024
  643SOL    HW1 2828   5.995   5.474   4.981
  643SOL    HW2 2829   6.005   5.311   4.987
  644SOL     OW 2830   0.593   5.922   2.700
  644SOL    HW1 2831   0.551   5.880   2.781
  644SOL    HW2 2832   0.644   5.853   2.650
  645SOL     OW 2833   4.907   2.658   4.501
  645SOL    HW1 2834   4.977   2.687   4.436
  645SOL    HW2 2835   4.839   2.601   4.454
  646SOL     OW 2836   2.021   2.047   3.473
  646SOL    HW1 2837   2.040   2.145   3.472
  646SOL    HW2 2838   1.922   2.032   3.465
  647SOL     OW 2839   5.938   2.636   6.279
  647SOL    HW1 2840   6.009   2.659   6.212
  647SOL    HW2 2841   5.914   2.717   6.331
  648SOL     OW 2842   5.887   3.844   2.998
  648SOL    HW1 2843   5.960   3.905   3.030
  648SOL    HW2 2844   5.886   3.844   2.898
  649SOL     OW 2845   4.256   4.351   0.514
  649SOL    HW1 2846   4.171   4.325   0.468
  649SOL    HW2 2847   4.289   4.437   0.476
  650SOL     OW 2848   4.625   4.337   0.449
  650SOL    HW1 2849   4.549   4.284   0.486
  650SOL    HW2 2850   4.663   4.396   0.521
  651SOL     OW 2851   0.641   6.397   0.653
  651SOL    HW1 2852   0.715   6.438   0.600
  651SOL    HW2 2853   0.612   6.312   0.609
  652SOL     OW 2854   4.771   6.613   3.761
  652SOL    HW1 2855   4.831   6.693   3.759
  652SOL    HW2 2856   4.679   6.639   3.730
  653SOL     OW 2857   3.660   5.222   5.404
  653SOL    HW1 2858   3.607   5.275   5.471
  653SOL    HW2 2859   3.758   5.236   5.421
  654SOL     OW 2860   0.373   4.763   5.972
  654SOL    HW1 2861   0.300   4.746   5.906
  654SOL    HW2 2862   0.373   4.860   5.998
  655SOL     OW 2863   0.776   0.234   2.125
  655SOL    HW1 2864   0.859   0.178   2.122
  655SOL    HW2 2865   0.793   0.316   2.180
  656SOL     OW 2866   2.103   6.050   1.709
  656SOL    HW1 2867   2.178   6.098   1.662
  656SOL    HW2 2868   2.142   5.989   1.778
  657SOL     OW 2869   2.305   2.027   1.613
  657SOL    HW1 2870   2.232   2.094   1.600
  657SOL    HW2 2871   2.290   1.976   1.697
  658SOL     OW 2872   3.332   3.109   0.066
  658SOL    HW1 2873   3.330   3.209   0.071
  658SOL    HW2 2874   3.284   3.080   7.006
  659SOL     OW 2875   3.128   6.268   6.196
  659SOL    HW1 2876   3.209   6.313   6.234
  659SOL    HW2 2877   3.078   6.332   6.138
  660SOL     OW 2878   3.853   5.970   1.543
  660SOL    HW1 2879   3.925   6.027   1.503
  660SOL    HW2 2880   3.870   5.874   1.521
  661SOL     OW 2881   4.326   6.362   3.722
  661SOL    HW1 2882   4.303   6.358   3.819
  661SOL    HW2 2883   4.277   6.438   3.680
  662SOL     OW 2884   3.472   0.840   5.766
  662SOL    HW1 2885   3.482   0.936   5.741
  662SOL    HW2 2886   3.550   0.812   5.821
  663SOL     OW 2887   2.182   3.712   5.562
  663SOL    HW1 2888   2.211   3.769   5.486
  663SOL    HW2 2889   2.086   3.687   5.551
  664SOL     OW 2890   0.167   6.222   6.183
  664SOL    HW1 2891   0.119   6.310   6.190
  664SOL    HW2 2892   0.266   6.238   6.186
  665SOL     OW 2893   3.569   5.236   2.888
  665SOL    HW1 2894   3.592   5.280   2.801
  665SOL    HW2 2895   3.509   5.296   2.941
  666SOL     OW 2896   4.543   0.714   2.012
  666SOL    HW1 2897   4.514   0.636   2.067
  666SOL    HW2 2898   4.465   0.750   1.961
  667SOL     OW 2899   1.332   5.245   1.645
  667SOL    HW1 2900   1.341   5.155   1.688
  667SOL    HW2 2901   1.236   5.264   1.626
  668SOL     OW 2902   5.230   5.762   5.648
  668SOL    HW1 2903   5.261   5.846   5.694
  668SOL    HW2 2904   5.255   5.683   5.704
  669SOL     OW 2905   5.979   0.744   3.466
  669SOL    HW1 2906   6.002   0.686   3.388
  669SOL    HW2 2907   5.905   0.701   3.518
  670SOL     OW 2908   2.693   1.720   2.164
  670SOL    HW1 2909   2.641   1.669   2.095
  670SOL    HW2 2910   2.752   1.786   2.118
  671SOL     OW 2911   3.122   5.847   1.022
  671SOL    HW1 2912   3.054   5.919   1.009
  671SOL    HW2 2913   3.213   5.881   0.997
  672SOL     OW 2914   0.029   5.480   1.756
  672SOL    HW1 2915   6.977   5.547   1.759
  672SOL    HW2 2916   0.002   5.399   1.808
  673SOL     OW 2917   6.012   0.292   1.196
  673SOL    HW1 2918   6.006   0.373   1.254
  673SOL    HW2 2919   6.107   0.279   1.167
  674SOL     OW 2920   0.527   1.437   4.746
  674SOL    HW1 2921   0.537   1.536   4.750
  674SOL    HW2 2922   0.442   1.410   4.791
  675SOL     OW 2923   5.453   2.393   2.543
  675SOL    HW1 2924   5.431   2.474   2.489
  675SOL    HW2 2925   5.508   2.330   2.489
  676SOL     OW 2926   2.162   5.092   4.414
  676SOL    HW1 2927   2.183   4.998   4.441
  676SOL    HW2 2928   2.236   5.152   4.446
  677SOL     OW 2929   5.242   0.684   1.464
  677SOL    HW1 2930   5.155   0.728   1.443
  677SOL    HW2 2931   5.246   0.661   1.561
  678SOL     OW 2932   2.405   5.095   4.720
  678SOL    HW1 2933   2.418   5.148   4.637
  678SOL    HW2 2934   2.379   5.156   4.795
  679SOL     OW 2935   5.180   1.504   5.045
  679SOL    HW1 2936   5.100   1.556   5.015
  679SOL    HW2 2937   5.156   1.408   5.054
  680SOL     OW 2938   4.336   5.961   4.260
  680SOL    HW1 2939   4.396   5.923   4.330
  680SOL    HW2 2940   4.306   5.889   4.198
  681SOL     OW 2941   4.311   6.022   1.750
  681SOL    HW1 2942   4.291   6.047   1.655
  681SOL    HW2 2943   4.251   5.947   1.777
  682SOL     OW 2944   6.572   1.313   1.999
  682SOL    HW1 2945   6.531   1.401   1.974
  682SOL    HW2 2946   6.501   1.250   2.031
  683SOL     OW 2947   4.564   3.036   0.750
  683SOL    HW1 2948   4.625   3.003   0.678
  683SOL    HW2 2949   4.533   2.959   0.806
  684SOL     OW 2950   6.153   0.794   0.319
  684SOL    HW1 2951   6.085   0.848   0.370
  684SOL    HW2 2952   6.183   0.717   0.375
  685SOL     OW 2953   3.103   2.185   3.737
  685SOL    HW1 2954   3.125   2.181   3.640
  685SOL    HW2 2955   3.021   2.240   3.751
  686SOL     OW 2956   5.005   1.849   4.565
  686SOL    HW1 2957   4.969   1.792   4.491
  686SOL    HW2 2958   4.955   1.935   4.568
  687SOL     OW 2959   0.917   1.971   4.743
  687SOL    HW1 2960   0.914   1.941   4.838
  687SOL    HW2 2961   0.975   2.053   4.736
  688SOL     OW 2962   0.029   1.561   6.095
  688SOL    HW1 2963   0.012   1.590   6.190
  688SOL    HW2 2964   0.019   1.462   6.088
  689SOL     OW 2965   1.935   4.517   5.818
  689SOL    HW1 2966   1.977   4.439   5.864
  689SOL    HW2 2967   2.005   4.582   5.791
  690SOL     OW 2968   6.880   3.841   3.423
  690SOL    HW1 2969   6.976   3.862   3.442
  690SOL    HW2 2970   6.874   3.791   3.336
  691SOL     OW 2971   3.421   1.629   1.172
  691SOL    HW1 2972   3.460   1.537   1.167
  691SOL    HW2 2973   3.406   1.664   1.080
  692SOL     OW 2974   4.053   1.768   5.016
  692SOL    HW1 2975   4.119   1.777   5.090
  692SOL    HW2 2976   3.968   1.814   5.042
  693SOL     OW 2977   4.941   6.574   4.012
  693SOL    HW1 2978   4.982   6.619   3.933
  693SOL    HW2 2979   4.992   6.490   4.033
  694SOL     OW 2980   4.158   6.140   4.424
  694SOL    HW1 2981   4.067   6.125   4.462
  694SOL    HW2 2982   4.193   6.054   4.386
  695SOL     OW 2983   3.892   5.739   4.290
  695SOL    HW1 2984   3.923   5.763   4.382
  695SOL    HW2 2985   3.824   5.666   4.295
  696SOL     OW 2986   4.836   4.455   3.391
  696SOL    HW1 2987   4.910   4.500   3.441
  696SOL    HW2 2988   4.805   4.375   3.442
  697SOL     OW 2989   1.544   3.641   2.540
  697SOL    HW1 2990   1.482   3.706   2.494
  697SOL    HW2 2991   1.573   3.571   2.474
  698SOL     OW 2992   4.971   6.409   0.672
  698SOL    HW1 2993   4.910   6.395   0.750
  698SOL    HW2 2994   5.016   6.323   0.650
  699SOL     OW 2995   2.152   3.300   6.477
  699SOL    HW1 2996   2.131   3.215   6.427
  699SOL    HW2 2997   2.068   3.338   6.515
  700SOL     OW 2998   3.666   0.162   2.201
  700SOL    HW1 2999   3.661   0.126   2.294
  700SOL    HW2 3000   3.699   0.089   2.140
  701SOL     OW 3001   0.171   4.535   0.238
  701SOL    HW1 3002   0.262   4.538   0.280
  701SOL    HW2 3003   0.164   4.453   0.181
  702SOL     OW 3004   2.024   6.927   4.136
  702SOL    HW1 3005   2.037   6.834   4.103
  702SOL    HW2 3006   2.052   6.992   4.066
  703SOL     OW 3007   3.237   3.084   5.657
  703SOL    HW1 3008   3.319   3.139   5.650
  703SOL    HW2 3009   3.158   3.142   5.676
  704SOL     OW 3010   2.175   2.177   6.133
  704SOL    HW1 3011   2.162   2.274   6.153
  704SOL    HW2 3012   2.205   2.130   6.216
  705SOL     OW 3013   6.272   5.787   3.059
  705SOL    HW1 3014   6.211   5.847   3.007
  705SOL    HW2 3015   6.359   5.833   3.074
  706SOL     OW 3016   4.519   1.766   5.629
  706SOL    HW1 3017   4.437   1.821   5.643
  706SOL    HW2 3018   4.598   1.812   5.669
  707SOL     OW 3019   3.969   4.846   3.130
  707SOL    HW1 3020   4.045   4.790   3.164
  707SOL    HW2 3021   3.943   4.815   3.039
  708SOL     OW 3022   2.655   1.637   3.203
  708SOL    HW1 3023   2.690   1.594   3.120
  708SOL    HW2 3024   2.611   1.723   3.180
  709SOL     OW 3025   1.256   6.449   1.184
  709SOL    HW1 3026   1.289   6.539   1.156
  709SOL    HW2 3027   1.156   6.450   1.188
  710SOL     OW 3028   4.878   2.479   1.576
  710SOL    HW1 3029   4.886   2.479   1.676
  710SOL    HW2 3030   4.829   2.561   1.546
  711SOL     OW 3031   0.032   2.823   6.393
  711SOL    HW1 3032   0.057   2.728   6.415
  711SOL    HW2 3033   6.955   2.833   6.400
  712SOL     OW 3034   4.918   1.940   0.842
  712SOL    HW1 3035   4.964   2.027   0.859
  712SOL    HW2 3036   4.979   1.879   0.791
  713SOL     OW 3037   4.237   2.685   5.383
  713SOL    HW1 3038   4.175   2.762   5.393
  713SOL    HW2 3039   4.211   2.630   5.304
  714SOL     OW 3040   5.711   5.510   4.053
  714SOL    HW1 3041   5.807   5.539   4.057
  714SOL    HW2 3042   5.664   5.559   3.980
  715SOL     OW 3043   6.164   5.229   6.283
  715SOL    HW1 3044   6.155   5.130   6.298
  715SOL    HW2 3045   6.103   5.278   6.346
  716SOL     OW 3046   1.386   1.214   3.328
  716SOL    HW1 3047   1.381   1.206   3.427
  716SOL    HW2 3048   1.452   1.285   3.303
  717SOL     OW 3049   6.582   4.576   4.455
  717SOL    HW1 3050   6.622   4.530   4.534
  717SOL    HW2 3051   6.549   4.666   4.482
  718SOL     OW 3052   4.849   2.760   5.008
  718SOL    HW1 3053   4.872   2.852   5.041
  718SOL    HW2 3054   4.871   2.753   4.911
  719SOL     OW 3055   5.572   0.383   2.623
  719SOL    HW1 3056   5.638   0.404   2.695
  719SOL    HW2 3057   5.505   0.457   2.616
  720SOL     OW 3058   2.391   0.334   6.099
  720SOL    HW1 3059   2.478   0.318   6.051
  720SOL    HW2 3060   2.319   0.278   6.056
  721SOL     OW 3061   1.820   1.140   2.321
  721SOL    HW1 3062   1.914   1.157   2.350
  721SOL    HW2 3063   1.792   1.211   2.257
  722SOL     OW 3064   2.939   0.620   5.775
  722SOL    HW1 3065   3.018   0.599   5.718
  722SOL    HW2 3066   2.882   0.688   5.728
  723SOL     OW 3067   1.656   6.129   3.753
  723SOL    HW1 3068   1.707   6.142   3.669
  723SOL    HW2 3069   1.572   6.078   3.734
  724SOL     OW 3070   0.189   1.114   3.898
  724SOL    HW1 3071   0.133   1.192   3.871
  724SOL    HW2 3072   0.178   1.098   3.996
  725SOL     OW 3073   1.920   4.469   2.317
  725SOL    HW1 3074   1.940   4.474   2.415
  725SOL    HW2 3075   2.005   4.460   2.266
  726SOL     OW 3076   2.351   5.059   0.948
  726SOL    HW1 3077   2.314   4.970   0.975
  726SOL    HW2 3078   2.421   5.046   0.878
  727SOL     OW 3079   4.967   4.667   6.156
  727SOL    HW1 3080   4.880   4.632   6.191
  727SOL    HW2 3081   4.954   4.760   6.121
  728SOL     OW 3082   6.594   3.406   4.456
  728SOL    HW1 3083   6.655   3.460   4.398
  728SOL    HW2 3084   6.571   3.321   4.409
  729SOL     OW 3085   0.572   2.785   1.135
  729SOL    HW1 3086   0.537   2.706   1.085
  729SOL    HW2 3087   0.541   2.869   1.092
  730SOL     OW 3088   5.493   0.839   3.456
  730SOL    HW1 3089   5.489   0.898   3.375
  730SOL    HW2 3090   5.415   0.777   3.456
  731SOL     OW 3091   5.158   4.833   6.703
  731SOL    HW1 3092   5.240   4.809   6.651
  731SOL    HW2 3093   5.124   4.922   6.671
  732SOL     OW 3094   5.358   2.671   2.506
  732SOL    HW1 3095   5.299   2.722   2.444
  732SOL    HW2 3096   5.448   2.715   2.511
  733SOL     OW 3097   5.980   0.415   3.991
  733SOL    HW1 3098   5.952   0.333   4.041
  733SOL    HW2 3099   5.972   0.495   4.052
  734SOL     OW 3100   6.196   4.714   2.920
  734SOL    HW1 3101   6.227   4.677   3.007
  734SOL    HW2 3102   6.246   4.798   2.900
  735SOL     OW 3103   4.499   0.964   1.034
  735SOL    HW1 3104   4.399   0.956   1.025
  735SOL    HW2 3105   4.535   0.881   1.076
  736SOL     OW 3106   1.399   2.009   3.737
  736SOL    HW1 3107   1.375   2.006   3.640
  736SOL    HW2 3108   1.328   2.058   3.787
  737SOL     OW 3109   6.109   1.688   6.227
  737SOL    HW1 3110   6.039   1.698   6.297
  737SOL    HW2 3111   6.067   1.658   6.141
  738SOL     OW 3112   2.697   3.715   1.718
  738SOL    HW1 3113   2.774   3.778   1.727
  738SOL    HW2 3114   2.612   3.765   1.729
  739SOL     OW 3115   3.679   0.549   5.040
  739SOL    HW1 3116   3.732   0.629   5.013
  739SOL    HW2 3117   3.693   0.532   5.138
  740SOL     OW 3118   6.045   1.790   2.983
  740SOL    HW1 3119   6.083   1.742   3.062
  740SOL    HW2 3120   5.945   1.789   2.989
  741SOL     OW 3121   1.771   0.963   4.502
  741SOL    HW1 3122   1.825   1.024   4.560
  741SOL    HW2 3123   1.832   0.905   4.448
  742SOL     OW 3124   2.496   5.948   1.394
  742SOL    HW1 3125   2.412   5.915   1.438
  742SOL    HW2 3126   2.476   6.027   1.337
  743SOL     OW 3127   0.074   6.028   3.129
  743SOL    HW1 3128   0.169   5.998   3.118
  743SOL    HW2 3129   0.014   5.949   3.138
  744SOL     OW 3130   6.235   0.739   0.680
  744SOL    HW1 3131   6.243   0.831   0.718
  744SOL    HW2 3132   6.324   0.709   0.646
  745SOL     OW 3133   2.242   5.490   5.270
  745SOL    HW1 3134   2.313   5.530   5.212
  745SOL    HW2 3135   2.208   5.558   5.335
  746SOL     OW 3136   5.983   4.418   5.703
  746SOL    HW1 3137   5.916   4.366   5.650
  746SOL    HW2 3138   5.943   4.441   5.792
  747SOL     OW 3139   4.475   6.079   4.068
  747SOL    HW1 3140   4.431   6.027   4.141
  747SOL    HW2 3141   4.520   6.160   4.106
  748SOL     OW 3142   5.110   5.408   2.134
  748SOL    HW1 3143   5.024   5.438   2.093
  748SOL    HW2 3144   5.149   5.333   2.079
  749SOL     OW 3145   5.710   3.543   3.849
  749SOL    HW1 3146   5.628   3.550   3.906
  749SOL    HW2 3147   5.738   3.633   3.819
  750SOL     OW 3148   2.729   0.885   0.921
  750SOL    HW1 3149   2.785   0.893   0.838
  750SOL    HW2 3150   2.713   0.788   0.940
  751SOL     OW 3151   4.896   1.221   1.388
  751SOL    HW1 3152   4.961   1.242   1.315
  751SOL    HW2 3153   4.829   1.295   1.395
  752SOL     OW 3154   2.987   1.998   6.567
  752SOL    HW1 3155   2.967   1.977   6.663
  752SOL    HW2 3156   3.086   1.994   6.552
  753SOL     OW 3157   2.874   3.552   5.586
  753SOL    HW1 3158   2.793   3.542   5.529
  753SOL    HW2 3159   2.847   3.549   5.683
  754SOL     OW 3160   4.174   1.156   0.261
  754SOL    HW1 3161   4.185   1.061   0.287
  754SOL    HW2 3162   4.256   1.208   0.289
  755SOL     OW 3163   2.827   4.671   5.388
  755SOL    HW1 3164   2.886   4.636   5.461
  755SOL    HW2 3165   2.855   4.630   5.300
  756SOL     OW 3166   3.279   4.584   6.987
  756SOL    HW1 3167   3.307   4.676   7.013
  756SOL    HW2 3168   3.295   4.521   0.041
  757SOL     OW 3169   2.175   6.338   2.413
  757SOL    HW1 3170   2.144   6.414   2.356
  757SOL    HW2 3171   2.161   6.362   2.510
  758SOL     OW 3172   3.625   1.396   4.202
  758SOL    HW1 3173   3.527   1.378   4.196
  758SOL    HW2 3174   3.661   1.414   4.110
  759SOL     OW 3175   6.847   2.932   2.766
  759SOL    HW1 3176   6.943   2.907   2.774
  759SOL    HW2 3177   6.791   2.849   2.760
  760SOL     OW 3178   6.091   6.949   4.454
  760SOL    HW1 3179   6.005   6.905   4.479
  760SOL    HW2 3180   6.116   6.925   4.360
  761SOL     OW 3181   5.710   4.473   5.811
  761SOL    HW1 3182   5.673   4.505   5.723
  761SOL    HW2 3183   5.666   4.523   5.885
  762SOL     OW 3184   2.680   6.937   5.320
  762SOL    HW1 3185   2.636   6.999   5.384
  762SOL    HW2 3186   2.614   6.908   5.250
  763SOL     OW 3187   4.937   6.825   6.586
  763SOL    HW1 3188   4.917   6.922   6.603
  763SOL    HW2 3189   5.031   6.816   6.552
  764SOL     OW 3190   5.928   1.193   5.333
  764SOL    HW1 3191   5.897   1.111   5.286
  764SOL    HW2 3192   5.991   1.244   5.274
  765SOL     OW 3193   1.508   6.574   0.574
  765SOL    HW1 3194   1.545   6.573   0.667
  765SOL    HW2 3195   1.555   6.505   0.518
  766SOL     OW 3196   2.996   2.204   5.293
  766SOL    HW1 3197   3.033   2.165   5.378
  766SOL    HW2 3198   3.067   2.259   5.249
  767SOL     OW 3199   6.183   6.309   3.847
  767SOL    HW1 3200   6.191   6.220   3.894
  767SOL    HW2 3201   6.087   6.332   3.837
  768SOL     OW 3202   1.760   6.381   3.469
  768SOL    HW1 3203   1.682   6.444   3.474
  768SOL    HW2 3204   1.730   6.295   3.429
  769SOL     OW 3205   3.304   1.574   5.175
  769SOL    HW1 3206   3.271   1.620   5.093
  769SOL    HW2 3207   3.253   1.489   5.189
  770SOL     OW 3208   1.913   4.681   4.191
  770SOL    HW1 3209   1.862   4.760   4.227
  770SOL    HW2 3210   2.011   4.696   4.204
  771SOL     OW 3211   1.346   5.035   3.287
  771SOL    HW1 3212   1.274   4.975   3.322
  771SOL    HW2 3213   1.423   5.035   3.350
  772SOL     OW 3214   6.125   4.772   5.640
  772SOL    HW1 3215   6.095   4.698   5.580
  772SOL    HW2 3216   6.127   4.858   5.589
  773SOL     OW 3217   1.057   3.982   3.090
  773SOL    HW1 3218   1.020   4.072   3.112
  773SOL    HW2 3219   1.009   3.913   3.145
  774SOL     OW 3220   2.497   1.082   2.819
  774SOL    HW1 3221   2.466   1.166   2.862
  774SOL    HW2 3222   2.474   1.004   2.878
  775SOL     OW 3223   1.679   2.308   4.412
  775SOL    HW1 3224   1.774   2.327   4.437
  775SOL    HW2 3225   1.675   2.229   4.351
  776SOL     OW 3226   0.054   0.150   6.827
  776SOL    HW1 3227   0.069   0.245   6.856
  776SOL    HW2 3228   0.139   0.099   6.834
  777SOL     OW 3229   1.806   3.625   1.018
  777SOL    HW1 3230   1.810   3.702   0.954
  777SOL    HW2 3231   1.770   3.544   0.971
  778SOL     OW 3232   2.291   0.107   1.364
  778SOL    HW1 3233   2.271   0.019   1.323
  778SOL    HW2 3234   2.343   0.163   1.300
  779SOL     OW 3235   6.975   2.491   1.582
  779SOL    HW1 3236   0.014   2.566   1.559
  779SOL    HW2 3237   6.884   2.510   1.545
  780SOL     OW 3238   0.630   2.829   4.129
  780SOL    HW1 3239   0.622   2.921   4.167
  780SOL    HW2 3240   0.634   2.762   4.203
  781SOL     OW 3241   6.845   5.030   0.118
  781SOL    HW1 3242   6.782   4.973   0.171
  781SOL    HW2 3243   6.796   5.107   0.079
  782SOL     OW 3244   2.262   3.853   5.344
  782SOL    HW1 3245   2.335   3.900   5.294
  782SOL    HW2 3246   2.205   3.802   5.280
  783SOL     OW 3247   5.968   4.992   1.025
  783SOL    HW1 3248   5.941   5.081   0.989
  783SOL    HW2 3249   5.940   4.920   0.961
  784SOL     OW 3250   2.686   5.590   2.191
  784SOL    HW1 3251   2.598   5.545   2.207
  784SOL    HW2 3252   2.755   5.522   2.169
  785SOL     OW 3253   0.271   1.387   3.788
  785SOL    HW1 3254   0.219   1.446   3.725
  785SOL    HW2 3255   0.340   1.337   3.736
  786SOL     OW 3256   6.559   1.057   2.949
  786SOL    HW1 3257   6.657   1.074   2.944
  786SOL    HW2 3258   6.540   0.964   2.918
  787SOL     OW 3259   2.069   0.003   0.015
  787SOL    HW1 3260   2.141   7.019   6.968
  787SOL    HW2 3261   2.089   6.960   0.088
  788SOL     OW 3262   4.033   2.703   1.578
  788SOL    HW1 3263   3.972   2.632   1.542
  788SOL    HW2 3264   3.991   2.746   1.657
  789SOL     OW 3265   4.271   5.512   2.574
  789SOL    HW1 3266   4.262   5.423   2.619
  789SOL    HW2 3267   4.356   5.556   2.602
  790SOL     OW 3268   1.821   1.486   1.949
  790SOL    HW1 3269   1.846   1.581   1.934
  790SOL    HW2 3270   1.772   1.451   1.869
  791SOL     OW 3271   2.577   6.302   5.405
  791SOL    HW1 3272   2.676   6.290   5.415
  791SOL    HW2 3273   2.534   6.291   5.495
  792SOL     OW 3274   0.264   1.408   1.304
  792SOL    HW1 3275   0.245   1.424   1.207
  792SOL    HW2 3276   0.316   1.486   1.341
  793SOL     OW 3277   4.807   6.176   5.076
  793SOL    HW1 3278   4.722   6.214   5.112
  793SOL    HW2 3279   4.790   6.135   4.986
  794SOL     OW 3280   3.429   3.547   5.397
  794SOL    HW1 3281   3.477   3.613   5.338
  794SOL    HW2 3282   3.487   3.525   5.476
  795SOL     OW 3283   3.838   0.487   5.927
  795SOL    HW1 3284   3.903   0.411   5.917
  795SOL    HW2 3285   3.828   0.510   6.024
  796SOL     OW 3286   2.087   2.765   0.104
  796SOL    HW1 3287   2.122   2.722   0.021
  796SOL    HW2 3288   2.006   2.716   0.135
  797SOL     OW 3289   4.098   0.054   0.817
  797SOL    HW1 3290   4.086   0.112   0.736
  797SOL    HW2 3291   4.038   6.997   0.809
  798SOL     OW 3292   3.087   6.101   1.517
  798SOL    HW1 3293   3.114   6.094   1.613
  798SOL    HW2 3294   3.162   6.069   1.459
  799SOL     OW 3295   0.280   1.763   6.177
  799SOL    HW1 3296   0.204   1.736   6.236
  799SOL    HW2 3297   0.350   1.691   6.177
  800SOL     OW 3298   6.950   2.049   2.543
  800SOL    HW1 3299   6.979   2.133   2.495
  800SOL    HW2 3300   6.936   1.976   2.476
  801SOL     OW 3301   1.706   4.589   5.210
  801SOL    HW1 3302   1.732   4.674   5.163
  801SOL    HW2 3303   1.640   4.539   5.154
  802SOL     OW 3304   4.043   2.516   6.547
  802SOL    HW1 3305   4.018   2.419   6.542
  802SOL    HW2 3306   3.962   2.571   6.529
  803SOL     OW 3307   2.422   0.153   5.714
  803SOL    HW1 3308   2.334   0.106   5.716
  803SOL    HW2 3309   2.463   0.150   5.805
  804SOL     OW 3310   6.514   6.418   1.493
  804SOL    HW1 3311   6.424   6.429   1.535
  804SOL    HW2 3312   6.583   6.460   1.552
  805SOL     OW 3313   1.392   0.306   3.836
  805SOL    HW1 3314   1.468   0.338   3.892
  805SOL    HW2 3315   1.309   0.300   3.892
  806SOL     OW 3316   6.679   0.560   5.802
  806SOL    HW1 3317   6.582   0.544   5.819
  806SOL    HW2 3318   6.733   0.520   5.876
  807SOL     OW 3319   0.538   6.800   4.048
  807SOL    HW1 3320   0.484   6.728   4.006
  807SOL    HW2 3321   0.626   6.807   4.001
  808SOL     OW 3322   5.482   2.869   0.200
  808SOL    HW1 3323   5.468   2.969   0.198
  808SOL    HW2 3324   5.471   2.832   0.108
  809SOL     OW 3325   0.976   5.119   0.315
  809SOL    HW1 3326   0.984   5.040   0.256
  809SOL    HW2 3327   1.028   5.103   0.399
  810SOL     OW 3328   2.726   3.229   0.573
  810SOL    HW1 3329   2.791   3.243   0.647
  810SOL    HW2 3330   2.644   3.185   0.608
  811SOL     OW 3331   5.690   5.114   4.722
  811SOL    HW1 3332   5.680   5.045   4.794
  811SOL    HW2 3333   5.612   5.177   4.725
  812SOL     OW 3334   0.273   2.125   2.544
  812SOL    HW1 3335   0.311   2.214   2.569
  812SOL    HW2 3336   0.338   2.053   2.570
  813SOL     OW 3337   3.005   0.098   4.351
  813SOL    HW1 3338   3.074   0.099   4.278
  813SOL    HW2 3339   2.987   0.004   4.379
  814SOL     OW 3340   6.426   5.657   2.117
  814SOL    HW1 3341   6.402   5.560   2.115
  814SOL    HW2 3342   6.343   5.712   2.103
  815SOL     OW 3343   5.347   2.777   3.813
  815SOL    HW1 3344   5.301   2.850   3.762
  815SOL    HW2 3345   5.289   2.696   3.814
  816SOL     OW 3346   4.712   4.500   0.194
  816SOL    HW1 3347   4.635   4.505   0.131
  816SOL    HW2 3348   4.679   4.483   0.286
  817SOL     OW 3349   1.265   5.470   1.804
  817SOL    HW1 3350   1.289   5.446   1.898
  817SOL    HW2 3351   1.299   5.400   1.741
  818SOL     OW 3352   5.731   2.760   4.378
  818SOL    HW1 3353   5.632   2.746   4.380
  818SOL    HW2 3354   5.758   2.804   4.293
  819SOL     OW 3355   5.744   2.760   1.790
  819SOL    HW1 3356   5.693   2.826   1.845
  819SOL    HW2 3357   5.762   2.798   1.699
  820SOL     OW 3358   3.187   2.131   4.435
  820SOL    HW1 3359   3.143   2.186   4.363
  820SOL    HW2 3360   3.178   2.178   4.523
  821SOL     OW 3361   6.034   5.001   5.389
  821SOL    HW1 3362   6.033   4.909   5.351
  821SOL    HW2 3363   6.099   5.057   5.338
  822SOL     OW 3364   0.293   4.472   3.206
  822SOL    HW1 3365   0.353   4.461   3.285
  822SOL    HW2 3366   0.224   4.541   3.226
  823SOL     OW 3367   6.861   3.925   5.710
  823SOL    HW1 3368   6.942   3.980   5.688
  823SOL    HW2 3369   6.809   3.969   5.783
  824SOL     OW 3370   5.471   0.785   5.312
  824SOL    HW1 3371   5.519   0.754   5.230
  824SOL    HW2 3372   5.484   0.883   5.325
  825SOL     OW 3373   6.278   5.920   0.617
  825SOL    HW1 3374   6.333   5.946   0.537
  825SOL    HW2 3375   6.193   5.877   0.586
  826SOL     OW 3376   3.964   2.307   5.901
  826SOL    HW1 3377   3.954   2.379   5.969
  826SOL    HW2 3378   3.925   2.222   5.937
  827SOL     OW 3379   2.975   4.348   5.317
  827SOL    HW1 3380   2.915   4.268   5.308
  827SOL    HW2 3381   2.940   4.422   5.260
  828SOL     OW 3382   6.093   5.325   5.607
  828SOL    HW1 3383   6.105   5.380   5.524
  828SOL    HW2 3384   5.999   5.291   5.612
  829SOL     OW 3385   3.043   3.141   2.001
  829SOL    HW1 3386   2.984   3.171   2.077
  829SOL    HW2 3387   3.096   3.219   1.968
  830SOL     OW 3388   6.036   4.882   6.819
  830SOL    HW1 3389   6.064   4.793   6.855
  830SOL    HW2 3390   6.107   4.917   6.758
  831SOL     OW 3391   6.105   6.988   0.962
  831SOL    HW1 3392   6.077   7.019   1.052
  831SOL    HW2 3393   6.205   6.993   0.955
  832SOL     OW 3394   4.603   1.225   4.207
  832SOL    HW1 3395   4.525   1.263   4.257
  832SOL    HW2 3396   4.604   1.263   4.114
  833SOL     OW 3397   1.692   3.762   6.666
  833SOL    HW1 3398   1.605   3.719   6.687
  833SOL    HW2 3399   1.684   3.861   6.678
  834SOL     OW 3400   4.921   3.253   0.167
  834SOL    HW1 3401   4.942   3.348   0.190
  834SOL    HW2 3402   4.978   3.191   0.222
  835SOL     OW 3403   1.746   0.568   5.179
  835SOL    HW1 3404   1.717   0.642   5.239
  835SOL    HW2 3405   1.732   0.480   5.224
  836SOL     OW 3406   3.400   1.515   5.529
  836SOL    HW1 3407   3.336   1.592   5.523
  836SOL    HW2 3408   3.453   1.509   5.444
  837SOL     OW 3409   1.265   0.060   1.317
  837SOL    HW1 3410   1.304   0.075   1.226
  837SOL    HW2 3411   1.174   0.101   1.322
  838SOL     OW 3412   2.109   6.041   4.520
  838SOL    HW1 3413   2.107   5.979   4.441
  838SOL    HW2 3414   2.140   6.131   4.491
  839SOL     OW 3415   2.409   1.574   1.295
  839SOL    HW1 3416   2.416   1.656   1.351
  839SOL    HW2 3417   2.489   1.565   1.236
  840SOL     OW 3418   6.206   5.414   6.874
  840SOL    HW1 3419   6.134   5.349   6.898
  840SOL    HW2 3420   6.166   5.505   6.863
  841SOL     OW 3421   3.966   5.815   6.297
  841SOL    HW1 3422   3.994   5.878   6.369
  841SOL    HW2 3423   3.956   5.723   6.334
  842SOL     OW 3424   3.215   6.332   7.008
  842SOL    HW1 3425   3.143   6.341   0.054
  842SOL    HW2 3426   3.224   6.235   6.983
  843SOL     OW 3427   2.521   2.129   2.063
  843SOL    HW1 3428   2.439   2.149   2.009
  843SOL    HW2 3429   2.557   2.040   2.037
  844SOL     OW 3430   0.415   6.777   1.228
  844SOL    HW1 3431   0.350   6.755   1.155
  844SOL    HW2 3432   0.405   6.711   1.303
  845SOL     OW 3433   4.959   2.327   3.197
  845SOL    HW1 3434   4.945   2.408   3.140
  845SOL    HW2 3435   4.872   2.278   3.206
  846SOL     OW 3436   2.924   0.694   6.495
  846SOL    HW1 3437   2.965   0.613   6.453
  846SOL    HW2 3438   2.968   0.776   6.458
  847SOL     OW 3439   2.015   3.370   2.100
  847SOL    HW1 3440   2.081   3.387   2.027
  847SOL    HW2 3441   1.935   3.429   2.087
  848SOL     OW 3442   6.593   6.805   5.358
  848SOL    HW1 3443   6.496   6.786   5.344
  848SOL    HW2 3444   6.604   6.886   5.414
  849SOL     OW 3445   6.357   4.116   0.043
  849SOL    HW1 3446   6.402   4.200   0.014
  849SOL    HW2 3447   6.286   4.092   6.999
  850SOL     OW 3448   0.526   0.035   4.734
  850SOL    HW1 3449   0.509   0.122   4.781
  850SOL    HW2 3450   0.600   0.046   4.668
  851SOL     OW 3451   6.499   2.746   6.973
  851SOL    HW1 3452   6.577   2.692   6.942
  851SOL    HW2 3453   6.414   2.701   6.945
  852SOL     OW 3454   0.398   4.922   0.618
  852SOL    HW1 3455   0.352   4.833   0.613
  852SOL    HW2 3456   0.423   4.942   0.712
  853SOL     OW 3457   1.973   4.207   6.190
  853SOL    HW1 3458   1.897   4.147   6.168
  853SOL    HW2 3459   2.020   4.173   6.272
  854SOL     OW 3460   5.454   6.749   0.186
  854SOL    HW1 3461   5.533   6.730   0.245
  854SOL    HW2 3462   5.418   6.839   0.208
  855SOL     OW 3463   5.935   0.201   0.134
  855SOL    HW1 3464   6.025   0.161   0.154
  855SOL    HW2 3465   5.945   0.271   0.064
  856SOL     OW 3466   1.298   6.774   5.741
  856SOL    HW1 3467   1.240   6.694   5.726
  856SOL    HW2 3468   1.393   6.745   5.756
  857SOL     OW 3469   6.719   5.445   2.194
  857SOL    HW1 3470   6.751   5.379   2.262
  857SOL    HW2 3471   6.780   5.524   2.192
  858SOL     OW 3472   3.102   3.770   1.082
  858SOL    HW1 3473   3.193   3.809   1.067
  858SOL    HW2 3474   3.057   3.755   0.994
  859SOL     OW 3475   5.409   5.797   5.435
  859SOL    HW1 3476   5.329   5.824   5.488
  859SOL    HW2 3477   5.392   5.814   5.338
  860SOL     OW 3478   5.762   3.082   6.649
  860SOL    HW1 3479   5.766   3.076   6.749
  860SOL    HW2 3480   5.668   3.101   6.620
  861SOL     OW 3481   2.512   5.605   3.300
  861SOL    HW1 3482   2.544   5.691   3.340
  861SOL    HW2 3483   2.417   5.615   3.271
  862SOL     OW 3484   1.992   5.200   3.478
  862SOL    HW1 3485   2.070   5.156   3.523
  862SOL    HW2 3486   2.021   5.289   3.443
  863SOL     OW 3487   6.116   0.965   5.948
  863SOL    HW1 3488   6.049   1.001   6.012
  863SOL    HW2 3489   6.075   0.892   5.893
  864SOL     OW 3490   4.220   0.153   5.109
  864SOL    HW1 3491   4.185   0.102   5.188
  864SOL    HW2 3492   4.174   0.121   5.026
  865SOL     OW 3493   1.693   0.069   5.942
  865SOL    HW1 3494   1.645   0.001   5.997
  865SOL    HW2 3495   1.721   0.028   5.855
  866SOL     OW 3496   3.530   6.849   0.928
  866SOL    HW1 3497   3.547   6.895   0.841
  866SOL    HW2 3498   3.571   6.901   1.003
  867SOL     OW 3499   5.334   3.188   0.424
  867SOL    HW1 3500   5.398   3.177   0.348
  867SOL    HW2 3501   5.386   3.203   0.508
  868SOL     OW 3502   0.102   1.947   2.737
  868SOL    HW1 3503   0.051   1.955   2.823
  868SOL    HW2 3504   0.059   2.004   2.668
  869SOL     OW 3505   6.703   3.576   3.496
  869SOL    HW1 3506   6.659   3.666   3.493
  869SOL    HW2 3507   6.727   3.548   3.403
  870SOL     OW 3508   3.805   4.186   1.286
  870SOL    HW1 3509   3.819   4.258   1.218
  870SOL    HW2 3510   3.853   4.103   1.257
  871SOL     OW 3511   5.458   2.420   4.169
  871SOL    HW1 3512   5.392   2.375   4.228
  871SOL    HW2 3513   5.422   2.510   4.142
  872SOL     OW 3514   0.514   2.190   4.455
  872SOL    HW1 3515   0.545   2.257   4.522
  872SOL    HW2 3516   0.556   2.207   4.367
  873SOL     OW 3517   4.071   6.139   5.513
  873SOL    HW1 3518   4.009   6.154   5.436
  873SOL    HW2 3519   4.024   6.088   5.585
  874SOL     OW 3520   5.985   3.953   0.363
  874SOL    HW1 3521   6.061   3.923   0.419
  874SOL    HW2 3522   5.935   4.026   0.410
  875SOL     OW 3523   4.913   5.423   0.670
  875SOL    HW1 3524   4.880   5.492   0.735
  875SOL    HW2 3525   4.886   5.332   0.701
  876SOL     OW 3526   0.484   5.244   1.854
  876SOL    HW1 3527   0.423   5.193   1.915
  876SOL    HW2 3528   0.476   5.342   1.874
  877SOL     OW 3529   3.394   4.004   5.966
  877SOL    HW1 3530   3.437   3.927   5.918
  877SOL    HW2 3531   3.301   3.979   5.992
  878SOL     OW 3532   4.562   0.163   4.226
  878SOL    HW1 3533   4.603   0.236   4.171
  878SOL    HW2 3534   4.626   0.086   4.233
  879SOL     OW 3535   3.613   0.680   1.462
  879SOL    HW1 3536   3.582   0.589   1.489
  879SOL    HW2 3537   3.704   0.697   1.501
  880SOL     OW 3538   3.835   4.100   3.920
  880SOL    HW1 3539   3.820   4.122   4.016
  880SOL    HW2 3540   3.902   4.026   3.913
  881SOL     OW 3541   4.921   3.016   5.132
  881SOL    HW1 3542   5.020   3.016   5.148
  881SOL    HW2 3543   4.898   3.090   5.068
  882SOL     OW 3544   0.724   3.310   3.838
  882SOL    HW1 3545   0.649   3.264   3.791
  882SOL    HW2 3546   0.781   3.243   3.885
  883SOL     OW 3547   3.212   0.879   1.571
  883SOL    HW1 3548   3.147   0.920   1.634
  883SOL    HW2 3549   3.231   0.942   1.496
  884SOL     OW 3550   5.423   3.698   5.956
  884SOL    HW1 3551   5.372   3.620   5.992
  884SOL    HW2 3552   5.361   3.756   5.902
  885SOL     OW 3553   3.265   1.014   5.275
  885SOL    HW1 3554   3.310   0.927   5.289
  885SOL    HW2 3555   3.308   1.084   5.332
  886SOL     OW 3556   3.482   0.217   0.148
  886SOL    HW1 3557   3.526   0.136   0.185
  886SOL    HW2 3558   3.502   0.296   0.207
  887SOL     OW 3559   3.827   6.803   3.543
  887SOL    HW1 3560   3.893   6.843   3.606
  887SOL    HW2 3561   3.814   6.863   3.464
  888SOL     OW 3562   6.608   6.603   3.567
  888SOL    HW1 3563   6.689   6.563   3.526
  888SOL    HW2 3564   6.589   6.559   3.655
  889SOL     OW 3565   6.710   3.147   0.652
  889SOL    HW1 3566   6.804   3.125   0.630
  889SOL    HW2 3567   6.704   3.242   0.684
  890SOL     OW 3568   1.079   5.065   2.934
  890SOL    HW1 3569   1.164   5.104   2.968
  890SOL    HW2 3570   1.098   5.004   2.858
  891SOL     OW 3571   5.696   4.735   0.835
  891SOL    HW1 3572   5.764   4.697   0.773
  891SOL    HW2 3573   5.731   4.735   0.929
  892SOL     OW 3574   2.559   3.722   5.542
  892SOL    HW1 3575   2.507   3.642   5.511
  892SOL    HW2 3576   2.619   3.754   5.468
  893SOL     OW 3577   2.211   6.516   3.122
  893SOL    HW1 3578   2.119   6.536   3.158
  893SOL    HW2 3579   2.208   6.432   3.068
  894SOL     OW 3580   1.041   2.888   1.732
  894SOL    HW1 3581   1.052   2.802   1.683
  894SOL    HW2 3582   1.104   2.956   1.694
  895SOL     OW 3583   0.910   5.173   3.766
  895SOL    HW1 3584   0.892   5.133   3.855
  895SOL    HW2 3585   0.984   5.123   3.721
  896SOL     OW 3586   5.192   5.069   1.149
  896SOL    HW1 3587   5.187   4.973   1.178
  896SOL    HW2 3588   5.230   5.124   1.223
  897SOL     OW 3589   3.960   1.373   6.795
  897SOL    HW1 3590   3.916   1.284   6.785
  897SOL    HW2 3591   3.985   1.388   6.891
  898SOL     OW 3592   3.584   6.549   3.124
  898SOL    HW1 3593   3.631   6.636   3.109
  898SOL    HW2 3594   3.528   6.528   3.045
  899SOL     OW 3595   0.461   6.743   0.197
  899SOL    HW1 3596   0.485   6.650   0.224
  899SOL    HW2 3597   0.540   6.803   0.210
  900SOL     OW 3598   6.073   0.060   0.532
  900SOL    HW1 3599   6.101   6.996   0.573
  900SOL    HW2 3600   6.010   0.108   0.593
  901SOL     OW 3601   2.439   7.016   3.261
  901SOL    HW1 3602   2.486   0.025   3.179
  901SOL    HW2 3603   2.503   7.016   3.338
  902SOL     OW 3604   0.419   1.858   0.567
  902SOL    HW1 3605   0.408   1.853   0.467
  902SOL    HW2 3606   0.345   1.807   0.611
  903SOL     OW 3607   0.138   2.388   6.873
  903SOL    HW1 3608   0.170   2.298   6.841
  903SOL    HW2 3609   0.167   2.401   6.968
  904SOL     OW 3610   2.430   2.209   2.847
  904SOL    HW1 3611   2.460   2.278   2.781
  904SOL    HW2 3612   2.372   2.142   2.801
  905SOL     OW 3613   4.959   1.813   6.574
  905SOL    HW1 3614   4.914   1.876   6.638
  905SOL    HW2 3615   4.967   1.856   6.485
  906SOL     OW 3616   0.262   1.726   6.511
  906SOL    HW1 3617   0.254   1.779   6.595
  906SOL    HW2 3618   0.201   1.764   6.442
  907SOL     OW 3619   5.511   3.304   0.622
  907SOL    HW1 3620   5.606   3.280   0.602
  907SOL    HW2 3621   5.482   3.258   0.706
  908SOL     OW 3622   2.837   4.723   2.841
  908SOL    HW1 3623   2.796   4.633   2.855
  908SOL    HW2 3624   2.907   4.738   2.912
  909SOL     OW 3625   4.489   5.848   1.281
  909SOL    HW1 3626   4.539   5.925   1.319
  909SOL    HW2 3627   4.529   5.822   1.193
  910SOL     OW 3628   3.167   1.937   1.035
  910SOL    HW1 3629   3.225   1.998   1.089
  910SOL    HW2 3630   3.224   1.878   0.979
  911SOL     OW 3631   0.531   6.359   6.380
  911SOL    HW1 3632   0.503   6.408   6.462
  911SOL    HW2 3633   0.592   6.284   6.405
  912SOL     OW 3634   6.023   2.215   2.966
  912SOL    HW1 3635   6.018   2.309   2.932
  912SOL    HW2 3636   6.076   2.213   3.051
  913SOL     OW 3637   4.339   6.990   3.144
  913SOL    HW1 3638   4.393   0.020   3.079
  913SOL    HW2 3639   4.399   6.954   3.216
  914SOL     OW 3640   2.472   0.021   5.989
  914SOL    HW1 3641   2.427   6.959   6.016
  914SOL    HW2 3642   2.550   0.038   6.050
  915SOL     OW 3643   6.206   4.367   6.942
  915SOL    HW1 3644   6.157   4.299   6.889
  915SOL    HW2 3645   6.155   4.453   6.942
  916SOL     OW 3646   1.739   2.544   1.760
  916SOL    HW1 3647   1.739   2.450   1.796
  916SOL    HW2 3648   1.697   2.545   1.669
  917SOL     OW 3649   0.415   6.755   0.823
  917SOL    HW1 3650   0.405   6.656   0.814
  917SOL    HW2 3651   0.388   6.799   0.738
  918SOL     OW 3652   3.339   0.724   0.351
  918SOL    HW1 3653   3.415   0.764   0.300
  918SOL    HW2 3654   3.258   0.720   0.292
  919SOL     OW 3655   5.669   1.698   2.676
  919SOL    HW1 3656   5.667   1.626   2.607
  919SOL    HW2 3657   5.724   1.775   2.642
  920SOL     OW 3658   2.379   4.029   1.734
  920SOL    HW1 3659   2.410   3.937   1.709
  920SOL    HW2 3660   2.329   4.069   1.657
  921SOL     OW 3661   4.772   6.072   4.036
  921SOL    HW1 3662   4.756   6.080   4.134
  921SOL    HW2 3663   4.685   6.067   3.988
  922SOL     OW 3664   3.844   3.749   4.656
  922SOL    HW1 3665   3.751   3.731   4.623
  922SOL    HW2 3666   3.890   3.662   4.674
  923SOL     OW 3667   2.202   3.356   6.875
  923SOL    HW1 3668   2.239   3.416   6.803
  923SOL    HW2 3669   2.210   3.261   6.846
  924SOL     OW 3670   6.415   3.966   1.469
  924SOL    HW1 3671   6.485   3.904   1.434
  924SOL    HW2 3672   6.326   3.919   1.468
  925SOL     OW 3673   0.062   2.309   0.175
  925SOL    HW1 3674   0.118   2.390   0.191
  925SOL    HW2 3675   0.012   2.285   0.258
  926SOL     OW 3676   6.495   0.757   1.347
  926SOL    HW1 3677   6.573   0.806   1.387
  926SOL    HW2 3678   6.528   0.675   1.301
  927SOL     OW 3679   5.385   3.437   3.575
  927SOL    HW1 3680   5.423   3.353   3.535
  927SOL    HW2 3681   5.455   3.509   3.573
  928SOL     OW 3682   2.055   6.054   0.545
  928SOL    HW1 3683   2.046   6.151   0.521
  928SOL    HW2 3684   2.101   6.046   0.634
  929SOL     OW 3685   6.936   0.917   0.034
  929SOL    HW1 3686   6.838   0.907   0.024
  929SOL    HW2 3687   6.969   0.988   6.994
  930SOL     OW 3688   5.220   6.133   6.254
  930SOL    HW1 3689   5.193   6.074   6.331
  930SOL    HW2 3690   5.139   6.171   6.211
  931SOL     OW 3691   6.710   1.497   4.692
  931SOL    HW1 3692   6.627   1.447   4.669
  931SOL    HW2 3693   6.771   1.499   4.613
  932SOL     OW 3694   2.355   1.836   2.826
  932SOL    HW1 3695   2.287   1.834   2.752
  932SOL    HW2 3696   2.443   1.864   2.788
  933SOL     OW 3697   1.314   5.206   3.078
  933SOL    HW1 3698   1.394   5.267   3.077
  933SOL    HW2 3699   1.326   5.136   3.148
  934SOL     OW 3700   2.683   5.651   6.302
  934SOL    HW1 3701   2.719   5.602   6.223
  934SOL    HW2 3702   2.749   5.720   6.332
  935SOL     OW 3703   5.308   4.464   3.829
  935SOL    HW1 3704   5.330   4.493   3.736
  935SOL    HW2 3705   5.237   4.394   3.827
  936SOL     OW 3706   0.757   6.426   5.840
  936SOL    HW1 3707   0.682   6.482   5.875
  936SOL    HW2 3708   0.749   6.419   5.740
  937SOL     OW 3709   5.773   1.753   5.937
  937SOL    HW1 3710   5.832   1.808   5.996
  937SOL    HW2 3711   5.679   1.757   5.971
  938SOL     OW 3712   6.444   5.489   4.756
  938SOL    HW1 3713   6.353   5.480   4.717
  938SOL    HW2 3714   6.459   5.584   4.786
  939SOL     OW 3715   0.020   6.833   3.787
  939SOL    HW1 3716   6.982   6.785   3.850
  939SOL    HW2 3717   6.993   6.906   3.741
  940SOL     OW 3718   0.553   3.747   0.604
  940SOL    HW1 3719   0.603   3.800   0.535
  940SOL    HW2 3720   0.508   3.810   0.667
  941SOL     OW 3721   5.025   0.312   6.943
  941SOL    HW1 3722   4.960   0.275   6.876
  941SOL    HW2 3723   5.118   0.297   6.911
  942SOL     OW 3724   5.982   6.786   1.857
  942SOL    HW1 3725   5.999   6.854   1.786
  942SOL    HW2 3726   5.984   6.830   1.947
  943SOL     OW 3727   1.480   4.837   2.789
  943SOL    HW1 3728   1.534   4.753   2.799
  943SOL    HW2 3729   1.449   4.845   2.694
  944SOL     OW 3730   0.520   5.635   4.932
  944SOL    HW1 3731   0.603   5.627   4.986
  944SOL    HW2 3732   0.529   5.712   4.868
  945SOL     OW 3733   0.176   4.919   5.346
  945SOL    HW1 3734   0.146   4.872   5.263
  945SOL    HW2 3735   0.251   4.868   5.388
  946SOL     OW 3736   4.910   4.902   4.612
  946SOL    HW1 3737   4.970   4.981   4.624
  946SOL    HW2 3738   4.907   4.877   4.515
  947SOL     OW 3739   3.376   3.261   3.953
  947SOL    HW1 3740   3.389   3.162   3.948
  947SOL    HW2 3741   3.379   3.290   4.049
  948SOL     OW 3742   4.641   1.334   3.004
  948SOL    HW1 3743   4.740   1.328   2.993
  948SOL    HW2 3744   4.606   1.246   3.036
  949SOL     OW 3745   3.064   6.140   0.345
  949SOL    HW1 3746   3.009   6.090   0.412
  949SOL    HW2 3747   3.082   6.081   0.266
  950SOL     OW 3748   6.051   5.564   2.604
  950SOL    HW1 3749   5.968   5.542   2.655
  950SOL    HW2 3750   6.026   5.592   2.511
  951SOL     OW 3751   1.223   0.381   3.523
  951SOL    HW1 3752   1.241   0.386   3.425
  951SOL    HW2 3753   1.252   0.292   3.558
  952SOL     OW 3754   4.197   2.241   2.498
  952SOL    HW1 3755   4.273   2.303   2.520
  952SOL    HW2 3756   4.206   2.210   2.403
  953SOL     OW 3757   5.904   5.597   4.869
  953SOL    HW1 3758   5.863   5.676   4.915
  953SOL    HW2 3759   5.853   5.577   4.785
  954SOL     OW 3760   3.807   6.342   2.190
  954SOL    HW1 3761   3.780   6.293   2.273
  954SOL    HW2 3762   3.787   6.285   2.110
  955SOL     OW 3763   2.140   4.473   0.053
  955SOL    HW1 3764   2.044   4.447   0.041
  955SOL    HW2 3765   2.153   4.566   0.019
  956SOL     OW 3766   6.809   0.935   1.689
  956SOL    HW1 3767   6.862   0.986   1.621
  956SOL    HW2 3768   6.869   0.870   1.736
  957SOL     OW 3769   6.075   1.985   1.570
  957SOL    HW1 3770   5.985   1.991   1.613
  957SOL    HW2 3771   6.133   1.922   1.623
  958SOL     OW 3772   4.094   6.241   1.868
  958SOL    HW1 3773   4.177   6.288   1.838
  958SOL    HW2 3774   4.039   6.217   1.788
  959SOL     OW 3775   3.254   6.743   4.814
  959SOL    HW1 3776   3.301   6.823   4.851
  959SOL    HW2 3777   3.312   6.698   4.746
  960SOL     OW 3778   1.738   0.098   1.364
  960SOL    HW1 3779   1.822   0.146   1.336
  960SOL    HW2 3780   1.671   0.104   1.291
  961SOL     OW 3781   4.256   6.585   3.182
  961SOL    HW1 3782   4.178   6.606   3.239
  961SOL    HW2 3783   4.256   6.644   3.101
  962SOL     OW 3784   6.709   0.933   4.315
  962SOL    HW1 3785   6.722   1.000   4.242
  962SOL    HW2 3786   6.784   0.940   4.380
  963SOL     OW 3787   4.260   0.943   0.444
  963SOL    HW1 3788   4.166   0.957   0.475
  963SOL    HW2 3789   4.323   0.958   0.520
  964SOL     OW 3790   4.673   5.205   5.257
  964SOL    HW1 3791   4.660   5.107   5.270
  964SOL    HW2 3792   4.762   5.232   5.293
  965SOL     OW 3793   6.203   1.766   2.281
  965SOL    HW1 3794   6.140   1.843   2.278
  965SOL    HW2 3795   6.287   1.794   2.328
  966SOL     OW 3796   5.195   3.000   3.386
  966SOL    HW1 3797   5.175   3.061   3.309
  966SOL    HW2 3798   5.270   3.038   3.439
  967SOL     OW 3799   2.931   4.913   0.097
  967SOL    HW1 3800   2.946   4.814   0.101
  967SOL    HW2 3801   2.976   4.957   0.175
  968SOL     OW 3802   3.808   6.587   1.325
  968SOL    HW1 3803   3.734   6.558   1.385
  968SOL    HW2 3804   3.820   6.686   1.330
  969SOL     OW 3805   2.141   4.859   5.594
  969SOL    HW1 3806   2.141   4.796   5.671
  969SOL    HW2 3807   2.073   4.829   5.527
  970SOL     OW 3808   5.384   0.288   5.973
  970SOL    HW1 3809   5.434   0.221   6.028
  970SOL    HW2 3810   5.286   0.269   5.979
  971SOL     OW 3811   6.999   3.225   2.201
  971SOL    HW1 3812   6.917   3.182   2.238
  971SOL    HW2 3813   6.975   3.279   2.120
  972SOL     OW 3814   6.802   2.758   1.776
  972SOL    HW1 3815   6.721   2.816   1.784
  972SOL    HW2 3816   6.844   2.771   1.686
  973SOL     OW 3817   1.315   5.099   6.961
  973SOL    HW1 3818   1.264   5.057   6.886
  973SOL    HW2 3819   1.259   5.168   7.006
  974SOL     OW 3820   0.590   5.604   2.406
  974SOL    HW1 3821   0.532   5.523   2.397
  974SOL    HW2 3822   0.660   5.603   2.334
  975SOL     OW 3823   2.382   7.000   0.211
  975SOL    HW1 3824   2.454   6.988   0.279
  975SOL    HW2 3825   2.356   0.074   0.206
  976SOL     OW 3826   0.023   3.669   1.269
  976SOL    HW1 3827   0.037   3.570   1.257
  976SOL    HW2 3828   7.019   3.687   1.364
  977SOL     OW 3829   0.509   1.185   2.200
  977SOL    HW1 3830   0.522   1.181   2.101
  977SOL    HW2 3831   0.443   1.257   2.222
  978SOL     OW 3832   5.135   1.416   0.944
  978SOL    HW1 3833   5.131   1.485   1.016
  978SOL    HW2 3834   5.227   1.412   0.906
  979SOL     OW 3835   0.566   2.850   6.485
  979SOL    HW1 3836   0.641   2.789   6.460
  979SOL    HW2 3837   0.486   2.795   6.509
  980SOL     OW 3838   4.798   1.396   5.056
  980SOL    HW1 3839   4.872   1.407   4.989
  980SOL    HW2 3840   4.781   1.484   5.102
  981SOL     OW 3841   0.606   0.536   4.545
  981SOL    HW1 3842   0.572   0.601   4.477
  981SOL    HW2 3843   0.635   0.585   4.627
  982SOL     OW 3844   0.849   1.704   5.287
  982SOL    HW1 3845   0.876   1.797   5.313
  982SOL    HW2 3846   0.931   1.647   5.278
  983SOL     OW 3847   6.800   3.577   2.825
  983SOL    HW1 3848   6.850   3.610   2.745
  983SOL    HW2 3849   6.862   3.572   2.903
  984SOL     OW 3850   1.515   2.434   2.999
  984SOL    HW1 3851   1.512   2.404   3.094
  984SOL    HW2 3852   1.518   2.354   2.939
  985SOL     OW 3853   6.313   3.883   4.702
  985SOL    HW1 3854   6.282   3.816   4.635
  985SOL    HW2 3855   6.399   3.923   4.672
  986SOL     OW 3856   4.245   5.438   1.344
  986SOL    HW1 3857   4.290   5.382   1.414
  986SOL    HW2 3858   4.152   5.403   1.328
  987SOL     OW 3859   5.646   6.270   2.201
  987SOL    HW1 3860   5.610   6.344   2.257
  987SOL    HW2 3861   5.575   6.202   2.184
  988SOL     OW 3862   3.341   4.113   2.047
  988SOL    HW1 3863   3.246   4.100   2.017
  988SOL    HW2 3864   3.346   4.191   2.109
  989SOL     OW 3865   6.470   1.704   0.380
  989SOL    HW1 3866   6.440   1.765   0.307
  989SOL    HW2 3867   6.417   1.722   0.463
  990SOL     OW 3868   3.429   0.241   2.713
  990SOL    HW1 3869   3.462   0.335   2.700
  990SOL    HW2 3870   3.393   0.231   2.806
  991SOL     OW 3871   0.424   4.551   3.914
  991SOL    HW1 3872   0.347   4.507   3.960
  991SOL    HW2 3873   0.419   4.650   3.927
  992SOL     OW 3874   0.737   3.415   1.308
  992SOL    HW1 3875   0.639   3.427   1.293
  992SOL    HW2 3876   0.774   3.496   1.354
  993SOL     OW 3877   0.540   3.911   0.890
  993SOL    HW1 3878   0.601   3.990   0.879
  993SOL    HW2 3879   0.563   3.863   0.974
  994SOL     OW 3880   3.818   5.179   1.347
  994SOL    HW1 3881   3.767   5.192   1.432
  994SOL    HW2 3882   3.762   5.128   1.282
  995SOL     OW 3883   4.066   3.025   5.832
  995SOL    HW1 3884   4.073   2.938   5.783
  995SOL    HW2 3885   4.085   3.100   5.768
  996SOL     OW 3886   3.550   5.403   5.007
  996SOL    HW1 3887   3.470   5.423   5.064
  996SOL    HW2 3888   3.592   5.318   5.037
  997SOL     OW 3889   1.206   6.982   3.380
  997SOL    HW1 3890   1.166   0.046   3.412
  997SOL    HW2 3891   1.291   6.965   3.431
  998SOL     OW 3892   6.710   0.017   6.373
  998SOL    HW1 3893   6.637   0.086   6.370
  998SOL    HW2 3894   6.779   0.045   6.440
  999SOL     OW 3895   4.965   3.756   1.666
  999SOL    HW1 3896   4.933   3.686   1.729
  999SOL    HW2 3897   5.062   3.744   1.647
 1000SOL     OW 3898   4.223   1.551   1.448
 1000SOL    HW1 3899   4.252   1.537   1.354
 1000SOL    HW2 3900   4.165   1.475   1.478
 1001SOL     OW 3901   3.816   5.686   2.212
 1001SOL    HW1 3902   3.753   5.627   2.161
 1001SOL    HW2 3903   3.766   5.759   2.256
 1002SOL     OW 3904   5.556   1.856   1.130
 1002SOL    HW1 3905   5.480   1.867   1.194
 1002SOL    HW2 3906   5.639   1.896   1.171
 1003SOL     OW 3907   1.968   6.074   2.753
 1003SOL    HW1 3908   1.999   6.004   2.689
 1003SOL    HW2 3909   1.917   6.144   2.702
 1004SOL     OW 3910   0.059   1.250   2.516
 1004SOL    HW1 3911   6.987   1.221   2.500
 1004SOL    HW2 3912   0.117   1.216   2.442
 1005SOL     OW 3913   1.638   4.203   4.143
 1005SOL    HW1 3914   1.690   4.129   4.100
 1005SOL    HW2 3915   1.552   4.216   4.093
 1006SOL     OW 3916   2.129   4.198   0.380
 1006SOL    HW1 3917   2.078   4.165   0.301
 1006SOL    HW2 3918   2.174   4.284   0.358
 1007SOL     OW 3919   4.774   1.236   5.912
 1007SOL    HW1 3920   4.853   1.280   5.869
 1007SOL    HW2 3921   4.749   1.285   5.995
 1008SOL     OW 3922   0.092   3.599   5.225
 1008SOL    HW1 3923   0.150   3.602   5.143
 1008SOL    HW2 3924   0.071   3.504   5.247
 1009SOL     OW 3925   6.324   4.263   6.044
 1009SOL    HW1 3926   6.255   4.328   6.014
 1009SOL    HW2 3927   6.381   4.304   6.115
 1010SOL     OW 3928   2.958   2.542   1.273
 1010SOL    HW1 3929   2.922   2.611   1.335
 1010SOL    HW2 3930   2.910   2.547   1.186
 1011SOL     OW 3931   0.597   5.643   3.463
 1011SOL    HW1 3932   0.537   5.722   3.473
 1011SOL    HW2 3933   0.543   5.559   3.466
 1012SOL     OW 3934   6.831   6.893   2.500
 1012SOL    HW1 3935   6.836   6.806   2.452
 1012SOL    HW2 3936   6.819   6.877   2.598
 1013SOL     OW 3937   6.867   1.214   6.331
 1013SOL    HW1 3938   6.883   1.312   6.319
 1013SOL    HW2 3939   6.857   1.170   6.241
 1014SOL     OW 3940   0.802   3.763   4.796
 1014SOL    HW1 3941   0.790   3.674   4.841
 1014SOL    HW2 3942   0.748   3.765   4.712
 1015SOL     OW 3943   2.774   0.638   6.098
 1015SOL    HW1 3944   2.738   0.705   6.032
 1015SOL    HW2 3945   2.698   0.593   6.145
 1016SOL     OW 3946   4.433   4.951   1.470
 1016SOL    HW1 3947   4.353   4.894   1.487
 1016SOL    HW2 3948   4.506   4.896   1.430
 1017SOL     OW 3949   2.879   1.593   1.164
 1017SOL    HW1 3950   2.946   1.661   1.135
 1017SOL    HW2 3951   2.923   1.528   1.226
 1018SOL     OW 3952   0.414   4.820   3.927
 1018SOL    HW1 3953   0.485   4.890   3.940
 1018SOL    HW2 3954   0.346   4.854   3.861
 1019SOL     OW 3955   6.825   5.219   0.412
 1019SOL    HW1 3956   6.911   5.185   0.373
 1019SOL    HW2 3957   6.804   5.168   0.496
 1020SOL     OW 3958   6.169   0.908   1.227
 1020SOL    HW1 3959   6.100   0.979   1.243
 1020SOL    HW2 3960   6.224   0.897   1.310
 1021SOL     OW 3961   6.674   6.329   2.197
 1021SOL    HW1 3962   6.697   6.240   2.158
 1021SOL    HW2 3963   6.623   6.316   2.282
 1022SOL     OW 3964   2.417   5.764   6.012
 1022SOL    HW1 3965   2.356   5.802   6.082
 1022SOL    HW2 3966   2.413   5.664   6.014
 1023SOL     OW 3967   0.180   1.046   2.988
 1023SOL    HW1 3968   0.165   1.145   2.990
 1023SOL    HW2 3969   0.100   1.001   2.950
 1024SOL     OW 3970   0.464   1.674   4.302
 1024SOL    HW1 3971   0.508   1.605   4.359
 1024SOL    HW2 3972   0.480   1.652   4.206
 1025SOL     OW 3973   4.630   3.046   0.364
 1025SOL    HW1 3974   4.542   3.093   0.369
 1025SOL    HW2 3975   4.627   2.979   0.289
 1026SOL     OW 3976   2.708   2.662   1.574
 1026SOL    HW1 3977   2.791   2.627   1.619
 1026SOL    HW2 3978   2.640   2.589   1.568
 1027SOL     OW 3979   2.027   6.967   1.967
 1027SOL    HW1 3980   2.002   7.007   2.055
 1027SOL    HW2 3981   2.079   0.011   1.913
 1028SOL     OW 3982   1.086   6.464   3.020
 1028SOL    HW1 3983   1.154   6.509   3.077
 1028SOL    HW2 3984   1.015   6.530   2.995
 1029SOL     OW 3985   1.095   1.958   5.847
 1029SOL    HW1 3986   1.175   2.019   5.837
 1029SOL    HW2 3987   1.049   1.950   5.759
 1030SOL     OW 3988   3.640   3.085   1.692
 1030SOL    HW1 3989   3.683   3.020   1.629
 1030SOL    HW2 3990   3.659   3.058   1.787
 1031SOL     OW 3991   4.590   3.239   1.309
 1031SOL    HW1 3992   4.571   3.174   1.382
 1031SOL    HW2 3993   4.688   3.256   1.304
 1032SOL     OW 3994   1.977   1.121   5.415
 1032SOL    HW1 3995   2.042   1.077   5.353
 1032SOL    HW2 3996   1.956   1.059   5.491
 1033SOL     OW 3997   1.651   5.785   2.128
 1033SOL    HW1 3998   1.570   5.740   2.167
 1033SOL    HW2 3999   1.622   5.858   2.066
 1034SOL     OW 4000   1.419   6.250   4.187
 1034SOL    HW1 4001   1.388   6.239   4.093
 1034SOL    HW2 4002   1.511   6.288   4.187
 1035SOL     OW 4003   0.041   2.152   6.315
 1035SOL    HW1 4004   0.034   2.139   6.414
 1035SOL    HW2 4005   0.015   2.246   6.292
 1036SOL     OW 4006   4.216   0.999   1.650
 1036SOL    HW1 4007   4.124   0.983   1.684
 1036SOL    HW2 4008   4.213   1.014   1.551
 1037SOL     OW 4009   1.425   2.383   3.293
 1037SOL    HW1 4010   1.489   2.309   3.309
 1037SOL    HW2 4011   1.341   2.347   3.252
 1038SOL     OW 4012   1.564   1.084   5.755
 1038SOL    HW1 4013   1.530   1.167   5.799
 1038SOL    HW2 4014   1.540   1.086   5.658
 1039SOL     OW 4015   3.273   3.383   4.289
 1039SOL    HW1 4016   3.364   3.343   4.292
 1039SOL    HW2 4017   3.225   3.362   4.375
 1040SOL     OW 4018   5.307   1.133   2.316
 1040SOL    HW1 4019   5.291   1.185   2.232
 1040SOL    HW2 4020   5.400   1.098   2.316
 1041SOL     OW 4021   6.848   6.500   3.485
 1041SOL    HW1 4022   6.947   6.510   3.487
 1041SOL    HW2 4023   6.824   6.403   3.495
 1042SOL     OW 4024   4.726   5.172   3.004
 1042SOL    HW1 4025   4.813   5.183   3.052
 1042SOL    HW2 4026   4.657   5.140   3.068
 1043SOL     OW 4027   4.143   2.032   3.471
 1043SOL    HW1 4028   4.191   2.101   3.526
 1043SOL    HW2 4029   4.202   1.952   3.460
 1044SOL     OW 4030   6.404   5.764   1.545
 1044SOL    HW1 4031   6.376   5.688   1.487
 1044SOL    HW2 4032   6.370   5.850   1.506
 1045SOL     OW 4033   3.481   0.580   3.047
 1045SOL    HW1 4034   3.417   0.608   3.119
 1045SOL    HW2 4035   3.489   0.653   2.980
 1046SOL     OW 4036   1.863   1.570   0.277
 1046SOL    HW1 4037   1.897   1.658   0.309
 1046SOL    HW2 4038   1.940   1.506   0.268
 1047SOL     OW 4039   3.176   0.735   3.957
 1047SOL    HW1 4040   3.257   0.770   3.910
 1047SOL    HW2 4041   3.111   0.809   3.970
 1048SOL     OW 4042   3.518   5.454   2.349
 1048SOL    HW1 4043   3.533   5.356   2.363
 1048SOL    HW2 4044   3.470   5.492   2.428
 1049SOL     OW 4045   5.215   6.948   3.863
 1049SOL    HW1 4046   5.308   6.917   3.884
 1049SOL    HW2 4047   5.215   0.024   3.852
 1050SOL     OW 4048   3.595   5.830   2.487
 1050SOL    HW1 4049   3.503   5.820   2.449
 1050SOL    HW2 4050   3.598   5.912   2.545
 1051SOL     OW 4051   0.238   6.007   7.002
 1051SOL    HW1 4052   0.179   5.971   0.051
 1051SOL    HW2 4053   0.331   5.974   7.015
 1052SOL     OW 4054   5.003   0.993   5.123
 1052SOL    HW1 4055   5.074   0.995   5.194
 1052SOL    HW2 4056   4.995   0.899   5.087
 1053SOL     OW 4057   5.851   3.865   2.733
 1053SOL    HW1 4058   5.812   3.932   2.670
 1053SOL    HW2 4059   5.904   3.798   2.681
 1054SOL     OW 4060   3.142   3.273   0.764
 1054SOL    HW1 4061   3.241   3.285   0.759
 1054SOL    HW2 4062   3.115   3.260   0.860
 1055SOL     OW 4063   4.509   6.229   5.953
 1055SOL    HW1 4064   4.557   6.227   5.865
 1055SOL    HW2 4065   4.494   6.324   5.981
 1056SOL     OW 4066   0.621   3.889   0.384
 1056SOL    HW1 4067   0.625   3.869   0.286
 1056SOL    HW2 4068   0.713   3.910   0.418
 1057SOL     OW 4069   4.053   2.161   1.477
 1057SOL    HW1 4070   3.963   2.120   1.465
 1057SOL    HW2 4071   4.044   2.249   1.525
 1058SOL     OW 4072   4.976   2.651   3.395
 1058SOL    HW1 4073   4.891   2.704   3.389
 1058SOL    HW2 4074   4.962   2.575   3.458
 1059SOL     OW 4075   2.217   6.821   2.447
 1059SOL    HW1 4076   2.268   6.906   2.453
 1059SOL    HW2 4077   2.138   6.825   2.508
 1060SOL     OW 4078   0.513   5.112   4.330
 1060SOL    HW1 4079   0.476   5.143   4.242
 1060SOL    HW2 4080   0.438   5.101   4.395
 1061SOL     OW 4081   6.411   3.698   6.799
 1061SOL    HW1 4082   6.495   3.681   6.850
 1061SOL    HW2 4083   6.435   3.724   6.705
 1062SOL     OW 4084   3.895   6.093   5.320
 1062SOL    HW1 4085   3.828   6.040   5.268
 1062SOL    HW2 4086   3.920   6.175   5.268
 1063SOL     OW 4087   7.021   6.974   0.568
 1063SOL    HW1 4088   6.938   6.919   0.572
 1063SOL    HW2 4089   0.014   7.003   0.474
 1064SOL     OW 4090   0.736   4.296   1.636
 1064SOL    HW1 4091   0.674   4.274   1.710
 1064SOL    HW2 4092   0.702   4.377   1.587
 1065SOL     OW 4093   3.399   0.849   3.805
 1065SOL    HW1 4094   3.348   0.827   3.721
 1065SOL    HW2 4095   3.478   0.789   3.812
 1066SOL     OW 4096   4.706   6.774   2.371
 1066SOL    HW1 4097   4.699   6.861   2.420
 1066SOL    HW2 4098   4.720   6.792   2.274
 1067SOL     OW 4099   2.287   0.959   6.699
 1067SOL    HW1 4100   2.374   0.960   6.650
 1067SOL    HW2 4101   2.261   1.052   6.722
 1068SOL     OW 4102   5.921   3.767   1.326
 1068SOL    HW1 4103   5.835   3.784   1.375
 1068SOL    HW2 4104   5.924   3.672   1.296
 1069SOL     OW 4105   5.159   5.622   0.677
 1069SOL    HW1 4106   5.076   5.568   0.691
 1069SOL    HW2 4107   5.239   5.562   0.680
 1070SOL     OW 4108   2.347   0.050   2.524
 1070SOL    HW1 4109   2.363   0.073   2.429
 1070SOL    HW2 4110   2.433   0.022   2.567
 1071SOL     OW 4111   1.410   2.030   4.248
 1071SOL    HW1 4112   1.365   2.119   4.243
 1071SOL    HW2 4113   1.419   2.003   4.344
 1072SOL     OW 4114   2.409   1.080   1.835
 1072SOL    HW1 4115   2.476   1.063   1.763
 1072SOL    HW2 4116   2.456   1.096   1.921
 1073SOL     OW 4117   5.600   1.726   3.133
 1073SOL    HW1 4118   5.621   1.797   3.200
 1073SOL    HW2 4119   5.652   1.742   3.049
 1074SOL     OW 4120   2.579   4.973   2.028
 1074SOL    HW1 4121   2.596   4.884   1.985
 1074SOL    HW2 4122   2.666   5.019   2.045
 1075SOL     OW 4123   5.915   1.241   3.822
 1075SOL    HW1 4124   5.815   1.232   3.815
 1075SOL    HW2 4125   5.937   1.299   3.901
 1076SOL     OW 4126   0.828   3.026   5.356
 1076SOL    HW1 4127   0.920   3.034   5.394
 1076SOL    HW2 4128   0.795   2.932   5.369
 1077SOL     OW 4129   0.212   6.644   0.574
 1077SOL    HW1 4130   0.297   6.618   0.530
 1077SOL    HW2 4131   0.196   6.742   0.560
 1078SOL     OW 4132   6.282   0.354   3.209
 1078SOL    HW1 4133   6.214   0.338   3.281
 1078SOL    HW2 4134   6.358   0.407   3.245
 1079SOL     OW 4135   1.718   4.751   2.094
 1079SOL    HW1 4136   1.645   4.684   2.084
 1079SOL    HW2 4137   1.707   4.822   2.024
 1080SOL     OW 4138   2.618   5.788   4.283
 1080SOL    HW1 4139   2.691   5.729   4.248
 1080SOL    HW2 4140   2.609   5.775   4.381
 1081SOL     OW 4141   6.785   5.448   5.089
 1081SOL    HW1 4142   6.688   5.423   5.098
 1081SOL    HW2 4143   6.839   5.367   5.070
 1082SOL     OW 4144   5.965   2.129   5.707
 1082SOL    HW1 4145   5.999   2.161   5.619
 1082SOL    HW2 4146   5.980   2.199   5.777
 1083SOL     OW 4147   4.887   3.124   6.853
 1083SOL    HW1 4148   4.820   3.073   6.800
 1083SOL    HW2 4149   4.841   3.177   6.924
 1084SOL     OW 4150   6.700   6.623   6.797
 1084SOL    HW1 4151   6.790   6.657   6.771
 1084SOL    HW2 4152   6.629   6.675   6.749
 1085SOL     OW 4153   2.139   3.290   3.934
 1085SOL    HW1 4154   2.151   3.302   4.033
 1085SOL    HW2 4155   2.160   3.196   3.909
 1086SOL     OW 4156   6.800   5.215   6.472
 1086SOL    HW1 4157   6.847   5.284   6.528
 1086SOL    HW2 4158   6.706   5.245   6.453
 1087SOL     OW 4159   1.176   1.596   5.627
 1087SOL    HW1 4160   1.247   1.662   5.648
 1087SOL    HW2 4161   1.207   1.536   5.553
 1088SOL     OW 4162   0.278   4.998   3.403
 1088SOL    HW1 4163   0.285   5.067   3.331
 1088SOL    HW2 4164   0.335   4.919   3.380
 1089SOL     OW 4165   1.123   6.086   5.121
 1089SOL    HW1 4166   1.057   6.113   5.051
 1089SOL    HW2 4167   1.143   5.988   5.112
 1090SOL     OW 4168   4.422   2.031   3.248
 1090SOL    HW1 4169   4.408   2.014   3.150
 1090SOL    HW2 4170   4.486   1.963   3.284
 1091SOL     OW 4171   2.121   3.490   3.495
 1091SOL    HW1 4172   2.162   3.574   3.530
 1091SOL    HW2 4173   2.146   3.413   3.554
 1092SOL     OW 4174   0.758   5.306   0.472
 1092SOL    HW1 4175   0.848   5.271   0.444
 1092SOL    HW2 4176   0.769   5.398   0.508
 1093SOL     OW 4177   2.488   6.751   1.674
 1093SOL    HW1 4178   2.566   6.687   1.679
 1093SOL    HW2 4179   2.462   6.779   1.766
 1094SOL     OW 4180   0.744   6.834   2.583
 1094SOL    HW1 4181   0.776   6.904   2.646
 1094SOL    HW2 4182   0.655   6.860   2.546
 1095SOL     OW 4183   0.606   2.183   0.038
 1095SOL    HW1 4184   0.540   2.238   7.010
 1095SOL    HW2 4185   0.698   2.199   0.003
 1096SOL     OW 4186   3.595   4.241   1.420
 1096SOL    HW1 4187   3.674   4.230   1.360
 1096SOL    HW2 4188   3.561   4.335   1.414
 1097SOL     OW 4189   2.092   5.121   2.916
 1097SOL    HW1 4190   2.084   5.025   2.943
 1097SOL    HW2 4191   2.097   5.127   2.816
 1098SOL     OW 4192   6.305   4.037   6.607
 1098SOL    HW1 4193   6.388   3.981   6.615
 1098SOL    HW2 4194   6.250   4.027   6.690
 1099SOL     OW 4195   4.729   1.175   6.574
 1099SOL    HW1 4196   4.805   1.237   6.597
 1099SOL    HW2 4197   4.761   1.080   6.580
 1100SOL     OW 4198   4.038   1.178   4.046
 1100SOL    HW1 4199   4.112   1.136   3.994
 1100SOL    HW2 4200   3.958   1.188   3.987
 1101SOL     OW 4201   5.506   4.144   5.146
 1101SOL    HW1 4202   5.525   4.160   5.243
 1101SOL    HW2 4203   5.408   4.157   5.129
 1102SOL     OW 4204   2.375   1.328   4.766
 1102SOL    HW1 4205   2.382   1.321   4.667
 1102SOL    HW2 4206   2.424   1.251   4.808
 1103SOL     OW 4207   2.471   1.411   0.177
 1103SOL    HW1 4208   2.451   1.460   0.262
 1103SOL    HW2 4209   2.396   1.425   0.112
 1104SOL     OW 4210   1.723   4.001   3.739
 1104SOL    HW1 4211   1.762   3.915   3.707
 1104SOL    HW2 4212   1.785   4.076   3.715
 1105SOL     OW 4213   5.308   2.983   4.565
 1105SOL    HW1 4214   5.373   3.059   4.569
 1105SOL    HW2 4215   5.251   2.983   4.647
 1106SOL     OW 4216   0.157   1.464   0.883
 1106SOL    HW1 4217   0.122   1.437   0.793
 1106SOL    HW2 4218   0.117   1.404   0.953
 1107SOL     OW 4219   0.694   0.662   0.372
 1107SOL    HW1 4220   0.788   0.639   0.346
 1107SOL    HW2 4221   0.630   0.600   0.326
 1108SOL     OW 4222   3.530   6.635   5.217
 1108SOL    HW1 4223   3.555   6.638   5.120
 1108SOL    HW2 4224   3.461   6.704   5.236
 1109SOL     OW 4225   5.565   1.309   4.294
 1109SOL    HW1 4226   5.574   1.390   4.352
 1109SOL    HW2 4227   5.551   1.337   4.199
 1110SOL     OW 4228   3.785   1.004   3.645
 1110SOL    HW1 4229   3.859   0.997   3.577
 1110SOL    HW2 4230   3.818   0.970   3.733
 1111SOL     OW 4231   5.624   4.353   6.401
 1111SOL    HW1 4232   5.681   4.291   6.347
 1111SOL    HW2 4233   5.568   4.300   6.464
 1112SOL     OW 4234   6.666   0.492   3.384
 1112SOL    HW1 4235   6.650   0.425   3.457
 1112SOL    HW2 4236   6.641   0.584   3.417
 1113SOL     OW 4237   6.223   4.283   1.394
 1113SOL    HW1 4238   6.301   4.226   1.368
 1113SOL    HW2 4239   6.141   4.248   1.349
 1114SOL     OW 4240   3.400   1.960   6.238
 1114SOL    HW1 4241   3.301   1.966   6.253
 1114SOL    HW2 4242   3.421   1.985   6.144
 1115SOL     OW 4243   4.238   4.148   5.323
 1115SOL    HW1 4244   4.321   4.096   5.302
 1115SOL    HW2 4245   4.249   4.196   5.410
 1116SOL     OW 4246   5.869   6.979   6.921
 1116SOL    HW1 4247   5.816   6.897   6.900
 1116SOL    HW2 4248   5.825   0.006   6.996
 1117SOL     OW 4249   0.730   2.133   1.519
 1117SOL    HW1 4250   0.822   2.103   1.541
 1117SOL    HW2 4251   0.681   2.060   1.471
 1118SOL     OW 4252   2.349   5.474   0.385
 1118SOL    HW1 4253   2.409   5.510   0.314
 1118SOL    HW2 4254   2.365   5.524   0.470
 1119SOL     OW 4255   4.319   4.467   1.769
 1119SOL    HW1 4256   4.232   4.448   1.724
 1119SOL    HW2 4257   4.365   4.381   1.791
 1120SOL     OW 4258   6.262   6.044   1.187
 1120SOL    HW1 4259   6.232   6.138   1.173
 1120SOL    HW2 4260   6.214   5.985   1.121
 1121SOL     OW 4261   0.162   4.459   4.966
 1121SOL    HW1 4262   0.148   4.521   4.889
 1121SOL    HW2 4263   0.082   4.398   4.975
 1122SOL     OW 4264   6.030   3.042   2.078
 1122SOL    HW1 4265   6.047   2.969   2.012
 1122SOL    HW2 4266   6.115   3.064   2.125
 1123SOL     OW 4267   4.774   2.173   3.843
 1123SOL    HW1 4268   4.679   2.142   3.847
 1123SOL    HW2 4269   4.807   2.167   3.749
 1124SOL     OW 4270   0.756   3.923   5.975
 1124SOL    HW1 4271   0.711   3.883   5.896
 1124SOL    HW2 4272   0.841   3.874   5.994
 1125SOL     OW 4273   1.669   2.820   4.028
 1125SOL    HW1 4274   1.714   2.801   4.115
 1125SOL    HW2 4275   1.583   2.769   4.024
 1126SOL     OW 4276   5.680   5.861   5.454
 1126SOL    HW1 4277   5.698   5.944   5.506
 1126SOL    HW2 4278   5.582   5.840   5.458
 1127SOL     OW 4279   5.760   6.326   4.786
 1127SOL    HW1 4280   5.676   6.342   4.838
 1127SOL    HW2 4281   5.738   6.317   4.689
 1128SOL     OW 4282   6.089   1.773   4.770
 1128SOL    HW1 4283   6.035   1.758   4.853
 1128SOL    HW2 4284   6.182   1.739   4.784
 1129SOL     OW 4285   1.853   6.637   0.640
 1129SOL    HW1 4286   1.872   6.723   0.687
 1129SOL    HW2 4287   1.859   6.562   0.706
 1130SOL     OW 4288   1.856   5.110   1.753
 1130SOL    HW1 4289   1.787   5.178   1.728
 1130SOL    HW2 4290   1.875   5.052   1.673
 1131SOL     OW 4291   1.575   0.540   4.965
 1131SOL    HW1 4292   1.542   0.454   5.005
 1131SOL    HW2 4293   1.641   0.582   5.027
 1132SOL     OW 4294   4.043   0.481   3.056
 1132SOL    HW1 4295   4.070   0.568   3.096
 1132SOL    HW2 4296   3.946   0.483   3.033
 1133SOL     OW 4297   0.610   0.930   0.432
 1133SOL    HW1 4298   0.650   1.005   0.380
 1133SOL    HW2 4299   0.643   0.843   0.396
 1134SOL     OW 4300   5.428   6.899   2.760
 1134SOL    HW1 4301   5.483   6.982   2.750
 1134SOL    HW2 4302   5.332   6.924   2.772
 1135SOL     OW 4303   2.484   6.555   3.928
 1135SOL    HW1 4304   2.540   6.626   3.886
 1135SOL    HW2 4305   2.422   6.598   3.995
 1136SOL     OW 4306   3.499   4.952   2.948
 1136SOL    HW1 4307   3.493   4.904   2.861
 1136SOL    HW2 4308   3.549   5.037   2.937
 1137SOL     OW 4309   0.831   5.895   6.731
 1137SOL    HW1 4310   0.874   5.984   6.716
 1137SOL    HW2 4311   0.733   5.901   6.714
 1138SOL     OW 4312   1.027   1.761   4.986
 1138SOL    HW1 4313   1.079   1.841   4.956
 1138SOL    HW2 4314   1.074   1.717   5.062
 1139SOL     OW 4315   2.536   4.901   3.820
 1139SOL    HW1 4316   2.481   4.970   3.867
 1139SOL    HW2 4317   2.539   4.817   3.875
 1140SOL     OW 4318   2.490   0.331   2.589
 1140SOL    HW1 4319   2.483   0.310   2.491
 1140SOL    HW2 4320   2.583   0.314   2.620
 1141SOL     OW 4321   6.580   5.827   6.660
 1141SOL    HW1 4322   6.586   5.781   6.748
 1141SOL    HW2 4323   6.490   5.870   6.650
 1142SOL     OW 4324   2.749   0.145   3.671
 1142SOL    HW1 4325   2.792   0.087   3.740
 1142SOL    HW2 4326   2.797   0.232   3.665
 1143SOL     OW 4327   1.413   3.150   2.780
 1143SOL    HW1 4328   1.430   3.184   2.873
 1143SOL    HW2 4329   1.457   3.210   2.714
 1144SOL     OW 4330   5.510   4.295   3.052
 1144SOL    HW1 4331   5.417   4.309   3.017
 1144SOL    HW2 4332   5.572   4.361   3.010
 1145SOL     OW 4333   1.270   2.910   0.674
 1145SOL    HW1 4334   1.211   2.900   0.754
 1145SOL    HW2 4335   1.273   3.006   0.646
 1146SOL     OW 4336   0.665   1.918   1.343
 1146SOL    HW1 4337   0.725   1.952   1.271
 1146SOL    HW2 4338   0.667   1.818   1.344
 1147SOL     OW 4339   2.588   5.904   0.698
 1147SOL    HW1 4340   2.650   5.848   0.752
 1147SOL    HW2 4341   2.635   5.939   0.617
 1148SOL     OW 4342   4.031   6.288   0.988
 1148SOL    HW1 4343   4.099   6.294   1.060
 1148SOL    HW2 4344   3.949   6.339   1.014
 1149SOL     OW 4345   5.473   2.759   1.585
 1149SOL    HW1 4346   5.496   2.667   1.617
 1149SOL    HW2 4347   5.403   2.753   1.514
 1150SOL     OW 4348   0.328   4.089   0.118
 1150SOL    HW1 4349   0.312   4.016   0.185
 1150SOL    HW2 4350   0.398   4.060   0.053
 1151SOL     OW 4351   6.122   4.687   4.664
 1151SOL    HW1 4352   6.190   4.758   4.682
 1151SOL    HW2 4353   6.032   4.719   4.693
 1152SOL     OW 4354   4.994   6.197   6.133
 1152SOL    HW1 4355   5.045   6.268   6.083
 1152SOL    HW2 4356   4.908   6.235   6.166
 1153SOL     OW 4357   6.780   6.983   1.558
 1153SOL    HW1 4358   6.867   7.007   1.601
 1153SOL    HW2 4359   6.713   6.960   1.629
 1154SOL     OW 4360   0.684   4.157   0.911
 1154SOL    HW1 4361   0.783   4.143   0.910
 1154SOL    HW2 4362   0.654   4.173   1.005
 1155SOL     OW 4363   2.541   6.002   5.918
 1155SOL    HW1 4364   2.494   5.933   5.972
 1155SOL    HW2 4365   2.563   5.965   5.828
 1156SOL     OW 4366   4.619   1.835   4.712
 1156SOL    HW1 4367   4.562   1.767   4.758
 1156SOL    HW2 4368   4.560   1.898   4.661
 1157SOL     OW 4369   5.332   0.992   5.866
 1157SOL    HW1 4370   5.236   1.021   5.864
 1157SOL    HW2 4371   5.352   0.952   5.956
 1158SOL     OW 4372   6.534   5.814   4.467
 1158SOL    HW1 4373   6.456   5.872   4.445
 1158SOL    HW2 4374   6.536   5.797   4.566
 1159SOL     OW 4375   5.776   6.709   3.097
 1159SOL    HW1 4376   5.831   6.793   3.093
 1159SOL    HW2 4377   5.679   6.733   3.105
 1160SOL     OW 4378   4.198   5.461   2.088
 1160SOL    HW1 4379   4.251   5.535   2.048
 1160SOL    HW2 4380   4.102   5.469   2.059
 1161SOL     OW 4381   0.322   5.638   6.511
 1161SOL    HW1 4382   0.403   5.629   6.453
 1161SOL    HW2 4383   0.313   5.556   6.568
 1162SOL     OW 4384   2.465   2.676   5.529
 1162SOL    HW1 4385   2.543   2.720   5.486
 1162SOL    HW2 4386   2.451   2.585   5.489
 1163SOL     OW 4387   5.940   4.658   1.844
 1163SOL    HW1 4388   6.027   4.616   1.818
 1163SOL    HW2 4389   5.951   4.758   1.848
 1164SOL     OW 4390   5.212   2.990   5.497
 1164SOL    HW1 4391   5.238   3.009   5.402
 1164SOL    HW2 4392   5.268   3.046   5.558
 1165SOL     OW 4393   4.064   5.633   3.200
 1165SOL    HW1 4394   4.059   5.550   3.144
 1165SOL    HW2 4395   4.150   5.634   3.250
 1166SOL     OW 4396   2.270   5.960   6.690
 1166SOL    HW1 4397   2.177   5.956   6.653
 1166SOL    HW2 4398   2.308   6.052   6.674
 1167SOL     OW 4399   4.816   4.867   0.958
 1167SOL    HW1 4400   4.838   4.877   1.055
 1167SOL    HW2 4401   4.719   4.887   0.944
 1168SOL     OW 4402   6.689   2.685   1.198
 1168SOL    HW1 4403   6.785   2.701   1.219
 1168SOL    HW2 4404   6.656   2.753   1.133
 1169SOL     OW 4405   5.685   2.052   5.350
 1169SOL    HW1 4406   5.654   2.000   5.431
 1169SOL    HW2 4407   5.772   2.014   5.318
 1170SOL     OW 4408   5.776   0.079   2.987
 1170SOL    HW1 4409   5.754   0.073   3.084
 1170SOL    HW2 4410   5.698   0.045   2.934
 1171SOL     OW 4411   2.544   6.866   0.033
 1171SOL    HW1 4412   2.610   6.800   0.069
 1171SOL    HW2 4413   2.506   6.920   0.108
 1172SOL     OW 4414   5.275   4.142   0.972
 1172SOL    HW1 4415   5.195   4.098   1.012
 1172SOL    HW2 4416   5.346   4.153   1.042
 1173SOL     OW 4417   3.013   1.408   1.324
 1173SOL    HW1 4418   3.108   1.432   1.343
 1173SOL    HW2 4419   3.009   1.346   1.245
 1174SOL     OW 4420   3.632   4.031   2.021
 1174SOL    HW1 4421   3.654   3.969   2.096
 1174SOL    HW2 4422   3.544   4.074   2.038
 1175SOL     OW 4423   4.810   3.581   6.197
 1175SOL    HW1 4424   4.810   3.680   6.205
 1175SOL    HW2 4425   4.798   3.540   6.288
 1176SOL     OW 4426   4.983   3.555   0.184
 1176SOL    HW1 4427   5.066   3.580   0.233
 1176SOL    HW2 4428   4.903   3.586   0.235
 1177SOL     OW 4429   6.922   3.585   5.009
 1177SOL    HW1 4430   6.992   3.623   5.069
 1177SOL    HW2 4431   6.942   3.612   4.914
 1178SOL     OW 4432   2.487   3.763   0.530
 1178SOL    HW1 4433   2.467   3.739   0.435
 1178SOL    HW2 4434   2.537   3.688   0.573
 1179SOL     OW 4435   2.429   5.871   0.246
 1179SOL    HW1 4436   2.478   5.794   0.206
 1179SOL    HW2 4437   2.491   5.949   0.255
 1180SOL     OW 4438   3.166   6.384   4.002
 1180SOL    HW1 4439   3.186   6.419   3.911
 1180SOL    HW2 4440   3.071   6.406   4.026
 1181SOL     OW 4441   0.396   5.033   6.004
 1181SOL    HW1 4442   0.309   5.058   6.047
 1181SOL    HW2 4443   0.464   5.105   6.022
 1182SOL     OW 4444   4.035   4.755   3.466
 1182SOL    HW1 4445   4.072   4.765   3.559
 1182SOL    HW2 4446   4.109   4.755   3.400
 1183SOL     OW 4447   2.241   3.808   6.673
 1183SOL    HW1 4448   2.172   3.879   6.687
 1183SOL    HW2 4449   2.313   3.843   6.613
 1184SOL     OW 4450   6.787   1.052   4.907
 1184SOL    HW1 4451   6.698   1.059   4.863
 1184SOL    HW2 4452   6.787   1.107   4.991
 1185SOL     OW 4453   0.567   1.526   0.806
 1185SOL    HW1 4454   0.656   1.560   0.836
 1185SOL    HW2 4455   0.505   1.518   0.884
 1186SOL     OW 4456   5.916   6.818   5.837
 1186SOL    HW1 4457   5.824   6.786   5.812
 1186SOL    HW2 4458   5.913   6.916   5.856
 1187SOL     OW 4459   6.319   6.787   6.891
 1187SOL    HW1 4460   6.274   6.858   6.945
 1187SOL    HW2 4461   6.381   6.735   6.950
 1188SOL     OW 4462   3.771   5.989   5.558
 1188SOL    HW1 4463   3.808   6.011   5.467
 1188SOL    HW2 4464   3.678   5.955   5.548
 1189SOL     OW 4465   6.179   2.505   1.638
 1189SOL    HW1 4466   6.183   2.410   1.607
 1189SOL    HW2 4467   6.266   2.531   1.679
 1190SOL     OW 4468   2.883   5.400   3.893
 1190SOL    HW1 4469   2.976   5.372   3.914
 1190SOL    HW2 4470   2.876   5.500   3.898
 1191SOL     OW 4471   4.547   5.372   3.906
 1191SOL    HW1 4472   4.493   5.337   3.982
 1191SOL    HW2 4473   4.586   5.295   3.855
 1192SOL     OW 4474   4.051   5.409   3.046
 1192SOL    HW1 4475   3.988   5.334   3.066
 1192SOL    HW2 4476   4.057   5.423   2.947
 1193SOL     OW 4477   6.207   3.316   5.508
 1193SOL    HW1 4478   6.184   3.257   5.585
 1193SOL    HW2 4479   6.162   3.283   5.426
 1194SOL     OW 4480   5.935   0.086   1.438
 1194SOL    HW1 4481   5.918   0.184   1.433
 1194SOL    HW2 4482   6.006   0.061   1.373
 1195SOL     OW 4483   6.971   4.230   0.837
 1195SOL    HW1 4484   6.892   4.169   0.835
 1195SOL    HW2 4485   6.941   4.324   0.853
 1196SOL     OW 4486   0.267   5.671   2.739
 1196SOL    HW1 4487   0.298   5.673   2.644
 1196SOL    HW2 4488   0.203   5.595   2.751
 1197SOL     OW 4489   4.461   0.810   4.973
 1197SOL    HW1 4490   4.424   0.890   4.925
 1197SOL    HW2 4491   4.507   0.840   5.057
 1198SOL     OW 4492   1.215   2.615   2.179
 1198SOL    HW1 4493   1.213   2.685   2.250
 1198SOL    HW2 4494   1.302   2.565   2.184
 1199SOL     OW 4495   3.930   3.918   1.538
 1199SOL    HW1 4496   3.977   3.940   1.623
 1199SOL    HW2 4497   3.838   3.886   1.557
 1200SOL     OW 4498   3.282   3.741   4.411
 1200SOL    HW1 4499   3.247   3.699   4.495
 1200SOL    HW2 4500   3.242   3.694   4.332
 1201SOL     OW 4501   0.831   0.922   4.105
 1201SOL    HW1 4502   0.886   0.838   4.110
 1201SOL    HW2 4503   0.786   0.938   4.193
 1202SOL     OW 4504   0.610   5.660   5.677
 1202SOL    HW1 4505   0.659   5.576   5.699
 1202SOL    HW2 4506   0.625   5.684   5.581
 1203SOL     OW 4507   6.191   5.891   6.924
 1203SOL    HW1 4508   6.101   5.852   6.904
 1203SOL    HW2 4509   6.236   5.918   6.839
 1204SOL     OW 4510   3.372   6.260   1.428
 1204SOL    HW1 4511   3.390   6.271   1.526
 1204SOL    HW2 4512   3.359   6.349   1.386
 1205SOL     OW 4513   4.508   3.637   1.136
 1205SOL    HW1 4514   4.412   3.645   1.107
 1205SOL    HW2 4515   4.518   3.674   1.229
 1206SOL     OW 4516   2.904   2.851   5.372
 1206SOL    HW1 4517   2.941   2.835   5.463
 1206SOL    HW2 4518   2.974   2.895   5.315
 1207SOL     OW 4519   1.934   6.275   1.155
 1207SOL    HW1 4520   1.845   6.321   1.157
 1207SOL    HW2 4521   1.966   6.269   1.060
 1208SOL     OW 4522   3.225   3.813   1.411
 1208SOL    HW1 4523   3.210   3.861   1.497
 1208SOL    HW2 4524   3.137   3.797   1.366
 1209SOL     OW 4525   4.639   1.257   4.614
 1209SOL    HW1 4526   4.660   1.171   4.568
 1209SOL    HW2 4527   4.666   1.251   4.711
 1210SOL     OW 4528   3.097   0.655   3.534
 1210SOL    HW1 4529   3.016   0.708   3.557
 1210SOL    HW2 4530   3.179   0.711   3.550
 1211SOL     OW 4531   1.221   3.993   1.612
 1211SOL    HW1 4532   1.193   4.086   1.636
 1211SOL    HW2 4533   1.165   3.928   1.662
 1212SOL     OW 4534   6.125   0.622   6.992
 1212SOL    HW1 4535   6.156   0.717   6.981
 1212SOL    HW2 4536   6.170   0.581   0.048
 1213SOL     OW 4537   6.927   1.961   0.175
 1213SOL    HW1 4538   6.830   1.935   0.181
 1213SOL    HW2 4539   6.944   2.037   0.238
 1214SOL     OW 4540   0.738   2.490   6.888
 1214SOL    HW1 4541   0.811   2.484   6.957
 1214SOL    HW2 4542   0.767   2.443   6.805
 1215SOL     OW 4543   0.947   4.592   3.579
 1215SOL    HW1 4544   0.950   4.586   3.479
 1215SOL    HW2 4545   0.928   4.501   3.617
 1216SOL     OW 4546   4.753   0.578   1.071
 1216SOL    HW1 4547   4.664   0.568   1.116
 1216SOL    HW2 4548   4.785   0.488   1.043
 1217SOL     OW 4549   2.257   4.909   0.187
 1217SOL    HW1 4550   2.162   4.927   0.161
 1217SOL    HW2 4551   2.312   4.991   0.168
 1218SOL     OW 4552   2.343   4.270   4.463
 1218SOL    HW1 4553   2.414   4.341   4.461
 1218SOL    HW2 4554   2.307   4.263   4.556
 1219SOL     OW 4555   5.877   6.266   1.719
 1219SOL    HW1 4556   5.811   6.288   1.791
 1219SOL    HW2 4557   5.970   6.269   1.756
 1220SOL     OW 4558   1.155   4.819   3.312
 1220SOL    HW1 4559   1.064   4.777   3.304
 1220SOL    HW2 4560   1.204   4.778   3.389
 1221SOL     OW 4561   5.999   3.987   5.974
 1221SOL    HW1 4562   5.902   3.982   5.950
 1221SOL    HW2 4563   6.053   3.938   5.906
 1222SOL     OW 4564   6.554   6.760   6.634
 1222SOL    HW1 4565   6.596   6.775   6.544
 1222SOL    HW2 4566   6.481   6.826   6.648
 1223SOL     OW 4567   4.004   0.657   0.872
 1223SOL    HW1 4568   3.962   0.668   0.963
 1223SOL    HW2 4569   3.957   0.717   0.807
 1224SOL     OW 4570   3.025   5.387   0.047
 1224SOL    HW1 4571   2.947   5.399   7.009
 1224SOL    HW2 4572   2.995   5.397   0.142
 1225SOL     OW 4573   3.423   3.320   6.842
 1225SOL    HW1 4574   3.441   3.417   6.858
 1225SOL    HW2 4575   3.326   3.307   6.823
 1226SOL     OW 4576   2.322   5.247   1.132
 1226SOL    HW1 4577   2.328   5.190   1.214
 1226SOL    HW2 4578   2.293   5.191   1.055
 1227SOL     OW 4579   6.839   3.871   0.158
 1227SOL    HW1 4580   6.772   3.932   0.201
 1227SOL    HW2 4581   6.825   3.870   0.059
 1228SOL     OW 4582   4.702   2.588   6.484
 1228SOL    HW1 4583   4.750   2.567   6.569
 1228SOL    HW2 4584   4.614   2.630   6.505
 1229SOL     OW 4585   3.732   5.218   6.227
 1229SOL    HW1 4586   3.793   5.258   6.295
 1229SOL    HW2 4587   3.716   5.122   6.249
 1230SOL     OW 4588   4.698   0.276   3.298
 1230SOL    HW1 4589   4.775   0.230   3.341
 1230SOL    HW2 4590   4.613   0.237   3.332
 1231SOL     OW 4591   1.488   3.468   4.140
 1231SOL    HW1 4592   1.525   3.424   4.058
 1231SOL    HW2 4593   1.501   3.567   4.133
 1232SOL     OW 4594   0.428   2.442   5.850
 1232SOL    HW1 4595   0.526   2.450   5.865
 1232SOL    HW2 4596   0.410   2.375   5.778
 1233SOL     OW 4597   1.340   3.703   3.965
 1233SOL    HW1 4598   1.244   3.726   3.977
 1233SOL    HW2 4599   1.349   3.626   3.901
 1234SOL     OW 4600   6.248   4.058   4.896
 1234SOL    HW1 4601   6.264   3.978   4.838
 1234SOL    HW2 4602   6.178   4.116   4.853
 1235SOL     OW 4603   6.853   5.653   2.307
 1235SOL    HW1 4604   6.945   5.691   2.311
 1235SOL    HW2 4605   6.801   5.682   2.387
 1236SOL     OW 4606   5.246   1.009   0.312
 1236SOL    HW1 4607   5.151   1.021   0.283
 1236SOL    HW2 4608   5.307   1.016   0.233
 1237SOL     OW 4609   1.868   4.824   5.530
 1237SOL    HW1 4610   1.856   4.729   5.502
 1237SOL    HW2 4611   1.840   4.835   5.625
 1238SOL     OW 4612   2.132   0.626   0.173
 1238SOL    HW1 4613   2.041   0.607   0.210
 1238SOL    HW2 4614   2.146   0.725   0.172
 1239SOL     OW 4615   6.872   6.747   6.498
 1239SOL    HW1 4616   6.962   6.728   6.459
 1239SOL    HW2 4617   6.802   6.732   6.428
 1240SOL     OW 4618   5.691   6.005   1.709
 1240SOL    HW1 4619   5.779   6.040   1.740
 1240SOL    HW2 4620   5.653   6.067   1.639
 1241SOL     OW 4621   6.347   4.327   4.126
 1241SOL    HW1 4622   6.343   4.387   4.206
 1241SOL    HW2 4623   6.319   4.235   4.153
 1242SOL     OW 4624   0.274   3.798   1.743
 1242SOL    HW1 4625   0.209   3.724   1.761
 1242SOL    HW2 4626   0.234   3.885   1.774
 1243SOL     OW 4627   0.484   6.765   5.095
 1243SOL    HW1 4628   0.532   6.794   5.012
 1243SOL    HW2 4629   0.547   6.713   5.154
 1244SOL     OW 4630   6.602   6.784   3.785
 1244SOL    HW1 4631   6.633   6.869   3.827
 1244SOL    HW2 4632   6.613   6.789   3.686
 1245SOL     OW 4633   4.985   4.269   6.235
 1245SOL    HW1 4634   4.964   4.299   6.328
 1245SOL    HW2 4635   4.902   4.271   6.180
 1246SOL     OW 4636   2.099   6.207   1.363
 1246SOL    HW1 4637   2.037   6.132   1.388
 1246SOL    HW2 4638   2.072   6.243   1.274
 1247SOL     OW 4639   2.837   0.152   6.538
 1247SOL    HW1 4640   2.776   0.076   6.559
 1247SOL    HW2 4641   2.844   0.162   6.439
 1248SOL     OW 4642   2.444   0.033   4.374
 1248SOL    HW1 4643   2.542   0.047   4.387
 1248SOL    HW2 4644   2.407   0.101   4.311
 1249SOL     OW 4645   5.662   2.296   2.094
 1249SOL    HW1 4646   5.664   2.239   2.012
 1249SOL    HW2 4647   5.756   2.319   2.121
 1250SOL     OW 4648   6.691   4.938   4.519
 1250SOL    HW1 4649   6.761   4.867   4.511
 1250SOL    HW2 4650   6.671   4.976   4.429
 1251SOL     OW 4651   2.776   6.582   4.322
 1251SOL    HW1 4652   2.800   6.518   4.248
 1251SOL    HW2 4653   2.766   6.674   4.284
 1252SOL     OW 4654   3.650   3.553   5.781
 1252SOL    HW1 4655   3.677   3.500   5.861
 1252SOL    HW2 4656   3.730   3.594   5.739
 1253SOL     OW 4657   3.363   5.206   1.292
 1253SOL    HW1 4658   3.380   5.165   1.382
 1253SOL    HW2 4659   3.282   5.264   1.297
 1254SOL     OW 4660   6.650   3.408   2.324
 1254SOL    HW1 4661   6.694   3.322   2.352
 1254SOL    HW2 4662   6.625   3.403   2.227
 1255SOL     OW 4663   6.539   1.969   4.787
 1255SOL    HW1 4664   6.541   1.978   4.687
 1255SOL    HW2 4665   6.571   1.878   4.813
 1256SOL     OW 4666   6.557   6.840   3.454
 1256SOL    HW1 4667   6.504   6.807   3.376
 1256SOL    HW2 4668   6.584   6.762   3.511
 1257SOL     OW 4669   6.239   6.868   3.839
 1257SOL    HW1 4670   6.287   6.784   3.865
 1257SOL    HW2 4671   6.251   6.884   3.741
 1258SOL     OW 4672   1.221   5.314   3.632
 1258SOL    HW1 4673   1.198   5.339   3.538
 1258SOL    HW2 4674   1.319   5.292   3.637
 1259SOL     OW 4675   3.535   1.741   4.214
 1259SOL    HW1 4676   3.469   1.770   4.284
 1259SOL    HW2 4677   3.519   1.791   4.129
 1260SOL     OW 4678   1.531   1.492   6.427
 1260SOL    HW1 4679   1.469   1.565   6.456
 1260SOL    HW2 4680   1.538   1.424   6.500
 1261SOL     OW 4681   6.856   5.803   6.561
 1261SOL    HW1 4682   6.756   5.802   6.551
 1261SOL    HW2 4683   6.889   5.897   6.551
 1262SOL     OW 4684   5.300   5.271   1.301
 1262SOL    HW1 4685   5.385   5.318   1.323
 1262SOL    HW2 4686   5.225   5.338   1.297
 1263SOL     OW 4687   0.292   1.009   2.619
 1263SOL    HW1 4688   0.267   0.929   2.673
 1263SOL    HW2 4689   0.244   1.006   2.531
 1264SOL     OW 4690   0.446   4.013   6.360
 1264SOL    HW1 4691   0.522   4.018   6.295
 1264SOL    HW2 4692   0.406   4.104   6.370
 1265SOL     OW 4693   6.055   5.019   4.617
 1265SOL    HW1 4694   6.141   5.032   4.568
 1265SOL    HW2 4695   6.067   4.951   4.689
 1266SOL     OW 4696   0.509   0.538   4.109
 1266SOL    HW1 4697   0.456   0.611   4.065
 1266SOL    HW2 4698   0.489   0.451   4.064
 1267SOL     OW 4699   4.852   1.354   1.643
 1267SOL    HW1 4700   4.890   1.368   1.735
 1267SOL    HW2 4701   4.888   1.268   1.606
 1268SOL     OW 4702   2.643   2.845   6.669
 1268SOL    HW1 4703   2.740   2.836   6.644
 1268SOL    HW2 4704   2.631   2.819   6.764
 1269SOL     OW 4705   5.779   2.912   3.767
 1269SOL    HW1 4706   5.774   2.940   3.671
 1269SOL    HW2 4707   5.788   2.993   3.825
 1270SOL     OW 4708   2.286   4.717   2.247
 1270SOL    HW1 4709   2.356   4.788   2.256
 1270SOL    HW2 4710   2.318   4.632   2.288
 1271SOL     OW 4711   3.378   1.183   1.992
 1271SOL    HW1 4712   3.415   1.201   1.901
 1271SOL    HW2 4713   3.369   1.084   2.005
 1272SOL     OW 4714   6.249   4.529   6.651
 1272SOL    HW1 4715   6.171   4.522   6.714
 1272SOL    HW2 4716   6.222   4.493   6.562
 1273SOL     OW 4717   1.330   3.729   5.234
 1273SOL    HW1 4718   1.320   3.699   5.329
 1273SOL    HW2 4719   1.268   3.676   5.176
 1274SOL     OW 4720   0.519   4.666   1.011
 1274SOL    HW1 4721   0.499   4.570   1.028
 1274SOL    HW2 4722   0.487   4.721   1.089
 1275SOL     OW 4723   3.283   0.699   3.234
 1275SOL    HW1 4724   3.286   0.685   3.333
 1275SOL    HW2 4725   3.295   0.796   3.213
 1276SOL     OW 4726   5.521   5.359   4.727
 1276SOL    HW1 4727   5.504   5.379   4.631
 1276SOL    HW2 4728   5.469   5.423   4.784
 1277SOL     OW 4729   1.586   5.303   0.188
 1277SOL    HW1 4730   1.533   5.219   0.193
 1277SOL    HW2 4731   1.604   5.326   0.092
 1278SOL     OW 4732   1.297   0.047   4.136
 1278SOL    HW1 4733   1.241   0.116   4.181
 1278SOL    HW2 4734   1.239   7.011   4.079
 1279SOL     OW 4735   2.325   4.303   6.023
 1279SOL    HW1 4736   2.409   4.280   6.072
 1279SOL    HW2 4737   2.337   4.391   5.975
 1280SOL     OW 4738   4.381   0.239   4.015
 1280SOL    HW1 4739   4.386   0.338   4.003
 1280SOL    HW2 4740   4.424   0.214   4.102
 1281SOL     OW 4741   2.939   6.067   3.643
 1281SOL    HW1 4742   3.025   6.018   3.631
 1281SOL    HW2 4743   2.896   6.083   3.554
 1282SOL     OW 4744   7.002   2.639   6.915
 1282SOL    HW1 4745   0.005   2.549   6.881
 1282SOL    HW2 4746   6.924   2.674   6.863
 1283SOL     OW 4747   6.425   3.680   5.468
 1283SOL    HW1 4748   6.497   3.614   5.444
 1283SOL    HW2 4749   6.351   3.632   5.516
 1284SOL     OW 4750   3.823   0.696   1.088
 1284SOL    HW1 4751   3.824   0.790   1.122
 1284SOL    HW2 4752   3.729   0.663   1.081
 1285SOL     OW 4753   4.489   1.193   5.248
 1285SOL    HW1 4754   4.454   1.247   5.324
 1285SOL    HW2 4755   4.585   1.218   5.232
 1286SOL     OW 4756   4.306   2.311   0.834
 1286SOL    HW1 4757   4.336   2.222   0.868
 1286SOL    HW2 4758   4.376   2.348   0.773
 1287SOL     OW 4759   5.204   4.829   5.141
 1287SOL    HW1 4760   5.182   4.814   5.044
 1287SOL    HW2 4761   5.133   4.886   5.183
 1288SOL     OW 4762   4.313   4.945   5.476
 1288SOL    HW1 4763   4.315   5.019   5.410
 1288SOL    HW2 4764   4.295   4.981   5.567
 1289SOL     OW 4765   0.298   0.851   2.096
 1289SOL    HW1 4766   0.251   0.771   2.135
 1289SOL    HW2 4767   0.243   0.933   2.113
 1290SOL     OW 4768   1.551   0.180   1.162
 1290SOL    HW1 4769   1.524   0.142   1.073
 1290SOL    HW2 4770   1.489   0.255   1.185
 1291SOL     OW 4771   0.246   4.815   4.556
 1291SOL    HW1 4772   0.222   4.760   4.476
 1291SOL    HW2 4773   0.206   4.906   4.548
 1292SOL     OW 4774   0.799   5.552   2.246
 1292SOL    HW1 4775   0.813   5.553   2.147
 1292SOL    HW2 4776   0.852   5.477   2.286
 1293SOL     OW 4777   2.738   2.012   0.262
 1293SOL    HW1 4778   2.757   2.007   0.360
 1293SOL    HW2 4779   2.715   1.921   0.228
 1294SOL     OW 4780   1.488   4.115   6.247
 1294SOL    HW1 4781   1.418   4.096   6.177
 1294SOL    HW2 4782   1.449   4.174   6.318
 1295SOL     OW 4783   0.451   3.003   0.989
 1295SOL    HW1 4784   0.486   2.989   0.897
 1295SOL    HW2 4785   0.356   3.035   0.984
 1296SOL     OW 4786   4.652   6.883   5.182
 1296SOL    HW1 4787   4.569   6.927   5.216
 1296SOL    HW2 4788   4.658   6.790   5.219
 1297SOL     OW 4789   1.084   6.473   1.593
 1297SOL    HW1 4790   1.147   6.471   1.515
 1297SOL    HW2 4791   1.061   6.568   1.614
 1298SOL     OW 4792   5.004   5.954   3.476
 1298SOL    HW1 4793   4.964   6.038   3.513
 1298SOL    HW2 4794   4.934   5.882   3.473
 1299SOL     OW 4795   2.158   2.634   3.857
 1299SOL    HW1 4796   2.169   2.564   3.787
 1299SOL    HW2 4797   2.072   2.684   3.842
 1300SOL     OW 4798   1.842   3.303   1.723
 1300SOL    HW1 4799   1.913   3.373   1.732
 1300SOL    HW2 4800   1.874   3.230   1.664
 1301SOL     OW 4801   1.030   6.862   1.920
 1301SOL    HW1 4802   1.020   6.936   1.854
 1301SOL    HW2 4803   0.940   6.836   1.955
 1302SOL     OW 4804   5.297   0.465   5.310
 1302SOL    HW1 4805   5.397   0.461   5.310
 1302SOL    HW2 4806   5.268   0.561   5.309
 1303SOL     OW 4807   4.216   0.694   2.015
 1303SOL    HW1 4808   4.161   0.734   2.088
 1303SOL    HW2 4809   4.291   0.641   2.054
 1304SOL     OW 4810   2.102   1.269   1.522
 1304SOL    HW1 4811   2.140   1.265   1.614
 1304SOL    HW2 4812   2.124   1.185   1.473
 1305SOL     OW 4813   5.861   4.038   6.592
 1305SOL    HW1 4814   5.795   4.009   6.662
 1305SOL    HW2 4815   5.850   3.980   6.511
 1306SOL     OW 4816   1.662   5.867   4.648
 1306SOL    HW1 4817   1.677   5.773   4.618
 1306SOL    HW2 4818   1.642   5.925   4.568
 1307SOL     OW 4819   2.167   3.284   4.216
 1307SOL    HW1 4820   2.173   3.371   4.265
 1307SOL    HW2 4821   2.088   3.233   4.249
 1308SOL     OW 4822   6.762   6.995   6.098
 1308SOL    HW1 4823   6.734   7.019   6.191
 1308SOL    HW2 4824   6.685   7.008   6.036
 1309SOL     OW 4825   5.363   4.603   5.485
 1309SOL    HW1 4826   5.340   4.598   5.388
 1309SOL    HW2 4827   5.321   4.685   5.525
 1310SOL     OW 4828   0.632   4.703   3.552
 1310SOL    HW1 4829   0.547   4.659   3.581
 1310SOL    HW2 4830   0.708   4.670   3.608
 1311SOL     OW 4831   6.433   5.942   6.150
 1311SOL    HW1 4832   6.518   5.894   6.128
 1311SOL    HW2 4833   6.356   5.878   6.142
 1312SOL     OW 4834   1.770   0.208   0.112
 1312SOL    HW1 4835   1.766   0.125   0.056
 1312SOL    HW2 4836   1.731   0.284   0.061
 1313SOL     OW 4837   6.629   4.979   2.461
 1313SOL    HW1 4838   6.562   4.905   2.472
 1313SOL    HW2 4839   6.691   4.979   2.539
 1314SOL     OW 4840   3.186   1.870   4.516
 1314SOL    HW1 4841   3.282   1.847   4.497
 1314SOL    HW2 4842   3.171   1.967   4.495
 1315SOL     OW 4843   6.887   0.563   3.743
 1315SOL    HW1 4844   6.915   0.575   3.647
 1315SOL    HW2 4845   6.880   0.652   3.787
 1316SOL     OW 4846   3.534   0.179   4.874
 1316SOL    HW1 4847   3.542   0.267   4.826
 1316SOL    HW2 4848   3.535   0.194   4.972
 1317SOL     OW 4849   1.328   4.186   5.064
 1317SOL    HW1 4850   1.282   4.259   5.113
 1317SOL    HW2 4851   1.354   4.113   5.128
 1318SOL     OW 4852   1.584   2.409   6.922
 1318SOL    HW1 4853   1.506   2.372   6.972
 1318SOL    HW2 4854   1.626   2.336   6.868
 1319SOL     OW 4855   0.386   5.491   6.933
 1319SOL    HW1 4856   0.464   5.434   6.957
 1319SOL    HW2 4857   0.349   5.462   6.845
 1320SOL     OW 4858   2.950   2.594   7.002
 1320SOL    HW1 4859   2.854   2.567   7.006
 1320SOL    HW2 4860   2.957   2.694   7.007
 1321SOL     OW 4861   4.879   2.465   6.284
 1321SOL    HW1 4862   4.791   2.486   6.325
 1321SOL    HW2 4863   4.952   2.484   6.350
 1322SOL     OW 4864   3.975   1.596   4.342
 1322SOL    HW1 4865   3.936   1.687   4.326
 1322SOL    HW2 4866   4.066   1.591   4.299
 1323SOL     OW 4867   3.556   6.124   0.595
 1323SOL    HW1 4868   3.485   6.054   0.597
 1323SOL    HW2 4869   3.577   6.149   0.500
 1324SOL     OW 4870   0.358   3.594   0.484
 1324SOL    HW1 4871   0.374   3.580   0.387
 1324SOL    HW2 4872   0.440   3.635   0.526
 1325SOL     OW 4873   4.118   6.264   4.899
 1325SOL    HW1 4874   4.039   6.259   4.960
 1325SOL    HW2 4875   4.170   6.347   4.918
 1326SOL     OW 4876   4.783   4.003   5.319
 1326SOL    HW1 4877   4.875   4.032   5.292
 1326SOL    HW2 4878   4.776   3.904   5.307
 1327SOL     OW 4879   0.760   6.365   1.097
 1327SOL    HW1 4880   0.830   6.397   1.160
 1327SOL    HW2 4881   0.705   6.443   1.066
 1328SOL     OW 4882   2.233   3.043   6.825
 1328SOL    HW1 4883   2.165   2.973   6.803
 1328SOL    HW2 4884   2.292   3.057   6.746
 1329SOL     OW 4885   6.806   2.324   2.917
 1329SOL    HW1 4886   6.734   2.339   2.985
 1329SOL    HW2 4887   6.793   2.234   2.874
 1330SOL     OW 4888   0.951   2.108   0.916
 1330SOL    HW1 4889   0.942   2.206   0.902
 1330SOL    HW2 4890   0.889   2.060   0.854
 1331SOL     OW 4891   4.630   2.624   2.989
 1331SOL    HW1 4892   4.600   2.607   3.082
 1331SOL    HW2 4893   4.647   2.721   2.976
 1332SOL     OW 4894   2.569   6.949   0.406
 1332SOL    HW1 4895   2.652   6.997   0.434
 1332SOL    HW2 4896   2.574   6.853   0.431
 1333SOL     OW 4897   2.928   3.668   3.465
 1333SOL    HW1 4898   3.014   3.619   3.449
 1333SOL    HW2 4899   2.865   3.611   3.517
 1334SOL     OW 4900   6.244   1.495   3.833
 1334SOL    HW1 4901   6.271   1.471   3.926
 1334SOL    HW2 4902   6.263   1.418   3.772
 1335SOL     OW 4903   2.120   2.281   2.104
 1335SOL    HW1 4904   2.193   2.244   2.046
 1335SOL    HW2 4905   2.158   2.348   2.167
 1336SOL     OW 4906   4.030   1.424   5.416
 1336SOL    HW1 4907   4.013   1.491   5.489
 1336SOL    HW2 4908   4.096   1.356   5.449
 1337SOL     OW 4909   6.748   1.417   3.046
 1337SOL    HW1 4910   6.819   1.444   3.111
 1337SOL    HW2 4911   6.790   1.392   2.959
 1338SOL     OW 4912   0.285   3.822   4.121
 1338SOL    HW1 4913   0.379   3.856   4.132
 1338SOL    HW2 4914   0.240   3.819   4.209
 1339SOL     OW 4915   6.376   0.796   0.145
 1339SOL    HW1 4916   6.462   0.784   0.195
 1339SOL    HW2 4917   6.300   0.795   0.210
 1340SOL     OW 4918   5.628   1.434   2.551
 1340SOL    HW1 4919   5.609   1.429   2.453
 1340SOL    HW2 4920   5.601   1.349   2.595
 1341SOL     OW 4921   4.074   6.346   0.433
 1341SOL    HW1 4922   4.054   6.405   0.510
 1341SOL    HW2 4923   4.170   6.318   0.436
 1342SOL     OW 4924   2.801   5.376   6.443
 1342SOL    HW1 4925   2.856   5.301   6.405
 1342SOL    HW2 4926   2.855   5.460   6.442
 1343SOL     OW 4927   5.567   5.257   2.838
 1343SOL    HW1 4928   5.567   5.357   2.832
 1343SOL    HW2 4929   5.496   5.220   2.778
 1344SOL     OW 4930   0.318   6.528   4.249
 1344SOL    HW1 4931   0.405   6.480   4.237
 1344SOL    HW2 4932   0.246   6.480   4.199
 1345SOL     OW 4933   0.665   5.029   2.052
 1345SOL    HW1 4934   0.745   4.974   2.076
 1345SOL    HW2 4935   0.647   5.095   2.124
 1346SOL     OW 4936   1.948   5.540   6.209
 1346SOL    HW1 4937   1.876   5.509   6.148
 1346SOL    HW2 4938   2.000   5.614   6.165
 1347SOL     OW 4939   0.732   7.013   6.726
 1347SOL    HW1 4940   0.830   7.019   6.705
 1347SOL    HW2 4941   0.681   0.043   6.658
 1348SOL     OW 4942   6.691   6.536   5.378
 1348SOL    HW1 4943   6.670   6.633   5.369
 1348SOL    HW2 4944   6.609   6.487   5.409
 1349SOL     OW 4945   5.168   2.373   4.347
 1349SOL    HW1 4946   5.155   2.470   4.369
 1349SOL    HW2 4947   5.224   2.330   4.418
 1350SOL     OW 4948   4.527   5.152   5.934
 1350SOL    HW1 4949   4.615   5.153   5.886
 1350SOL    HW2 4950   4.531   5.085   6.008
 1351SOL     OW 4951   5.728   2.466   4.217
 1351SOL    HW1 4952   5.629   2.460   4.230
 1351SOL    HW2 4953   5.762   2.550   4.260
 1352SOL     OW 4954   6.620   6.379   3.756
 1352SOL    HW1 4955   6.592   6.285   3.738
 1352SOL    HW2 4956   6.720   6.383   3.765
 1353SOL     OW 4957   1.152   2.018   0.389
 1353SOL    HW1 4958   1.069   1.971   0.360
 1353SOL    HW2 4959   1.191   1.971   0.468
 1354SOL     OW 4960   6.774   4.216   1.803
 1354SOL    HW1 4961   6.840   4.281   1.765
 1354SOL    HW2 4962   6.815   4.124   1.805
 1355SOL     OW 4963   5.952   3.838   4.323
 1355SOL    HW1 4964   5.881   3.905   4.339
 1355SOL    HW2 4965   5.914   3.746   4.333
 1356SOL     OW 4966   3.629   3.015   1.967
 1356SOL    HW1 4967   3.671   2.998   2.057
 1356SOL    HW2 4968   3.543   3.065   1.980
 1357SOL     OW 4969   0.144   4.597   6.289
 1357SOL    HW1 4970   0.145   4.597   6.189
 1357SOL    HW2 4971   0.113   4.508   6.322
 1358SOL     OW 4972   6.423   6.291   0.323
 1358SOL    HW1 4973   6.398   6.203   0.363
 1358SOL    HW2 4974   6.340   6.338   0.292
 1359SOL     OW 4975   6.315   4.539   2.271
 1359SOL    HW1 4976   6.407   4.573   2.294
 1359SOL    HW2 4977   6.280   4.484   2.347
 1360SOL     OW 4978   2.674   3.014   0.310
 1360SOL    HW1 4979   2.746   2.982   0.372
 1360SOL    HW2 4980   2.588   3.021   0.360
 1361SOL     OW 4981   6.624   4.419   4.690
 1361SOL    HW1 4982   6.709   4.366   4.683
 1361SOL    HW2 4983   6.582   4.403   4.779
 1362SOL     OW 4984   3.936   3.772   2.852
 1362SOL    HW1 4985   3.876   3.694   2.833
 1362SOL    HW2 4986   4.029   3.750   2.824
 1363SOL     OW 4987   0.288   5.523   4.327
 1363SOL    HW1 4988   0.352   5.474   4.386
 1363SOL    HW2 4989   0.291   5.621   4.348
 1364SOL     OW 4990   4.660   4.116   0.252
 1364SOL    HW1 4991   4.624   4.187   0.312
 1364SOL    HW2 4992   4.756   4.136   0.231
 1365SOL     OW 4993   0.681   4.500   6.542
 1365SOL    HW1 4994   0.712   4.471   6.452
 1365SOL    HW2 4995   0.760   4.519   6.601
 1366SOL     OW 4996   1.662   6.580   6.090
 1366SOL    HW1 4997   1.679   6.678   6.077
 1366SOL    HW2 4998   1.749   6.532   6.099
 1367SOL     OW 4999   2.016   0.815   2.391
 1367SOL    HW1 5000   1.951   0.834   2.317
 1367SOL    HW2 5001   2.099   0.774   2.353
 1368SOL     OW 5002   5.365   6.726   4.943
 1368SOL    HW1 5003   5.391   6.647   4.999
 1368SOL    HW2 5004   5.438   6.794   4.946
 1369SOL     OW 5005   1.924   6.492   3.223
 1369SOL    HW1 5006   1.876   6.445   3.148
 1369SOL    HW2 5007   1.863   6.500   3.301
 1370SOL     OW 5008   3.298   0.930   2.238
 1370SOL    HW1 5009   3.311   0.838   2.200
 1370SOL    HW2 5010   3.387   0.967   2.266
 1371SOL     OW 5011   4.492   1.529   4.621
 1371SOL    HW1 5012   4.450   1.568   4.703
 1371SOL    HW2 5013   4.533   1.441   4.643
 1372SOL     OW 5014   2.147   2.986   1.155
 1372SOL    HW1 5015   2.141   3.086   1.161
 1372SOL    HW2 5016   2.229   2.961   1.103
 1373SOL     OW 5017   6.499   4.453   0.611
 1373SOL    HW1 5018   6.517   4.428   0.706
 1373SOL    HW2 5019   6.437   4.386   0.570
 1374SOL     OW 5020   4.501   2.091   0.646
 1374SOL    HW1 5021   4.565   2.016   0.631
 1374SOL    HW2 5022   4.465   2.087   0.739
 1375SOL     OW 5023   0.038   5.249   6.074
 1375SOL    HW1 5024   6.993   5.278   6.142
 1375SOL    HW2 5025   0.075   5.160   6.100
 1376SOL     OW 5026   4.804   2.760   3.640
 1376SOL    HW1 5027   4.761   2.738   3.727
 1376SOL    HW2 5028   4.770   2.848   3.607
 1377SOL     OW 5029   0.379   4.187   6.127
 1377SOL    HW1 5030   0.466   4.235   6.116
 1377SOL    HW2 5031   0.354   4.144   6.041
 1378SOL     OW 5032   0.533   2.615   5.201
 1378SOL    HW1 5033   0.521   2.524   5.240
 1378SOL    HW2 5034   0.573   2.607   5.110
 1379SOL     OW 5035   3.460   6.648   2.621
 1379SOL    HW1 5036   3.554   6.618   2.633
 1379SOL    HW2 5037   3.424   6.614   2.534
 1380SOL     OW 5038   6.403   0.250   2.950
 1380SOL    HW1 5039   6.484   0.284   2.998
 1380SOL    HW2 5040   6.324   0.304   2.977
 1381SOL     OW 5041   5.116   2.675   0.073
 1381SOL    HW1 5042   5.178   2.621   0.015
 1381SOL    HW2 5043   5.162   2.695   0.159
 1382SOL     OW 5044   6.287   4.578   6.112
 1382SOL    HW1 5045   6.357   4.563   6.182
 1382SOL    HW2 5046   6.327   4.629   6.035
 1383SOL     OW 5047   0.777   1.202   0.523
 1383SOL    HW1 5048   0.698   1.261   0.534
 1383SOL    HW2 5049   0.826   1.227   0.439
 1384SOL     OW 5050   2.991   1.644   3.763
 1384SOL    HW1 5051   3.024   1.581   3.833
 1384SOL    HW2 5052   2.902   1.614   3.731
 1385SOL     OW 5053   6.600   2.696   3.124
 1385SOL    HW1 5054   6.587   2.698   3.223
 1385SOL    HW2 5055   6.567   2.781   3.084
 1386SOL     OW 5056   2.320   2.837   4.702
 1386SOL    HW1 5057   2.286   2.893   4.627
 1386SOL    HW2 5058   2.375   2.762   4.666
 1387SOL     OW 5059   3.312   0.274   4.377
 1387SOL    HW1 5060   3.306   0.274   4.477
 1387SOL    HW2 5061   3.247   0.340   4.340
 1388SOL     OW 5062   6.439   0.041   4.328
 1388SOL    HW1 5063   6.384   0.124   4.321
 1388SOL    HW2 5064   6.436   0.007   4.422
 1389SOL     OW 5065   6.814   0.108   4.397
 1389SOL    HW1 5066   6.767   0.027   4.432
 1389SOL    HW2 5067   6.787   0.188   4.452
 1390SOL     OW 5068   4.128   1.378   0.549
 1390SOL    HW1 5069   4.044   1.345   0.593
 1390SOL    HW2 5070   4.131   1.478   0.553
 1391SOL     OW 5071   6.188   1.132   5.756
 1391SOL    HW1 5072   6.137   1.087   5.829
 1391SOL    HW2 5073   6.124   1.182   5.697
 1392SOL     OW 5074   4.867   5.988   5.811
 1392SOL    HW1 5075   4.966   5.986   5.822
 1392SOL    HW2 5076   4.824   5.964   5.898
 1393SOL     OW 5077   6.876   1.698   6.528
 1393SOL    HW1 5078   6.930   1.616   6.508
 1393SOL    HW2 5079   6.875   1.714   6.627
 1394SOL     OW 5080   4.093   6.133   3.202
 1394SOL    HW1 5081   4.004   6.105   3.238
 1394SOL    HW2 5082   4.143   6.052   3.171
 1395SOL     OW 5083   0.739   4.041   2.788
 1395SOL    HW1 5084   0.739   4.105   2.712
 1395SOL    HW2 5085   0.684   4.078   2.863
 1396SOL     OW 5086   1.923   1.162   4.621
 1396SOL    HW1 5087   1.893   1.163   4.717
 1396SOL    HW2 5088   1.987   1.238   4.606
 1397SOL     OW 5089   0.182   5.363   4.967
 1397SOL    HW1 5090   0.118   5.437   4.947
 1397SOL    HW2 5091   0.259   5.399   5.019
 1398SOL     OW 5092   1.842   1.225   0.169
 1398SOL    HW1 5093   1.821   1.154   0.237
 1398SOL    HW2 5094   1.933   1.262   0.187
 1399SOL     OW 5095   3.899   6.849   0.763
 1399SOL    HW1 5096   3.952   6.783   0.711
 1399SOL    HW2 5097   3.823   6.882   0.707
 1400SOL     OW 5098   6.842   0.534   4.333
 1400SOL    HW1 5099   6.847   0.462   4.403
 1400SOL    HW2 5100   6.767   0.597   4.356
 1401SOL     OW 5101   5.329   0.042   4.352
 1401SOL    HW1 5102   5.425   0.029   4.324
 1401SOL    HW2 5103   5.319   0.018   4.449
 1402SOL     OW 5104   5.515   4.015   1.561
 1402SOL    HW1 5105   5.524   4.011   1.661
 1402SOL    HW2 5106   5.419   4.019   1.536
 1403SOL     OW 5107   3.536   3.377   0.139
 1403SOL    HW1 5108   3.531   3.393   0.040
 1403SOL    HW2 5109   3.622   3.331   0.161
 1404SOL     OW 5110   4.864   0.287   1.403
 1404SOL    HW1 5111   4.770   0.264   1.375
 1404SOL    HW2 5112   4.896   0.364   1.348
 1405SOL     OW 5113   2.053   3.515   0.951
 1405SOL    HW1 5114   1.972   3.549   0.998
 1405SOL    HW2 5115   2.072   3.572   0.872
 1406SOL     OW 5116   2.417   3.531   1.494
 1406SOL    HW1 5117   2.338   3.471   1.505
 1406SOL    HW2 5118   2.496   3.478   1.463
 1407SOL     OW 5119   0.887   3.543   1.760
 1407SOL    HW1 5120   0.792   3.568   1.776
 1407SOL    HW2 5121   0.900   3.519   1.664
 1408SOL     OW 5122   5.968   5.891   6.518
 1408SOL    HW1 5123   5.933   5.984   6.506
 1408SOL    HW2 5124   5.963   5.843   6.430
 1409SOL     OW 5125   0.218   1.160   5.793
 1409SOL    HW1 5126   0.172   1.082   5.750
 1409SOL    HW2 5127   0.300   1.183   5.742
 1410SOL     OW 5128   2.814   2.674   5.858
 1410SOL    HW1 5129   2.864   2.698   5.774
 1410SOL    HW2 5130   2.725   2.635   5.833
 1411SOL     OW 5131   3.952   5.686   0.209
 1411SOL    HW1 5132   4.008   5.610   0.175
 1411SOL    HW2 5133   3.948   5.682   0.309
 1412SOL     OW 5134   1.660   2.953   0.662
 1412SOL    HW1 5135   1.666   3.048   0.692
 1412SOL    HW2 5136   1.620   2.897   0.735
 1413SOL     OW 5137   2.083   1.622   5.283
 1413SOL    HW1 5138   2.144   1.543   5.285
 1413SOL    HW2 5139   1.994   1.597   5.323
 1414SOL     OW 5140   0.785   3.607   2.452
 1414SOL    HW1 5141   0.750   3.522   2.414
 1414SOL    HW2 5142   0.802   3.595   2.550
 1415SOL     OW 5143   2.465   2.401   4.432
 1415SOL    HW1 5144   2.446   2.313   4.473
 1415SOL    HW2 5145   2.511   2.388   4.344
 1416SOL     OW 5146   4.071   6.982   6.238
 1416SOL    HW1 5147   3.975   7.007   6.223
 1416SOL    HW2 5148   4.088   6.892   6.197
 1417SOL     OW 5149   3.026   3.039   6.374
 1417SOL    HW1 5150   3.022   2.953   6.323
 1417SOL    HW2 5151   2.943   3.092   6.357
 1418SOL     OW 5152   3.346   3.775   0.066
 1418SOL    HW1 5153   3.282   3.813   7.022
 1418SOL    HW2 5154   3.415   3.844   0.088
 1419SOL     OW 5155   1.782   4.981   3.624
 1419SOL    HW1 5156   1.832   5.065   3.604
 1419SOL    HW2 5157   1.835   4.924   3.687
 1420SOL     OW 5158   3.722   5.082   2.511
 1420SOL    HW1 5159   3.651   5.138   2.470
 1420SOL    HW2 5160   3.717   4.989   2.475
 1421SOL     OW 5161   0.888   4.839   5.305
 1421SOL    HW1 5162   0.845   4.757   5.343
 1421SOL    HW2 5163   0.879   4.915   5.369
 1422SOL     OW 5164   2.759   4.048   5.987
 1422SOL    HW1 5165   2.770   4.055   5.887
 1422SOL    HW2 5166   2.836   4.094   6.031
 1423SOL     OW 5167   4.253   1.462   4.796
 1423SOL    HW1 5168   4.242   1.435   4.892
 1423SOL    HW2 5169   4.188   1.535   4.773
 1424SOL     OW 5170   6.226   2.620   6.897
 1424SOL    HW1 5171   6.166   2.544   6.921
 1424SOL    HW2 5172   6.219   2.640   6.799
 1425SOL     OW 5173   3.726   6.219   4.565
 1425SOL    HW1 5174   3.821   6.189   4.573
 1425SOL    HW2 5175   3.665   6.140   4.569
 1426SOL     OW 5176   2.383   1.706   6.253
 1426SOL    HW1 5177   2.390   1.607   6.266
 1426SOL    HW2 5178   2.472   1.743   6.228
 1427SOL     OW 5179   1.109   1.384   3.063
 1427SOL    HW1 5180   1.173   1.365   3.137
 1427SOL    HW2 5181   1.017   1.396   3.101
 1428SOL     OW 5182   0.078   2.813   2.800
 1428SOL    HW1 5183   0.061   2.743   2.731
 1428SOL    HW2 5184   0.172   2.807   2.832
 1429SOL     OW 5185   6.116   1.704   0.476
 1429SOL    HW1 5186   6.148   1.691   0.382
 1429SOL    HW2 5187   6.040   1.642   0.495
 1430SOL     OW 5188   2.173   3.990   3.631
 1430SOL    HW1 5189   2.157   3.983   3.729
 1430SOL    HW2 5190   2.217   4.078   3.611
 1431SOL     OW 5191   2.416   1.171   5.728
 1431SOL    HW1 5192   2.392   1.220   5.812
 1431SOL    HW2 5193   2.512   1.145   5.731
 1432SOL     OW 5194   2.383   1.328   0.900
 1432SOL    HW1 5195   2.325   1.369   0.971
 1432SOL    HW2 5196   2.371   1.378   0.814
 1433SOL     OW 5197   3.067   0.390   4.364
 1433SOL    HW1 5198   3.032   0.296   4.366
 1433SOL    HW2 5199   3.014   0.447   4.427
 1434SOL     OW 5200   6.997   2.708   6.114
 1434SOL    HW1 5201   6.918   2.732   6.059
 1434SOL    HW2 5202   7.008   2.775   6.187
 1435SOL     OW 5203   0.050   0.247   3.652
 1435SOL    HW1 5204   0.123   0.266   3.585
 1435SOL    HW2 5205   0.044   0.323   3.716
 1436SOL     OW 5206   5.730   2.502   0.695
 1436SOL    HW1 5207   5.683   2.485   0.608
 1436SOL    HW2 5208   5.684   2.452   0.768
 1437SOL     OW 5209   4.549   1.309   6.428
 1437SOL    HW1 5210   4.620   1.246   6.457
 1437SOL    HW2 5211   4.484   1.261   6.368
 1438SOL     OW 5212   2.853   0.701   1.774
 1438SOL    HW1 5213   2.880   0.717   1.869
 1438SOL    HW2 5214   2.856   0.787   1.723
 1439SOL     OW 5215   6.889   5.624   6.855
 1439SOL    HW1 5216   6.910   5.539   6.808
 1439SOL    HW2 5217   6.947   5.697   6.820
 1440SOL     OW 5218   3.421   2.957   3.994
 1440SOL    HW1 5219   3.333   2.936   4.036
 1440SOL    HW2 5220   3.418   2.935   3.897
 1441SOL     OW 5221   6.580   3.119   4.396
 1441SOL    HW1 5222   6.586   3.115   4.297
 1441SOL    HW2 5223   6.520   3.046   4.429
 1442SOL     OW 5224   5.085   4.258   0.750
 1442SOL    HW1 5225   5.173   4.305   0.746
 1442SOL    HW2 5226   5.095   4.166   0.711
 1443SOL     OW 5227   0.882   1.236   3.562
 1443SOL    HW1 5228   0.912   1.213   3.655
 1443SOL    HW2 5229   0.899   1.333   3.544
 1444SOL     OW 5230   4.443   0.385   3.568
 1444SOL    HW1 5231   4.460   0.388   3.666
 1444SOL    HW2 5232   4.462   0.294   3.533
 1445SOL     OW 5233   0.333   2.664   1.295
 1445SOL    HW1 5234   0.305   2.574   1.263
 1445SOL    HW2 5235   0.427   2.660   1.329
 1446SOL     OW 5236   4.236   1.991   1.544
 1446SOL    HW1 5237   4.298   2.037   1.607
 1446SOL    HW2 5238   4.164   2.055   1.516
 1447SOL     OW 5239   6.691   1.020   5.294
 1447SOL    HW1 5240   6.628   0.942   5.292
 1447SOL    HW2 5241   6.718   1.043   5.201
 1448SOL     OW 5242   5.408   1.360   0.228
 1448SOL    HW1 5243   5.400   1.419   0.148
 1448SOL    HW2 5244   5.352   1.278   0.215
 1449SOL     OW 5245   5.145   6.638   0.595
 1449SOL    HW1 5246   5.072   6.570   0.599
 1449SOL    HW2 5247   5.193   6.630   0.508
 1450SOL     OW 5248   5.771   3.020   2.540
 1450SOL    HW1 5249   5.783   3.079   2.461
 1450SOL    HW2 5250   5.742   2.929   2.511
 1451SOL     OW 5251   2.060   6.677   2.844
 1451SOL    HW1 5252   2.040   6.775   2.841
 1451SOL    HW2 5253   2.156   6.664   2.864
 1452SOL     OW 5254   5.300   0.554   4.990
 1452SOL    HW1 5255   5.282   0.511   5.078
 1452SOL    HW2 5256   5.293   0.486   4.917
 1453SOL     OW 5257   5.100   4.131   4.884
 1453SOL    HW1 5258   5.084   4.229   4.875
 1453SOL    HW2 5259   5.142   4.096   4.800
 1454SOL     OW 5260   5.233   2.975   1.661
 1454SOL    HW1 5261   5.154   3.008   1.608
 1454SOL    HW2 5262   5.211   2.886   1.701
 1455SOL     OW 5263   0.814   0.914   1.796
 1455SOL    HW1 5264   0.864   0.997   1.819
 1455SOL    HW2 5265   0.782   0.871   1.880
 1456SOL     OW 5266   6.843   6.994   4.695
 1456SOL    HW1 5267   6.751   6.973   4.663
 1456SOL    HW2 5268   6.891   0.024   4.626
 1457SOL     OW 5269   1.322   0.746   3.901
 1457SOL    HW1 5270   1.303   0.698   3.816
 1457SOL    HW2 5271   1.248   0.812   3.920
 1458SOL     OW 5272   5.083   6.823   6.081
 1458SOL    HW1 5273   5.104   6.853   5.988
 1458SOL    HW2 5274   5.044   6.900   6.133
 1459SOL     OW 5275   2.968   6.128   6.901
 1459SOL    HW1 5276   2.978   6.029   6.893
 1459SOL    HW2 5277   2.974   6.170   6.811
 1460SOL     OW 5278   0.977   6.479   6.914
 1460SOL    HW1 5279   1.069   6.510   6.934
 1460SOL    HW2 5280   0.975   6.379   6.912
 1461SOL     OW 5281   5.802   4.356   3.253
 1461SOL    HW1 5282   5.741   4.278   3.269
 1461SOL    HW2 5283   5.897   4.327   3.270
 1462SOL     OW 5284   6.451   0.986   0.978
 1462SOL    HW1 5285   6.379   1.009   1.044
 1462SOL    HW2 5286   6.510   1.066   0.965
 1463SOL     OW 5287   0.799   0.429   4.900
 1463SOL    HW1 5288   0.750   0.370   4.965
 1463SOL    HW2 5289   0.819   0.378   4.817
 1464SOL     OW 5290   0.425   6.477   0.460
 1464SOL    HW1 5291   0.446   6.440   0.550
 1464SOL    HW2 5292   0.510   6.492   0.410
 1465SOL     OW 5293   0.119   0.143   3.957
 1465SOL    HW1 5294   0.092   0.239   3.945
 1465SOL    HW2 5295   0.036   0.087   3.968
 1466SOL     OW 5296   6.451   5.616   2.415
 1466SOL    HW1 5297   6.441   5.631   2.317
 1466SOL    HW2 5298   6.380   5.667   2.464
 1467SOL     OW 5299   1.570   1.412   3.109
 1467SOL    HW1 5300   1.609   1.389   3.198
 1467SOL    HW2 5301   1.545   1.508   3.107
 1468SOL     OW 5302   5.599   5.656   3.831
 1468SOL    HW1 5303   5.513   5.639   3.783
 1468SOL    HW2 5304   5.676   5.626   3.774
 1469SOL     OW 5305   0.336   0.525   2.566
 1469SOL    HW1 5306   0.373   0.617   2.562
 1469SOL    HW2 5307   0.274   0.517   2.644
 1470SOL     OW 5308   1.122   1.103   2.970
 1470SOL    HW1 5309   1.122   1.198   3.003
 1470SOL    HW2 5310   1.167   1.045   3.038
 1471SOL     OW 5311   0.119   0.372   0.449
 1471SOL    HW1 5312   0.089   0.324   0.531
 1471SOL    HW2 5313   0.213   0.345   0.427
 1472SOL     OW 5314   4.529   0.424   5.451
 1472SOL    HW1 5315   4.537   0.481   5.369
 1472SOL    HW2 5316   4.614   0.372   5.463
 1473SOL     OW 5317   6.410   5.636   2.837
 1473SOL    HW1 5318   6.347   5.628   2.914
 1473SOL    HW2 5319   6.473   5.558   2.837
 1474SOL     OW 5320   6.250   5.661   4.401
 1474SOL    HW1 5321   6.332   5.612   4.372
 1474SOL    HW2 5322   6.169   5.607   4.376
 1475SOL     OW 5323   6.815   0.273   2.754
 1475SOL    HW1 5324   6.842   0.213   2.830
 1475SOL    HW2 5325   6.878   0.260   2.678
 1476SOL     OW 5326   1.733   1.319   2.141
 1476SOL    HW1 5327   1.725   1.227   2.105
 1476SOL    HW2 5328   1.791   1.374   2.080
 1477SOL     OW 5329   3.304   0.253   5.248
 1477SOL    HW1 5330   3.301   0.232   5.346
 1477SOL    HW2 5331   3.228   0.208   5.202
 1478SOL     OW 5332   6.394   5.187   1.079
 1478SOL    HW1 5333   6.377   5.275   1.034
 1478SOL    HW2 5334   6.491   5.179   1.100
 1479SOL     OW 5335   1.950   4.682   0.377
 1479SOL    HW1 5336   1.891   4.762   0.369
 1479SOL    HW2 5337   1.997   4.683   0.465
 1480SOL     OW 5338   1.972   1.211   6.536
 1480SOL    HW1 5339   1.911   1.132   6.527
 1480SOL    HW2 5340   1.919   1.290   6.567
 1481SOL     OW 5341   6.187   2.233   6.005
 1481SOL    HW1 5342   6.165   2.329   6.026
 1481SOL    HW2 5343   6.196   2.222   5.906
 1482SOL     OW 5344   5.201   0.704   0.716
 1482SOL    HW1 5345   5.221   0.713   0.619
 1482SOL    HW2 5346   5.174   0.794   0.753
 1483SOL     OW 5347   6.565   2.484   0.276
 1483SOL    HW1 5348   6.641   2.518   0.221
 1483SOL    HW2 5349   6.479   2.519   0.240
 1484SOL     OW 5350   6.805   4.293   2.244
 1484SOL    HW1 5351   6.794   4.271   2.341
 1484SOL    HW2 5352   6.738   4.241   2.190
 1485SOL     OW 5353   5.378   2.943   3.020
 1485SOL    HW1 5354   5.393   2.996   2.937
 1485SOL    HW2 5355   5.280   2.934   3.037
 1486SOL     OW 5356   4.895   2.499   2.989
 1486SOL    HW1 5357   4.889   2.423   2.926
 1486SOL    HW2 5358   4.805   2.542   2.999
 1487SOL     OW 5359   5.748   1.256   6.162
 1487SOL    HW1 5360   5.804   1.339   6.166
 1487SOL    HW2 5361   5.713   1.243   6.069
 1488SOL     OW 5362   4.712   0.760   2.960
 1488SOL    HW1 5363   4.795   0.816   2.963
 1488SOL    HW2 5364   4.657   0.777   3.042
 1489SOL     OW 5365   4.129   4.911   4.848
 1489SOL    HW1 5366   4.134   4.971   4.768
 1489SOL    HW2 5367   4.196   4.837   4.838
 1490SOL     OW 5368   1.134   1.199   0.480
 1490SOL    HW1 5369   1.225   1.234   0.458
 1490SOL    HW2 5370   1.113   1.219   0.576
 1491SOL     OW 5371   7.011   3.800   3.172
 1491SOL    HW1 5372   0.020   3.895   3.179
 1491SOL    HW2 5373   0.051   3.741   3.223
 1492SOL     OW 5374   5.217   2.058   1.104
 1492SOL    HW1 5375   5.243   1.985   1.167
 1492SOL    HW2 5376   5.124   2.043   1.071
 1493SOL     OW 5377   4.268   0.434   5.123
 1493SOL    HW1 5378   4.197   0.475   5.065
 1493SOL    HW2 5379   4.252   0.335   5.131
 1494SOL     OW 5380   3.789   2.596   6.073
 1494SOL    HW1 5381   3.791   2.621   5.976
 1494SOL    HW2 5382   3.694   2.583   6.101
 1495SOL     OW 5383   0.628   3.502   3.241
 1495SOL    HW1 5384   0.585   3.477   3.327
 1495SOL    HW2 5385   0.579   3.457   3.165
 1496SOL     OW 5386   6.580   0.062   2.316
 1496SOL    HW1 5387   6.640   0.029   2.243
 1496SOL    HW2 5388   6.635   0.094   2.393
 1497SOL     OW 5389   0.005   5.257   4.086
 1497SOL    HW1 5390   0.038   5.335   4.032
 1497SOL    HW2 5391   0.076   5.187   4.089
 1498SOL     OW 5392   2.166   4.960   6.400
 1498SOL    HW1 5393   2.068   4.957   6.378
 1498SOL    HW2 5394   2.178   4.951   6.499
 1499SOL     OW 5395   0.967   3.513   4.980
 1499SOL    HW1 5396   0.868   3.507   4.984
 1499SOL    HW2 5397   1.007   3.422   4.992
 1500SOL     OW 5398   5.385   6.987   0.501
 1500SOL    HW1 5399   5.421   7.017   0.413
 1500SOL    HW2 5400   5.345   0.042   0.549
 1501SOL     OW 5401   4.183   0.332   6.628
 1501SOL    HW1 5402   4.191   0.239   6.665
 1501SOL    HW2 5403   4.217   0.398   6.695
 1502SOL     OW 5404   6.589   6.310   0.079
 1502SOL    HW1 5405   6.546   6.331   0.167
 1502SOL    HW2 5406   6.601   6.394   0.027
 1503SOL     OW 5407   2.129   2.614   0.360
 1503SOL    HW1 5408   2.172   2.660   0.283
 1503SOL    HW2 5409   2.107   2.520   0.336
 1504SOL     OW 5410   2.975   6.942   4.580
 1504SOL    HW1 5411   3.070   6.911   4.571
 1504SOL    HW2 5412   2.921   6.872   4.627
 1505SOL     OW 5413   5.688   0.024   5.288
 1505SOL    HW1 5414   5.677   6.988   5.207
 1505SOL    HW2 5415   5.692   6.990   5.370
 1506SOL     OW 5416   0.874   5.440   3.557
 1506SOL    HW1 5417   0.837   5.381   3.628
 1506SOL    HW2 5418   0.838   5.412   3.468
 1507SOL     OW 5419   1.701   2.050   4.876
 1507SOL    HW1 5420   1.660   2.141   4.874
 1507SOL    HW2 5421   1.800   2.058   4.883
 1508SOL     OW 5422   4.384   0.020   0.787
 1508SOL    HW1 5423   4.288   7.017   0.782
 1508SOL    HW2 5424   4.397   0.110   0.746
 1509SOL     OW 5425   4.555   3.469   6.107
 1509SOL    HW1 5426   4.629   3.524   6.146
 1509SOL    HW2 5427   4.593   3.389   6.062
 1510SOL     OW 5428   0.236   2.395   4.299
 1510SOL    HW1 5429   0.248   2.366   4.394
 1510SOL    HW2 5430   0.149   2.444   4.290
 1511SOL     OW 5431   2.795   1.690   6.769
 1511SOL    HW1 5432   2.748   1.728   6.689
 1511SOL    HW2 5433   2.857   1.617   6.740
 1512SOL     OW 5434   0.160   0.384   1.596
 1512SOL    HW1 5435   0.121   0.365   1.506
 1512SOL    HW2 5436   0.225   0.460   1.589
 1513SOL     OW 5437   3.419   0.340   3.888
 1513SOL    HW1 5438   3.497   0.376   3.836
 1513SOL    HW2 5439   3.336   0.346   3.832
 1514SOL     OW 5440   5.778   1.729   5.467
 1514SOL    HW1 5441   5.805   1.780   5.549
 1514SOL    HW2 5442   5.732   1.644   5.494
 1515SOL     OW 5443   0.329   4.143   5.191
 1515SOL    HW1 5444   0.377   4.230   5.195
 1515SOL    HW2 5445   0.381   4.078   5.135
 1516SOL     OW 5446   0.767   1.669   0.968
 1516SOL    HW1 5447   0.791   1.715   1.054
 1516SOL    HW2 5448   0.836   1.691   0.899
 1517SOL     OW 5449   4.040   5.367   3.693
 1517SOL    HW1 5450   4.015   5.410   3.606
 1517SOL    HW2 5451   3.957   5.346   3.744
 1518SOL     OW 5452   6.799   4.323   0.388
 1518SOL    HW1 5453   6.755   4.339   0.300
 1518SOL    HW2 5454   6.775   4.231   0.421
 1519SOL     OW 5455   6.629   4.795   0.860
 1519SOL    HW1 5456   6.727   4.774   0.859
 1519SOL    HW2 5457   6.593   4.781   0.953
 1520SOL     OW 5458   1.994   3.379   2.557
 1520SOL    HW1 5459   2.001   3.340   2.465
 1520SOL    HW2 5460   2.038   3.319   2.623
 1521SOL     OW 5461   1.600   3.205   0.049
 1521SOL    HW1 5462   1.667   3.143   0.090
 1521SOL    HW2 5463   1.523   3.215   0.111
 1522SOL     OW 5464   6.744   1.914   6.397
 1522SOL    HW1 5465   6.778   1.851   6.467
 1522SOL    HW2 5466   6.798   1.902   6.313
 1523SOL     OW 5467   6.125   2.805   0.588
 1523SOL    HW1 5468   6.132   2.793   0.489
 1523SOL    HW2 5469   6.134   2.902   0.611
 1524SOL     OW 5470   0.377   1.653   1.648
 1524SOL    HW1 5471   0.460   1.678   1.698
 1524SOL    HW2 5472   0.297   1.677   1.703
 1525SOL     OW 5473   4.124   1.598   5.828
 1525SOL    HW1 5474   4.063   1.581   5.751
 1525SOL    HW2 5475   4.076   1.578   5.914
 1526SOL     OW 5476   0.401   1.612   1.388
 1526SOL    HW1 5477   0.399   1.626   1.487
 1526SOL    HW2 5478   0.351   1.686   1.343
 1527SOL     OW 5479   3.450   1.317   4.876
 1527SOL    HW1 5480   3.466   1.316   4.975
 1527SOL    HW2 5481   3.529   1.280   4.829
 1528SOL     OW 5482   4.709   6.342   2.675
 1528SOL    HW1 5483   4.740   6.341   2.770
 1528SOL    HW2 5484   4.674   6.433   2.653
 1529SOL     OW 5485   3.995   0.893   5.904
 1529SOL    HW1 5486   4.018   0.838   5.824
 1529SOL    HW2 5487   3.910   0.859   5.945
 1530SOL     OW 5488   3.013   6.550   2.124
 1530SOL    HW1 5489   2.961   6.539   2.209
 1530SOL    HW2 5490   3.010   6.465   2.072
 1531SOL     OW 5491   6.536   0.381   3.991
 1531SOL    HW1 5492   6.595   0.368   4.071
 1531SOL    HW2 5493   6.441   0.365   4.018
 1532SOL     OW 5494   3.376   2.227   5.329
 1532SOL    HW1 5495   3.311   2.261   5.261
 1532SOL    HW2 5496   3.352   2.264   5.419
 1533SOL     OW 5497   6.580   3.533   0.123
 1533SOL    HW1 5498   6.503   3.493   0.072
 1533SOL    HW2 5499   6.624   3.603   0.066
 1534SOL     OW 5500   1.675   6.066   0.468
 1534SOL    HW1 5501   1.731   5.983   0.457
 1534SOL    HW2 5502   1.730   6.146   0.446
 1535SOL     OW 5503   5.301   4.965   4.450
 1535SOL    HW1 5504   5.256   4.882   4.419
 1535SOL    HW2 5505   5.400   4.955   4.441
 1536SOL     OW 5506   2.332   5.720   4.185
 1536SOL    HW1 5507   2.344   5.666   4.102
 1536SOL    HW2 5508   2.401   5.792   4.188
 1537SOL     OW 5509   2.590   5.951   3.892
 1537SOL    HW1 5510   2.610   5.853   3.900
 1537SOL    HW2 5511   2.601   5.979   3.796
 1538SOL     OW 5512   2.451   4.525   6.906
 1538SOL    HW1 5513   2.491   4.487   6.824
 1538SOL    HW2 5514   2.394   4.456   6.951
 1539SOL     OW 5515   3.428   4.417   1.682
 1539SOL    HW1 5516   3.508   4.357   1.685
 1539SOL    HW2 5517   3.445   4.497   1.741
 1540SOL     OW 5518   0.759   0.024   4.610
 1540SOL    HW1 5519   0.759   6.990   4.527
 1540SOL    HW2 5520   0.851   0.026   4.649
 1541SOL     OW 5521   4.228   2.758   1.130
 1541SOL    HW1 5522   4.174   2.692   1.183
 1541SOL    HW2 5523   4.314   2.777   1.179
 1542SOL     OW 5524   0.495   6.114   1.429
 1542SOL    HW1 5525   0.465   6.143   1.519
 1542SOL    HW2 5526   0.570   6.173   1.398
 1543SOL     OW 5527   3.160   3.567   4.079
 1543SOL    HW1 5528   3.076   3.524   4.044
 1543SOL    HW2 5529   3.190   3.519   4.161
 1544SOL     OW 5530   3.071   4.034   2.294
 1544SOL    HW1 5531   3.148   4.058   2.354
 1544SOL    HW2 5532   3.078   4.086   2.209
 1545SOL     OW 5533   6.214   1.026   5.313
 1545SOL    HW1 5534   6.238   1.098   5.379
 1545SOL    HW2 5535   6.262   1.042   5.227
 1546SOL     OW 5536   6.287   6.993   6.248
 1546SOL    HW1 5537   6.325   6.917   6.195
 1546SOL    HW2 5538   6.236   0.031   6.188
 1547SOL     OW 5539   2.972   4.918   2.391
 1547SOL    HW1 5540   3.062   4.960   2.400
 1547SOL    HW2 5541   2.955   4.898   2.294
 1548SOL     OW 5542   4.092   4.795   5.328
 1548SOL    HW1 5543   4.173   4.825   5.379
 1548SOL    HW2 5544   4.040   4.729   5.382
 1549SOL     OW 5545   6.747   2.152   1.407
 1549SOL    HW1 5546   6.802   2.072   1.430
 1549SOL    HW2 5547   6.676   2.165   1.476
 1550SOL     OW 5548   2.191   6.358   5.188
 1550SOL    HW1 5549   2.098   6.321   5.182
 1550SOL    HW2 5550   2.200   6.434   5.124
 1551SOL     OW 5551   1.648   2.730   1.198
 1551SOL    HW1 5552   1.591   2.804   1.162
 1551SOL    HW2 5553   1.641   2.729   1.298
 1552SOL     OW 5554   1.602   0.517   1.265
 1552SOL    HW1 5555   1.531   0.476   1.323
 1552SOL    HW2 5556   1.689   0.471   1.283
 1553SOL     OW 5557   5.998   1.922   6.950
 1553SOL    HW1 5558   5.927   1.907   6.881
 1553SOL    HW2 5559   6.022   1.835   6.993
 1554SOL     OW 5560   4.313   2.335   3.259
 1554SOL    HW1 5561   4.367   2.395   3.199
 1554SOL    HW2 5562   4.349   2.242   3.253
 1555SOL     OW 5563   4.942   1.669   5.021
 1555SOL    HW1 5564   4.985   1.740   5.077
 1555SOL    HW2 5565   4.871   1.710   4.963
 1556SOL     OW 5566   3.812   0.554   0.527
 1556SOL    HW1 5567   3.716   0.584   0.526
 1556SOL    HW2 5568   3.831   0.501   0.445
 1557SOL     OW 5569   2.123   2.417   1.200
 1557SOL    HW1 5570   2.114   2.466   1.113
 1557SOL    HW2 5571   2.192   2.462   1.257
 1558SOL     OW 5572   6.495   3.030   5.488
 1558SOL    HW1 5573   6.504   3.125   5.460
 1558SOL    HW2 5574   6.508   3.022   5.587
 1559SOL     OW 5575   1.028   3.956   2.506
 1559SOL    HW1 5576   0.979   3.926   2.588
 1559SOL    HW2 5577   1.050   3.876   2.450
 1560SOL     OW 5578   3.852   1.578   0.479
 1560SOL    HW1 5579   3.838   1.518   0.401
 1560SOL    HW2 5580   3.791   1.657   0.472
 1561SOL     OW 5581   5.725   6.352   1.928
 1561SOL    HW1 5582   5.682   6.329   2.015
 1561SOL    HW2 5583   5.696   6.443   1.899
 1562SOL     OW 5584   2.970   6.831   2.240
 1562SOL    HW1 5585   3.016   6.820   2.328
 1562SOL    HW2 5586   3.036   6.821   2.166
 1563SOL     OW 5587   3.167   2.187   4.719
 1563SOL    HW1 5588   3.245   2.125   4.715
 1563SOL    HW2 5589   3.158   2.224   4.812
 1564SOL     OW 5590   1.490   2.068   2.153
 1564SOL    HW1 5591   1.436   1.984   2.146
 1564SOL    HW2 5592   1.579   2.047   2.193
 1565SOL     OW 5593   3.832   6.415   3.932
 1565SOL    HW1 5594   3.906   6.352   3.910
 1565SOL    HW2 5595   3.768   6.370   3.995
 1566SOL     OW 5596   5.069   4.787   3.576
 1566SOL    HW1 5597   5.028   4.802   3.666
 1566SOL    HW2 5598   5.015   4.832   3.506
 1567SOL     OW 5599   5.693   5.773   6.272
 1567SOL    HW1 5600   5.728   5.767   6.178
 1567SOL    HW2 5601   5.738   5.703   6.328
 1568SOL     OW 5602   1.966   6.517   3.624
 1568SOL    HW1 5603   1.999   6.436   3.672
 1568SOL    HW2 5604   1.890   6.492   3.564
 1569SOL     OW 5605   3.318   0.145   2.939
 1569SOL    HW1 5606   3.236   0.190   2.974
 1569SOL    HW2 5607   3.356   0.086   3.010
 1570SOL     OW 5608   3.130   6.969   6.862
 1570SOL    HW1 5609   3.203   6.957   6.930
 1570SOL    HW2 5610   3.126   6.889   6.803
 1571SOL     OW 5611   0.964   2.552   3.571
 1571SOL    HW1 5612   1.019   2.622   3.616
 1571SOL    HW2 5613   1.018   2.510   3.498
 1572SOL     OW 5614   2.061   4.788   1.605
 1572SOL    HW1 5615   2.018   4.701   1.629
 1572SOL    HW2 5616   1.993   4.850   1.566
 1573SOL     OW 5617   4.953   5.570   1.437
 1573SOL    HW1 5618   5.052   5.575   1.449
 1573SOL    HW2 5619   4.913   5.520   1.513
 1574SOL     OW 5620   6.227   3.226   2.146
 1574SOL    HW1 5621   6.214   3.227   2.245
 1574SOL    HW2 5622   6.184   3.307   2.105
 1575SOL     OW 5623   1.211   1.166   1.672
 1575SOL    HW1 5624   1.206   1.070   1.698
 1575SOL    HW2 5625   1.201   1.224   1.753
 1576SOL     OW 5626   0.408   6.213   2.383
 1576SOL    HW1 5627   0.381   6.298   2.428
 1576SOL    HW2 5628   0.451   6.234   2.295
 1577SOL     OW 5629   3.234   0.414   6.422
 1577SOL    HW1 5630   3.183   0.388   6.505
 1577SOL    HW2 5631   3.192   0.495   6.381
 1578SOL     OW 5632   4.023   0.991   0.574
 1578SOL    HW1 5633   3.969   1.056   0.521
 1578SOL    HW2 5634   3.962   0.933   0.629
 1579SOL     OW 5635   1.457   2.843   1.466
 1579SOL    HW1 5636   1.464   2.744   1.449
 1579SOL    HW2 5637   1.417   2.858   1.557
 1580SOL     OW 5638   3.325   3.730   3.177
 1580SOL    HW1 5639   3.258   3.731   3.251
 1580SOL    HW2 5640   3.289   3.780   3.099
 1581SOL     OW 5641   0.323   4.277   6.407
 1581SOL    HW1 5642   0.336   4.262   6.308
 1581SOL    HW2 5643   0.238   4.326   6.423
 1582SOL     OW 5644   4.477   6.199   5.618
 1582SOL    HW1 5645   4.409   6.127   5.631
 1582SOL    HW2 5646   4.559   6.177   5.670
 1583SOL     OW 5647   0.855   5.888   4.865
 1583SOL    HW1 5648   0.755   5.883   4.869
 1583SOL    HW2 5649   0.883   5.981   4.839
 1584SOL     OW 5650   1.448   5.508   6.750
 1584SOL    HW1 5651   1.382   5.582   6.765
 1584SOL    HW2 5652   1.401   5.430   6.710
 1585SOL     OW 5653   4.003   1.027   3.472
 1585SOL    HW1 5654   4.011   1.082   3.555
 1585SOL    HW2 5655   4.041   1.077   3.394
 1586SOL     OW 5656   2.819   5.314   3.653
 1586SOL    HW1 5657   2.839   5.367   3.735
 1586SOL    HW2 5658   2.761   5.368   3.591
 1587SOL     OW 5659   1.894   6.096   5.840
 1587SOL    HW1 5660   1.910   6.139   5.751
 1587SOL    HW2 5661   1.980   6.066   5.879
 1588SOL     OW 5662   4.450   0.456   2.392
 1588SOL    HW1 5663   4.388   0.387   2.429
 1588SOL    HW2 5664   4.537   0.413   2.367
 1589SOL     OW 5665   6.252   3.721   2.735
 1589SOL    HW1 5666   6.285   3.767   2.818
 1589SOL    HW2 5667   6.315   3.648   2.710
 1590SOL     OW 5668   5.338   1.624   3.122
 1590SOL    HW1 5669   5.281   1.705   3.106
 1590SOL    HW2 5670   5.434   1.651   3.125
 1591SOL     OW 5671   6.943   5.804   1.514
 1591SOL    HW1 5672   7.010   5.732   1.529
 1591SOL    HW2 5673   6.910   5.800   1.420
 1592SOL     OW 5674   1.659   4.018   6.750
 1592SOL    HW1 5675   1.566   4.001   6.717
 1592SOL    HW2 5676   1.659   4.095   6.813
 1593SOL     OW 5677   1.221   0.203   6.336
 1593SOL    HW1 5678   1.184   0.111   6.343
 1593SOL    HW2 5679   1.288   0.218   6.408
 1594SOL     OW 5680   6.935   0.323   1.702
 1594SOL    HW1 5681   6.883   0.408   1.696
 1594SOL    HW2 5682   0.006   0.339   1.673
 1595SOL     OW 5683   1.951   3.993   6.922
 1595SOL    HW1 5684   1.881   3.969   6.854
 1595SOL    HW2 5685   1.980   3.911   6.970
 1596SOL     OW 5686   6.108   4.025   3.079
 1596SOL    HW1 5687   6.074   4.083   3.153
 1596SOL    HW2 5688   6.140   4.082   3.003
 1597SOL     OW 5689   2.849   5.398   0.807
 1597SOL    HW1 5690   2.813   5.350   0.887
 1597SOL    HW2 5691   2.949   5.402   0.813
 1598SOL     OW 5692   1.640   5.636   6.597
 1598SOL    HW1 5693   1.719   5.583   6.566
 1598SOL    HW2 5694   1.575   5.575   6.643
 1599SOL     OW 5695   3.731   5.335   4.361
 1599SOL    HW1 5696   3.668   5.411   4.347
 1599SOL    HW2 5697   3.735   5.312   4.458
 1600SOL     OW 5698   3.470   0.823   2.906
 1600SOL    HW1 5699   3.524   0.896   2.947
 1600SOL    HW2 5700   3.513   0.794   2.820
 1601SOL     OW 5701   6.242   6.476   4.185
 1601SOL    HW1 5702   6.325   6.485   4.130
 1601SOL    HW2 5703   6.266   6.473   4.282
 1602SOL     OW 5704   4.861   5.468   4.101
 1602SOL    HW1 5705   4.957   5.444   4.115
 1602SOL    HW2 5706   4.839   5.462   4.003
 1603SOL     OW 5707   2.783   5.595   4.177
 1603SOL    HW1 5708   2.882   5.602   4.191
 1603SOL    HW2 5709   2.755   5.499   4.181
 1604SOL     OW 5710   4.021   4.787   2.022
 1604SOL    HW1 5711   4.065   4.701   2.049
 1604SOL    HW2 5712   3.962   4.819   2.096
 1605SOL     OW 5713   5.743   5.282   1.689
 1605SOL    HW1 5714   5.804   5.232   1.750
 1605SOL    HW2 5715   5.790   5.363   1.654
 1606SOL     OW 5716   4.004   5.787   4.535
 1606SOL    HW1 5717   3.965   5.737   4.612
 1606SOL    HW2 5718   4.099   5.759   4.521
 1607SOL     OW 5719   4.282   0.040   2.402
 1607SOL    HW1 5720   4.299   0.026   2.304
 1607SOL    HW2 5721   4.346   7.008   2.455
 1608SOL     OW 5722   6.963   1.016   3.547
 1608SOL    HW1 5723   6.964   1.054   3.454
 1608SOL    HW2 5724   6.903   0.936   3.549
 1609SOL     OW 5725   3.314   6.294   0.529
 1609SOL    HW1 5726   3.319   6.227   0.454
 1609SOL    HW2 5727   3.322   6.246   0.616
 1610SOL     OW 5728   4.342   6.280   0.394
 1610SOL    HW1 5729   4.403   6.354   0.420
 1610SOL    HW2 5730   4.378   6.193   0.430
 1611SOL     OW 5731   1.631   4.056   0.992
 1611SOL    HW1 5732   1.570   3.993   0.944
 1611SOL    HW2 5733   1.587   4.145   1.002
 1612SOL     OW 5734   2.772   5.818   1.047
 1612SOL    HW1 5735   2.805   5.735   1.092
 1612SOL    HW2 5736   2.824   5.833   0.963
 1613SOL     OW 5737   0.767   6.146   2.391
 1613SOL    HW1 5738   0.801   6.052   2.404
 1613SOL    HW2 5739   0.835   6.198   2.339
 1614SOL     OW 5740   5.604   1.981   6.231
 1614SOL    HW1 5741   5.608   2.063   6.174
 1614SOL    HW2 5742   5.538   1.995   6.305
 1615SOL     OW 5743   0.400   5.152   6.626
 1615SOL    HW1 5744   0.374   5.057   6.642
 1615SOL    HW2 5745   0.499   5.157   6.612
 1616SOL     OW 5746   3.784   0.816   5.031
 1616SOL    HW1 5747   3.829   0.843   5.116
 1616SOL    HW2 5748   3.709   0.879   5.012
 1617SOL     OW 5749   4.936   0.115   3.502
 1617SOL    HW1 5750   4.900   0.140   3.592
 1617SOL    HW2 5751   5.035   0.111   3.506
 1618SOL     OW 5752   1.802   6.159   2.345
 1618SOL    HW1 5753   1.787   6.157   2.246
 1618SOL    HW2 5754   1.899   6.144   2.365
 1619SOL     OW 5755   1.298   5.221   0.465
 1619SOL    HW1 5756   1.302   5.157   0.543
 1619SOL    HW2 5757   1.350   5.183   0.389
 1620SOL     OW 5758   2.708   5.164   0.934
 1620SOL    HW1 5759   2.753   5.076   0.954
 1620SOL    HW2 5760   2.650   5.153   0.853
 1621SOL     OW 5761   5.974   6.115   1.508
 1621SOL    HW1 5762   5.901   6.112   1.440
 1621SOL    HW2 5763   5.941   6.158   1.592
 1622SOL     OW 5764   0.647   4.058   6.171
 1622SOL    HW1 5765   0.693   4.007   6.098
 1622SOL    HW2 5766   0.645   4.156   6.147
 1623SOL     OW 5767   0.815   2.239   4.588
 1623SOL    HW1 5768   0.780   2.153   4.624
 1623SOL    HW2 5769   0.903   2.259   4.631
 1624SOL     OW 5770   3.569   1.211   0.293
 1624SOL    HW1 5771   3.522   1.294   0.265
 1624SOL    HW2 5772   3.570   1.204   0.392
 1625SOL     OW 5773   2.085   5.335   0.460
 1625SOL    HW1 5774   2.076   5.430   0.488
 1625SOL    HW2 5775   2.113   5.331   0.364
 1626SOL     OW 5776   3.073   1.971   2.600
 1626SOL    HW1 5777   3.040   2.063   2.621
 1626SOL    HW2 5778   3.141   1.977   2.527
 1627SOL     OW 5779   5.217   2.672   4.365
 1627SOL    HW1 5780   5.288   2.653   4.297
 1627SOL    HW2 5781   5.233   2.762   4.406
 1628SOL     OW 5782   5.215   5.805   6.552
 1628SOL    HW1 5783   5.233   5.903   6.553
 1628SOL    HW2 5784   5.151   5.783   6.626
 1629SOL     OW 5785   2.896   2.053   3.050
 1629SOL    HW1 5786   2.980   2.090   3.012
 1629SOL    HW2 5787   2.884   1.958   3.019
 1630SOL     OW 5788   0.140   4.021   6.769
 1630SOL    HW1 5789   0.177   4.106   6.806
 1630SOL    HW2 5790   0.118   3.959   6.845
 1631SOL     OW 5791   6.817   3.400   1.161
 1631SOL    HW1 5792   6.843   3.397   1.258
 1631SOL    HW2 5793   6.880   3.458   1.111
 1632SOL     OW 5794   5.337   4.427   2.686
 1632SOL    HW1 5795   5.275   4.368   2.634
 1632SOL    HW2 5796   5.302   4.520   2.688
 1633SOL     OW 5797   4.834   3.997   3.895
 1633SOL    HW1 5798   4.797   3.960   3.980
 1633SOL    HW2 5799   4.932   3.980   3.891
 1634SOL     OW 5800   3.550   0.620   4.205
 1634SOL    HW1 5801   3.636   0.633   4.254
 1634SOL    HW2 5802   3.536   0.522   4.188
 1635SOL     OW 5803   2.920   5.080   6.257
 1635SOL    HW1 5804   2.947   5.065   6.162
 1635SOL    HW2 5805   2.976   5.153   6.296
 1636SOL     OW 5806   3.870   6.058   0.922
 1636SOL    HW1 5807   3.934   6.132   0.904
 1636SOL    HW2 5808   3.846   6.012   0.836
 1637SOL     OW 5809   6.802   6.651   3.280
 1637SOL    HW1 5810   6.828   6.609   3.367
 1637SOL    HW2 5811   6.763   6.581   3.219
 1638SOL     OW 5812   0.291   3.002   1.442
 1638SOL    HW1 5813   0.352   3.073   1.406
 1638SOL    HW2 5814   0.292   2.923   1.380
 1639SOL     OW 5815   6.618   3.861   1.319
 1639SOL    HW1 5816   6.681   3.900   1.252
 1639SOL    HW2 5817   6.670   3.823   1.395
 1640SOL     OW 5818   6.396   0.023   1.269
 1640SOL    HW1 5819   6.488   0.008   1.308
 1640SOL    HW2 5820   6.369   0.118   1.284
 1641SOL     OW 5821   6.702   1.819   3.819
 1641SOL    HW1 5822   6.605   1.799   3.829
 1641SOL    HW2 5823   6.714   1.904   3.767
 1642SOL     OW 5824   6.594   2.465   6.729
 1642SOL    HW1 5825   6.639   2.554   6.724
 1642SOL    HW2 5826   6.542   2.449   6.645
 1643SOL     OW 5827   3.446   4.910   3.692
 1643SOL    HW1 5828   3.370   4.913   3.626
 1643SOL    HW2 5829   3.492   4.999   3.693
 1644SOL     OW 5830   6.092   2.813   0.311
 1644SOL    HW1 5831   6.042   2.743   0.261
 1644SOL    HW2 5832   6.094   2.898   0.258
 1645SOL     OW 5833   2.916   0.011   6.040
 1645SOL    HW1 5834   2.927   0.090   5.980
 1645SOL    HW2 5835   2.962   0.028   6.127
 1646SOL     OW 5836   1.753   5.809   6.313
 1646SOL    HW1 5837   1.771   5.899   6.354
 1646SOL    HW2 5838   1.840   5.763   6.296
 1647SOL     OW 5839   5.585   2.836   3.943
 1647SOL    HW1 5840   5.654   2.848   3.872
 1647SOL    HW2 5841   5.494   2.828   3.901
 1648SOL     OW 5842   5.051   6.154   0.077
 1648SOL    HW1 5843   5.040   6.056   0.060
 1648SOL    HW2 5844   5.121   6.191   0.016
 1649SOL     OW 5845   3.031   0.531   3.820
 1649SOL    HW1 5846   2.960   0.589   3.781
 1649SOL    HW2 5847   3.082   0.584   3.889
 1650SOL     OW 5848   1.482   5.092   6.162
 1650SOL    HW1 5849   1.518   5.150   6.089
 1650SOL    HW2 5850   1.422   5.145   6.221
 1651SOL     OW 5851   0.298   2.868   3.307
 1651SOL    HW1 5852   0.223   2.891   3.244
 1651SOL    HW2 5853   0.271   2.791   3.365
 1652SOL     OW 5854   1.215   3.090   1.664
 1652SOL    HW1 5855   1.212   3.150   1.584
 1652SOL    HW2 5856   1.310   3.063   1.682
 1653SOL     OW 5857   0.148   5.753   2.270
 1653SOL    HW1 5858   0.185   5.718   2.184
 1653SOL    HW2 5859   0.222   5.789   2.327
 1654SOL     OW 5860   0.946   3.267   1.336
 1654SOL    HW1 5861   1.028   3.312   1.374
 1654SOL    HW2 5862   0.874   3.335   1.324
 1655SOL     OW 5863   0.098   1.032   4.681
 1655SOL    HW1 5864   0.192   1.059   4.659
 1655SOL    HW2 5865   0.097   0.937   4.714
 1656SOL     OW 5866   2.369   5.585   3.937
 1656SOL    HW1 5867   2.353   5.490   3.963
 1656SOL    HW2 5868   2.467   5.605   3.940
 1657SOL     OW 5869   6.520   1.109   4.795
 1657SOL    HW1 5870   6.421   1.102   4.800
 1657SOL    HW2 5871   6.547   1.164   4.716
 1658SOL     OW 5872   6.838   0.381   0.676
 1658SOL    HW1 5873   6.784   0.306   0.716
 1658SOL    HW2 5874   6.933   0.351   0.664
 1659SOL     OW 5875   4.123   0.022   0.077
 1659SOL    HW1 5876   4.205   7.004   0.034
 1659SOL    HW2 5877   4.042   6.995   0.046
 1660SOL     OW 5878   1.748   6.848   2.229
 1660SOL    HW1 5879   1.776   6.907   2.305
 1660SOL    HW2 5880   1.802   6.870   2.148
 1661SOL     OW 5881   2.800   5.086   2.142
 1661SOL    HW1 5882   2.855   5.170   2.143
 1661SOL    HW2 5883   2.858   5.008   2.120
 1662SOL     OW 5884   6.890   1.026   5.497
 1662SOL    HW1 5885   6.887   1.117   5.539
 1662SOL    HW2 5886   6.801   1.006   5.455
 1663SOL     OW 5887   5.165   4.948   2.626
 1663SOL    HW1 5888   5.258   4.983   2.629
 1663SOL    HW2 5889   5.104   5.009   2.676
 1664SOL     OW 5890   1.084   0.475   5.248
 1664SOL    HW1 5891   1.086   0.534   5.167
 1664SOL    HW2 5892   1.064   0.381   5.220
 1665SOL     OW 5893   1.246   3.243   1.434
 1665SOL    HW1 5894   1.344   3.225   1.448
 1665SOL    HW2 5895   1.234   3.335   1.396
 1666SOL     OW 5896   5.463   6.290   6.655
 1666SOL    HW1 5897   5.482   6.382   6.620
 1666SOL    HW2 5898   5.394   6.246   6.598
 1667SOL     OW 5899   0.087   6.587   1.229
 1667SOL    HW1 5900   0.140   6.648   1.170
 1667SOL    HW2 5901   0.086   6.495   1.189
 1668SOL     OW 5902   5.306   5.147   3.645
 1668SOL    HW1 5903   5.319   5.073   3.579
 1668SOL    HW2 5904   5.359   5.227   3.616
 1669SOL     OW 5905   0.127   4.367   5.506
 1669SOL    HW1 5906   0.216   4.407   5.483
 1669SOL    HW2 5907   0.141   4.273   5.537
 1670SOL     OW 5908   1.274   4.883   5.719
 1670SOL    HW1 5909   1.310   4.976   5.722
 1670SOL    HW2 5910   1.336   4.822   5.769
 1671SOL     OW 5911   5.242   1.414   2.916
 1671SOL    HW1 5912   5.293   1.428   2.831
 1671SOL    HW2 5913   5.286   1.465   2.990
 1672SOL     OW 5914   0.896   3.699   0.120
 1672SOL    HW1 5915   0.886   3.684   0.022
 1672SOL    HW2 5916   0.831   3.769   0.149
 1673SOL     OW 5917   2.420   1.822   4.953
 1673SOL    HW1 5918   2.336   1.792   4.998
 1673SOL    HW2 5919   2.456   1.749   4.896
 1674SOL     OW 5920   5.878   2.626   1.970
 1674SOL    HW1 5921   5.947   2.698   1.969
 1674SOL    HW2 5922   5.829   2.626   1.883
 1675SOL     OW 5923   4.628   0.272   1.259
 1675SOL    HW1 5924   4.668   0.205   1.196
 1675SOL    HW2 5925   4.548   0.231   1.304
 1676SOL     OW 5926   1.948   2.321   2.746
 1676SOL    HW1 5927   1.945   2.419   2.727
 1676SOL    HW2 5928   1.995   2.274   2.671
 1677SOL     OW 5929   3.773   3.999   2.993
 1677SOL    HW1 5930   3.827   3.924   2.955
 1677SOL    HW2 5931   3.828   4.083   2.991
 1678SOL     OW 5932   0.677   6.303   1.354
 1678SOL    HW1 5933   0.640   6.394   1.370
 1678SOL    HW2 5934   0.694   6.290   1.256
 1679SOL     OW 5935   1.510   1.425   5.155
 1679SOL    HW1 5936   1.567   1.369   5.215
 1679SOL    HW2 5937   1.568   1.482   5.098
 1680SOL     OW 5938   5.461   3.330   4.921
 1680SOL    HW1 5939   5.506   3.347   4.833
 1680SOL    HW2 5940   5.404   3.408   4.945
 1681SOL     OW 5941   1.664   5.544   4.820
 1681SOL    HW1 5942   1.689   5.552   4.723
 1681SOL    HW2 5943   1.586   5.603   4.839
 1682SOL     OW 5944   2.507   0.660   5.957
 1682SOL    HW1 5945   2.443   0.730   5.989
 1682SOL    HW2 5946   2.487   0.639   5.862
 1683SOL     OW 5947   5.283   5.913   3.075
 1683SOL    HW1 5948   5.201   5.930   3.131
 1683SOL    HW2 5949   5.329   5.830   3.109
 1684SOL     OW 5950   0.872   4.512   1.995
 1684SOL    HW1 5951   0.835   4.455   1.921
 1684SOL    HW2 5952   0.852   4.608   1.976
 1685SOL     OW 5953   2.045   2.092   5.560
 1685SOL    HW1 5954   2.016   2.106   5.655
 1685SOL    HW2 5955   2.088   2.176   5.526
 1686SOL     OW 5956   4.183   5.459   3.906
 1686SOL    HW1 5957   4.121   5.448   3.827
 1686SOL    HW2 5958   4.273   5.488   3.874
 1687SOL     OW 5959   0.395   4.305   1.629
 1687SOL    HW1 5960   0.444   4.352   1.702
 1687SOL    HW2 5961   0.374   4.370   1.556
 1688SOL     OW 5962   1.745   2.427   3.509
 1688SOL    HW1 5963   1.664   2.457   3.457
 1688SOL    HW2 5964   1.767   2.496   3.579
 1689SOL     OW 5965   6.830   1.183   2.504
 1689SOL    HW1 5966   6.745   1.189   2.555
 1689SOL    HW2 5967   6.815   1.213   2.409
 1690SOL     OW 5968   1.238   3.393   4.044
 1690SOL    HW1 5969   1.328   3.435   4.052
 1690SOL    HW2 5970   1.174   3.440   4.105
 1691SOL     OW 5971   4.982   3.799   4.145
 1691SOL    HW1 5972   4.893   3.821   4.185
 1691SOL    HW2 5973   5.039   3.881   4.142
 1692SOL     OW 5974   5.541   5.378   1.532
 1692SOL    HW1 5975   5.565   5.324   1.613
 1692SOL    HW2 5976   5.601   5.352   1.456
 1693SOL     OW 5977   0.253   1.790   4.622
 1693SOL    HW1 5978   0.195   1.825   4.549
 1693SOL    HW2 5979   0.208   1.804   4.710
 1694SOL     OW 5980   6.378   0.936   4.377
 1694SOL    HW1 5981   6.473   0.947   4.348
 1694SOL    HW2 5982   6.333   1.026   4.376
 1695SOL     OW 5983   3.707   0.726   6.869
 1695SOL    HW1 5984   3.719   0.655   6.939
 1695SOL    HW2 5985   3.615   0.720   6.830
 1696SOL     OW 5986   4.113   5.419   0.708
 1696SOL    HW1 5987   4.188   5.406   0.772
 1696SOL    HW2 5988   4.034   5.456   0.756
 1697SOL     OW 5989   5.624   2.362   0.917
 1697SOL    HW1 5990   5.649   2.268   0.897
 1697SOL    HW2 5991   5.632   2.378   1.016
 1698SOL     OW 5992   3.451   0.859   1.739
 1698SOL    HW1 5993   3.469   0.783   1.802
 1698SOL    HW2 5994   3.385   0.829   1.669
 1699SOL     OW 5995   2.583   1.851   6.078
 1699SOL    HW1 5996   2.567   1.949   6.092
 1699SOL    HW2 5997   2.678   1.828   6.100
 1700SOL     OW 5998   5.776   3.156   3.919
 1700SOL    HW1 5999   5.825   3.242   3.905
 1700SOL    HW2 6000   5.702   3.171   3.985
 1701SOL     OW 6001   6.263   5.144   4.821
 1701SOL    HW1 6002   6.351   5.131   4.867
 1701SOL    HW2 6003   6.190   5.105   4.878
 1702SOL     OW 6004   1.463   1.154   6.128
 1702SOL    HW1 6005   1.517   1.188   6.050
 1702SOL    HW2 6006   1.483   1.058   6.143
 1703SOL     OW 6007   3.724   1.620   5.892
 1703SOL    HW1 6008   3.806   1.572   5.922
 1703SOL    HW2 6009   3.661   1.554   5.851
 1704SOL     OW 6010   1.736   1.436   0.002
 1704SOL    HW1 6011   1.762   1.528   0.028
 1704SOL    HW2 6012   1.809   1.372   0.025
 1705SOL     OW 6013   4.070   1.983   1.803
 1705SOL    HW1 6014   4.019   2.061   1.840
 1705SOL    HW2 6015   4.071   1.988   1.703
 1706SOL     OW 6016   4.011   1.440   0.942
 1706SOL    HW1 6017   4.041   1.355   0.986
 1706SOL    HW2 6018   4.027   1.517   1.003
 1707SOL     OW 6019   4.837   1.826   3.026
 1707SOL    HW1 6020   4.742   1.806   3.000
 1707SOL    HW2 6021   4.867   1.759   3.093
 1708SOL     OW 6022   3.915   5.400   2.063
 1708SOL    HW1 6023   3.869   5.312   2.072
 1708SOL    HW2 6024   3.855   5.464   2.014
 1709SOL     OW 6025   4.593   6.519   0.916
 1709SOL    HW1 6026   4.615   6.614   0.892
 1709SOL    HW2 6027   4.522   6.518   0.987
 1710SOL     OW 6028   4.345   5.101   3.309
 1710SOL    HW1 6029   4.321   5.158   3.388
 1710SOL    HW2 6030   4.289   5.019   3.308
 1711SOL     OW 6031   2.808   5.119   5.858
 1711SOL    HW1 6032   2.778   5.213   5.874
 1711SOL    HW2 6033   2.810   5.100   5.760
 1712SOL     OW 6034   0.315   2.559   4.897
 1712SOL    HW1 6035   0.406   2.546   4.937
 1712SOL    HW2 6036   0.247   2.567   4.970
 1713SOL     OW 6037   3.539   1.000   2.333
 1713SOL    HW1 6038   3.614   1.000   2.266
 1713SOL    HW2 6039   3.541   1.085   2.385
 1714SOL     OW 6040   3.088   2.098   6.963
 1714SOL    HW1 6041   3.084   2.011   6.915
 1714SOL    HW2 6042   3.179   2.109   7.003
 1715SOL     OW 6043   2.051   6.002   2.147
 1715SOL    HW1 6044   1.955   6.024   2.126
 1715SOL    HW2 6045   2.086   5.937   2.080
 1716SOL     OW 6046   4.759   0.316   4.073
 1716SOL    HW1 6047   4.857   0.297   4.083
 1716SOL    HW2 6048   4.745   0.413   4.052
 1717SOL     OW 6049   3.913   5.709   5.427
 1717SOL    HW1 6050   3.860   5.674   5.350
 1717SOL    HW2 6051   3.933   5.806   5.411
 1718SOL     OW 6052   2.098   2.252   2.510
 1718SOL    HW1 6053   2.016   2.208   2.472
 1718SOL    HW2 6054   2.168   2.183   2.528
 1719SOL     OW 6055   1.639   4.685   0.946
 1719SOL    HW1 6056   1.604   4.745   1.018
 1719SOL    HW2 6057   1.567   4.622   0.916
 1720SOL     OW 6058   0.234   2.839   5.823
 1720SOL    HW1 6059   0.266   2.924   5.780
 1720SOL    HW2 6060   0.300   2.809   5.891
 1721SOL     OW 6061   1.327   0.451   2.279
 1721SOL    HW1 6062   1.370   0.455   2.369
 1721SOL    HW2 6063   1.263   0.374   2.276
 1722SOL     OW 6064   3.262   1.887   2.996
 1722SOL    HW1 6065   3.333   1.948   2.962
 1722SOL    HW2 6066   3.202   1.860   2.920
 1723SOL     OW 6067   4.861   2.000   0.202
 1723SOL    HW1 6068   4.909   1.979   0.287
 1723SOL    HW2 6069   4.770   2.035   0.222
 1724SOL     OW 6070   6.411   2.136   1.365
 1724SOL    HW1 6071   6.417   2.161   1.268
 1724SOL    HW2 6072   6.440   2.042   1.377
 1725SOL     OW 6073   1.862   4.534   6.578
 1725SOL    HW1 6074   1.812   4.513   6.494
 1725SOL    HW2 6075   1.941   4.473   6.585
 1726SOL     OW 6076   5.848   4.021   3.551
 1726SOL    HW1 6077   5.808   3.936   3.585
 1726SOL    HW2 6078   5.935   4.038   3.598
 1727SOL     OW 6079   3.690   3.603   3.521
 1727SOL    HW1 6080   3.632   3.683   3.537
 1727SOL    HW2 6081   3.705   3.554   3.606
 1728SOL     OW 6082   5.000   4.432   5.647
 1728SOL    HW1 6083   4.966   4.338   5.651
 1728SOL    HW2 6084   5.100   4.431   5.650
 1729SOL     OW 6085   1.266   3.914   2.012
 1729SOL    HW1 6086   1.176   3.874   1.995
 1729SOL    HW2 6087   1.316   3.919   1.926
 1730SOL     OW 6088   2.547   6.006   5.047
 1730SOL    HW1 6089   2.614   5.982   5.117
 1730SOL    HW2 6090   2.479   6.068   5.087
 1731SOL     OW 6091   5.705   5.007   3.582
 1731SOL    HW1 6092   5.758   5.080   3.538
 1731SOL    HW2 6093   5.765   4.951   3.639
 1732SOL     OW 6094   2.057   4.295   5.932
 1732SOL    HW1 6095   2.003   4.262   6.009
 1732SOL    HW2 6096   2.151   4.311   5.961
 1733SOL     OW 6097   2.736   4.074   0.117
 1733SOL    HW1 6098   2.694   4.164   0.130
 1733SOL    HW2 6099   2.763   4.063   0.022
 1734SOL     OW 6100   6.401   3.173   1.271
 1734SOL    HW1 6101   6.312   3.216   1.289
 1734SOL    HW2 6102   6.387   3.084   1.229
 1735SOL     OW 6103   4.536   5.472   0.128
 1735SOL    HW1 6104   4.610   5.407   0.146
 1735SOL    HW2 6105   4.505   5.464   0.033
 1736SOL     OW 6106   4.258   3.755   1.699
 1736SOL    HW1 6107   4.197   3.824   1.737
 1736SOL    HW2 6108   4.243   3.667   1.744
 1737SOL     OW 6109   5.515   0.811   4.069
 1737SOL    HW1 6110   5.459   0.772   4.143
 1737SOL    HW2 6111   5.474   0.896   4.037
 1738SOL     OW 6112   1.997   3.998   4.662
 1738SOL    HW1 6113   1.918   3.955   4.705
 1738SOL    HW2 6114   2.079   3.980   4.717
 1739SOL     OW 6115   5.637   0.107   3.576
 1739SOL    HW1 6116   5.689   0.170   3.518
 1739SOL    HW2 6117   5.683   0.095   3.664
 1740SOL     OW 6118   6.890   1.909   4.838
 1740SOL    HW1 6119   6.905   1.978   4.909
 1740SOL    HW2 6120   6.861   1.954   4.753
 1741SOL     OW 6121   1.664   2.192   3.763
 1741SOL    HW1 6122   1.675   2.280   3.716
 1741SOL    HW2 6123   1.574   2.153   3.740
 1742SOL     OW 6124   5.922   0.380   5.940
 1742SOL    HW1 6125   5.937   0.443   6.015
 1742SOL    HW2 6126   5.882   0.428   5.862
 1743SOL     OW 6127   1.278   1.952   3.174
 1743SOL    HW1 6128   1.376   1.951   3.154
 1743SOL    HW2 6129   1.237   1.866   3.146
 1744SOL     OW 6130   5.214   2.232   3.574
 1744SOL    HW1 6131   5.201   2.254   3.477
 1744SOL    HW2 6132   5.262   2.308   3.619
 1745SOL     OW 6133   6.069   6.493   1.062
 1745SOL    HW1 6134   6.016   6.454   0.987
 1745SOL    HW2 6135   6.087   6.590   1.043
 1746SOL     OW 6136   1.835   3.633   4.064
 1746SOL    HW1 6137   1.806   3.708   4.006
 1746SOL    HW2 6138   1.858   3.554   4.007
 1747SOL     OW 6139   3.738   1.668   2.072
 1747SOL    HW1 6140   3.830   1.671   2.031
 1747SOL    HW2 6141   3.741   1.710   2.163
 1748SOL     OW 6142   6.597   1.599   4.455
 1748SOL    HW1 6143   6.683   1.552   4.435
 1748SOL    HW2 6144   6.609   1.697   4.441
 1749SOL     OW 6145   2.990   6.107   0.935
 1749SOL    HW1 6146   3.018   6.160   1.015
 1749SOL    HW2 6147   2.919   6.156   0.885
 1750SOL     OW 6148   3.966   0.721   4.819
 1750SOL    HW1 6149   3.916   0.766   4.893
 1750SOL    HW2 6150   4.055   0.765   4.807
 1751SOL     OW 6151   6.188   2.743   5.089
 1751SOL    HW1 6152   6.160   2.795   5.169
 1751SOL    HW2 6153   6.115   2.682   5.060
 1752SOL     OW 6154   6.647   1.201   1.298
 1752SOL    HW1 6155   6.551   1.184   1.277
 1752SOL    HW2 6156   6.671   1.160   1.385
 1753SOL     OW 6157   6.888   1.477   1.497
 1753SOL    HW1 6158   6.797   1.453   1.529
 1753SOL    HW2 6159   6.932   1.538   1.564
 1754SOL     OW 6160   3.153   5.997   5.797
 1754SOL    HW1 6161   3.127   6.008   5.893
 1754SOL    HW2 6162   3.163   5.900   5.776
 1755SOL     OW 6163   6.531   6.731   4.838
 1755SOL    HW1 6164   6.593   6.657   4.812
 1755SOL    HW2 6165   6.467   6.698   4.908
 1756SOL     OW 6166   5.111   0.221   5.964
 1756SOL    HW1 6167   5.069   0.293   5.909
 1756SOL    HW2 6168   5.039   0.164   6.005
 1757SOL     OW 6169   2.380   5.081   3.953
 1757SOL    HW1 6170   2.280   5.083   3.959
 1757SOL    HW2 6171   2.416   5.014   4.019
 1758SOL     OW 6172   2.137   6.661   5.340
 1758SOL    HW1 6173   2.181   6.583   5.385
 1758SOL    HW2 6174   2.127   6.642   5.243
 1759SOL     OW 6175   1.294   6.142   6.016
 1759SOL    HW1 6176   1.253   6.228   6.046
 1759SOL    HW2 6177   1.348   6.102   6.091
 1760SOL     OW 6178   6.066   0.693   4.857
 1760SOL    HW1 6179   6.108   0.689   4.767
 1760SOL    HW2 6180   6.093   0.778   4.903
 1761SOL     OW 6181   6.914   1.939   1.432
 1761SOL    HW1 6182   6.951   1.947   1.524
 1761SOL    HW2 6183   6.988   1.943   1.365
 1762SOL     OW 6184   0.651   1.530   5.180
 1762SOL    HW1 6185   0.658   1.435   5.208
 1762SOL    HW2 6186   0.718   1.585   5.230
 1763SOL     OW 6187   0.960   4.182   4.830
 1763SOL    HW1 6188   0.933   4.274   4.858
 1763SOL    HW2 6189   0.994   4.184   4.736
 1764SOL     OW 6190   1.283   4.236   1.995
 1764SOL    HW1 6191   1.369   4.199   1.959
 1764SOL    HW2 6192   1.240   4.168   2.054
 1765SOL     OW 6193   4.778   2.893   1.631
 1765SOL    HW1 6194   4.766   2.849   1.720
 1765SOL    HW2 6195   4.774   2.992   1.642
 1766SOL     OW 6196   4.569   4.427   3.854
 1766SOL    HW1 6197   4.485   4.400   3.901
 1766SOL    HW2 6198   4.619   4.345   3.826
 1767SOL     OW 6199   6.811   5.313   2.665
 1767SOL    HW1 6200   6.803   5.405   2.704
 1767SOL    HW2 6201   6.824   5.247   2.739
 1768SOL     OW 6202   4.637   6.100   1.407
 1768SOL    HW1 6203   4.681   6.116   1.495
 1768SOL    HW2 6204   4.646   6.181   1.349
 1769SOL     OW 6205   6.171   0.557   6.623
 1769SOL    HW1 6206   6.114   0.484   6.662
 1769SOL    HW2 6207   6.138   0.646   6.657
 1770SOL     OW 6208   1.183   4.980   5.245
 1770SOL    HW1 6209   1.203   4.925   5.327
 1770SOL    HW2 6210   1.085   4.979   5.227
 1771SOL     OW 6211   1.063   4.310   6.898
 1771SOL    HW1 6212   1.098   4.216   6.898
 1771SOL    HW2 6213   1.110   4.363   6.969
 1772SOL     OW 6214   3.611   5.021   4.034
 1772SOL    HW1 6215   3.607   5.061   3.943
 1772SOL    HW2 6216   3.521   4.983   4.057
 1773SOL     OW 6217   1.026   0.584   4.739
 1773SOL    HW1 6218   1.053   0.490   4.718
 1773SOL    HW2 6219   1.002   0.632   4.655
 1774SOL     OW 6220   6.051   6.609   1.625
 1774SOL    HW1 6221   5.983   6.673   1.660
 1774SOL    HW2 6222   6.006   6.540   1.569
 1775SOL     OW 6223   1.674   5.296   6.644
 1775SOL    HW1 6224   1.714   5.345   6.721
 1775SOL    HW2 6225   1.740   5.231   6.606
 1776SOL     OW 6226   5.195   0.965   5.303
 1776SOL    HW1 6227   5.238   1.049   5.334
 1776SOL    HW2 6228   5.201   0.895   5.375
 1777SOL     OW 6229   4.165   6.634   6.481
 1777SOL    HW1 6230   4.092   6.700   6.466
 1777SOL    HW2 6231   4.198   6.642   6.575
 1778SOL     OW 6232   5.406   1.626   4.166
 1778SOL    HW1 6233   5.491   1.662   4.205
 1778SOL    HW2 6234   5.428   1.560   4.094
 1779SOL     OW 6235   4.867   0.297   5.008
 1779SOL    HW1 6236   4.954   0.249   4.998
 1779SOL    HW2 6237   4.870   0.356   5.088
 1780SOL     OW 6238   1.368   5.304   4.375
 1780SOL    HW1 6239   1.370   5.377   4.443
 1780SOL    HW2 6240   1.341   5.218   4.419
 1781SOL     OW 6241   4.557   0.287   4.464
 1781SOL    HW1 6242   4.563   0.281   4.364
 1781SOL    HW2 6243   4.594   0.204   4.506
 1782SOL     OW 6244   1.923   1.636   3.065
 1782SOL    HW1 6245   1.952   1.730   3.050
 1782SOL    HW2 6246   1.966   1.575   2.999
 1783SOL     OW 6247   2.244   3.559   5.772
 1783SOL    HW1 6248   2.244   3.614   5.688
 1783SOL    HW2 6249   2.225   3.618   5.851
 1784SOL     OW 6250   2.431   0.495   0.904
 1784SOL    HW1 6251   2.369   0.426   0.943
 1784SOL    HW2 6252   2.378   0.575   0.877
 1785SOL     OW 6253   0.758   6.376   4.368
 1785SOL    HW1 6254   0.806   6.289   4.362
 1785SOL    HW2 6255   0.683   6.378   4.301
 1786SOL     OW 6256   2.156   5.627   0.821
 1786SOL    HW1 6257   2.238   5.612   0.765
 1786SOL    HW2 6258   2.177   5.608   0.917
 1787SOL     OW 6259   1.736   2.655   5.460
 1787SOL    HW1 6260   1.664   2.591   5.485
 1787SOL    HW2 6261   1.788   2.680   5.542
 1788SOL     OW 6262   4.346   4.014   0.343
 1788SOL    HW1 6263   4.337   3.919   0.376
 1788SOL    HW2 6264   4.397   4.067   0.410
 1789SOL     OW 6265   6.317   3.484   1.914
 1789SOL    HW1 6266   6.282   3.551   1.980
 1789SOL    HW2 6267   6.250   3.469   1.842
 1790SOL     OW 6268   2.892   1.974   4.303
 1790SOL    HW1 6269   2.939   2.015   4.225
 1790SOL    HW2 6270   2.874   2.044   4.372
 1791SOL     OW 6271   6.476   0.766   3.729
 1791SOL    HW1 6272   6.540   0.689   3.728
 1791SOL    HW2 6273   6.526   0.850   3.706
 1792SOL     OW 6274   6.970   2.442   5.388
 1792SOL    HW1 6275   0.020   2.509   5.402
 1792SOL    HW2 6276   6.903   2.478   5.323
 1793SOL     OW 6277   0.201   1.433   5.223
 1793SOL    HW1 6278   0.202   1.518   5.276
 1793SOL    HW2 6279   0.212   1.355   5.286
 1794SOL     OW 6280   6.499   0.187   6.304
 1794SOL    HW1 6281   6.451   0.198   6.391
 1794SOL    HW2 6282   6.432   0.170   6.231
 1795SOL     OW 6283   5.804   4.691   0.470
 1795SOL    HW1 6284   5.843   4.759   0.532
 1795SOL    HW2 6285   5.877   4.635   0.432
 1796SOL     OW 6286   1.307   0.232   5.028
 1796SOL    HW1 6287   1.401   0.246   5.061
 1796SOL    HW2 6288   1.307   0.231   4.928
 1797SOL     OW 6289   1.982   6.221   4.886
 1797SOL    HW1 6290   2.063   6.163   4.876
 1797SOL    HW2 6291   1.925   6.215   4.804
 1798SOL     OW 6292   3.597   3.631   4.646
 1798SOL    HW1 6293   3.520   3.672   4.695
 1798SOL    HW2 6294   3.567   3.597   4.557
 1799SOL     OW 6295   3.373   0.431   6.642
 1799SOL    HW1 6296   3.311   0.410   6.718
 1799SOL    HW2 6297   3.325   0.417   6.555
 1800SOL     OW 6298   5.113   4.254   3.826
 1800SOL    HW1 6299   5.021   4.281   3.800
 1800SOL    HW2 6300   5.119   4.154   3.830
 1801SOL     OW 6301   1.228   1.349   1.916
 1801SOL    HW1 6302   1.290   1.427   1.926
 1801SOL    HW2 6303   1.142   1.369   1.962
 1802SOL     OW 6304   6.289   4.594   3.652
 1802SOL    HW1 6305   6.244   4.663   3.709
 1802SOL    HW2 6306   6.350   4.539   3.709
 1803SOL     OW 6307   0.032   6.212   2.757
 1803SOL    HW1 6308   0.050   6.259   2.670
 1803SOL    HW2 6309   0.028   6.279   2.831
 1804SOL     OW 6310   3.285   3.636   6.080
 1804SOL    HW1 6311   3.271   3.649   6.178
 1804SOL    HW2 6312   3.283   3.539   6.058
 1805SOL     OW 6313   0.556   6.650   6.228
 1805SOL    HW1 6314   0.618   6.595   6.285
 1805SOL    HW2 6315   0.539   6.602   6.142
 1806SOL     OW 6316   6.752   2.676   2.266
 1806SOL    HW1 6317   6.777   2.604   2.332
 1806SOL    HW2 6318   6.789   2.653   2.176
 1807SOL     OW 6319   6.663   4.166   1.384
 1807SOL    HW1 6320   6.724   4.132   1.313
 1807SOL    HW2 6321   6.568   4.148   1.358
 1808SOL     OW 6322   4.903   2.401   5.671
 1808SOL    HW1 6323   4.933   2.308   5.650
 1808SOL    HW2 6324   4.920   2.460   5.592
 1809SOL     OW 6325   3.833   2.112   5.121
 1809SOL    HW1 6326   3.821   2.025   5.169
 1809SOL    HW2 6327   3.791   2.107   5.031
 1810SOL     OW 6328   0.209   0.023   3.721
 1810SOL    HW1 6329   0.166   6.963   3.757
 1810SOL    HW2 6330   0.147   0.101   3.733
 1811SOL     OW 6331   3.900   4.905   2.219
 1811SOL    HW1 6332   3.864   4.983   2.167
 1811SOL    HW2 6333   3.982   4.934   2.268
 1812SOL     OW 6334   4.562   0.122   6.317
 1812SOL    HW1 6335   4.478   0.083   6.280
 1812SOL    HW2 6336   4.615   0.164   6.243
 1813SOL     OW 6337   4.793   4.841   2.732
 1813SOL    HW1 6338   4.885   4.849   2.693
 1813SOL    HW2 6339   4.726   4.838   2.659
 1814SOL     OW 6340   0.426   6.833   0.568
 1814SOL    HW1 6341   0.443   6.932   0.569
 1814SOL    HW2 6342   0.506   6.786   0.532
 1815SOL     OW 6343   5.749   5.808   2.300
 1815SOL    HW1 6344   5.741   5.789   2.203
 1815SOL    HW2 6345   5.771   5.904   2.314
 1816SOL     OW 6346   4.221   5.934   5.356
 1816SOL    HW1 6347   4.316   5.915   5.383
 1816SOL    HW2 6348   4.180   5.998   5.421
 1817SOL     OW 6349   2.627   1.595   2.894
 1817SOL    HW1 6350   2.671   1.506   2.899
 1817SOL    HW2 6351   2.535   1.590   2.933
 1818SOL     OW 6352   1.712   6.751   0.114
 1818SOL    HW1 6353   1.797   6.700   0.127
 1818SOL    HW2 6354   1.645   6.693   0.069
 1819SOL     OW 6355   0.799   4.725   2.745
 1819SOL    HW1 6356   0.824   4.648   2.686
 1819SOL    HW2 6357   0.796   4.809   2.691
 1820SOL     OW 6358   4.057   0.008   3.134
 1820SOL    HW1 6359   4.006   7.011   3.218
 1820SOL    HW2 6360   4.155   0.010   3.155
 1821SOL     OW 6361   3.562   0.796   2.063
 1821SOL    HW1 6362   3.626   0.871   2.075
 1821SOL    HW2 6363   3.582   0.724   2.129
 1822SOL     OW 6364   0.832   3.547   2.055
 1822SOL    HW1 6365   0.907   3.592   2.006
 1822SOL    HW2 6366   0.869   3.474   2.113
 1823SOL     OW 6367   4.194   6.326   2.241
 1823SOL    HW1 6368   4.230   6.371   2.323
 1823SOL    HW2 6369   4.188   6.393   2.167
 1824SOL     OW 6370   4.221   4.126   0.993
 1824SOL    HW1 6371   4.305   4.107   1.044
 1824SOL    HW2 6372   4.183   4.040   0.958
 1825SOL     OW 6373   1.812   2.544   4.916
 1825SOL    HW1 6374   1.831   2.471   4.849
 1825SOL    HW2 6375   1.715   2.570   4.910
 1826SOL     OW 6376   3.589   2.023   1.741
 1826SOL    HW1 6377   3.616   1.982   1.828
 1826SOL    HW2 6378   3.621   2.118   1.738
 1827SOL     OW 6379   5.487   4.625   0.418
 1827SOL    HW1 6380   5.559   4.556   0.423
 1827SOL    HW2 6381   5.489   4.681   0.502
 1828SOL     OW 6382   1.238   3.523   6.037
 1828SOL    HW1 6383   1.241   3.452   6.108
 1828SOL    HW2 6384   1.303   3.596   6.060
 1829SOL     OW 6385   3.855   0.878   3.874
 1829SOL    HW1 6386   3.794   0.889   3.952
 1829SOL    HW2 6387   3.941   0.836   3.904
 1830SOL     OW 6388   5.918   0.166   4.983
 1830SOL    HW1 6389   5.909   0.066   4.978
 1830SOL    HW2 6390   5.872   0.199   5.065
 1831SOL     OW 6391   5.021   5.108   2.778
 1831SOL    HW1 6392   4.922   5.120   2.773
 1831SOL    HW2 6393   5.047   5.067   2.865
 1832SOL     OW 6394   2.379   3.484   0.576
 1832SOL    HW1 6395   2.310   3.536   0.525
 1832SOL    HW2 6396   2.461   3.473   0.521
 1833SOL     OW 6397   4.918   6.887   1.946
 1833SOL    HW1 6398   4.894   6.883   1.850
 1833SOL    HW2 6399   5.017   6.877   1.956
 1834SOL     OW 6400   2.614   2.252   0.302
 1834SOL    HW1 6401   2.641   2.163   0.263
 1834SOL    HW2 6402   2.694   2.311   0.309
 1835SOL     OW 6403   0.114   4.991   1.167
 1835SOL    HW1 6404   0.171   5.072   1.180
 1835SOL    HW2 6405   0.134   4.950   1.079
 1836SOL     OW 6406   5.662   1.797   1.909
 1836SOL    HW1 6407   5.740   1.832   1.856
 1836SOL    HW2 6408   5.656   1.697   1.898
 1837SOL     OW 6409   2.667   0.898   6.053
 1837SOL    HW1 6410   2.652   0.928   6.147
 1837SOL    HW2 6411   2.579   0.879   6.009
 1838SOL     OW 6412   5.991   0.792   0.570
 1838SOL    HW1 6413   5.928   0.715   0.575
 1838SOL    HW2 6414   6.082   0.764   0.600
 1839SOL     OW 6415   5.870   1.562   0.496
 1839SOL    HW1 6416   5.832   1.590   0.584
 1839SOL    HW2 6417   5.859   1.463   0.485
 1840SOL     OW 6418   4.088   0.209   2.973
 1840SOL    HW1 6419   4.095   0.299   3.015
 1840SOL    HW2 6420   4.077   0.139   3.044
 1841SOL     OW 6421   2.255   0.698   2.346
 1841SOL    HW1 6422   2.260   0.603   2.316
 1841SOL    HW2 6423   2.271   0.703   2.444
 1842SOL     OW 6424   2.205   4.628   0.852
 1842SOL    HW1 6425   2.125   4.654   0.906
 1842SOL    HW2 6426   2.287   4.667   0.893
 1843SOL     OW 6427   3.377   1.285   4.572
 1843SOL    HW1 6428   3.363   1.351   4.647
 1843SOL    HW2 6429   3.471   1.290   4.540
 1844SOL     OW 6430   4.792   1.264   6.220
 1844SOL    HW1 6431   4.801   1.294   6.315
 1844SOL    HW2 6432   4.696   1.268   6.194
 1845SOL     OW 6433   2.116   1.143   3.286
 1845SOL    HW1 6434   2.032   1.105   3.323
 1845SOL    HW2 6435   2.138   1.097   3.199
 1846SOL     OW 6436   4.540   1.076   3.044
 1846SOL    HW1 6437   4.551   0.992   3.098
 1846SOL    HW2 6438   4.482   1.057   2.965
 1847SOL     OW 6439   2.388   0.436   4.454
 1847SOL    HW1 6440   2.430   0.375   4.520
 1847SOL    HW2 6441   2.316   0.490   4.499
 1848SOL     OW 6442   2.097   5.907   4.261
 1848SOL    HW1 6443   2.152   5.945   4.186
 1848SOL    HW2 6444   2.134   5.818   4.288
 1849SOL     OW 6445   4.396   2.442   2.555
 1849SOL    HW1 6446   4.478   2.456   2.610
 1849SOL    HW2 6447   4.321   2.497   2.591
 1850SOL     OW 6448   5.196   2.250   2.041
 1850SOL    HW1 6449   5.122   2.316   2.053
 1850SOL    HW2 6450   5.191   2.212   1.948
 1851SOL     OW 6451   0.253   2.922   6.293
 1851SOL    HW1 6452   0.164   2.893   6.326
 1851SOL    HW2 6453   0.281   3.006   6.339
 1852SOL     OW 6454   1.458   4.414   2.297
 1852SOL    HW1 6455   1.459   4.314   2.289
 1852SOL    HW2 6456   1.481   4.454   2.209
 1853SOL     OW 6457   0.281   3.135   4.520
 1853SOL    HW1 6458   0.271   3.221   4.471
 1853SOL    HW2 6459   0.222   3.135   4.600
 1854SOL     OW 6460   0.764   5.876   3.149
 1854SOL    HW1 6461   0.778   5.946   3.078
 1854SOL    HW2 6462   0.736   5.920   3.234
 1855SOL     OW 6463   4.977   3.481   4.764
 1855SOL    HW1 6464   4.908   3.509   4.831
 1855SOL    HW2 6465   4.959   3.387   4.735
 1856SOL     OW 6466   3.727   3.718   0.037
 1856SOL    HW1 6467   3.780   3.639   0.068
 1856SOL    HW2 6468   3.752   3.798   0.092
 1857SOL     OW 6469   5.190   0.765   0.419
 1857SOL    HW1 6470   5.245   0.840   0.382
 1857SOL    HW2 6471   5.093   0.787   0.411
 1858SOL     OW 6472   4.418   2.261   4.443
 1858SOL    HW1 6473   4.451   2.167   4.447
 1858SOL    HW2 6474   4.476   2.319   4.500
 1859SOL     OW 6475   5.933   1.717   5.009
 1859SOL    HW1 6476   5.992   1.759   5.077
 1859SOL    HW2 6477   5.848   1.768   5.001
 1860SOL     OW 6478   0.754   1.779   5.029
 1860SOL    HW1 6479   0.721   1.725   5.106
 1860SOL    HW2 6480   0.854   1.778   5.027
 1861SOL     OW 6481   6.413   0.878   2.814
 1861SOL    HW1 6482   6.342   0.828   2.863
 1861SOL    HW2 6483   6.377   0.965   2.782
 1862SOL     OW 6484   1.925   6.394   6.817
 1862SOL    HW1 6485   1.896   6.299   6.808
 1862SOL    HW2 6486   1.879   6.436   6.895
 1863SOL     OW 6487   0.129   3.276   1.453
 1863SOL    HW1 6488   0.192   3.203   1.426
 1863SOL    HW2 6489   0.035   3.248   1.435
 1864SOL     OW 6490   3.286   6.101   3.415
 1864SOL    HW1 6491   3.246   6.062   3.498
 1864SOL    HW2 6492   3.359   6.042   3.382
 1865SOL     OW 6493   5.074   1.188   6.879
 1865SOL    HW1 6494   5.075   1.263   6.946
 1865SOL    HW2 6495   5.016   1.114   6.914
 1866SOL     OW 6496   0.906   4.417   3.982
 1866SOL    HW1 6497   0.893   4.468   4.067
 1866SOL    HW2 6498   0.993   4.367   3.985
 1867SOL     OW 6499   2.617   1.977   1.557
 1867SOL    HW1 6500   2.544   1.909   1.545
 1867SOL    HW2 6501   2.584   2.052   1.614
 1868SOL     OW 6502   5.493   4.136   5.430
 1868SOL    HW1 6503   5.394   4.151   5.425
 1868SOL    HW2 6504   5.524   4.145   5.525
 1869SOL     OW 6505   4.500   2.125   4.066
 1869SOL    HW1 6506   4.510   2.078   3.979
 1869SOL    HW2 6507   4.439   2.203   4.055
 1870SOL     OW 6508   1.556   4.411   4.318
 1870SOL    HW1 6509   1.513   4.378   4.402
 1870SOL    HW2 6510   1.591   4.334   4.266
 1871SOL     OW 6511   0.728   6.709   0.480
 1871SOL    HW1 6512   0.780   6.640   0.531
 1871SOL    HW2 6513   0.792   6.770   0.433
 1872SOL     OW 6514   3.312   2.024   0.547
 1872SOL    HW1 6515   3.237   2.073   0.502
 1872SOL    HW2 6516   3.376   2.089   0.588
 1873SOL     OW 6517   6.316   0.904   6.890
 1873SOL    HW1 6518   6.390   0.930   6.828
 1873SOL    HW2 6519   6.356   0.866   6.974
 1874SOL     OW 6520   0.962   6.556   5.968
 1874SOL    HW1 6521   0.892   6.521   5.906
 1874SOL    HW2 6522   0.920   6.615   6.036
 1875SOL     OW 6523   6.487   5.389   6.802
 1875SOL    HW1 6524   6.527   5.481   6.809
 1875SOL    HW2 6525   6.392   5.392   6.832
 1876SOL     OW 6526   5.818   6.442   6.240
 1876SOL    HW1 6527   5.769   6.485   6.165
 1876SOL    HW2 6528   5.833   6.509   6.313
 1877SOL     OW 6529   0.537   1.575   2.301
 1877SOL    HW1 6530   0.496   1.502   2.355
 1877SOL    HW2 6531   0.579   1.536   2.219
 1878SOL     OW 6532   0.530   4.399   3.342
 1878SOL    HW1 6533   0.554   4.332   3.413
 1878SOL    HW2 6534   0.595   4.475   3.345
 1879SOL     OW 6535   3.043   5.128   4.982
 1879SOL    HW1 6536   2.950   5.138   5.019
 1879SOL    HW2 6537   3.098   5.074   5.046
 1880SOL     OW 6538   7.014   1.920   3.248
 1880SOL    HW1 6539   6.995   1.825   3.272
 1880SOL    HW2 6540   0.065   1.955   3.306
 1881SOL     OW 6541   0.877   2.434   3.991
 1881SOL    HW1 6542   0.845   2.448   3.897
 1881SOL    HW2 6543   0.860   2.339   4.018
 1882SOL     OW 6544   1.328   6.070   0.013
 1882SOL    HW1 6545   1.405   6.045   0.072
 1882SOL    HW2 6546   1.295   5.988   6.988
 1883SOL     OW 6547   1.309   3.896   3.153
 1883SOL    HW1 6548   1.214   3.923   3.134
 1883SOL    HW2 6549   1.323   3.803   3.121
 1884SOL     OW 6550   3.070   1.110   0.416
 1884SOL    HW1 6551   2.972   1.111   0.434
 1884SOL    HW2 6552   3.093   1.181   0.350
 1885SOL     OW 6553   0.209   2.791   0.874
 1885SOL    HW1 6554   0.277   2.738   0.822
 1885SOL    HW2 6555   0.155   2.847   0.811
 1886SOL     OW 6556   2.178   1.813   6.713
 1886SOL    HW1 6557   2.277   1.827   6.715
 1886SOL    HW2 6558   2.156   1.729   6.763
 1887SOL     OW 6559   0.940   5.769   5.458
 1887SOL    HW1 6560   0.957   5.867   5.446
 1887SOL    HW2 6561   1.026   5.719   5.451
 1888SOL     OW 6562   2.058   1.847   5.503
 1888SOL    HW1 6563   2.051   1.942   5.531
 1888SOL    HW2 6564   2.024   1.787   5.575
 1889SOL     OW 6565   4.287   2.880   0.111
 1889SOL    HW1 6566   4.386   2.879   0.124
 1889SOL    HW2 6567   4.264   2.835   0.024
 1890SOL     OW 6568   0.560   5.618   6.384
 1890SOL    HW1 6569   0.597   5.677   6.313
 1890SOL    HW2 6570   0.608   5.530   6.383
 1891SOL     OW 6571   5.417   3.643   5.613
 1891SOL    HW1 6572   5.394   3.702   5.536
 1891SOL    HW2 6573   5.504   3.671   5.652
 1892SOL     OW 6574   3.850   5.710   1.229
 1892SOL    HW1 6575   3.751   5.725   1.228
 1892SOL    HW2 6576   3.879   5.689   1.322
 1893SOL     OW 6577   3.736   2.061   3.799
 1893SOL    HW1 6578   3.789   2.098   3.722
 1893SOL    HW2 6579   3.781   2.085   3.885
 1894SOL     OW 6580   4.515   3.809   1.710
 1894SOL    HW1 6581   4.571   3.744   1.660
 1894SOL    HW2 6582   4.418   3.791   1.693
 1895SOL     OW 6583   6.355   0.949   2.455
 1895SOL    HW1 6584   6.361   0.862   2.503
 1895SOL    HW2 6585   6.259   0.969   2.433
 1896SOL     OW 6586   6.001   1.857   4.535
 1896SOL    HW1 6587   6.029   1.817   4.623
 1896SOL    HW2 6588   6.039   1.802   4.460
 1897SOL     OW 6589   6.158   4.950   3.647
 1897SOL    HW1 6590   6.123   5.012   3.717
 1897SOL    HW2 6591   6.239   4.904   3.682
 1898SOL     OW 6592   5.757   5.689   0.857
 1898SOL    HW1 6593   5.841   5.694   0.911
 1898SOL    HW2 6594   5.678   5.683   0.918
 1899SOL     OW 6595   0.473   3.121   3.244
 1899SOL    HW1 6596   0.391   3.066   3.228
 1899SOL    HW2 6597   0.550   3.061   3.264
 1900SOL     OW 6598   1.570   6.222   5.900
 1900SOL    HW1 6599   1.491   6.167   5.929
 1900SOL    HW2 6600   1.636   6.163   5.854
 1901SOL     OW 6601   1.735   0.435   6.981
 1901SOL    HW1 6602   1.698   0.479   0.041
 1901SOL    HW2 6603   1.786   0.502   6.928
 1902SOL     OW 6604   0.800   3.451   4.054
 1902SOL    HW1 6605   0.798   3.397   3.970
 1902SOL    HW2 6606   0.713   3.501   4.064
 1903SOL     OW 6607   6.664   4.295   3.481
 1903SOL    HW1 6608   6.728   4.236   3.430
 1903SOL    HW2 6609   6.709   4.328   3.563
 1904SOL     OW 6610   0.267   0.142   4.387
 1904SOL    HW1 6611   0.215   0.213   4.341
 1904SOL    HW2 6612   0.361   0.173   4.402
 1905SOL     OW 6613   6.879   2.387   4.045
 1905SOL    HW1 6614   6.896   2.429   4.134
 1905SOL    HW2 6615   6.966   2.364   4.002
 1906SOL     OW 6616   2.098   6.803   6.070
 1906SOL    HW1 6617   2.050   6.859   6.002
 1906SOL    HW2 6618   2.194   6.794   6.044
 1907SOL     OW 6619   3.187   6.596   3.236
 1907SOL    HW1 6620   3.178   6.587   3.137
 1907SOL    HW2 6621   3.261   6.660   3.257
 1908SOL     OW 6622   4.348   0.720   5.985
 1908SOL    HW1 6623   4.267   0.664   6.003
 1908SOL    HW2 6624   4.392   0.744   6.072
 1909SOL     OW 6625   2.386   4.557   4.880
 1909SOL    HW1 6626   2.291   4.527   4.874
 1909SOL    HW2 6627   2.389   4.655   4.896
 1910SOL     OW 6628   5.306   2.273   6.458
 1910SOL    HW1 6629   5.283   2.179   6.434
 1910SOL    HW2 6630   5.405   2.280   6.470
 1911SOL     OW 6631   6.637   2.349   5.089
 1911SOL    HW1 6632   6.643   2.256   5.053
 1911SOL    HW2 6633   6.544   2.366   5.122
 1912SOL     OW 6634   3.231   6.829   2.375
 1912SOL    HW1 6635   3.316   6.808   2.327
 1912SOL    HW2 6636   3.248   6.900   2.444
 1913SOL     OW 6637   1.908   5.882   5.065
 1913SOL    HW1 6638   2.005   5.872   5.041
 1913SOL    HW2 6639   1.862   5.794   5.053
 1914SOL     OW 6640   2.537   2.646   6.124
 1914SOL    HW1 6641   2.462   2.712   6.117
 1914SOL    HW2 6642   2.606   2.682   6.187
 1915SOL     OW 6643   4.133   0.526   6.063
 1915SOL    HW1 6644   4.106   0.488   5.975
 1915SOL    HW2 6645   4.218   0.483   6.094
 1916SOL     OW 6646   4.035   5.722   1.492
 1916SOL    HW1 6647   3.995   5.630   1.497
 1916SOL    HW2 6648   4.131   5.716   1.469
 1917SOL     OW 6649   3.087   3.967   4.509
 1917SOL    HW1 6650   3.173   3.985   4.461
 1917SOL    HW2 6651   3.100   3.977   4.608
 1918SOL     OW 6652   5.868   6.424   5.922
 1918SOL    HW1 6653   5.903   6.337   5.887
 1918SOL    HW2 6654   5.894   6.434   6.017
 1919SOL     OW 6655   0.717   6.418   2.467
 1919SOL    HW1 6656   0.670   6.334   2.441
 1919SOL    HW2 6657   0.728   6.477   2.387
 1920SOL     OW 6658   0.453   5.229   3.323
 1920SOL    HW1 6659   0.503   5.142   3.322
 1920SOL    HW2 6660   0.493   5.289   3.393
 1921SOL     OW 6661   1.398   6.250   6.831
 1921SOL    HW1 6662   1.424   6.335   6.878
 1921SOL    HW2 6663   1.364   6.184   6.898
 1922SOL     OW 6664   4.004   3.206   1.651
 1922SOL    HW1 6665   4.013   3.268   1.572
 1922SOL    HW2 6666   3.968   3.118   1.620
 1923SOL     OW 6667   2.220   1.018   0.926
 1923SOL    HW1 6668   2.306   0.972   0.947
 1923SOL    HW2 6669   2.198   1.084   0.997
 1924SOL     OW 6670   6.610   4.580   2.030
 1924SOL    HW1 6671   6.559   4.550   2.111
 1924SOL    HW2 6672   6.648   4.671   2.047
 1925SOL     OW 6673   3.333   3.835   1.992
 1925SOL    HW1 6674   3.238   3.803   1.985
 1925SOL    HW2 6675   3.335   3.919   2.046
 1926SOL     OW 6676   1.393   0.202   4.715
 1926SOL    HW1 6677   1.477   0.256   4.710
 1926SOL    HW2 6678   1.391   0.136   4.640
 1927SOL     OW 6679   4.182   3.628   6.769
 1927SOL    HW1 6680   4.153   3.689   6.843
 1927SOL    HW2 6681   4.261   3.667   6.723
 1928SOL     OW 6682   6.781   3.456   5.880
 1928SOL    HW1 6683   6.814   3.525   5.945
 1928SOL    HW2 6684   6.745   3.502   5.798
 1929SOL     OW 6685   1.479   6.420   1.628
 1929SOL    HW1 6686   1.475   6.517   1.604
 1929SOL    HW2 6687   1.448   6.365   1.551
 1930SOL     OW 6688   6.495   4.395   6.606
 1930SOL    HW1 6689   6.567   4.453   6.567
 1930SOL    HW2 6690   6.417   4.452   6.633
 1931SOL     OW 6691   0.041   3.710   2.861
 1931SOL    HW1 6692   0.013   3.795   2.815
 1931SOL    HW2 6693   0.058   3.730   2.958
 1932SOL     OW 6694   5.066   3.800   2.135
 1932SOL    HW1 6695   4.981   3.850   2.117
 1932SOL    HW2 6696   5.143   3.864   2.137
 1933SOL     OW 6697   3.156   4.289   0.580
 1933SOL    HW1 6698   3.210   4.211   0.550
 1933SOL    HW2 6699   3.076   4.256   0.632
 1934SOL     OW 6700   0.868   0.454   5.599
 1934SOL    HW1 6701   0.908   0.521   5.536
 1934SOL    HW2 6702   0.928   0.441   5.677
 1935SOL     OW 6703   2.254   6.883   4.306
 1935SOL    HW1 6704   2.336   6.929   4.339
 1935SOL    HW2 6705   2.189   6.951   4.272
 1936SOL     OW 6706   5.496   5.908   4.680
 1936SOL    HW1 6707   5.582   5.960   4.675
 1936SOL    HW2 6708   5.514   5.817   4.717
 1937SOL     OW 6709   3.944   6.951   1.655
 1937SOL    HW1 6710   4.014   6.988   1.717
 1937SOL    HW2 6711   3.866   7.013   1.653
 1938SOL     OW 6712   3.671   1.294   3.574
 1938SOL    HW1 6713   3.573   1.302   3.552
 1938SOL    HW2 6714   3.684   1.221   3.641
 1939SOL     OW 6715   1.354   1.211   3.864
 1939SOL    HW1 6716   1.446   1.178   3.884
 1939SOL    HW2 6717   1.287   1.140   3.887
 1940SOL     OW 6718   5.675   5.452   0.005
 1940SOL    HW1 6719   5.710   5.427   6.937
 1940SOL    HW2 6720   5.743   5.427   0.074
 1941SOL     OW 6721   6.332   4.040   3.278
 1941SOL    HW1 6722   6.416   3.985   3.271
 1941SOL    HW2 6723   6.283   4.037   3.191
 1942SOL     OW 6724   6.073   5.637   2.132
 1942SOL    HW1 6725   6.138   5.714   2.131
 1942SOL    HW2 6726   6.081   5.586   2.046
 1943SOL     OW 6727   2.920   5.438   2.878
 1943SOL    HW1 6728   2.922   5.501   2.955
 1943SOL    HW2 6729   2.897   5.346   2.910
 1944SOL     OW 6730   5.787   1.450   6.438
 1944SOL    HW1 6731   5.689   1.471   6.433
 1944SOL    HW2 6732   5.800   1.352   6.431
 1945SOL     OW 6733   4.917   5.376   3.106
 1945SOL    HW1 6734   5.009   5.389   3.069
 1945SOL    HW2 6735   4.850   5.387   3.033
 1946SOL     OW 6736   1.639   0.597   0.993
 1946SOL    HW1 6737   1.621   0.567   1.087
 1946SOL    HW2 6738   1.556   0.587   0.939
 1947SOL     OW 6739   5.630   6.402   5.111
 1947SOL    HW1 6740   5.579   6.412   5.026
 1947SOL    HW2 6741   5.635   6.491   5.157
 1948SOL     OW 6742   0.076   5.236   4.546
 1948SOL    HW1 6743   0.019   5.291   4.485
 1948SOL    HW2 6744   0.031   5.229   4.635
 1949SOL     OW 6745   4.155   4.385   6.203
 1949SOL    HW1 6746   4.061   4.352   6.213
 1949SOL    HW2 6747   4.152   4.482   6.177
 1950SOL     OW 6748   3.886   3.795   6.484
 1950SOL    HW1 6749   3.905   3.708   6.530
 1950SOL    HW2 6750   3.835   3.855   6.546
 1951SOL     OW 6751   5.482   2.085   0.264
 1951SOL    HW1 6752   5.474   2.184   0.275
 1951SOL    HW2 6753   5.561   2.064   0.206
 1952SOL     OW 6754   3.515   2.138   0.717
 1952SOL    HW1 6755   3.550   2.171   0.805
 1952SOL    HW2 6756   3.564   2.056   0.691
 1953SOL     OW 6757   6.857   2.310   7.013
 1953SOL    HW1 6758   6.881   2.292   6.918
 1953SOL    HW2 6759   6.936   2.295   0.049
 1954SOL     OW 6760   5.439   1.651   3.707
 1954SOL    HW1 6761   5.509   1.676   3.774
 1954SOL    HW2 6762   5.442   1.716   3.631
 1955SOL     OW 6763   1.599   0.321   2.227
 1955SOL    HW1 6764   1.519   0.353   2.175
 1955SOL    HW2 6765   1.681   0.332   2.170
 1956SOL     OW 6766   4.894   6.059   2.926
 1956SOL    HW1 6767   4.938   6.013   2.849
 1956SOL    HW2 6768   4.930   6.022   3.012
 1957SOL     OW 6769   0.098   5.926   4.881
 1957SOL    HW1 6770   0.126   5.922   4.977
 1957SOL    HW2 6771   0.052   6.013   4.863
 1958SOL     OW 6772   5.566   3.386   4.669
 1958SOL    HW1 6773   5.589   3.373   4.572
 1958SOL    HW2 6774   5.507   3.466   4.678
 1959SOL     OW 6775   0.747   2.637   5.567
 1959SOL    HW1 6776   0.649   2.638   5.586
 1959SOL    HW2 6777   0.780   2.543   5.568
 1960SOL     OW 6778   6.400   4.709   0.659
 1960SOL    HW1 6779   6.433   4.619   0.630
 1960SOL    HW2 6780   6.477   4.771   0.667
 1961SOL     OW 6781   5.916   5.171   4.305
 1961SOL    HW1 6782   5.885   5.076   4.318
 1961SOL    HW2 6783   5.982   5.194   4.377
 1962SOL     OW 6784   1.325   6.358   3.670
 1962SOL    HW1 6785   1.241   6.374   3.723
 1962SOL    HW2 6786   1.404   6.357   3.732
 1963SOL     OW 6787   0.783   0.660   1.621
 1963SOL    HW1 6788   0.802   0.713   1.538
 1963SOL    HW2 6789   0.803   0.716   1.701
 1964SOL     OW 6790   4.749   2.690   1.468
 1964SOL    HW1 6791   4.650   2.677   1.465
 1964SOL    HW2 6792   4.770   2.768   1.527
 1965SOL     OW 6793   0.655   3.171   2.563
 1965SOL    HW1 6794   0.642   3.074   2.546
 1965SOL    HW2 6795   0.731   3.184   2.627
 1966SOL     OW 6796   0.316   5.063   4.769
 1966SOL    HW1 6797   0.358   5.153   4.762
 1966SOL    HW2 6798   0.387   4.993   4.761
 1967SOL     OW 6799   4.792   2.362   5.918
 1967SOL    HW1 6800   4.728   2.438   5.932
 1967SOL    HW2 6801   4.838   2.375   5.830
 1968SOL     OW 6802   2.939   5.872   6.820
 1968SOL    HW1 6803   2.852   5.910   6.790
 1968SOL    HW2 6804   2.937   5.772   6.812
 1969SOL     OW 6805   6.664   2.440   1.675
 1969SOL    HW1 6806   6.686   2.519   1.617
 1969SOL    HW2 6807   6.739   2.424   1.739
 1970SOL     OW 6808   1.889   0.318   5.799
 1970SOL    HW1 6809   1.911   0.357   5.888
 1970SOL    HW2 6810   1.799   0.350   5.770
 1971SOL     OW 6811   6.952   6.825   6.749
 1971SOL    HW1 6812   6.908   6.799   6.664
 1971SOL    HW2 6813   0.028   6.813   6.741
 1972SOL     OW 6814   0.532   3.416   3.486
 1972SOL    HW1 6815   0.515   3.478   3.562
 1972SOL    HW2 6816   0.557   3.326   3.521
 1973SOL     OW 6817   3.583   2.776   1.753
 1973SOL    HW1 6818   3.522   2.705   1.717
 1973SOL    HW2 6819   3.549   2.806   1.843
 1974SOL     OW 6820   6.114   6.239   4.142
 1974SOL    HW1 6821   6.141   6.335   4.148
 1974SOL    HW2 6822   6.038   6.222   4.205
 1975SOL     OW 6823   1.834   0.603   3.828
 1975SOL    HW1 6824   1.736   0.622   3.826
 1975SOL    HW2 6825   1.854   0.522   3.774
 1976SOL     OW 6826   0.367   6.108   0.304
 1976SOL    HW1 6827   0.466   6.109   0.290
 1976SOL    HW2 6828   0.329   6.196   0.275
 1977SOL     OW 6829   0.666   2.953   3.794
 1977SOL    HW1 6830   0.617   2.882   3.845
 1977SOL    HW2 6831   0.606   3.032   3.780
 1978SOL     OW 6832   0.931   1.426   4.430
 1978SOL    HW1 6833   0.852   1.391   4.480
 1978SOL    HW2 6834   0.978   1.494   4.486
 1979SOL     OW 6835   6.970   4.463   5.297
 1979SOL    HW1 6836   6.871   4.476   5.303
 1979SOL    HW2 6837   7.006   4.443   5.388
 1980SOL     OW 6838   3.349   0.556   0.760
 1980SOL    HW1 6839   3.257   0.596   0.758
 1980SOL    HW2 6840   3.383   0.555   0.854
 1981SOL     OW 6841   5.177   2.248   2.385
 1981SOL    HW1 6842   5.182   2.331   2.441
 1981SOL    HW2 6843   5.266   2.231   2.343
 1982SOL     OW 6844   6.165   5.176   5.220
 1982SOL    HW1 6845   6.262   5.167   5.241
 1982SOL    HW2 6846   6.145   5.270   5.192
 1983SOL     OW 6847   1.138   2.471   3.368
 1983SOL    HW1 6848   1.134   2.400   3.298
 1983SOL    HW2 6849   1.161   2.559   3.326
 1984SOL     OW 6850   4.518   1.903   6.035
 1984SOL    HW1 6851   4.437   1.861   5.994
 1984SOL    HW2 6852   4.508   2.002   6.035
 1985SOL     OW 6853   0.942   1.533   2.406
 1985SOL    HW1 6854   0.981   1.447   2.439
 1985SOL    HW2 6855   0.896   1.519   2.319
 1986SOL     OW 6856   0.970   1.450   7.008
 1986SOL    HW1 6857   0.923   1.523   0.034
 1986SOL    HW2 6858   1.038   1.408   0.045
 1987SOL     OW 6859   2.914   2.962   1.632
 1987SOL    HW1 6860   2.890   2.890   1.567
 1987SOL    HW2 6861   2.994   2.935   1.685
 1988SOL     OW 6862   4.859   4.306   0.101
 1988SOL    HW1 6863   4.925   4.280   0.172
 1988SOL    HW2 6864   4.814   4.391   0.127
 1989SOL     OW 6865   2.134   0.295   4.461
 1989SOL    HW1 6866   2.051   0.318   4.411
 1989SOL    HW2 6867   2.210   0.351   4.427
 1990SOL     OW 6868   3.232   0.186   1.973
 1990SOL    HW1 6869   3.264   0.137   2.054
 1990SOL    HW2 6870   3.309   0.236   1.932
 1991SOL     OW 6871   3.493   5.392   5.578
 1991SOL    HW1 6872   3.477   5.490   5.564
 1991SOL    HW2 6873   3.411   5.351   5.620
 1992SOL     OW 6874   3.049   6.987   5.633
 1992SOL    HW1 6875   2.984   6.934   5.688
 1992SOL    HW2 6876   3.002   0.007   5.557
 1993SOL     OW 6877   3.717   3.796   5.394
 1993SOL    HW1 6878   3.687   3.792   5.298
 1993SOL    HW2 6879   3.805   3.749   5.403
 1994SOL     OW 6880   0.774   2.331   2.144
 1994SOL    HW1 6881   0.674   2.337   2.150
 1994SOL    HW2 6882   0.800   2.249   2.093
 1995SOL     OW 6883   6.049   2.077   2.588
 1995SOL    HW1 6884   6.039   2.175   2.572
 1995SOL    HW2 6885   6.047   2.058   2.686
 1996SOL     OW 6886   3.306   2.699   0.985
 1996SOL    HW1 6887   3.316   2.736   1.078
 1996SOL    HW2 6888   3.291   2.600   0.990
 1997SOL     OW 6889   5.785   0.967   5.102
 1997SOL    HW1 6890   5.858   0.902   5.124
 1997SOL    HW2 6891   5.814   1.028   5.029
 1998SOL     OW 6892   2.831   3.722   6.632
 1998SOL    HW1 6893   2.851   3.819   6.615
 1998SOL    HW2 6894   2.747   3.696   6.584
 1999SOL     OW 6895   2.567   0.464   2.137
 1999SOL    HW1 6896   2.665   0.487   2.143
 1999SOL    HW2 6897   2.553   0.401   2.061
 2000SOL     OW 6898   4.200   1.449   5.061
 2000SOL    HW1 6899   4.239   1.371   5.109
 2000SOL    HW2 6900   4.201   1.529   5.121
 2001SOL     OW 6901   3.609   2.264   1.565
 2001SOL    HW1 6902   3.643   2.326   1.636
 2001SOL    HW2 6903   3.516   2.291   1.540
 2002SOL     OW 6904   1.482   6.069   6.227
 2002SOL    HW1 6905   1.427   6.122   6.292
 2002SOL    HW2 6906   1.568   6.041   6.271
 2003SOL     OW 6907   4.805   0.007   3.877
 2003SOL    HW1 6908   4.902   0.027   3.891
 2003SOL    HW2 6909   4.761   7.015   3.965
 2004SOL     OW 6910   4.595   1.034   4.439
 2004SOL    HW1 6911   4.505   0.992   4.435
 2004SOL    HW2 6912   4.604   1.104   4.368
 2005SOL     OW 6913   1.760   5.894   6.688
 2005SOL    HW1 6914   1.754   5.862   6.783
 2005SOL    HW2 6915   1.723   5.824   6.627
 2006SOL     OW 6916   5.017   4.486   3.647
 2006SOL    HW1 6917   4.948   4.457   3.714
 2006SOL    HW2 6918   5.054   4.574   3.674
 2007SOL     OW 6919   5.044   5.255   0.129
 2007SOL    HW1 6920   4.973   5.205   0.177
 2007SOL    HW2 6921   5.087   5.320   0.192
 2008SOL     OW 6922   0.616   5.610   3.756
 2008SOL    HW1 6923   0.596   5.599   3.658
 2008SOL    HW2 6924   0.658   5.526   3.790
 2009SOL     OW 6925   6.398   0.610   1.902
 2009SOL    HW1 6926   6.428   0.579   1.812
 2009SOL    HW2 6927   6.400   0.710   1.904
 2010SOL     OW 6928   1.913   1.196   0.883
 2010SOL    HW1 6929   1.842   1.125   0.890
 2010SOL    HW2 6930   1.978   1.171   0.810
 2011SOL     OW 6931   6.650   2.534   4.759
 2011SOL    HW1 6932   6.665   2.598   4.834
 2011SOL    HW2 6933   6.576   2.569   4.701
 2012SOL     OW 6934   0.949   3.568   1.444
 2012SOL    HW1 6935   1.008   3.630   1.496
 2012SOL    HW2 6936   0.958   3.586   1.346
 2013SOL     OW 6937   5.401   1.443   2.700
 2013SOL    HW1 6938   5.480   1.471   2.645
 2013SOL    HW2 6939   5.351   1.371   2.653
 2014SOL     OW 6940   1.095   5.816   3.391
 2014SOL    HW1 6941   1.011   5.777   3.430
 2014SOL    HW2 6942   1.085   5.916   3.386
 2015SOL     OW 6943   3.208   1.217   6.863
 2015SOL    HW1 6944   3.135   1.234   6.798
 2015SOL    HW2 6945   3.255   1.132   6.840
 2016SOL     OW 6946   0.401   5.434   4.776
 2016SOL    HW1 6947   0.322   5.395   4.825
 2016SOL    HW2 6948   0.421   5.525   4.813
 2017SOL     OW 6949   3.517   6.814   3.533
 2017SOL    HW1 6950   3.551   6.876   3.462
 2017SOL    HW2 6951   3.590   6.750   3.558
 2018SOL     OW 6952   7.016   5.678   5.699
 2018SOL    HW1 6953   0.032   5.770   5.706
 2018SOL    HW2 6954   0.067   5.612   5.689
 2019SOL     OW 6955   5.304   2.670   1.378
 2019SOL    HW1 6956   5.216   2.628   1.399
 2019SOL    HW2 6957   5.359   2.606   1.324
 2020SOL     OW 6958   1.270   5.216   4.968
 2020SOL    HW1 6959   1.228   5.130   4.941
 2020SOL    HW2 6960   1.216   5.259   5.040
 2021SOL     OW 6961   2.231   0.111   2.947
 2021SOL    HW1 6962   2.233   0.197   2.896
 2021SOL    HW2 6963   2.270   0.126   3.038
 2022SOL     OW 6964   1.747   3.935   2.055
 2022SOL    HW1 6965   1.658   3.921   2.013
 2022SOL    HW2 6966   1.766   3.860   2.119
 2023SOL     OW 6967   0.153   1.770   0.005
 2023SOL    HW1 6968   0.146   1.869   0.021
 2023SOL    HW2 6969   0.073   1.740   6.975
 2024SOL     OW 6970   6.898   0.989   2.661
 2024SOL    HW1 6971   6.843   0.924   2.608
 2024SOL    HW2 6972   6.904   1.076   2.612
 2025SOL     OW 6973   1.791   2.292   1.824
 2025SOL    HW1 6974   1.698   2.261   1.803
 2025SOL    HW2 6975   1.817   2.259   1.915
 2026SOL     OW 6976   1.942   2.049   6.050
 2026SOL    HW1 6977   2.029   2.097   6.062
 2026SOL    HW2 6978   1.867   2.107   6.083
 2027SOL     OW 6979   1.034   1.214   1.257
 2027SOL    HW1 6980   1.031   1.287   1.325
 2027SOL    HW2 6981   0.955   1.154   1.271
 2028SOL     OW 6982   3.674   1.785   0.422
 2028SOL    HW1 6983   3.670   1.870   0.473
 2028SOL    HW2 6984   3.726   1.799   0.337
 2029SOL     OW 6985   0.793   0.584   6.675
 2029SOL    HW1 6986   0.749   0.569   6.587
 2029SOL    HW2 6987   0.885   0.546   6.674
 2030SOL     OW 6988   1.523   2.572   3.498
 2030SOL    HW1 6989   1.468   2.535   3.423
 2030SOL    HW2 6990   1.477   2.651   3.537
 2031SOL     OW 6991   5.642   5.900   2.050
 2031SOL    HW1 6992   5.607   5.994   2.051
 2031SOL    HW2 6993   5.565   5.836   2.059
 2032SOL     OW 6994   5.468   6.114   1.050
 2032SOL    HW1 6995   5.426   6.048   0.987
 2032SOL    HW2 6996   5.469   6.205   1.007
 2033SOL     OW 6997   4.164   4.668   6.500
 2033SOL    HW1 6998   4.187   4.583   6.546
 2033SOL    HW2 6999   4.065   4.671   6.482
 2034SOL     OW 7000   1.564   6.379   3.814
 2034SOL    HW1 7001   1.604   6.291   3.787
 2034SOL    HW2 7002   1.569   6.388   3.914
 2035SOL     OW 7003   6.761   2.080   2.751
 2035SOL    HW1 7004   6.711   1.999   2.780
 2035SOL    HW2 7005   6.827   2.055   2.681
 2036SOL     OW 7006   0.409   5.718   1.740
 2036SOL    HW1 7007   0.397   5.801   1.685
 2036SOL    HW2 7008   0.363   5.730   1.828
 2037SOL     OW 7009   6.591   2.410   5.884
 2037SOL    HW1 7010   6.690   2.425   5.883
 2037SOL    HW2 7011   6.567   2.346   5.957
 2038SOL     OW 7012   0.617   1.930   6.729
 2038SOL    HW1 7013   0.613   1.892   6.637
 2038SOL    HW2 7014   0.526   1.934   6.768
 2039SOL     OW 7015   0.459   5.760   2.899
 2039SOL    HW1 7016   0.525   5.686   2.915
 2039SOL    HW2 7017   0.388   5.727   2.836
 2040SOL     OW 7018   3.707   2.856   4.883
 2040SOL    HW1 7019   3.738   2.771   4.925
 2040SOL    HW2 7020   3.633   2.837   4.819
 2041SOL     OW 7021   6.436   5.156   6.668
 2041SOL    HW1 7022   6.476   5.154   6.576
 2041SOL    HW2 7023   6.469   5.237   6.717
 2042SOL     OW 7024   5.841   5.463   0.242
 2042SOL    HW1 7025   5.896   5.403   0.299
 2042SOL    HW2 7026   5.851   5.557   0.272
 2043SOL     OW 7027   6.517   5.348   2.038
 2043SOL    HW1 7028   6.432   5.346   2.091
 2043SOL    HW2 7029   6.590   5.387   2.092
 2044SOL     OW 7030   5.115   0.248   1.835
 2044SOL    HW1 7031   5.198   0.203   1.871
 2044SOL    HW2 7032   5.129   0.347   1.834
 2045SOL     OW 7033   1.179   4.366   5.211
 2045SOL    HW1 7034   1.082   4.368   5.234
 2045SOL    HW2 7035   1.217   4.458   5.220
 2046SOL     OW 7036   6.876   0.719   4.060
 2046SOL    HW1 7037   6.894   0.621   4.058
 2046SOL    HW2 7038   6.779   0.734   4.081
 2047SOL     OW 7039   4.569   1.670   0.457
 2047SOL    HW1 7040   4.562   1.651   0.554
 2047SOL    HW2 7041   4.478   1.676   0.417
 2048SOL     OW 7042   3.759   6.466   6.946
 2048SOL    HW1 7043   3.832   6.489   7.011
 2048SOL    HW2 7044   3.777   6.510   6.858
 2049SOL     OW 7045   4.605   2.343   6.938
 2049SOL    HW1 7046   4.681   2.402   6.910
 2049SOL    HW2 7047   4.542   2.332   6.862
 2050SOL     OW 7048   5.944   2.840   3.365
 2050SOL    HW1 7049   5.853   2.864   3.399
 2050SOL    HW2 7050   6.013   2.869   3.431
 2051SOL     OW 7051   6.731   4.557   6.470
 2051SOL    HW1 7052   6.799   4.623   6.437
 2051SOL    HW2 7053   6.771   4.465   6.470
 2052SOL     OW 7054   0.348   3.143   6.724
 2052SOL    HW1 7055   0.250   3.146   6.745
 2052SOL    HW2 7056   0.365   3.076   6.652
 2053SOL     OW 7057   6.552   0.529   1.031
 2053SOL    HW1 7058   6.461   0.558   1.060
 2053SOL    HW2 7059   6.544   0.455   0.964
 2054SOL     OW 7060   5.547   2.937   1.382
 2054SOL    HW1 7061   5.515   3.027   1.352
 2054SOL    HW2 7062   5.505   2.915   1.470
 2055SOL     OW 7063   5.612   3.209   2.930
 2055SOL    HW1 7064   5.559   3.143   2.877
 2055SOL    HW2 7065   5.578   3.211   3.024
 2056SOL     OW 7066   2.068   1.441   2.187
 2056SOL    HW1 7067   2.163   1.462   2.162
 2056SOL    HW2 7068   2.037   1.506   2.256
 2057SOL     OW 7069   5.658   2.455   3.924
 2057SOL    HW1 7070   5.562   2.440   3.950
 2057SOL    HW2 7071   5.685   2.547   3.951
 2058SOL     OW 7072   1.206   1.697   3.089
 2058SOL    HW1 7073   1.107   1.713   3.100
 2058SOL    HW2 7074   1.220   1.615   3.035
 2059SOL     OW 7075   2.068   6.756   6.631
 2059SOL    HW1 7076   1.969   6.744   6.642
 2059SOL    HW2 7077   2.086   6.828   6.564
 2060SOL     OW 7078   6.869   4.462   0.868
 2060SOL    HW1 7079   6.822   4.506   0.945
 2060SOL    HW2 7080   6.829   4.493   0.782
 2061SOL     OW 7081   0.601   1.617   2.717
 2061SOL    HW1 7082   0.693   1.623   2.680
 2061SOL    HW2 7083   0.600   1.650   2.811
 2062SOL     OW 7084   5.307   0.526   3.105
 2062SOL    HW1 7085   5.379   0.462   3.131
 2062SOL    HW2 7086   5.332   0.573   3.021
 2063SOL     OW 7087   0.883   0.851   0.123
 2063SOL    HW1 7088   0.949   0.807   0.062
 2063SOL    HW2 7089   0.916   0.844   0.217
 2064SOL     OW 7090   0.920   1.867   5.649
 2064SOL    HW1 7091   1.010   1.825   5.638
 2064SOL    HW2 7092   0.858   1.801   5.693
 2065SOL     OW 7093   5.843   3.772   2.031
 2065SOL    HW1 7094   5.835   3.865   2.066
 2065SOL    HW2 7095   5.843   3.773   1.931
 2066SOL     OW 7096   0.750   5.547   4.093
 2066SOL    HW1 7097   0.735   5.644   4.071
 2066SOL    HW2 7098   0.707   5.526   4.181
 2067SOL     OW 7099   0.121   6.474   0.918
 2067SOL    HW1 7100   0.132   6.393   0.976
 2067SOL    HW2 7101   0.111   6.444   0.823
 2068SOL     OW 7102   1.380   1.458   5.453
 2068SOL    HW1 7103   1.437   1.439   5.374
 2068SOL    HW2 7104   1.386   1.556   5.476
 2069SOL     OW 7105   0.111   2.346   3.686
 2069SOL    HW1 7106   0.047   2.403   3.634
 2069SOL    HW2 7107   0.202   2.351   3.645
 2070SOL     OW 7108   1.955   6.935   2.579
 2070SOL    HW1 7109   1.856   6.943   2.579
 2070SOL    HW2 7110   1.996   7.014   2.624
 2071SOL     OW 7111   0.311   6.148   4.850
 2071SOL    HW1 7112   0.312   6.177   4.754
 2071SOL    HW2 7113   0.405   6.134   4.882
 2072SOL     OW 7114   4.248   6.127   1.505
 2072SOL    HW1 7115   4.323   6.172   1.458
 2072SOL    HW2 7116   4.212   6.053   1.448
 2073SOL     OW 7117   3.721   6.748   4.688
 2073SOL    HW1 7118   3.644   6.698   4.649
 2073SOL    HW2 7119   3.699   6.845   4.692
 2074SOL     OW 7120   0.308   2.168   6.707
 2074SOL    HW1 7121   0.349   2.116   6.633
 2074SOL    HW2 7122   0.380   2.214   6.760
 2075SOL     OW 7123   5.087   2.531   1.403
 2075SOL    HW1 7124   5.011   2.489   1.454
 2075SOL    HW2 7125   5.128   2.463   1.343
 2076SOL     OW 7126   5.106   5.858   6.826
 2076SOL    HW1 7127   5.201   5.864   6.857
 2076SOL    HW2 7128   5.074   5.949   6.800
 2077SOL     OW 7129   4.898   2.531   1.838
 2077SOL    HW1 7130   4.858   2.466   1.903
 2077SOL    HW2 7131   4.848   2.617   1.842
 2078SOL     OW 7132   2.477   6.130   6.279
 2078SOL    HW1 7133   2.530   6.148   6.197
 2078SOL    HW2 7134   2.536   6.090   6.349
 2079SOL     OW 7135   5.706   0.706   3.577
 2079SOL    HW1 7136   5.619   0.745   3.549
 2079SOL    HW2 7137   5.713   0.708   3.676
 2080SOL     OW 7138   2.041   1.265   5.068
 2080SOL    HW1 7139   1.944   1.251   5.047
 2080SOL    HW2 7140   2.079   1.333   5.005
 2081SOL     OW 7141   1.477   5.740   4.848
 2081SOL    HW1 7142   1.431   5.809   4.904
 2081SOL    HW2 7143   1.536   5.784   4.781
 2082SOL     OW 7144   6.180   0.374   2.176
 2082SOL    HW1 7145   6.229   0.352   2.260
 2082SOL    HW2 7146   6.227   0.333   2.098
 2083SOL     OW 7147   3.910   4.131   6.528
 2083SOL    HW1 7148   3.833   4.068   6.542
 2083SOL    HW2 7149   3.927   4.143   6.431
 2084SOL     OW 7150   6.857   4.042   3.629
 2084SOL    HW1 7151   6.847   3.968   3.562
 2084SOL    HW2 7152   6.898   4.122   3.584
 2085SOL     OW 7153   5.577   0.964   6.915
 2085SOL    HW1 7154   5.618   1.052   6.891
 2085SOL    HW2 7155   5.477   0.971   6.910
 2086SOL     OW 7156   2.877   5.936   6.100
 2086SOL    HW1 7157   2.969   5.962   6.070
 2086SOL    HW2 7158   2.861   5.970   6.193
 2087SOL     OW 7159   4.576   6.711   1.905
 2087SOL    HW1 7160   4.664   6.663   1.901
 2087SOL    HW2 7161   4.507   6.651   1.944
 2088SOL     OW 7162   2.759   5.310   0.535
 2088SOL    HW1 7163   2.799   5.328   0.625
 2088SOL    HW2 7164   2.819   5.250   0.483
 2089SOL     OW 7165   4.014   1.525   0.050
 2089SOL    HW1 7166   4.088   1.582   0.086
 2089SOL    HW2 7167   3.926   1.558   0.084
 2090SOL     OW 7168   4.018   3.485   4.699
 2090SOL    HW1 7169   4.052   3.436   4.619
 2090SOL    HW2 7170   4.085   3.479   4.773
 2091SOL     OW 7171   0.335   6.433   7.004
 2091SOL    HW1 7172   0.269   6.461   6.934
 2091SOL    HW2 7173   0.287   6.412   0.066
 2092SOL     OW 7174   5.091   5.788   0.459
 2092SOL    HW1 7175   5.125   5.742   0.542
 2092SOL    HW2 7176   5.150   5.764   0.382
 2093SOL     OW 7177   1.937   2.126   1.314
 2093SOL    HW1 7178   1.895   2.215   1.295
 2093SOL    HW2 7179   2.007   2.138   1.385
 2094SOL     OW 7180   6.089   1.493   1.351
 2094SOL    HW1 7181   6.014   1.428   1.339
 2094SOL    HW2 7182   6.082   1.535   1.442
 2095SOL     OW 7183   5.670   0.134   3.914
 2095SOL    HW1 7184   5.600   0.110   3.981
 2095SOL    HW2 7185   5.760   0.110   3.949
 2096SOL     OW 7186   4.816   4.046   2.646
 2096SOL    HW1 7187   4.731   4.095   2.662
 2096SOL    HW2 7188   4.846   4.002   2.731
 2097SOL     OW 7189   1.157   2.986   6.980
 2097SOL    HW1 7190   1.058   2.981   6.994
 2097SOL    HW2 7191   1.185   2.913   6.918
 2098SOL     OW 7192   3.723   5.329   3.285
 2098SOL    HW1 7193   3.766   5.326   3.375
 2098SOL    HW2 7194   3.728   5.239   3.242
 2099SOL     OW 7195   2.369   2.294   4.883
 2099SOL    HW1 7196   2.301   2.364   4.909
 2099SOL    HW2 7197   2.442   2.337   4.830
 2100SOL     OW 7198   3.700   3.796   6.076
 2100SOL    HW1 7199   3.601   3.792   6.074
 2100SOL    HW2 7200   3.738   3.703   6.072
 2101SOL     OW 7201   1.660   6.516   2.695
 2101SOL    HW1 7202   1.648   6.564   2.609
 2101SOL    HW2 7203   1.743   6.460   2.690
 2102SOL     OW 7204   0.747   5.305   1.761
 2102SOL    HW1 7205   0.655   5.280   1.793
 2102SOL    HW2 7206   0.813   5.286   1.834
 2103SOL     OW 7207   3.031   3.623   6.469
 2103SOL    HW1 7208   2.952   3.668   6.510
 2103SOL    HW2 7209   3.003   3.535   6.430
 2104SOL     OW 7210   1.176   3.492   6.843
 2104SOL    HW1 7211   1.173   3.398   6.877
 2104SOL    HW2 7212   1.226   3.495   6.757
 2105SOL     OW 7213   5.600   5.175   3.811
 2105SOL    HW1 7214   5.641   5.117   3.740
 2105SOL    HW2 7215   5.601   5.126   3.899
 2106SOL     OW 7216   4.430   5.015   0.550
 2106SOL    HW1 7217   4.444   5.108   0.583
 2106SOL    HW2 7218   4.518   4.969   0.539
 2107SOL     OW 7219   4.209   2.570   5.660
 2107SOL    HW1 7220   4.131   2.508   5.644
 2107SOL    HW2 7221   4.245   2.601   5.572
 2108SOL     OW 7222   6.980   6.581   5.946
 2108SOL    HW1 7223   6.898   6.627   5.981
 2108SOL    HW2 7224   6.998   6.499   5.999
 2109SOL     OW 7225   5.074   6.718   3.791
 2109SOL    HW1 7226   5.142   6.790   3.802
 2109SOL    HW2 7227   5.021   6.733   3.708
 2110SOL     OW 7228   3.214   3.370   5.993
 2110SOL    HW1 7229   3.183   3.367   5.898
 2110SOL    HW2 7230   3.267   3.288   6.014
 2111SOL     OW 7231   0.712   1.577   6.585
 2111SOL    HW1 7232   0.716   1.478   6.598
 2111SOL    HW2 7233   0.617   1.605   6.572
 2112SOL     OW 7234   4.383   1.930   1.284
 2112SOL    HW1 7235   4.343   1.976   1.206
 2112SOL    HW2 7236   4.326   1.945   1.365
 2113SOL     OW 7237   1.101   0.511   3.930
 2113SOL    HW1 7238   1.060   0.426   3.898
 2113SOL    HW2 7239   1.172   0.541   3.866
 2114SOL     OW 7240   1.713   2.782   0.384
 2114SOL    HW1 7241   1.752   2.732   0.461
 2114SOL    HW2 7242   1.758   2.871   0.376
 2115SOL     OW 7243   2.249   4.186   2.715
 2115SOL    HW1 7244   2.272   4.281   2.695
 2115SOL    HW2 7245   2.157   4.181   2.753
 2116SOL     OW 7246   6.995   4.691   3.611
 2116SOL    HW1 7247   6.999   4.738   3.700
 2116SOL    HW2 7248   0.023   4.606   3.616
 2117SOL     OW 7249   0.210   4.878   0.949
 2117SOL    HW1 7250   0.290   4.937   0.933
 2117SOL    HW2 7251   0.148   4.884   0.871
 2118SOL     OW 7252   0.126   3.369   2.389
 2118SOL    HW1 7253   0.091   3.324   2.307
 2118SOL    HW2 7254   0.078   3.456   2.402
 2119SOL     OW 7255   2.515   5.718   0.971
 2119SOL    HW1 7256   2.459   5.793   0.936
 2119SOL    HW2 7257   2.610   5.749   0.979
 2120SOL     OW 7258   6.640   5.172   3.873
 2120SOL    HW1 7259   6.673   5.223   3.953
 2120SOL    HW2 7260   6.548   5.204   3.849
 2121SOL     OW 7261   1.146   4.548   5.718
 2121SOL    HW1 7262   1.090   4.487   5.662
 2121SOL    HW2 7263   1.220   4.585   5.662
 2122SOL     OW 7264   6.102   4.184   5.745
 2122SOL    HW1 7265   6.068   4.150   5.833
 2122SOL    HW2 7266   6.074   4.279   5.734
 2123SOL     OW 7267   0.295   4.720   2.293
 2123SOL    HW1 7268   0.384   4.675   2.295
 2123SOL    HW2 7269   0.222   4.652   2.302
 2124SOL     OW 7270   2.619   1.043   1.642
 2124SOL    HW1 7271   2.672   0.961   1.620
 2124SOL    HW2 7272   2.669   1.124   1.611
 2125SOL     OW 7273   1.457   0.229   0.276
 2125SOL    HW1 7274   1.545   0.235   0.324
 2125SOL    HW2 7275   1.429   0.133   0.270
 2126SOL     OW 7276   2.887   0.716   1.113
 2126SOL    HW1 7277   2.875   0.617   1.113
 2126SOL    HW2 7278   2.975   0.739   1.072
 2127SOL     OW 7279   6.075   3.321   4.315
 2127SOL    HW1 7280   6.063   3.244   4.377
 2127SOL    HW2 7281   6.126   3.394   4.361
 2128SOL     OW 7282   6.695   3.722   4.747
 2128SOL    HW1 7283   6.789   3.752   4.767
 2128SOL    HW2 7284   6.676   3.734   4.650
 2129SOL     OW 7285   4.585   3.236   5.490
 2129SOL    HW1 7286   4.628   3.147   5.501
 2129SOL    HW2 7287   4.652   3.300   5.450
 2130SOL     OW 7288   4.807   0.357   2.866
 2130SOL    HW1 7289   4.799   0.258   2.869
 2130SOL    HW2 7290   4.818   0.393   2.959
 2131SOL     OW 7291   6.733   0.891   1.371
 2131SOL    HW1 7292   6.822   0.849   1.389
 2131SOL    HW2 7293   6.731   0.925   1.277
 2132SOL     OW 7294   4.254   2.488   1.502
 2132SOL    HW1 7295   4.183   2.458   1.566
 2132SOL    HW2 7296   4.344   2.460   1.536
 2133SOL     OW 7297   2.849   3.013   5.689
 2133SOL    HW1 7298   2.914   3.083   5.658
 2133SOL    HW2 7299   2.893   2.923   5.686
 2134SOL     OW 7300   0.585   2.518   0.622
 2134SOL    HW1 7301   0.545   2.433   0.587
 2134SOL    HW2 7302   0.685   2.507   0.626
 2135SOL     OW 7303   0.701   4.385   4.581
 2135SOL    HW1 7304   0.661   4.313   4.638
 2135SOL    HW2 7305   0.677   4.370   4.486
 2136SOL     OW 7306   2.240   5.012   2.468
 2136SOL    HW1 7307   2.171   5.067   2.515
 2136SOL    HW2 7308   2.256   5.050   2.377
 2137SOL     OW 7309   2.827   5.114   5.567
 2137SOL    HW1 7310   2.739   5.159   5.552
 2137SOL    HW2 7311   2.859   5.075   5.481
 2138SOL     OW 7312   5.930   6.973   2.577
 2138SOL    HW1 7313   5.957   6.972   2.673
 2138SOL    HW2 7314   6.010   6.993   2.520
 2139SOL     OW 7315   3.822   0.876   4.171
 2139SOL    HW1 7316   3.846   0.951   4.232
 2139SOL    HW2 7317   3.835   0.789   4.218
 2140SOL     OW 7318   3.265   6.200   4.158
 2140SOL    HW1 7319   3.179   6.154   4.183
 2140SOL    HW2 7320   3.244   6.279   4.099
 2141SOL     OW 7321   6.459   3.056   2.103
 2141SOL    HW1 7322   6.382   3.102   2.147
 2141SOL    HW2 7323   6.439   2.959   2.092
 2142SOL     OW 7324   0.519   1.502   3.477
 2142SOL    HW1 7325   0.488   1.526   3.385
 2142SOL    HW2 7326   0.559   1.583   3.521
 2143SOL     OW 7327   2.168   4.867   1.094
 2143SOL    HW1 7328   2.258   4.852   1.135
 2143SOL    HW2 7329   2.124   4.944   1.138
 2144SOL     OW 7330   0.677   5.352   4.730
 2144SOL    HW1 7331   0.726   5.431   4.764
 2144SOL    HW2 7332   0.578   5.369   4.734
 2145SOL     OW 7333   4.170   6.892   4.144
 2145SOL    HW1 7334   4.084   6.941   4.133
 2145SOL    HW2 7335   4.156   6.814   4.206
 2146SOL     OW 7336   2.229   2.187   1.107
 2146SOL    HW1 7337   2.276   2.150   1.187
 2146SOL    HW2 7338   2.180   2.271   1.133
 2147SOL     OW 7339   6.439   1.295   6.630
 2147SOL    HW1 7340   6.492   1.274   6.712
 2147SOL    HW2 7341   6.500   1.295   6.551
 2148SOL     OW 7342   6.305   3.560   6.449
 2148SOL    HW1 7343   6.208   3.537   6.448
 2148SOL    HW2 7344   6.317   3.657   6.428
 2149SOL     OW 7345   1.728   1.331   1.129
 2149SOL    HW1 7346   1.682   1.364   1.212
 2149SOL    HW2 7347   1.827   1.336   1.141
 2150SOL     OW 7348   2.554   2.161   1.760
 2150SOL    HW1 7349   2.558   2.100   1.839
 2150SOL    HW2 7350   2.606   2.244   1.780
 2151SOL     OW 7351   0.972   6.474   6.550
 2151SOL    HW1 7352   0.879   6.463   6.585
 2151SOL    HW2 7353   1.038   6.450   6.621
 2152SOL     OW 7354   4.412   4.559   2.449
 2152SOL    HW1 7355   4.369   4.642   2.483
 2152SOL    HW2 7356   4.346   4.507   2.395
 2153SOL     OW 7357   5.155   1.808   1.815
 2153SOL    HW1 7358   5.233   1.778   1.760
 2153SOL    HW2 7359   5.143   1.746   1.893
 2154SOL     OW 7360   2.617   0.243   4.076
 2154SOL    HW1 7361   2.609   0.159   4.023
 2154SOL    HW2 7362   2.705   0.287   4.057
 2155SOL     OW 7363   4.141   6.703   1.077
 2155SOL    HW1 7364   4.084   6.664   1.149
 2155SOL    HW2 7365   4.087   6.765   1.021
 2156SOL     OW 7366   6.794   0.270   5.013
 2156SOL    HW1 7367   6.838   0.337   4.954
 2156SOL    HW2 7368   6.825   0.178   4.988
 2157SOL     OW 7369   4.998   5.655   3.890
 2157SOL    HW1 7370   4.924   5.615   3.836
 2157SOL    HW2 7371   4.960   5.713   3.962
 2158SOL     OW 7372   3.811   5.911   0.378
 2158SOL    HW1 7373   3.814   6.007   0.406
 2158SOL    HW2 7374   3.887   5.892   0.316
 2159SOL     OW 7375   1.578   0.289   5.082
 2159SOL    HW1 7376   1.642   0.235   5.028
 2159SOL    HW2 7377   1.614   0.302   5.174
 2160SOL     OW 7378   5.339   4.834   6.473
 2160SOL    HW1 7379   5.384   4.796   6.392
 2160SOL    HW2 7380   5.344   4.933   6.471
 2161SOL     OW 7381   6.490   4.258   1.671
 2161SOL    HW1 7382   6.482   4.224   1.577
 2161SOL    HW2 7383   6.572   4.315   1.679
 2162SOL     OW 7384   2.539   0.160   3.063
 2162SOL    HW1 7385   2.495   0.229   3.120
 2162SOL    HW2 7386   2.604   0.204   3.001
 2163SOL     OW 7387   1.608   4.501   0.616
 2163SOL    HW1 7388   1.527   4.509   0.674
 2163SOL    HW2 7389   1.582   4.460   0.528
 2164SOL     OW 7390   2.408   2.079   6.862
 2164SOL    HW1 7391   2.325   2.134   6.854
 2164SOL    HW2 7392   2.417   2.045   6.956
 2165SOL     OW 7393   0.561   2.461   3.943
 2165SOL    HW1 7394   0.576   2.382   3.884
 2165SOL    HW2 7395   0.507   2.433   4.022
 2166SOL     OW 7396   0.369   3.725   4.383
 2166SOL    HW1 7397   0.344   3.649   4.323
 2166SOL    HW2 7398   0.466   3.748   4.370
 2167SOL     OW 7399   0.371   3.357   3.880
 2167SOL    HW1 7400   0.304   3.423   3.913
 2167SOL    HW2 7401   0.398   3.297   3.956
 2168SOL     OW 7402   1.269   1.504   2.856
 2168SOL    HW1 7403   1.207   1.440   2.902
 2168SOL    HW2 7404   1.319   1.455   2.784
 2169SOL     OW 7405   0.089   0.620   1.258
 2169SOL    HW1 7406   0.165   0.665   1.211
 2169SOL    HW2 7407   0.083   0.525   1.228
 2170SOL     OW 7408   6.650   4.042   5.058
 2170SOL    HW1 7409   6.614   3.972   4.996
 2170SOL    HW2 7410   6.630   4.015   5.152
 2171SOL     OW 7411   1.092   5.277   1.525
 2171SOL    HW1 7412   0.996   5.298   1.541
 2171SOL    HW2 7413   1.105   5.251   1.429
 2172SOL     OW 7414   2.388   2.231   5.698
 2172SOL    HW1 7415   2.299   2.220   5.655
 2172SOL    HW2 7416   2.460   2.202   5.634
 2173SOL     OW 7417   4.476   0.600   5.689
 2173SOL    HW1 7418   4.503   0.534   5.620
 2173SOL    HW2 7419   4.489   0.693   5.653
 2174SOL     OW 7420   6.506   6.356   5.078
 2174SOL    HW1 7421   6.522   6.284   5.011
 2174SOL    HW2 7422   6.593   6.392   5.110
 2175SOL     OW 7423   1.416   3.468   4.709
 2175SOL    HW1 7424   1.439   3.464   4.806
 2175SOL    HW2 7425   1.490   3.428   4.655
 2176SOL     OW 7426   5.115   1.563   1.174
 2176SOL    HW1 7427   5.039   1.509   1.209
 2176SOL    HW2 7428   5.128   1.644   1.232
 2177SOL     OW 7429   6.599   0.587   2.134
 2177SOL    HW1 7430   6.645   0.675   2.118
 2177SOL    HW2 7431   6.532   0.571   2.062
 2178SOL     OW 7432   1.496   1.116   2.164
 2178SOL    HW1 7433   1.471   1.053   2.091
 2178SOL    HW2 7434   1.523   1.204   2.124
 2179SOL     OW 7435   1.930   3.182   5.990
 2179SOL    HW1 7436   1.846   3.223   5.956
 2179SOL    HW2 7437   1.996   3.172   5.916
 2180SOL     OW 7438   1.333   2.870   2.211
 2180SOL    HW1 7439   1.324   2.911   2.120
 2180SOL    HW2 7440   1.410   2.913   2.259
 2181SOL     OW 7441   4.759   4.997   3.943
 2181SOL    HW1 7442   4.793   4.937   3.871
 2181SOL    HW2 7443   4.660   4.984   3.953
 2182SOL     OW 7444   1.122   5.063   3.637
 2182SOL    HW1 7445   1.200   5.035   3.693
 2182SOL    HW2 7446   1.133   5.159   3.611
 2183SOL     OW 7447   2.355   4.071   0.433
 2183SOL    HW1 7448   2.294   4.150   0.437
 2183SOL    HW2 7449   2.368   4.044   0.338
 2184SOL     OW 7450   3.963   6.791   6.435
 2184SOL    HW1 7451   3.932   6.769   6.342
 2184SOL    HW2 7452   3.912   6.870   6.469
 2185SOL     OW 7453   1.265   1.429   6.779
 2185SOL    HW1 7454   1.281   1.513   6.830
 2185SOL    HW2 7455   1.278   1.446   6.681
 2186SOL     OW 7456   6.606   5.575   6.421
 2186SOL    HW1 7457   6.698   5.538   6.436
 2186SOL    HW2 7458   6.581   5.634   6.497
 2187SOL     OW 7459   0.060   6.318   2.502
 2187SOL    HW1 7460   0.000   6.398   2.511
 2187SOL    HW2 7461   0.027   6.261   2.427
 2188SOL     OW 7462   1.857   5.399   5.562
 2188SOL    HW1 7463   1.836   5.323   5.501
 2188SOL    HW2 7464   1.887   5.363   5.651
 2189SOL     OW 7465   1.651   0.255   1.751
 2189SOL    HW1 7466   1.608   0.165   1.744
 2189SOL    HW2 7467   1.736   0.256   1.698
 2190SOL     OW 7468   6.608   2.955   1.780
 2190SOL    HW1 7469   6.544   3.003   1.719
 2190SOL    HW2 7470   6.673   3.020   1.818
 2191SOL     OW 7471   2.386   1.295   5.149
 2191SOL    HW1 7472   2.450   1.285   5.226
 2191SOL    HW2 7473   2.364   1.204   5.113
 2192SOL     OW 7474   5.014   0.572   2.897
 2192SOL    HW1 7475   4.919   0.581   2.868
 2192SOL    HW2 7476   5.025   0.613   2.988
 2193SOL     OW 7477   6.874   0.328   6.271
 2193SOL    HW1 7478   6.970   0.357   6.277
 2193SOL    HW2 7479   6.832   0.338   6.361
 2194SOL     OW 7480   1.563   3.870   6.332
 2194SOL    HW1 7481   1.519   3.950   6.291
 2194SOL    HW2 7482   1.511   3.840   6.411
 2195SOL     OW 7483   6.951   6.648   5.422
 2195SOL    HW1 7484   6.948   6.743   5.394
 2195SOL    HW2 7485   6.876   6.597   5.378
 2196SOL     OW 7486   2.951   6.496   4.528
 2196SOL    HW1 7487   2.900   6.545   4.457
 2196SOL    HW2 7488   2.891   6.430   4.573
 2197SOL     OW 7489   2.993   3.383   6.342
 2197SOL    HW1 7490   2.947   3.409   6.257
 2197SOL    HW2 7491   2.945   3.306   6.384
 2198SOL     OW 7492   6.500   0.378   1.358
 2198SOL    HW1 7493   6.529   0.307   1.422
 2198SOL    HW2 7494   6.579   0.435   1.334
 2199SOL     OW 7495   5.283   6.998   4.618
 2199SOL    HW1 7496   5.194   0.018   4.632
 2199SOL    HW2 7497   5.269   6.904   4.585
 2200SOL     OW 7498   2.231   1.450   3.928
 2200SOL    HW1 7499   2.324   1.413   3.925
 2200SOL    HW2 7500   2.214   1.504   3.846
 2201SOL     OW 7501   6.288   2.887   2.643
 2201SOL    HW1 7502   6.310   2.979   2.675
 2201SOL    HW2 7503   6.191   2.883   2.619
 2202SOL     OW 7504   3.397   5.894   1.795
 2202SOL    HW1 7505   3.480   5.944   1.774
 2202SOL    HW2 7506   3.402   5.802   1.756
 2203SOL     OW 7507   2.845   3.312   1.417
 2203SOL    HW1 7508   2.936   3.353   1.412
 2203SOL    HW2 7509   2.845   3.225   1.368
 2204SOL     OW 7510   4.317   2.498   1.035
 2204SOL    HW1 7511   4.251   2.515   1.107
 2204SOL    HW2 7512   4.286   2.422   0.978
 2205SOL     OW 7513   1.368   0.227   0.025
 2205SOL    HW1 7514   1.377   0.137   7.005
 2205SOL    HW2 7515   1.416   0.227   0.113
 2206SOL     OW 7516   2.409   4.515   5.883
 2206SOL    HW1 7517   2.438   4.467   5.801
 2206SOL    HW2 7518   2.473   4.589   5.904
 2207SOL     OW 7519   3.644   4.257   0.142
 2207SOL    HW1 7520   3.575   4.263   0.214
 2207SOL    HW2 7521   3.626   4.178   0.084
 2208SOL     OW 7522   0.951   5.206   2.643
 2208SOL    HW1 7523   0.924   5.256   2.726
 2208SOL    HW2 7524   0.932   5.263   2.563
 2209SOL     OW 7525   2.796   6.895   4.833
 2209SOL    HW1 7526   2.853   6.814   4.818
 2209SOL    HW2 7527   2.701   6.872   4.809
 2210SOL     OW 7528   6.824   4.966   3.217
 2210SOL    HW1 7529   6.763   5.040   3.244
 2210SOL    HW2 7530   6.886   4.945   3.293
 2211SOL     OW 7531   6.483   0.932   0.504
 2211SOL    HW1 7532   6.538   0.926   0.587
 2211SOL    HW2 7533   6.386   0.940   0.529
 2212SOL     OW 7534   1.752   5.786   0.307
 2212SOL    HW1 7535   1.771   5.778   0.405
 2212SOL    HW2 7536   1.670   5.733   0.285
 2213SOL     OW 7537   3.971   2.423   5.669
 2213SOL    HW1 7538   3.899   2.396   5.604
 2213SOL    HW2 7539   3.959   2.370   5.753
 2214SOL     OW 7540   2.872   3.443   5.053
 2214SOL    HW1 7541   2.900   3.484   4.966
 2214SOL    HW2 7542   2.892   3.507   5.128
 2215SOL     OW 7543   5.918   0.818   6.602
 2215SOL    HW1 7544   6.003   0.849   6.644
 2215SOL    HW2 7545   5.928   0.815   6.503
 2216SOL     OW 7546   0.410   0.207   6.123
 2216SOL    HW1 7547   0.405   0.295   6.076
 2216SOL    HW2 7548   0.365   0.137   6.067
 2217SOL     OW 7549   4.475   0.388   2.910
 2217SOL    HW1 7550   4.466   0.458   2.981
 2217SOL    HW2 7551   4.509   0.429   2.826
 2218SOL     OW 7552   0.055   5.157   0.219
 2218SOL    HW1 7553   0.090   5.247   0.190
 2218SOL    HW2 7554   6.993   5.137   0.171
 2219SOL     OW 7555   5.947   1.453   0.901
 2219SOL    HW1 7556   5.893   1.515   0.845
 2219SOL    HW2 7557   5.897   1.368   0.914
 2220SOL     OW 7558   1.847   5.723   5.786
 2220SOL    HW1 7559   1.801   5.809   5.762
 2220SOL    HW2 7560   1.889   5.684   5.704
 2221SOL     OW 7561   6.292   1.438   4.961
 2221SOL    HW1 7562   6.258   1.484   5.043
 2221SOL    HW2 7563   6.334   1.505   4.900
 2222SOL     OW 7564   6.117   0.461   0.908
 2222SOL    HW1 7565   6.176   0.480   0.829
 2222SOL    HW2 7566   6.165   0.399   0.970
 2223SOL     OW 7567   5.791   0.634   6.045
 2223SOL    HW1 7568   5.735   0.715   6.060
 2223SOL    HW2 7569   5.732   0.554   6.038
 2224SOL     OW 7570   6.239   3.779   1.045
 2224SOL    HW1 7571   6.301   3.718   1.094
 2224SOL    HW2 7572   6.192   3.728   0.973
 2225SOL     OW 7573   5.922   6.726   3.835
 2225SOL    HW1 7574   5.963   6.665   3.767
 2225SOL    HW2 7575   5.971   6.718   3.922
 2226SOL     OW 7576   3.503   4.986   0.911
 2226SOL    HW1 7577   3.570   5.010   0.840
 2226SOL    HW2 7578   3.412   4.982   0.871
 2227SOL     OW 7579   5.229   2.283   1.282
 2227SOL    HW1 7580   5.211   2.209   1.218
 2227SOL    HW2 7581   5.306   2.338   1.249
 2228SOL     OW 7582   3.846   4.718   0.484
 2228SOL    HW1 7583   3.751   4.748   0.482
 2228SOL    HW2 7584   3.853   4.632   0.535
 2229SOL     OW 7585   3.755   2.959   5.341
 2229SOL    HW1 7586   3.664   2.937   5.306
 2229SOL    HW2 7587   3.793   3.037   5.291
 2230SOL     OW 7588   5.664   6.551   0.883
 2230SOL    HW1 7589   5.649   6.631   0.824
 2230SOL    HW2 7590   5.708   6.581   0.968
 2231SOL     OW 7591   0.150   1.027   0.486
 2231SOL    HW1 7592   0.210   0.974   0.427
 2231SOL    HW2 7593   0.055   1.012   0.459
 2232SOL     OW 7594   1.210   1.466   4.829
 2232SOL    HW1 7595   1.229   1.398   4.759
 2232SOL    HW2 7596   1.260   1.443   4.913
 2233SOL     OW 7597   2.555   2.722   0.676
 2233SOL    HW1 7598   2.551   2.631   0.717
 2233SOL    HW2 7599   2.632   2.773   0.714
 2234SOL     OW 7600   3.652   1.459   1.198
 2234SOL    HW1 7601   3.729   1.398   1.179
 2234SOL    HW2 7602   3.651   1.481   1.295
 2235SOL     OW 7603   2.628   0.036   1.748
 2235SOL    HW1 7604   2.706   0.040   1.685
 2235SOL    HW2 7605   2.579   6.973   1.735
 2236SOL     OW 7606   1.702   3.668   5.848
 2236SOL    HW1 7607   1.779   3.607   5.833
 2236SOL    HW2 7608   1.736   3.758   5.878
 2237SOL     OW 7609   5.842   4.644   4.308
 2237SOL    HW1 7610   5.828   4.654   4.210
 2237SOL    HW2 7611   5.777   4.578   4.345
 2238SOL     OW 7612   4.572   5.283   2.370
 2238SOL    HW1 7613   4.593   5.357   2.434
 2238SOL    HW2 7614   4.497   5.310   2.311
 2239SOL     OW 7615   4.262   5.874   3.731
 2239SOL    HW1 7616   4.168   5.870   3.765
 2239SOL    HW2 7617   4.301   5.782   3.732
 2240SOL     OW 7618   3.401   5.089   2.700
 2240SOL    HW1 7619   3.430   5.111   2.793
 2240SOL    HW2 7620   3.301   5.090   2.695
 2241SOL     OW 7621   6.918   6.533   2.487
 2241SOL    HW1 7622   6.870   6.555   2.402
 2241SOL    HW2 7623   6.852   6.507   2.557
 2242SOL     OW 7624   4.935   3.088   2.213
 2242SOL    HW1 7625   4.873   3.050   2.145
 2242SOL    HW2 7626   4.902   3.178   2.241
 2243SOL     OW 7627   1.705   6.936   6.700
 2243SOL    HW1 7628   1.608   6.956   6.690
 2243SOL    HW2 7629   1.736   6.884   6.621
 2244SOL     OW 7630   3.299   6.744   1.800
 2244SOL    HW1 7631   3.316   6.811   1.728
 2244SOL    HW2 7632   3.277   6.656   1.759
 2245SOL     OW 7633   1.053   1.700   1.390
 2245SOL    HW1 7634   1.011   1.654   1.469
 2245SOL    HW2 7635   1.121   1.640   1.349
 2246SOL     OW 7636   2.127   0.853   4.567
 2246SOL    HW1 7637   2.169   0.923   4.624
 2246SOL    HW2 7638   2.137   0.878   4.470
 2247SOL     OW 7639   3.060   3.385   2.989
 2247SOL    HW1 7640   3.016   3.429   3.066
 2247SOL    HW2 7641   3.158   3.371   3.009
 2248SOL     OW 7642   6.516   3.834   4.935
 2248SOL    HW1 7643   6.575   3.783   4.872
 2248SOL    HW2 7644   6.446   3.883   4.883
 2249SOL     OW 7645   5.453   6.811   3.886
 2249SOL    HW1 7646   5.544   6.793   3.924
 2249SOL    HW2 7647   5.428   6.739   3.821
 2250SOL     OW 7648   3.027   4.081   4.945
 2250SOL    HW1 7649   3.054   4.091   5.041
 2250SOL    HW2 7650   3.026   4.172   4.902
 2251SOL     OW 7651   5.454   6.792   6.330
 2251SOL    HW1 7652   5.515   6.768   6.406
 2251SOL    HW2 7653   5.468   6.727   6.255
 2252SOL     OW 7654   4.995   1.408   3.254
 2252SOL    HW1 7655   4.931   1.470   3.300
 2252SOL    HW2 7656   5.026   1.449   3.169
 2253SOL     OW 7657   6.646   3.208   6.895
 2253SOL    HW1 7658   6.584   3.207   6.973
 2253SOL    HW2 7659   6.594   3.225   6.811
 2254SOL     OW 7660   3.390   2.925   4.349
 2254SOL    HW1 7661   3.449   2.905   4.270
 2254SOL    HW2 7662   3.295   2.922   4.320
 2255SOL     OW 7663   3.928   3.614   5.719
 2255SOL    HW1 7664   3.901   3.690   5.779
 2255SOL    HW2 7665   4.025   3.593   5.733
 2256SOL     OW 7666   5.405   6.136   2.173
 2256SOL    HW1 7667   5.330   6.193   2.206
 2256SOL    HW2 7668   5.408   6.140   2.073
 2257SOL     OW 7669   1.055   1.651   4.638
 2257SOL    HW1 7670   1.004   1.668   4.722
 2257SOL    HW2 7671   1.127   1.584   4.655
 2258SOL     OW 7672   1.202   5.571   4.963
 2258SOL    HW1 7673   1.141   5.612   4.897
 2258SOL    HW2 7674   1.279   5.527   4.916
 2259SOL     OW 7675   5.617   2.920   5.469
 2259SOL    HW1 7676   5.642   2.893   5.563
 2259SOL    HW2 7677   5.584   3.014   5.469
 2260SOL     OW 7678   0.025   4.130   1.368
 2260SOL    HW1 7679   0.026   4.230   1.374
 2260SOL    HW2 7680   0.034   4.102   1.272
 2261SOL     OW 7681   6.493   5.251   0.677
 2261SOL    HW1 7682   6.497   5.298   0.588
 2261SOL    HW2 7683   6.443   5.308   0.742
 2262SOL     OW 7684   5.986   0.257   2.954
 2262SOL    HW1 7685   5.927   0.187   2.995
 2262SOL    HW2 7686   6.054   0.214   2.895
 2263SOL     OW 7687   3.008   5.724   0.221
 2263SOL    HW1 7688   2.928   5.782   0.235
 2263SOL    HW2 7689   2.991   5.634   0.261
 2264SOL     OW 7690   3.165   5.678   6.605
 2264SOL    HW1 7691   3.162   5.706   6.701
 2264SOL    HW2 7692   3.185   5.581   6.599
 2265SOL     OW 7693   1.869   0.738   4.370
 2265SOL    HW1 7694   1.787   0.691   4.335
 2265SOL    HW2 7695   1.947   0.716   4.311
 2266SOL     OW 7696   5.275   1.508   6.785
 2266SOL    HW1 7697   5.283   1.555   6.697
 2266SOL    HW2 7698   5.185   1.527   6.825
 2267SOL     OW 7699   4.893   3.299   5.062
 2267SOL    HW1 7700   4.869   3.395   5.054
 2267SOL    HW2 7701   4.826   3.252   5.119
 2268SOL     OW 7702   5.757   4.300   6.065
 2268SOL    HW1 7703   5.753   4.356   5.982
 2268SOL    HW2 7704   5.851   4.265   6.077
 2269SOL     OW 7705   0.701   4.373   5.547
 2269SOL    HW1 7706   0.752   4.288   5.558
 2269SOL    HW2 7707   0.689   4.416   5.636
 2270SOL     OW 7708   3.804   2.634   6.478
 2270SOL    HW1 7709   3.852   2.708   6.431
 2270SOL    HW2 7710   3.707   2.658   6.487
 2271SOL     OW 7711   5.723   4.368   0.214
 2271SOL    HW1 7712   5.726   4.278   0.172
 2271SOL    HW2 7713   5.710   4.438   0.143
 2272SOL     OW 7714   5.359   1.673   0.236
 2272SOL    HW1 7715   5.436   1.685   0.299
 2272SOL    HW2 7716   5.395   1.649   0.145
 2273SOL     OW 7717   1.621   1.550   2.318
 2273SOL    HW1 7718   1.521   1.556   2.313
 2273SOL    HW2 7719   1.651   1.463   2.280
 2274SOL     OW 7720   0.784   1.316   5.969
 2274SOL    HW1 7721   0.774   1.254   5.892
 2274SOL    HW2 7722   0.868   1.295   6.019
 2275SOL     OW 7723   5.692   6.704   3.986
 2275SOL    HW1 7724   5.760   6.729   3.917
 2275SOL    HW2 7725   5.662   6.610   3.970
 2276SOL     OW 7726   2.463   5.464   2.192
 2276SOL    HW1 7727   2.441   5.370   2.165
 2276SOL    HW2 7728   2.387   5.503   2.243
 2277SOL     OW 7729   3.576   4.106   3.809
 2277SOL    HW1 7730   3.581   4.128   3.712
 2277SOL    HW2 7731   3.667   4.115   3.850
 2278SOL     OW 7732   5.790   3.613   4.422
 2278SOL    HW1 7733   5.694   3.627   4.396
 2278SOL    HW2 7734   5.795   3.597   4.521
 2279SOL     OW 7735   5.963   0.306   5.492
 2279SOL    HW1 7736   5.882   0.328   5.547
 2279SOL    HW2 7737   5.966   0.366   5.412
 2280SOL     OW 7738   6.769   0.363   4.539
 2280SOL    HW1 7739   6.825   0.348   4.620
 2280SOL    HW2 7740   6.675   0.384   4.566
 2281SOL     OW 7741   3.485   0.530   2.173
 2281SOL    HW1 7742   3.550   0.550   2.246
 2281SOL    HW2 7743   3.523   0.459   2.113
 2282SOL     OW 7744   5.623   6.907   5.502
 2282SOL    HW1 7745   5.581   6.838   5.443
 2282SOL    HW2 7746   5.709   6.870   5.539
 2283SOL     OW 7747   1.615   0.015   1.604
 2283SOL    HW1 7748   1.662   0.042   1.520
 2283SOL    HW2 7749   1.683   7.013   1.673
 2284SOL     OW 7750   1.478   2.911   6.923
 2284SOL    HW1 7751   1.539   2.900   6.845
 2284SOL    HW2 7752   1.437   3.002   6.921
 2285SOL     OW 7753   1.684   3.184   0.824
 2285SOL    HW1 7754   1.732   3.184   0.911
 2285SOL    HW2 7755   1.714   3.261   0.769
 2286SOL     OW 7756   5.830   6.838   3.489
 2286SOL    HW1 7757   5.776   6.754   3.483
 2286SOL    HW2 7758   5.807   6.886   3.574
 2287SOL     OW 7759   2.162   0.261   4.082
 2287SOL    HW1 7760   2.080   0.267   4.138
 2287SOL    HW2 7761   2.243   0.267   4.140
 2288SOL     OW 7762   6.054   5.373   3.474
 2288SOL    HW1 7763   6.003   5.450   3.437
 2288SOL    HW2 7764   6.028   5.358   3.570
 2289SOL     OW 7765   0.366   5.240   0.679
 2289SOL    HW1 7766   0.355   5.312   0.611
 2289SOL    HW2 7767   0.295   5.170   0.666
 2290SOL     OW 7768   0.680   3.563   0.798
 2290SOL    HW1 7769   0.642   3.643   0.751
 2290SOL    HW2 7770   0.606   3.498   0.819
 2291SOL     OW 7771   2.080   2.579   5.504
 2291SOL    HW1 7772   2.052   2.629   5.422
 2291SOL    HW2 7773   2.008   2.515   5.530
 2292SOL     OW 7774   1.187   1.893   4.562
 2292SOL    HW1 7775   1.123   1.823   4.593
 2292SOL    HW2 7776   1.139   1.961   4.508
 2293SOL     OW 7777   5.230   6.488   0.840
 2293SOL    HW1 7778   5.189   6.562   0.893
 2293SOL    HW2 7779   5.177   6.474   0.756
 2294SOL     OW 7780   3.287   0.405   6.900
 2294SOL    HW1 7781   3.214   0.469   6.925
 2294SOL    HW2 7782   3.376   0.448   6.917
 2295SOL     OW 7783   0.583   2.062   2.331
 2295SOL    HW1 7784   0.598   2.118   2.412
 2295SOL    HW2 7785   0.626   1.973   2.343
 2296SOL     OW 7786   4.196   5.224   0.264
 2296SOL    HW1 7787   4.247   5.147   0.225
 2296SOL    HW2 7788   4.210   5.226   0.363
 2297SOL     OW 7789   3.866   4.271   5.200
 2297SOL    HW1 7790   3.853   4.280   5.102
 2297SOL    HW2 7791   3.929   4.194   5.218
 2298SOL     OW 7792   3.980   3.012   1.960
 2298SOL    HW1 7793   3.934   2.972   1.881
 2298SOL    HW2 7794   4.070   2.970   1.971
 2299SOL     OW 7795   4.831   6.685   6.134
 2299SOL    HW1 7796   4.796   6.731   6.216
 2299SOL    HW2 7797   4.924   6.714   6.116
 2300SOL     OW 7798   2.669   4.772   1.842
 2300SOL    HW1 7799   2.738   4.705   1.870
 2300SOL    HW2 7800   2.578   4.732   1.848
 2301SOL     OW 7801   2.980   3.503   3.229
 2301SOL    HW1 7802   2.917   3.578   3.213
 2301SOL    HW2 7803   2.947   3.447   3.305
 2302SOL     OW 7804   3.551   6.877   1.400
 2302SOL    HW1 7805   3.646   6.847   1.414
 2302SOL    HW2 7806   3.549   6.948   1.330
 2303SOL     OW 7807   1.981   3.149   6.256
 2303SOL    HW1 7808   1.923   3.080   6.300
 2303SOL    HW2 7809   1.961   3.152   6.158
 2304SOL     OW 7810   3.709   0.425   4.007
 2304SOL    HW1 7811   3.796   0.415   4.055
 2304SOL    HW2 7812   3.635   0.390   4.065
 2305SOL     OW 7813   2.809   6.528   2.901
 2305SOL    HW1 7814   2.758   6.613   2.883
 2305SOL    HW2 7815   2.761   6.451   2.860
 2306SOL     OW 7816   2.567   5.004   1.698
 2306SOL    HW1 7817   2.619   4.930   1.741
 2306SOL    HW2 7818   2.470   4.995   1.721
 2307SOL     OW 7819   0.905   3.772   3.156
 2307SOL    HW1 7820   0.851   3.741   3.078
 2307SOL    HW2 7821   0.886   3.714   3.235
 2308SOL     OW 7822   1.215   6.634   7.007
 2308SOL    HW1 7823   1.169   6.720   6.985
 2308SOL    HW2 7824   1.251   6.638   0.077
 2309SOL     OW 7825   2.784   6.396   6.484
 2309SOL    HW1 7826   2.776   6.365   6.390
 2309SOL    HW2 7827   2.699   6.441   6.513
 2310SOL     OW 7828   5.515   6.512   1.278
 2310SOL    HW1 7829   5.610   6.500   1.308
 2310SOL    HW2 7830   5.505   6.602   1.236
 2311SOL     OW 7831   2.513   5.876   2.003
 2311SOL    HW1 7832   2.524   5.955   1.942
 2311SOL    HW2 7833   2.576   5.885   2.080
 2312SOL     OW 7834   3.573   6.286   4.076
 2312SOL    HW1 7835   3.533   6.333   3.998
 2312SOL    HW2 7836   3.565   6.187   4.064
 2313SOL     OW 7837   5.280   5.510   1.539
 2313SOL    HW1 7838   5.367   5.463   1.521
 2313SOL    HW2 7839   5.254   5.497   1.634
 2314SOL     OW 7840   5.832   0.369   4.840
 2314SOL    HW1 7841   5.741   0.371   4.798
 2314SOL    HW2 7842   5.844   0.284   4.891
 2315SOL     OW 7843   5.047   3.607   5.457
 2315SOL    HW1 7844   5.078   3.693   5.497
 2315SOL    HW2 7845   4.973   3.625   5.394
 2316SOL     OW 7846   3.132   0.558   4.666
 2316SOL    HW1 7847   3.181   0.603   4.590
 2316SOL    HW2 7848   3.044   0.525   4.634
 2317SOL     OW 7849   6.237   6.288   2.961
 2317SOL    HW1 7850   6.204   6.383   2.959
 2317SOL    HW2 7851   6.222   6.250   3.053
 2318SOL     OW 7852   2.220   2.991   4.482
 2318SOL    HW1 7853   2.229   2.983   4.383
 2318SOL    HW2 7854   2.214   3.088   4.507
 2319SOL     OW 7855   3.144   5.284   4.776
 2319SOL    HW1 7856   3.108   5.221   4.845
 2319SOL    HW2 7857   3.242   5.269   4.765
 2320SOL     OW 7858   0.756   3.262   4.241
 2320SOL    HW1 7859   0.851   3.254   4.269
 2320SOL    HW2 7860   0.749   3.328   4.166
 2321SOL     OW 7861   1.896   5.104   0.616
 2321SOL    HW1 7862   1.975   5.126   0.558
 2321SOL    HW2 7863   1.926   5.042   0.690
 2322SOL     OW 7864   1.937   4.236   3.119
 2322SOL    HW1 7865   1.857   4.197   3.073
 2322SOL    HW2 7866   1.996   4.162   3.152
 2323SOL     OW 7867   3.498   4.700   1.567
 2323SOL    HW1 7868   3.513   4.677   1.664
 2323SOL    HW2 7869   3.468   4.618   1.518
 2324SOL     OW 7870   6.426   6.020   0.359
 2324SOL    HW1 7871   6.525   6.019   0.369
 2324SOL    HW2 7872   6.400   5.983   0.270
 2325SOL     OW 7873   1.189   4.341   1.191
 2325SOL    HW1 7874   1.103   4.299   1.164
 2325SOL    HW2 7875   1.264   4.301   1.138
 2326SOL     OW 7876   2.731   6.026   6.743
 2326SOL    HW1 7877   2.655   6.052   6.803
 2326SOL    HW2 7878   2.796   6.102   6.736
 2327SOL     OW 7879   6.677   1.638   4.064
 2327SOL    HW1 7880   6.724   1.552   4.047
 2327SOL    HW2 7881   6.666   1.688   3.977
 2328SOL     OW 7882   1.609   1.465   2.729
 2328SOL    HW1 7883   1.530   1.411   2.700
 2328SOL    HW2 7884   1.669   1.408   2.786
 2329SOL     OW 7885   1.812   4.410   4.631
 2329SOL    HW1 7886   1.881   4.344   4.660
 2329SOL    HW2 7887   1.814   4.421   4.532
 2330SOL     OW 7888   0.159   3.550   1.637
 2330SOL    HW1 7889   0.140   3.454   1.620
 2330SOL    HW2 7890   0.256   3.562   1.655
 2331SOL     OW 7891   3.876   5.216   6.697
 2331SOL    HW1 7892   3.883   5.277   6.776
 2331SOL    HW2 7893   3.920   5.129   6.719
 2332SOL     OW 7894   6.040   0.831   5.208
 2332SOL    HW1 7895   6.093   0.908   5.244
 2332SOL    HW2 7896   6.102   0.767   5.163
 2333SOL     OW 7897   0.077   4.587   2.424
 2333SOL    HW1 7898   0.060   4.513   2.359
 2333SOL    HW2 7899   0.108   4.549   2.511
 2334SOL     OW 7900   1.944   0.652   6.607
 2334SOL    HW1 7901   1.924   0.737   6.656
 2334SOL    HW2 7902   1.954   0.577   6.673
 2335SOL     OW 7903   6.599   1.243   4.283
 2335SOL    HW1 7904   6.606   1.175   4.209
 2335SOL    HW2 7905   6.679   1.302   4.282
 2336SOL     OW 7906   3.633   1.756   4.563
 2336SOL    HW1 7907   3.687   1.677   4.533
 2336SOL    HW2 7908   3.542   1.751   4.524
 2337SOL     OW 7909   4.280   0.497   1.621
 2337SOL    HW1 7910   4.215   0.519   1.694
 2337SOL    HW2 7911   4.302   0.580   1.570
 2338SOL     OW 7912   0.788   3.136   5.095
 2338SOL    HW1 7913   0.826   3.092   5.177
 2338SOL    HW2 7914   0.846   3.115   5.016
 2339SOL     OW 7915   2.862   3.489   3.794
 2339SOL    HW1 7916   2.777   3.472   3.843
 2339SOL    HW2 7917   2.906   3.571   3.831
 2340SOL     OW 7918   6.758   4.545   6.757
 2340SOL    HW1 7919   6.742   4.554   6.659
 2340SOL    HW2 7920   6.683   4.587   6.808
 2341SOL     OW 7921   3.433   4.882   2.100
 2341SOL    HW1 7922   3.353   4.876   2.041
 2341SOL    HW2 7923   3.513   4.843   2.053
 2342SOL     OW 7924   0.951   6.447   5.363
 2342SOL    HW1 7925   0.894   6.517   5.322
 2342SOL    HW2 7926   0.894   6.381   5.412
 2343SOL     OW 7927   1.970   5.650   3.316
 2343SOL    HW1 7928   1.930   5.716   3.252
 2343SOL    HW2 7929   2.069   5.666   3.323
 2344SOL     OW 7930   1.532   5.643   0.265
 2344SOL    HW1 7931   1.438   5.657   0.297
 2344SOL    HW2 7932   1.531   5.614   0.169
 2345SOL     OW 7933   3.068   5.444   5.085
 2345SOL    HW1 7934   3.014   5.455   5.001
 2345SOL    HW2 7935   3.010   5.408   5.158
 2346SOL     OW 7936   4.092   3.136   5.332
 2346SOL    HW1 7937   4.155   3.208   5.303
 2346SOL    HW2 7938   4.004   3.147   5.284
 2347SOL     OW 7939   3.363   2.099   1.162
 2347SOL    HW1 7940   3.409   2.186   1.180
 2347SOL    HW2 7941   3.411   2.026   1.210
 2348SOL     OW 7942   2.298   6.771   4.060
 2348SOL    HW1 7943   2.294   6.791   4.157
 2348SOL    HW2 7944   2.305   6.856   4.008
 2349SOL     OW 7945   0.772   4.494   5.778
 2349SOL    HW1 7946   0.834   4.555   5.730
 2349SOL    HW2 7947   0.710   4.547   5.836
 2350SOL     OW 7948   5.759   0.398   6.499
 2350SOL    HW1 7949   5.766   0.299   6.487
 2350SOL    HW2 7950   5.683   0.433   6.444
 2351SOL     OW 7951   3.070   5.047   4.087
 2351SOL    HW1 7952   2.989   4.990   4.080
 2351SOL    HW2 7953   3.137   5.019   4.018
 2352SOL     OW 7954   0.545   4.175   2.421
 2352SOL    HW1 7955   0.643   4.167   2.436
 2352SOL    HW2 7956   0.518   4.114   2.346
 2353SOL     OW 7957   3.188   4.748   5.888
 2353SOL    HW1 7958   3.098   4.738   5.929
 2353SOL    HW2 7959   3.187   4.822   5.821
 2354SOL     OW 7960   3.247   1.559   5.865
 2354SOL    HW1 7961   3.190   1.610   5.929
 2354SOL    HW2 7962   3.342   1.591   5.872
 2355SOL     OW 7963   2.211   5.634   7.002
 2355SOL    HW1 7964   2.156   5.639   0.063
 2355SOL    HW2 7965   2.234   5.726   6.972
 2356SOL     OW 7966   1.653   3.004   6.493
 2356SOL    HW1 7967   1.646   3.103   6.489
 2356SOL    HW2 7968   1.696   2.969   6.409
 2357SOL     OW 7969   4.510   0.212   3.105
 2357SOL    HW1 7970   4.595   0.254   3.135
 2357SOL    HW2 7971   4.467   0.268   3.034
 2358SOL     OW 7972   4.237   4.907   5.112
 2358SOL    HW1 7973   4.186   4.940   5.033
 2358SOL    HW2 7974   4.176   4.854   5.172
 2359SOL     OW 7975   6.249   0.496   5.790
 2359SOL    HW1 7976   6.332   0.441   5.798
 2359SOL    HW2 7977   6.214   0.517   5.882
 2360SOL     OW 7978   5.562   4.357   6.803
 2360SOL    HW1 7979   5.606   4.300   6.872
 2360SOL    HW2 7980   5.632   4.403   6.748
 2361SOL     OW 7981   2.874   1.123   5.312
 2361SOL    HW1 7982   2.791   1.176   5.331
 2361SOL    HW2 7983   2.927   1.170   5.242
 2362SOL     OW 7984   2.373   6.477   4.277
 2362SOL    HW1 7985   2.437   6.478   4.355
 2362SOL    HW2 7986   2.301   6.544   4.292
 2363SOL     OW 7987   4.547   2.609   5.019
 2363SOL    HW1 7988   4.553   2.679   5.091
 2363SOL    HW2 7989   4.629   2.613   4.962
 2364SOL     OW 7990   1.079   2.184   2.887
 2364SOL    HW1 7991   1.115   2.126   2.814
 2364SOL    HW2 7992   1.005   2.135   2.934
 2365SOL     OW 7993   6.193   2.646   6.640
 2365SOL    HW1 7994   6.240   2.711   6.580
 2365SOL    HW2 7995   6.192   2.556   6.597
 2366SOL     OW 7996   2.244   5.274   6.683
 2366SOL    HW1 7997   2.308   5.274   6.606
 2366SOL    HW2 7998   2.157   5.312   6.655
 2367SOL     OW 7999   2.502   4.325   0.501
 2367SOL    HW1 8000   2.478   4.321   0.404
 2367SOL    HW2 8001   2.545   4.239   0.528
 2368SOL     OW 8002   4.430   0.861   3.921
 2368SOL    HW1 8003   4.442   0.768   3.956
 2368SOL    HW2 8004   4.434   0.926   3.997
 2369SOL     OW 8005   1.701   2.087   5.499
 2369SOL    HW1 8006   1.723   1.994   5.470
 2369SOL    HW2 8007   1.643   2.084   5.581
 2370SOL     OW 8008   4.872   3.903   0.341
 2370SOL    HW1 8009   4.775   3.876   0.344
 2370SOL    HW2 8010   4.899   3.917   0.245
 2371SOL     OW 8011   0.258   6.958   2.521
 2371SOL    HW1 8012   0.335   6.894   2.523
 2371SOL    HW2 8013   0.271   0.004   2.593
 2372SOL     OW 8014   0.349   2.755   2.852
 2372SOL    HW1 8015   0.354   2.686   2.780
 2372SOL    HW2 8016   0.420   2.738   2.920
 2373SOL     OW 8017   0.623   1.873   0.115
 2373SOL    HW1 8018   0.616   1.959   0.065
 2373SOL    HW2 8019   0.704   1.874   0.173
 2374SOL     OW 8020   6.005   0.905   3.167
 2374SOL    HW1 8021   6.100   0.885   3.189
 2374SOL    HW2 8022   5.996   1.002   3.142
 2375SOL     OW 8023   2.815   6.547   4.906
 2375SOL    HW1 8024   2.878   6.575   4.834
 2375SOL    HW2 8025   2.821   6.448   4.920
 2376SOL     OW 8026   0.227   2.209   4.518
 2376SOL    HW1 8027   0.324   2.197   4.496
 2376SOL    HW2 8028   0.218   2.241   4.612
 2377SOL     OW 8029   3.433   4.144   3.309
 2377SOL    HW1 8030   3.402   4.157   3.404
 2377SOL    HW2 8031   3.449   4.047   3.293
 2378SOL     OW 8032   4.910   1.662   0.341
 2378SOL    HW1 8033   4.864   1.614   0.416
 2378SOL    HW2 8034   4.966   1.598   0.289
 2379SOL     OW 8035   5.719   1.748   6.863
 2379SOL    HW1 8036   5.658   1.809   6.914
 2379SOL    HW2 8037   5.740   1.668   6.920
 2380SOL     OW 8038   0.619   1.124   0.248
 2380SOL    HW1 8039   0.655   1.216   0.231
 2380SOL    HW2 8040   0.632   1.068   0.166
 2381SOL     OW 8041   2.165   3.875   4.865
 2381SOL    HW1 8042   2.066   3.881   4.875
 2381SOL    HW2 8043   2.209   3.939   4.927
 2382SOL     OW 8044   2.343   4.442   3.335
 2382SOL    HW1 8045   2.430   4.443   3.385
 2382SOL    HW2 8046   2.356   4.395   3.248
 2383SOL     OW 8047   5.269   6.495   1.545
 2383SOL    HW1 8048   5.270   6.575   1.606
 2383SOL    HW2 8049   5.343   6.433   1.570
 2384SOL     OW 8050   5.752   0.463   2.836
 2384SOL    HW1 8051   5.800   0.377   2.855
 2384SOL    HW2 8052   5.815   0.540   2.844
 2385SOL     OW 8053   0.955   6.547   1.260
 2385SOL    HW1 8054   1.015   6.608   1.208
 2385SOL    HW2 8055   0.887   6.601   1.309
 2386SOL     OW 8056   6.217   5.850   4.601
 2386SOL    HW1 8057   6.159   5.923   4.564
 2386SOL    HW2 8058   6.210   5.769   4.542
 2387SOL     OW 8059   1.079   2.046   3.470
 2387SOL    HW1 8060   1.137   2.032   3.390
 2387SOL    HW2 8061   1.102   2.133   3.513
 2388SOL     OW 8062   0.693   2.692   4.376
 2388SOL    HW1 8063   0.678   2.593   4.381
 2388SOL    HW2 8064   0.610   2.739   4.405
 2389SOL     OW 8065   4.889   3.889   2.846
 2389SOL    HW1 8066   4.864   3.797   2.815
 2389SOL    HW2 8067   4.887   3.892   2.946
 2390SOL     OW 8068   4.142   3.598   2.774
 2390SOL    HW1 8069   4.236   3.625   2.750
 2390SOL    HW2 8070   4.130   3.501   2.757
 2391SOL     OW 8071   4.868   4.623   5.809
 2391SOL    HW1 8072   4.857   4.681   5.728
 2391SOL    HW2 8073   4.938   4.554   5.791
 2392SOL     OW 8074   4.205   6.535   4.975
 2392SOL    HW1 8075   4.303   6.546   4.954
 2392SOL    HW2 8076   4.154   6.611   4.935
 2393SOL     OW 8077   5.553   3.739   6.208
 2393SOL    HW1 8078   5.560   3.825   6.259
 2393SOL    HW2 8079   5.561   3.757   6.110
 2394SOL     OW 8080   1.157   3.450   4.384
 2394SOL    HW1 8081   1.190   3.527   4.437
 2394SOL    HW2 8082   1.222   3.374   4.390
 2395SOL     OW 8083   5.854   2.471   6.495
 2395SOL    HW1 8084   5.821   2.535   6.565
 2395SOL    HW2 8085   5.888   2.523   6.417
 2396SOL     OW 8086   3.775   4.665   1.355
 2396SOL    HW1 8087   3.720   4.725   1.297
 2396SOL    HW2 8088   3.795   4.711   1.441
 2397SOL     OW 8089   0.151   4.315   6.627
 2397SOL    HW1 8090   0.215   4.292   6.701
 2397SOL    HW2 8091   0.077   4.247   6.626
 2398SOL     OW 8092   2.554   3.422   6.735
 2398SOL    HW1 8093   2.462   3.436   6.698
 2398SOL    HW2 8094   2.560   3.466   6.824
 2399SOL     OW 8095   4.526   1.728   1.670
 2399SOL    HW1 8096   4.433   1.700   1.695
 2399SOL    HW2 8097   4.526   1.767   1.579
 2400SOL     OW 8098   3.290   4.431   0.213
 2400SOL    HW1 8099   3.204   4.379   0.217
 2400SOL    HW2 8100   3.282   4.512   0.271
 2401SOL     OW 8101   4.051   6.184   5.943
 2401SOL    HW1 8102   4.032   6.094   5.983
 2401SOL    HW2 8103   4.126   6.227   5.994
 2402SOL     OW 8104   6.786   0.781   3.505
 2402SOL    HW1 8105   6.849   0.705   3.490
 2402SOL    HW2 8106   6.699   0.762   3.459
 2403SOL     OW 8107   2.144   2.706   6.868
 2403SOL    HW1 8108   2.188   2.765   6.801
 2403SOL    HW2 8109   2.162   2.610   6.845
 2404SOL     OW 8110   3.547   1.132   0.710
 2404SOL    HW1 8111   3.632   1.151   0.758
 2404SOL    HW2 8112   3.503   1.218   0.685
 2405SOL     OW 8113   3.819   3.327   2.744
 2405SOL    HW1 8114   3.729   3.345   2.705
 2405SOL    HW2 8115   3.811   3.312   2.842
 2406SOL     OW 8116   3.087   6.465   2.718
 2406SOL    HW1 8117   3.001   6.516   2.723
 2406SOL    HW2 8118   3.071   6.370   2.746
 2407SOL     OW 8119   5.518   2.027   1.958
 2407SOL    HW1 8120   5.507   2.085   1.878
 2407SOL    HW2 8121   5.561   1.941   1.931
 2408SOL     OW 8122   3.442   5.344   3.155
 2408SOL    HW1 8123   3.417   5.247   3.162
 2408SOL    HW2 8124   3.525   5.361   3.208
 2409SOL     OW 8125   1.630   4.172   2.105
 2409SOL    HW1 8126   1.565   4.160   2.180
 2409SOL    HW2 8127   1.681   4.087   2.091
 2410SOL     OW 8128   4.204   2.730   6.164
 2410SOL    HW1 8129   4.225   2.826   6.144
 2410SOL    HW2 8130   4.179   2.683   6.079
 2411SOL     OW 8131   3.804   5.295   4.885
 2411SOL    HW1 8132   3.743   5.368   4.853
 2411SOL    HW2 8133   3.899   5.327   4.880
 2412SOL     OW 8134   4.767   5.583   1.216
 2412SOL    HW1 8135   4.785   5.579   1.314
 2412SOL    HW2 8136   4.847   5.618   1.168
 2413SOL     OW 8137   6.189   2.209   0.949
 2413SOL    HW1 8138   6.283   2.218   0.981
 2413SOL    HW2 8139   6.158   2.296   0.912
 2414SOL     OW 8140   5.160   4.224   2.631
 2414SOL    HW1 8141   5.089   4.230   2.561
 2414SOL    HW2 8142   5.139   4.150   2.694
 2415SOL     OW 8143   6.897   0.275   2.444
 2415SOL    HW1 8144   6.947   0.190   2.429
 2415SOL    HW2 8145   6.870   0.314   2.355
 2416SOL     OW 8146   4.370   2.025   5.390
 2416SOL    HW1 8147   4.312   1.975   5.454
 2416SOL    HW2 8148   4.466   2.003   5.406
 2417SOL     OW 8149   3.690   2.849   5.845
 2417SOL    HW1 8150   3.744   2.770   5.816
 2417SOL    HW2 8151   3.710   2.870   5.940
 2418SOL     OW 8152   3.064   3.052   4.363
 2418SOL    HW1 8153   3.050   3.148   4.386
 2418SOL    HW2 8154   3.020   2.995   4.432
 2419SOL     OW 8155   0.315   6.899   4.795
 2419SOL    HW1 8156   0.250   6.955   4.848
 2419SOL    HW2 8157   0.402   6.948   4.789
 2420SOL     OW 8158   2.816   1.242   2.244
 2420SOL    HW1 8159   2.901   1.288   2.218
 2420SOL    HW2 8160   2.768   1.296   2.312
 2421SOL     OW 8161   2.795   1.994   4.856
 2421SOL    HW1 8162   2.779   2.085   4.895
 2421SOL    HW2 8163   2.887   1.991   4.816
 2422SOL     OW 8164   5.783   1.233   0.945
 2422SOL    HW1 8165   5.711   1.282   0.995
 2422SOL    HW2 8166   5.751   1.140   0.925
 2423SOL     OW 8167   1.365   6.516   2.639
 2423SOL    HW1 8168   1.464   6.532   2.638
 2423SOL    HW2 8169   1.343   6.448   2.709
 2424SOL     OW 8170   6.152   6.689   5.930
 2424SOL    HW1 8171   6.091   6.743   5.872
 2424SOL    HW2 8172   6.099   6.643   6.001
 2425SOL     OW 8173   5.433   0.841   3.809
 2425SOL    HW1 8174   5.380   0.769   3.764
 2425SOL    HW2 8175   5.506   0.799   3.863
 2426SOL     OW 8176   0.755   6.131   5.220
 2426SOL    HW1 8177   0.775   6.063   5.149
 2426SOL    HW2 8178   0.661   6.163   5.209
 2427SOL     OW 8179   5.787   6.103   5.576
 2427SOL    HW1 8180   5.691   6.128   5.589
 2427SOL    HW2 8181   5.844   6.186   5.575
 2428SOL     OW 8182   6.190   0.088   2.475
 2428SOL    HW1 8183   6.244   0.006   2.455
 2428SOL    HW2 8184   6.241   0.169   2.447
 2429SOL     OW 8185   5.419   5.248   3.301
 2429SOL    HW1 8186   5.479   5.288   3.231
 2429SOL    HW2 8187   5.448   5.279   3.391
 2430SOL     OW 8188   5.997   1.755   1.257
 2430SOL    HW1 8189   5.966   1.689   1.189
 2430SOL    HW2 8190   6.097   1.757   1.259
 2431SOL     OW 8191   4.292   0.992   2.435
 2431SOL    HW1 8192   4.353   1.051   2.382
 2431SOL    HW2 8193   4.314   0.896   2.416
 2432SOL     OW 8194   3.266   6.752   2.793
 2432SOL    HW1 8195   3.331   6.736   2.718
 2432SOL    HW2 8196   3.194   6.683   2.789
 2433SOL     OW 8197   3.502   0.844   1.239
 2433SOL    HW1 8198   3.529   0.788   1.318
 2433SOL    HW2 8199   3.455   0.926   1.270
 2434SOL     OW 8200   3.880   1.243   5.577
 2434SOL    HW1 8201   3.938   1.210   5.651
 2434SOL    HW2 8202   3.934   1.301   5.515
 2435SOL     OW 8203   4.804   4.189   6.875
 2435SOL    HW1 8204   4.890   4.200   6.825
 2435SOL    HW2 8205   4.815   4.226   6.967
 2436SOL     OW 8206   1.522   5.359   1.079
 2436SOL    HW1 8207   1.554   5.444   1.038
 2436SOL    HW2 8208   1.431   5.373   1.118
 2437SOL     OW 8209   5.185   6.531   6.487
 2437SOL    HW1 8210   5.110   6.480   6.528
 2437SOL    HW2 8211   5.255   6.467   6.455
 2438SOL     OW 8212   3.217   0.830   6.684
 2438SOL    HW1 8213   3.276   0.794   6.756
 2438SOL    HW2 8214   3.123   0.833   6.717
 2439SOL     OW 8215   1.547   4.231   6.533
 2439SOL    HW1 8216   1.490   4.154   6.562
 2439SOL    HW2 8217   1.632   4.196   6.494
 2440SOL     OW 8218   4.808   6.112   5.481
 2440SOL    HW1 8219   4.788   6.174   5.558
 2440SOL    HW2 8220   4.793   6.018   5.510
 2441SOL     OW 8221   0.572   1.371   0.577
 2441SOL    HW1 8222   0.572   1.417   0.666
 2441SOL    HW2 8223   0.479   1.343   0.554
 2442SOL     OW 8224   0.793   3.585   6.062
 2442SOL    HW1 8225   0.838   3.508   6.016
 2442SOL    HW2 8226   0.846   3.668   6.048
 2443SOL     OW 8227   4.053   5.447   6.220
 2443SOL    HW1 8228   4.063   5.526   6.160
 2443SOL    HW2 8229   4.023   5.478   6.311
 2444SOL     OW 8230   3.172   3.978   6.225
 2444SOL    HW1 8231   3.248   3.914   6.233
 2444SOL    HW2 8232   3.113   3.950   6.149
 2445SOL     OW 8233   6.912   1.343   1.240
 2445SOL    HW1 8234   6.818   1.314   1.259
 2445SOL    HW2 8235   6.945   1.401   1.314
 2446SOL     OW 8236   6.436   4.694   4.080
 2446SOL    HW1 8237   6.523   4.732   4.113
 2446SOL    HW2 8238   6.398   4.634   4.150
 2447SOL     OW 8239   2.076   2.819   0.858
 2447SOL    HW1 8240   2.085   2.720   0.859
 2447SOL    HW2 8241   2.040   2.849   0.770
 2448SOL     OW 8242   0.390   0.835   4.633
 2448SOL    HW1 8243   0.320   0.772   4.665
 2448SOL    HW2 8244   0.475   0.819   4.683
 2449SOL     OW 8245   6.813   4.758   0.510
 2449SOL    HW1 8246   6.791   4.669   0.548
 2449SOL    HW2 8247   6.892   4.750   0.449
 2450SOL     OW 8248   2.610   4.607   3.288
 2450SOL    HW1 8249   2.579   4.579   3.197
 2450SOL    HW2 8250   2.551   4.680   3.322
 2451SOL     OW 8251   1.221   1.469   3.878
 2451SOL    HW1 8252   1.272   1.546   3.916
 2451SOL    HW2 8253   1.285   1.404   3.836
 2452SOL     OW 8254   1.768   4.064   2.718
 2452SOL    HW1 8255   1.686   4.049   2.661
 2452SOL    HW2 8256   1.837   3.996   2.694
 2453SOL     OW 8257   6.323   4.873   1.244
 2453SOL    HW1 8258   6.305   4.959   1.292
 2453SOL    HW2 8259   6.241   4.816   1.247
 2454SOL     OW 8260   3.172   0.689   1.388
 2454SOL    HW1 8261   3.082   0.648   1.402
 2454SOL    HW2 8262   3.189   0.756   1.460
 2455SOL     OW 8263   5.337   6.132   0.548
 2455SOL    HW1 8264   5.333   6.226   0.514
 2455SOL    HW2 8265   5.414   6.122   0.611
 2456SOL     OW 8266   5.224   6.227   1.507
 2456SOL    HW1 8267   5.228   6.327   1.505
 2456SOL    HW2 8268   5.207   6.197   1.601
 2457SOL     OW 8269   5.872   6.469   0.561
 2457SOL    HW1 8270   5.777   6.479   0.530
 2457SOL    HW2 8271   5.914   6.391   0.515
 2458SOL     OW 8272   2.070   5.938   3.452
 2458SOL    HW1 8273   2.142   5.918   3.519
 2458SOL    HW2 8274   2.102   5.914   3.361
 2459SOL     OW 8275   2.139   6.845   0.617
 2459SOL    HW1 8276   2.215   6.910   0.614
 2459SOL    HW2 8277   2.063   6.884   0.670
 2460SOL     OW 8278   2.146   1.050   1.371
 2460SOL    HW1 8279   2.152   1.032   1.273
 2460SOL    HW2 8280   2.174   0.968   1.422
 2461SOL     OW 8281   6.078   1.011   2.350
 2461SOL    HW1 8282   6.023   1.094   2.347
 2461SOL    HW2 8283   6.051   0.955   2.429
 2462SOL     OW 8284   2.549   5.501   0.176
 2462SOL    HW1 8285   2.544   5.586   0.124
 2462SOL    HW2 8286   2.531   5.424   0.115
 2463SOL     OW 8287   6.044   2.262   4.050
 2463SOL    HW1 8288   6.017   2.248   4.145
 2463SOL    HW2 8289   5.976   2.320   4.004
 2464SOL     OW 8290   0.946   4.745   0.662
 2464SOL    HW1 8291   1.038   4.726   0.694
 2464SOL    HW2 8292   0.886   4.668   0.684
 2465SOL     OW 8293   0.043   5.847   1.766
 2465SOL    HW1 8294   7.015   5.855   1.681
 2465SOL    HW2 8295   7.006   5.809   1.837
 2466SOL     OW 8296   3.969   1.335   2.316
 2466SOL    HW1 8297   3.873   1.362   2.330
 2466SOL    HW2 8298   3.972   1.245   2.273
 2467SOL     OW 8299   6.178   1.721   5.912
 2467SOL    HW1 8300   6.267   1.766   5.924
 2467SOL    HW2 8301   6.105   1.789   5.918
 2468SOL     OW 8302   0.139   6.225   2.133
 2468SOL    HW1 8303   0.073   6.232   2.058
 2468SOL    HW2 8304   0.093   6.189   2.214
 2469SOL     OW 8305   3.280   4.128   5.626
 2469SOL    HW1 8306   3.362   4.162   5.673
 2469SOL    HW2 8307   3.239   4.202   5.574
 2470SOL     OW 8308   2.913   4.313   6.092
 2470SOL    HW1 8309   2.927   4.371   6.172
 2470SOL    HW2 8310   2.835   4.347   6.040
 2471SOL     OW 8311   0.833   6.757   1.397
 2471SOL    HW1 8312   0.833   6.855   1.378
 2471SOL    HW2 8313   0.886   6.739   1.480
 2472SOL     OW 8314   5.742   1.345   4.682
 2472SOL    HW1 8315   5.683   1.419   4.714
 2472SOL    HW2 8316   5.687   1.276   4.636
 2473SOL     OW 8317   1.343   4.857   4.758
 2473SOL    HW1 8318   1.435   4.890   4.778
 2473SOL    HW2 8319   1.342   4.757   4.761
 2474SOL     OW 8320   6.978   4.761   6.430
 2474SOL    HW1 8321   0.027   4.706   6.388
 2474SOL    HW2 8322   7.020   4.831   6.488
 2475SOL     OW 8323   4.084   2.286   0.684
 2475SOL    HW1 8324   4.106   2.243   0.597
 2475SOL    HW2 8325   4.169   2.309   0.732
 2476SOL     OW 8326   1.239   2.304   4.019
 2476SOL    HW1 8327   1.327   2.308   4.066
 2476SOL    HW2 8328   1.200   2.396   4.013
 2477SOL     OW 8329   6.294   6.497   1.629
 2477SOL    HW1 8330   6.201   6.533   1.642
 2477SOL    HW2 8331   6.290   6.398   1.615
 2478SOL     OW 8332   5.959   5.904   2.567
 2478SOL    HW1 8333   6.007   5.890   2.480
 2478SOL    HW2 8334   5.909   5.991   2.563
 2479SOL     OW 8335   0.224   3.052   1.685
 2479SOL    HW1 8336   0.185   3.143   1.679
 2479SOL    HW2 8337   0.231   3.013   1.593
 2480SOL     OW 8338   6.988   2.684   0.953
 2480SOL    HW1 8339   0.054   2.711   0.915
 2480SOL    HW2 8340   6.944   2.763   0.995
 2481SOL     OW 8341   3.630   5.747   0.855
 2481SOL    HW1 8342   3.655   5.756   0.952
 2481SOL    HW2 8343   3.677   5.818   0.802
 2482SOL     OW 8344   4.589   3.433   5.673
 2482SOL    HW1 8345   4.543   3.474   5.753
 2482SOL    HW2 8346   4.539   3.351   5.644
 2483SOL     OW 8347   1.928   0.692   0.511
 2483SOL    HW1 8348   1.834   0.725   0.518
 2483SOL    HW2 8349   1.992   0.766   0.532
 2484SOL     OW 8350   1.745   0.510   0.690
 2484SOL    HW1 8351   1.691   0.551   0.764
 2484SOL    HW2 8352   1.790   0.582   0.638
 2485SOL     OW 8353   6.104   4.938   1.780
 2485SOL    HW1 8354   6.161   4.898   1.708
 2485SOL    HW2 8355   6.158   4.948   1.864
 2486SOL     OW 8356   1.776   5.975   3.964
 2486SOL    HW1 8357   1.753   6.027   3.882
 2486SOL    HW2 8358   1.829   5.894   3.939
 2487SOL     OW 8359   4.287   6.312   0.120
 2487SOL    HW1 8360   4.290   6.319   0.220
 2487SOL    HW2 8361   4.262   6.219   0.094
 2488SOL     OW 8362   2.864   4.077   1.295
 2488SOL    HW1 8363   2.918   3.993   1.302
 2488SOL    HW2 8364   2.768   4.056   1.312
 2489SOL     OW 8365   2.248   5.961   5.204
 2489SOL    HW1 8366   2.298   6.047   5.196
 2489SOL    HW2 8367   2.180   5.969   5.277
 2490SOL     OW 8368   0.080   5.090   0.563
 2490SOL    HW1 8369   0.142   5.076   0.486
 2490SOL    HW2 8370   7.012   5.055   0.540
 2491SOL     OW 8371   2.542   5.732   2.686
 2491SOL    HW1 8372   2.574   5.649   2.732
 2491SOL    HW2 8373   2.620   5.787   2.658
 2492SOL     OW 8374   4.465   3.725   6.181
 2492SOL    HW1 8375   4.421   3.729   6.271
 2492SOL    HW2 8376   4.491   3.630   6.162
 2493SOL     OW 8377   5.598   0.819   2.756
 2493SOL    HW1 8378   5.557   0.749   2.697
 2493SOL    HW2 8379   5.686   0.847   2.717
 2494SOL     OW 8380   4.625   2.510   2.715
 2494SOL    HW1 8381   4.669   2.558   2.640
 2494SOL    HW2 8382   4.649   2.555   2.802
 2495SOL     OW 8383   5.054   1.223   5.572
 2495SOL    HW1 8384   5.139   1.198   5.525
 2495SOL    HW2 8385   5.031   1.318   5.550
 2496SOL     OW 8386   1.170   5.473   0.702
 2496SOL    HW1 8387   1.152   5.400   0.768
 2496SOL    HW2 8388   1.117   5.554   0.726
 2497SOL     OW 8389   6.809   1.510   0.721
 2497SOL    HW1 8390   6.712   1.487   0.732
 2497SOL    HW2 8391   6.819   1.582   0.653
 2498SOL     OW 8392   2.098   3.325   3.285
 2498SOL    HW1 8393   2.100   3.391   3.360
 2498SOL    HW2 8394   2.084   3.373   3.198
 2499SOL     OW 8395   5.786   0.892   4.803
 2499SOL    HW1 8396   5.760   0.836   4.882
 2499SOL    HW2 8397   5.884   0.910   4.806
 2500SOL     OW 8398   4.813   3.435   6.418
 2500SOL    HW1 8399   4.908   3.405   6.407
 2500SOL    HW2 8400   4.798   3.466   6.511
 2501SOL     OW 8401   5.930   4.275   6.890
 2501SOL    HW1 8402   5.862   4.203   6.905
 2501SOL    HW2 8403   5.897   4.361   6.927
 2502SOL     OW 8404   2.150   6.727   3.600
 2502SOL    HW1 8405   2.151   6.788   3.520
 2502SOL    HW2 8406   2.085   6.652   3.584
 2503SOL     OW 8407   3.715   5.628   5.612
 2503SOL    HW1 8408   3.795   5.628   5.553
 2503SOL    HW2 8409   3.703   5.537   5.653
 2504SOL     OW 8410   2.054   4.733   4.728
 2504SOL    HW1 8411   1.961   4.729   4.692
 2504SOL    HW2 8412   2.075   4.648   4.776
 2505SOL     OW 8413   4.016   5.330   4.388
 2505SOL    HW1 8414   3.920   5.327   4.359
 2505SOL    HW2 8415   4.021   5.363   4.482
 2506SOL     OW 8416   6.539   3.624   6.105
 2506SOL    HW1 8417   6.449   3.664   6.088
 2506SOL    HW2 8418   6.539   3.528   6.076
 2507SOL     OW 8419   6.423   5.620   0.108
 2507SOL    HW1 8420   6.462   5.610   0.200
 2507SOL    HW2 8421   6.344   5.559   0.099
 2508SOL     OW 8422   2.859   1.963   2.209
 2508SOL    HW1 8423   2.902   2.008   2.131
 2508SOL    HW2 8424   2.845   2.030   2.282
 2509SOL     OW 8425   5.610   2.769   2.499
 2509SOL    HW1 8426   5.679   2.732   2.561
 2509SOL    HW2 8427   5.617   2.722   2.410
 2510SOL     OW 8428   3.249   4.982   0.690
 2510SOL    HW1 8429   3.264   4.888   0.721
 2510SOL    HW2 8430   3.151   5.003   0.691
 2511SOL     OW 8431   1.300   1.053   5.047
 2511SOL    HW1 8432   1.241   1.035   4.968
 2511SOL    HW2 8433   1.395   1.057   5.018
 2512SOL     OW 8434   4.849   4.072   4.877
 2512SOL    HW1 8435   4.947   4.085   4.894
 2512SOL    HW2 8436   4.833   3.982   4.839
 2513SOL     OW 8437   1.371   2.409   6.327
 2513SOL    HW1 8438   1.320   2.376   6.406
 2513SOL    HW2 8439   1.390   2.333   6.265
 2514SOL     OW 8440   0.533   1.452   4.443
 2514SOL    HW1 8441   0.595   1.408   4.507
 2514SOL    HW2 8442   0.449   1.479   4.490
 2515SOL     OW 8443   1.202   6.654   0.346
 2515SOL    HW1 8444   1.223   6.732   0.405
 2515SOL    HW2 8445   1.184   6.574   0.403
 2516SOL     OW 8446   6.039   6.557   3.648
 2516SOL    HW1 8447   6.040   6.473   3.593
 2516SOL    HW2 8448   6.120   6.611   3.628
 2517SOL     OW 8449   2.620   4.320   6.343
 2517SOL    HW1 8450   2.633   4.300   6.246
 2517SOL    HW2 8451   2.672   4.402   6.367
 2518SOL     OW 8452   2.272   2.619   6.363
 2518SOL    HW1 8453   2.358   2.571   6.378
 2518SOL    HW2 8454   2.261   2.691   6.431
 2519SOL     OW 8455   4.952   4.774   4.367
 2519SOL    HW1 8456   4.910   4.827   4.294
 2519SOL    HW2 8457   5.050   4.762   4.349
 2520SOL     OW 8458   2.850   3.206   1.112
 2520SOL    HW1 8459   2.846   3.124   1.054
 2520SOL    HW2 8460   2.767   3.211   1.168
 2521SOL     OW 8461   0.257   0.014   5.441
 2521SOL    HW1 8462   0.179   0.047   5.493
 2521SOL    HW2 8463   0.315   6.981   5.500
 2522SOL     OW 8464   1.310   2.979   4.521
 2522SOL    HW1 8465   1.241   2.911   4.497
 2522SOL    HW2 8466   1.372   2.941   4.590
 2523SOL     OW 8467   6.719   3.427   0.698
 2523SOL    HW1 8468   6.648   3.479   0.744
 2523SOL    HW2 8469   6.767   3.486   0.633
 2524SOL     OW 8470   1.122   6.841   4.077
 2524SOL    HW1 8471   1.034   6.844   4.030
 2524SOL    HW2 8472   1.196   6.838   4.009
 2525SOL     OW 8473   0.984   4.380   4.530
 2525SOL    HW1 8474   1.072   4.405   4.571
 2525SOL    HW2 8475   0.910   4.407   4.591
 2526SOL     OW 8476   0.145   2.123   4.219
 2526SOL    HW1 8477   0.186   2.197   4.272
 2526SOL    HW2 8478   0.189   2.116   4.130
 2527SOL     OW 8479   5.702   6.040   5.001
 2527SOL    HW1 8480   5.716   6.071   5.095
 2527SOL    HW2 8481   5.605   6.018   4.987
 2528SOL     OW 8482   6.210   5.068   0.359
 2528SOL    HW1 8483   6.207   4.991   0.295
 2528SOL    HW2 8484   6.222   5.034   0.452
 2529SOL     OW 8485   4.717   6.052   4.855
 2529SOL    HW1 8486   4.655   6.087   4.785
 2529SOL    HW2 8487   4.686   5.961   4.884
 2530SOL     OW 8488   1.065   6.091   3.342
 2530SOL    HW1 8489   1.150   6.135   3.371
 2530SOL    HW2 8490   0.992   6.114   3.406
 2531SOL     OW 8491   4.910   0.722   5.071
 2531SOL    HW1 8492   4.868   0.710   4.981
 2531SOL    HW2 8493   4.962   0.640   5.095
 2532SOL     OW 8494   1.339   5.428   0.247
 2532SOL    HW1 8495   1.284   5.375   0.183
 2532SOL    HW2 8496   1.436   5.415   0.226
 2533SOL     OW 8497   5.132   6.915   5.242
 2533SOL    HW1 8498   5.069   6.842   5.214
 2533SOL    HW2 8499   5.119   6.995   5.183
 2534SOL     OW 8500   2.089   0.724   3.591
 2534SOL    HW1 8501   2.112   0.704   3.686
 2534SOL    HW2 8502   2.037   0.809   3.586
 2535SOL     OW 8503   1.450   1.576   3.995
 2535SOL    HW1 8504   1.434   1.671   4.021
 2535SOL    HW2 8505   1.489   1.526   4.073
 2536SOL     OW 8506   6.342   1.200   4.340
 2536SOL    HW1 8507   6.300   1.278   4.387
 2536SOL    HW2 8508   6.419   1.233   4.284
 2537SOL     OW 8509   4.596   6.175   1.086
 2537SOL    HW1 8510   4.519   6.116   1.062
 2537SOL    HW2 8511   4.680   6.139   1.047
 2538SOL     OW 8512   1.773   4.704   4.676
 2538SOL    HW1 8513   1.796   4.607   4.664
 2538SOL    HW2 8514   1.697   4.713   4.739
 2539SOL     OW 8515   4.091   0.081   5.557
 2539SOL    HW1 8516   4.018   0.059   5.622
 2539SOL    HW2 8517   4.101   0.180   5.551
 2540SOL     OW 8518   5.537   1.178   2.610
 2540SOL    HW1 8519   5.477   1.097   2.614
 2540SOL    HW2 8520   5.626   1.151   2.572
 2541SOL     OW 8521   1.209   7.003   5.131
 2541SOL    HW1 8522   1.132   7.016   5.069
 2541SOL    HW2 8523   1.276   0.053   5.117
 2542SOL     OW 8524   3.969   1.899   4.073
 2542SOL    HW1 8525   4.002   1.807   4.054
 2542SOL    HW2 8526   3.926   1.936   3.991
 2543SOL     OW 8527   1.117   0.686   2.819
 2543SOL    HW1 8528   1.052   0.762   2.812
 2543SOL    HW2 8529   1.117   0.634   2.733
 2544SOL     OW 8530   0.207   5.449   1.361
 2544SOL    HW1 8531   0.108   5.458   1.351
 2544SOL    HW2 8532   0.229   5.419   1.454
 2545SOL     OW 8533   1.709   1.943   1.574
 2545SOL    HW1 8534   1.734   2.024   1.521
 2545SOL    HW2 8535   1.724   1.861   1.519
 2546SOL     OW 8536   6.097   3.763   1.714
 2546SOL    HW1 8537   6.070   3.844   1.766
 2546SOL    HW2 8538   6.137   3.790   1.627
 2547SOL     OW 8539   5.707   4.402   0.484
 2547SOL    HW1 8540   5.772   4.477   0.489
 2547SOL    HW2 8541   5.692   4.377   0.388
 2548SOL     OW 8542   0.716   0.216   5.081
 2548SOL    HW1 8543   0.723   0.274   5.163
 2548SOL    HW2 8544   0.709   0.120   5.108
 2549SOL     OW 8545   1.874   2.575   2.315
 2549SOL    HW1 8546   1.863   2.608   2.408
 2549SOL    HW2 8547   1.807   2.621   2.256
 2550SOL     OW 8548   5.429   6.978   6.890
 2550SOL    HW1 8549   5.465   0.008   6.967
 2550SOL    HW2 8550   5.427   0.012   6.808
 2551SOL     OW 8551   3.277   5.007   0.121
 2551SOL    HW1 8552   3.359   5.056   0.152
 2551SOL    HW2 8553   3.247   5.044   0.034
 2552SOL     OW 8554   1.929   5.081   6.808
 2552SOL    HW1 8555   1.996   5.013   6.838
 2552SOL    HW2 8556   1.920   5.152   6.877
 2553SOL     OW 8557   3.934   2.002   6.035
 2553SOL    HW1 8558   3.892   1.924   5.988
 2553SOL    HW2 8559   3.863   2.064   6.068
 2554SOL     OW 8560   1.760   5.722   0.587
 2554SOL    HW1 8561   1.780   5.697   0.681
 2554SOL    HW2 8562   1.687   5.663   0.551
 2555SOL     OW 8563   6.006   6.120   6.174
 2555SOL    HW1 8564   6.069   6.059   6.125
 2555SOL    HW2 8565   6.040   6.136   6.267
 2556SOL     OW 8566   3.150   6.712   1.396
 2556SOL    HW1 8567   3.174   6.764   1.314
 2556SOL    HW2 8568   3.104   6.627   1.369
 2557SOL     OW 8569   3.434   0.581   0.091
 2557SOL    HW1 8570   3.391   0.529   0.165
 2557SOL    HW2 8571   3.526   0.547   0.075
 2558SOL     OW 8572   5.473   4.431   6.184
 2558SOL    HW1 8573   5.378   4.451   6.210
 2558SOL    HW2 8574   5.531   4.439   6.265
 2559SOL     OW 8575   0.243   3.367   3.504
 2559SOL    HW1 8576   0.343   3.365   3.494
 2559SOL    HW2 8577   0.202   3.304   3.439
 2560SOL     OW 8578   5.147   3.540   3.456
 2560SOL    HW1 8579   5.234   3.549   3.505
 2560SOL    HW2 8580   5.094   3.466   3.498
 2561SOL     OW 8581   3.163   1.179   4.403
 2561SOL    HW1 8582   3.220   1.098   4.387
 2561SOL    HW2 8583   3.214   1.245   4.458
 2562SOL     OW 8584   3.496   6.183   3.116
 2562SOL    HW1 8585   3.549   6.245   3.174
 2562SOL    HW2 8586   3.404   6.219   3.105
 2563SOL     OW 8587   2.553   1.504   6.871
 2563SOL    HW1 8588   2.533   1.529   6.965
 2563SOL    HW2 8589   2.610   1.574   6.828
 2564SOL     OW 8590   2.253   0.735   6.877
 2564SOL    HW1 8591   2.347   0.714   6.902
 2564SOL    HW2 8592   2.251   0.816   6.819
 2565SOL     OW 8593   0.596   1.104   6.657
 2565SOL    HW1 8594   0.556   1.107   6.748
 2565SOL    HW2 8595   0.598   1.009   6.625
 2566SOL     OW 8596   3.050   0.367   1.862
 2566SOL    HW1 8597   3.104   0.294   1.903
 2566SOL    HW2 8598   2.953   0.342   1.865
 2567SOL     OW 8599   1.550   0.738   0.380
 2567SOL    HW1 8600   1.607   0.758   0.460
 2567SOL    HW2 8601   1.455   0.760   0.401
 2568SOL     OW 8602   2.825   6.544   1.167
 2568SOL    HW1 8603   2.733   6.507   1.170
 2568SOL    HW2 8604   2.889   6.479   1.209
 2569SOL     OW 8605   2.101   1.206   1.087
 2569SOL    HW1 8606   2.023   1.223   1.026
 2569SOL    HW2 8607   2.077   1.235   1.180
 2570SOL     OW 8608   4.838   5.824   6.695
 2570SOL    HW1 8609   4.929   5.820   6.737
 2570SOL    HW2 8610   4.780   5.753   6.734
 2571SOL     OW 8611   3.628   2.969   4.183
 2571SOL    HW1 8612   3.572   2.965   4.101
 2571SOL    HW2 8613   3.724   2.955   4.159
 2572SOL     OW 8614   2.569   5.466   1.482
 2572SOL    HW1 8615   2.583   5.377   1.525
 2572SOL    HW2 8616   2.575   5.538   1.552
 2573SOL     OW 8617   6.687   2.010   4.321
 2573SOL    HW1 8618   6.645   1.931   4.277
 2573SOL    HW2 8619   6.761   2.045   4.263
 2574SOL     OW 8620   6.644   3.185   1.122
 2574SOL    HW1 8621   6.685   3.276   1.123
 2574SOL    HW2 8622   6.547   3.191   1.148
 2575SOL     OW 8623   5.115   3.991   0.686
 2575SOL    HW1 8624   5.099   3.910   0.629
 2575SOL    HW2 8625   5.213   4.001   0.704
 2576SOL     OW 8626   2.596   7.003   3.950
 2576SOL    HW1 8627   2.510   7.021   3.902
 2576SOL    HW2 8628   2.665   6.972   3.885
 2577SOL     OW 8629   3.901   0.576   3.595
 2577SOL    HW1 8630   3.887   0.560   3.498
 2577SOL    HW2 8631   3.877   0.670   3.618
 2578SOL     OW 8632   4.710   2.471   4.398
 2578SOL    HW1 8633   4.765   2.388   4.386
 2578SOL    HW2 8634   4.645   2.457   4.472
 2579SOL     OW 8635   0.591   1.696   5.979
 2579SOL    HW1 8636   0.595   1.763   6.053
 2579SOL    HW2 8637   0.658   1.624   5.996
 2580SOL     OW 8638   1.407   2.340   5.969
 2580SOL    HW1 8639   1.381   2.427   6.012
 2580SOL    HW2 8640   1.485   2.355   5.908
 2581SOL     OW 8641   5.608   5.696   1.714
 2581SOL    HW1 8642   5.608   5.596   1.712
 2581SOL    HW2 8643   5.633   5.730   1.623
 2582SOL     OW 8644   1.356   5.408   2.690
 2582SOL    HW1 8645   1.325   5.457   2.608
 2582SOL    HW2 8646   1.319   5.315   2.689
 2583SOL     OW 8647   0.836   0.570   1.106
 2583SOL    HW1 8648   0.812   0.473   1.097
 2583SOL    HW2 8649   0.809   0.619   1.023
 2584SOL     OW 8650   3.241   6.602   1.046
 2584SOL    HW1 8651   3.328   6.610   0.997
 2584SOL    HW2 8652   3.203   6.693   1.062
 2585SOL     OW 8653   2.877   6.949   0.941
 2585SOL    HW1 8654   2.779   6.932   0.930
 2585SOL    HW2 8655   2.908   6.906   1.026
 2586SOL     OW 8656   6.068   0.948   4.493
 2586SOL    HW1 8657   5.970   0.966   4.500
 2586SOL    HW2 8658   6.085   0.887   4.415
 2587SOL     OW 8659   6.385   0.477   4.875
 2587SOL    HW1 8660   6.430   0.410   4.935
 2587SOL    HW2 8661   6.427   0.567   4.889
 2588SOL     OW 8662   5.246   0.245   1.056
 2588SOL    HW1 8663   5.204   0.154   1.054
 2588SOL    HW2 8664   5.334   0.240   1.104
 2589SOL     OW 8665   6.451   0.310   5.688
 2589SOL    HW1 8666   6.515   0.323   5.612
 2589SOL    HW2 8667   6.382   0.243   5.663
 2590SOL     OW 8668   3.828   0.206   2.848
 2590SOL    HW1 8669   3.912   0.224   2.900
 2590SOL    HW2 8670   3.757   0.172   2.910
 2591SOL     OW 8671   4.843   6.592   1.288
 2591SOL    HW1 8672   4.877   6.596   1.194
 2591SOL    HW2 8673   4.916   6.559   1.348
 2592SOL     OW 8674   3.113   5.388   1.424
 2592SOL    HW1 8675   3.117   5.486   1.402
 2592SOL    HW2 8676   3.115   5.376   1.523
 2593SOL     OW 8677   3.595   6.965   2.830
 2593SOL    HW1 8678   3.592   0.029   2.879
 2593SOL    HW2 8679   3.514   6.955   2.772
 2594SOL     OW 8680   0.377   0.529   6.501
 2594SOL    HW1 8681   0.332   0.595   6.442
 2594SOL    HW2 8682   0.308   0.469   6.543
 2595SOL     OW 8683   6.713   3.205   5.253
 2595SOL    HW1 8684   6.809   3.184   5.237
 2595SOL    HW2 8685   6.662   3.193   5.167
 2596SOL     OW 8686   3.858   2.167   1.754
 2596SOL    HW1 8687   3.841   2.138   1.660
 2596SOL    HW2 8688   3.785   2.230   1.782
 2597SOL     OW 8689   2.761   2.879   0.734
 2597SOL    HW1 8690   2.796   2.937   0.660
 2597SOL    HW2 8691   2.808   2.790   0.731
 2598SOL     OW 8692   6.670   2.763   4.535
 2598SOL    HW1 8693   6.730   2.698   4.581
 2598SOL    HW2 8694   6.639   2.832   4.600
 2599SOL     OW 8695   3.517   5.921   5.552
 2599SOL    HW1 8696   3.500   5.826   5.528
 2599SOL    HW2 8697   3.433   5.974   5.543
 2600SOL     OW 8698   4.952   3.980   3.562
 2600SOL    HW1 8699   4.987   3.950   3.651
 2600SOL    HW2 8700   4.966   3.907   3.495
 2601SOL     OW 8701   3.219   2.317   6.154
 2601SOL    HW1 8702   3.304   2.282   6.194
 2601SOL    HW2 8703   3.173   2.375   6.221
 2602SOL     OW 8704   6.688   4.849   4.801
 2602SOL    HW1 8705   6.708   4.879   4.708
 2602SOL    HW2 8706   6.614   4.905   4.839
 2603SOL     OW 8707   2.338   2.813   1.886
 2603SOL    HW1 8708   2.374   2.733   1.933
 2603SOL    HW2 8709   2.413   2.861   1.841
 2604SOL     OW 8710   5.463   0.108   0.856
 2604SOL    HW1 8711   5.484   0.170   0.931
 2604SOL    HW2 8712   5.415   0.028   0.891
 2605SOL     OW 8713   4.349   4.756   3.458
 2605SOL    HW1 8714   4.362   4.662   3.492
 2605SOL    HW2 8715   4.414   4.817   3.504
 2606SOL     OW 8716   6.757   3.804   0.730
 2606SOL    HW1 8717   6.836   3.746   0.710
 2606SOL    HW2 8718   6.682   3.780   0.670
 2607SOL     OW 8719   1.662   1.659   4.451
 2607SOL    HW1 8720   1.737   1.658   4.517
 2607SOL    HW2 8721   1.692   1.703   4.367
 2608SOL     OW 8722   4.922   0.348   2.128
 2608SOL    HW1 8723   4.931   0.249   2.133
 2608SOL    HW2 8724   4.830   0.371   2.095
 2609SOL     OW 8725   0.610   2.602   1.979
 2609SOL    HW1 8726   0.608   2.523   1.918
 2609SOL    HW2 8727   0.517   2.626   2.008
 2610SOL     OW 8728   6.965   5.848   4.436
 2610SOL    HW1 8729   6.960   5.838   4.535
 2610SOL    HW2 8730   6.926   5.936   4.409
 2611SOL     OW 8731   5.896   6.394   0.832
 2611SOL    HW1 8732   5.908   6.408   0.734
 2611SOL    HW2 8733   5.809   6.433   0.861
 2612SOL     OW 8734   6.204   6.205   4.576
 2612SOL    HW1 8735   6.166   6.121   4.538
 2612SOL    HW2 8736   6.146   6.236   4.652
 2613SOL     OW 8737   3.551   6.495   2.151
 2613SOL    HW1 8738   3.501   6.409   2.161
 2613SOL    HW2 8739   3.649   6.477   2.145
 2614SOL     OW 8740   6.329   6.959   5.634
 2614SOL    HW1 8741   6.314   6.861   5.635
 2614SOL    HW2 8742   6.243   7.006   5.616
 2615SOL     OW 8743   5.434   5.692   4.050
 2615SOL    HW1 8744   5.406   5.604   4.087
 2615SOL    HW2 8745   5.497   5.678   3.973
 2616SOL     OW 8746   4.047   3.534   3.997
 2616SOL    HW1 8747   4.090   3.548   3.908
 2616SOL    HW2 8748   4.030   3.622   4.041
 2617SOL     OW 8749   3.301   4.962   1.177
 2617SOL    HW1 8750   3.208   4.979   1.142
 2617SOL    HW2 8751   3.340   5.048   1.210
 2618SOL     OW 8752   0.127   6.499   2.829
 2618SOL    HW1 8753   0.122   6.547   2.741
 2618SOL    HW2 8754   0.211   6.524   2.876
 2619SOL     OW 8755   4.387   1.749   2.121
 2619SOL    HW1 8756   4.387   1.733   2.219
 2619SOL    HW2 8757   4.367   1.663   2.073
 2620SOL     OW 8758   1.698   5.328   3.525
 2620SOL    HW1 8759   1.636   5.381   3.467
 2620SOL    HW2 8760   1.740   5.255   3.471
 2621SOL     OW 8761   0.612   5.634   3.197
 2621SOL    HW1 8762   0.680   5.702   3.173
 2621SOL    HW2 8763   0.606   5.626   3.296
 2622SOL     OW 8764   1.668   2.919   5.993
 2622SOL    HW1 8765   1.610   2.848   5.953
 2622SOL    HW2 8766   1.736   2.948   5.926
 2623SOL     OW 8767   3.948   1.098   4.302
 2623SOL    HW1 8768   3.983   1.115   4.210
 2623SOL    HW2 8769   3.964   1.178   4.359
 2624SOL     OW 8770   6.270   3.135   2.988
 2624SOL    HW1 8771   6.243   3.177   3.075
 2624SOL    HW2 8772   6.188   3.116   2.933
 2625SOL     OW 8773   1.533   3.126   5.658
 2625SOL    HW1 8774   1.476   3.050   5.691
 2625SOL    HW2 8775   1.537   3.123   5.558
 2626SOL     OW 8776   0.679   6.598   3.889
 2626SOL    HW1 8777   0.582   6.580   3.905
 2626SOL    HW2 8778   0.731   6.581   3.973
 2627SOL     OW 8779   0.225   1.067   5.008
 2627SOL    HW1 8780   0.171   1.000   4.957
 2627SOL    HW2 8781   0.279   1.020   5.078
 2628SOL     OW 8782   3.665   6.249   6.556
 2628SOL    HW1 8783   3.763   6.270   6.550
 2628SOL    HW2 8784   3.635   6.206   6.471
 2629SOL     OW 8785   3.779   3.745   1.913
 2629SOL    HW1 8786   3.849   3.674   1.921
 2629SOL    HW2 8787   3.822   3.832   1.890
 2630SOL     OW 8788   3.606   2.102   2.296
 2630SOL    HW1 8789   3.696   2.134   2.324
 2630SOL    HW2 8790   3.591   2.127   2.200
 2631SOL     OW 8791   4.716   6.675   4.123
 2631SOL    HW1 8792   4.776   6.603   4.088
 2631SOL    HW2 8793   4.621   6.649   4.108
 2632SOL     OW 8794   3.324   2.471   0.063
 2632SOL    HW1 8795   3.273   2.448   7.003
 2632SOL    HW2 8796   3.342   2.569   0.065
 2633SOL     OW 8797   5.921   2.351   6.734
 2633SOL    HW1 8798   5.912   2.384   6.640
 2633SOL    HW2 8799   5.832   2.319   6.766
 2634SOL     OW 8800   1.864   4.198   2.431
 2634SOL    HW1 8801   1.836   4.286   2.393
 2634SOL    HW2 8802   1.783   4.143   2.451
 2635SOL     OW 8803   5.593   6.234   4.491
 2635SOL    HW1 8804   5.522   6.277   4.547
 2635SOL    HW2 8805   5.561   6.228   4.396
 2636SOL     OW 8806   5.970   0.391   6.972
 2636SOL    HW1 8807   6.051   0.449   6.981
 2636SOL    HW2 8808   5.968   0.349   6.881
 2637SOL     OW 8809   6.603   0.829   3.114
 2637SOL    HW1 8810   6.515   0.872   3.092
 2637SOL    HW2 8811   6.590   0.731   3.129
 2638SOL     OW 8812   5.724   0.041   1.757
 2638SOL    HW1 8813   5.813   0.002   1.779
 2638SOL    HW2 8814   5.720   0.061   1.659
 2639SOL     OW 8815   6.063   6.641   2.431
 2639SOL    HW1 8816   6.113   6.671   2.350
 2639SOL    HW2 8817   5.972   6.610   2.403
 2640SOL     OW 8818   0.029   6.284   5.257
 2640SOL    HW1 8819   0.065   6.306   5.347
 2640SOL    HW2 8820   0.105   6.268   5.194
 2641SOL     OW 8821   5.760   3.321   0.330
 2641SOL    HW1 8822   5.766   3.302   0.428
 2641SOL    HW2 8823   5.760   3.420   0.316
 2642SOL     OW 8824   5.639   0.806   4.339
 2642SOL    HW1 8825   5.613   0.839   4.249
 2642SOL    HW2 8826   5.574   0.839   4.407
 2643SOL     OW 8827   6.836   5.369   3.087
 2643SOL    HW1 8828   6.835   5.269   3.083
 2643SOL    HW2 8829   6.846   5.407   2.995
 2644SOL     OW 8830   0.786   4.604   5.384
 2644SOL    HW1 8831   0.723   4.542   5.431
 2644SOL    HW2 8832   0.849   4.551   5.328
 2645SOL     OW 8833   4.495   0.240   5.147
 2645SOL    HW1 8834   4.531   0.301   5.218
 2645SOL    HW2 8835   4.396   0.230   5.159
 2646SOL     OW 8836   5.867   6.849   6.243
 2646SOL    HW1 8837   5.912   6.819   6.327
 2646SOL    HW2 8838   5.884   6.947   6.229
 2647SOL     OW 8839   4.894   0.409   0.675
 2647SOL    HW1 8840   4.828   0.353   0.726
 2647SOL    HW2 8841   4.973   0.428   0.732
 2648SOL     OW 8842   6.206   6.926   3.004
 2648SOL    HW1 8843   6.214   6.980   3.087
 2648SOL    HW2 8844   6.131   6.962   2.947
 2649SOL     OW 8845   4.013   1.543   6.070
 2649SOL    HW1 8846   4.057   1.457   6.098
 2649SOL    HW2 8847   3.993   1.598   6.151
 2650SOL     OW 8848   0.521   5.175   3.788
 2650SOL    HW1 8849   0.433   5.148   3.748
 2650SOL    HW2 8850   0.593   5.166   3.720
 2651SOL     OW 8851   1.064   1.502   1.034
 2651SOL    HW1 8852   1.106   1.591   1.016
 2651SOL    HW2 8853   1.076   1.443   0.954
 2652SOL     OW 8854   3.366   2.878   3.709
 2652SOL    HW1 8855   3.386   2.884   3.611
 2652SOL    HW2 8856   3.269   2.857   3.723
 2653SOL     OW 8857   5.048   6.926   5.522
 2653SOL    HW1 8858   5.026   6.828   5.531
 2653SOL    HW2 8859   5.072   6.946   5.427
 2654SOL     OW 8860   5.221   3.101   6.378
 2654SOL    HW1 8861   5.140   3.135   6.329
 2654SOL    HW2 8862   5.199   3.088   6.474
 2655SOL     OW 8863   3.806   5.236   4.598
 2655SOL    HW1 8864   3.811   5.222   4.697
 2655SOL    HW2 8865   3.800   5.147   4.552
 2656SOL     OW 8866   5.354   4.836   4.063
 2656SOL    HW1 8867   5.445   4.799   4.043
 2656SOL    HW2 8868   5.336   4.914   4.002
 2657SOL     OW 8869   2.309   3.990   6.238
 2657SOL    HW1 8870   2.321   3.991   6.139
 2657SOL    HW2 8871   2.287   4.083   6.269
 2658SOL     OW 8872   6.378   4.760   6.682
 2658SOL    HW1 8873   6.327   4.675   6.668
 2658SOL    HW2 8874   6.315   4.838   6.684
 2659SOL     OW 8875   6.945   2.213   4.395
 2659SOL    HW1 8876   6.935   2.312   4.384
 2659SOL    HW2 8877   0.002   2.182   4.344
 2660SOL     OW 8878   0.078   2.218   1.369
 2660SOL    HW1 8879   0.033   2.228   1.457
 2660SOL    HW2 8880   0.053   2.293   1.309
 2661SOL     OW 8881   2.756   6.741   1.522
 2661SOL    HW1 8882   2.760   6.641   1.527
 2661SOL    HW2 8883   2.767   6.780   1.614
 2662SOL     OW 8884   4.223   6.729   4.527
 2662SOL    HW1 8885   4.302   6.772   4.571
 2662SOL    HW2 8886   4.218   6.633   4.555
 2663SOL     OW 8887   1.962   4.227   1.433
 2663SOL    HW1 8888   1.882   4.189   1.386
 2663SOL    HW2 8889   1.988   4.313   1.389
 2664SOL     OW 8890   3.537   3.822   3.618
 2664SOL    HW1 8891   3.571   3.916   3.624
 2664SOL    HW2 8892   3.533   3.782   3.709
 2665SOL     OW 8893   3.572   1.650   4.836
 2665SOL    HW1 8894   3.574   1.664   4.737
 2665SOL    HW2 8895   3.495   1.701   4.875
 2666SOL     OW 8896   4.530   4.195   1.497
 2666SOL    HW1 8897   4.537   4.249   1.580
 2666SOL    HW2 8898   4.436   4.163   1.485
 2667SOL     OW 8899   1.252   6.054   4.833
 2667SOL    HW1 8900   1.326   6.033   4.898
 2667SOL    HW2 8901   1.253   5.987   4.759
 2668SOL     OW 8902   6.286   3.647   4.068
 2668SOL    HW1 8903   6.304   3.595   3.984
 2668SOL    HW2 8904   6.205   3.704   4.055
 2669SOL     OW 8905   3.491   5.054   5.777
 2669SOL    HW1 8906   3.446   5.006   5.852
 2669SOL    HW2 8907   3.537   4.987   5.718
 2670SOL     OW 8908   6.884   1.036   6.561
 2670SOL    HW1 8909   6.796   0.992   6.546
 2670SOL    HW2 8910   6.883   1.129   6.523
 2671SOL     OW 8911   2.651   3.817   0.207
 2671SOL    HW1 8912   2.714   3.739   0.205
 2671SOL    HW2 8913   2.698   3.898   0.170
 2672SOL     OW 8914   1.696   5.885   6.976
 2672SOL    HW1 8915   1.641   5.942   0.014
 2672SOL    HW2 8916   1.778   5.855   0.001
 2673SOL     OW 8917   5.347   2.657   4.111
 2673SOL    HW1 8918   5.337   2.640   4.013
 2673SOL    HW2 8919   5.385   2.749   4.125
 2674SOL     OW 8920   2.087   4.418   4.035
 2674SOL    HW1 8921   2.055   4.511   4.017
 2674SOL    HW2 8922   2.099   4.405   4.133
 2675SOL     OW 8923   1.300   4.507   5.490
 2675SOL    HW1 8924   1.235   4.439   5.526
 2675SOL    HW2 8925   1.372   4.459   5.438
 2676SOL     OW 8926   4.658   1.345   2.658
 2676SOL    HW1 8927   4.668   1.435   2.616
 2676SOL    HW2 8928   4.693   1.349   2.752
 2677SOL     OW 8929   2.762   4.864   1.246
 2677SOL    HW1 8930   2.696   4.856   1.321
 2677SOL    HW2 8931   2.844   4.911   1.278
 2678SOL     OW 8932   1.004   4.867   0.199
 2678SOL    HW1 8933   1.026   4.790   0.259
 2678SOL    HW2 8934   0.953   4.835   0.120
 2679SOL     OW 8935   3.669   5.124   1.079
 2679SOL    HW1 8936   3.608   5.069   1.022
 2679SOL    HW2 8937   3.750   5.149   1.026
 2680SOL     OW 8938   1.908   1.839   0.432
 2680SOL    HW1 8939   1.827   1.810   0.483
 2680SOL    HW2 8940   1.977   1.874   0.495
 2681SOL     OW 8941   1.907   3.596   4.312
 2681SOL    HW1 8942   1.867   3.668   4.368
 2681SOL    HW2 8943   1.880   3.608   4.217
 2682SOL     OW 8944   5.583   3.200   2.243
 2682SOL    HW1 8945   5.589   3.214   2.145
 2682SOL    HW2 8946   5.673   3.175   2.279
 2683SOL     OW 8947   1.283   4.624   1.143
 2683SOL    HW1 8948   1.219   4.697   1.118
 2683SOL    HW2 8949   1.233   4.538   1.155
 2684SOL     OW 8950   4.067   5.618   2.457
 2684SOL    HW1 8951   4.144   5.584   2.512
 2684SOL    HW2 8952   4.092   5.704   2.414
 2685SOL     OW 8953   6.483   0.013   4.623
 2685SOL    HW1 8954   6.466   7.001   4.715
 2685SOL    HW2 8955   6.423   0.091   4.605
 2686SOL     OW 8956   1.467   2.310   4.216
 2686SOL    HW1 8957   1.546   2.307   4.277
 2686SOL    HW2 8958   1.494   2.350   4.129
 2687SOL     OW 8959   3.937   4.944   2.656
 2687SOL    HW1 8960   3.889   5.019   2.610
 2687SOL    HW2 8961   4.035   4.952   2.638
 2688SOL     OW 8962   4.069   5.605   5.612
 2688SOL    HW1 8963   4.166   5.588   5.595
 2688SOL    HW2 8964   4.025   5.634   5.527
 2689SOL     OW 8965   1.711   1.864   4.013
 2689SOL    HW1 8966   1.612   1.848   4.008
 2689SOL    HW2 8967   1.752   1.850   3.923
 2690SOL     OW 8968   4.016   3.201   3.562
 2690SOL    HW1 8969   4.005   3.237   3.655
 2690SOL    HW2 8970   4.064   3.269   3.506
 2691SOL     OW 8971   2.067   5.604   1.857
 2691SOL    HW1 8972   2.115   5.520   1.881
 2691SOL    HW2 8973   1.991   5.618   1.920
 2692SOL     OW 8974   6.358   6.202   4.212
 2692SOL    HW1 8975   6.362   6.302   4.213
 2692SOL    HW2 8976   6.268   6.172   4.179
 2693SOL     OW 8977   2.337   4.717   2.863
 2693SOL    HW1 8978   2.266   4.654   2.831
 2693SOL    HW2 8979   2.366   4.775   2.787
 2694SOL     OW 8980   3.040   0.572   3.150
 2694SOL    HW1 8981   3.117   0.634   3.161
 2694SOL    HW2 8982   2.957   0.624   3.129
 2695SOL     OW 8983   4.813   1.987   2.633
 2695SOL    HW1 8984   4.816   2.086   2.647
 2695SOL    HW2 8985   4.893   1.945   2.677
 2696SOL     OW 8986   3.850   2.433   5.430
 2696SOL    HW1 8987   3.779   2.394   5.371
 2696SOL    HW2 8988   3.846   2.533   5.425
 2697SOL     OW 8989   4.104   2.189   4.061
 2697SOL    HW1 8990   4.183   2.244   4.035
 2697SOL    HW2 8991   4.058   2.156   3.979
 2698SOL     OW 8992   1.646   4.784   0.588
 2698SOL    HW1 8993   1.712   4.824   0.524
 2698SOL    HW2 8994   1.663   4.686   0.596
 2699SOL     OW 8995   3.639   5.354   0.179
 2699SOL    HW1 8996   3.576   5.292   0.132
 2699SOL    HW2 8997   3.731   5.343   0.141
 2700SOL     OW 8998   1.883   3.647   2.561
 2700SOL    HW1 8999   1.934   3.568   2.525
 2700SOL    HW2 9000   1.787   3.623   2.573
 2701SOL     OW 9001   3.838   0.008   6.509
 2701SOL    HW1 9002   3.867   0.095   6.468
 2701SOL    HW2 9003   3.752   7.001   6.468
 2702SOL     OW 9004   6.483   2.146   3.155
 2702SOL    HW1 9005   6.566   2.198   3.131
 2702SOL    HW2 9006   6.439   2.113   3.072
 2703SOL     OW 9007   2.778   0.908   3.097
 2703SOL    HW1 9008   2.849   0.932   3.031
 2703SOL    HW2 9009   2.713   0.984   3.106
 2704SOL     OW 9010   1.865   5.605   1.664
 2704SOL    HW1 9011   1.929   5.572   1.734
 2704SOL    HW2 9012   1.892   5.697   1.636
 2705SOL     OW 9013   0.245   5.076   4.398
 2705SOL    HW1 9014   0.180   5.112   4.465
 2705SOL    HW2 9015   0.202   5.072   4.308
 2706SOL     OW 9016   0.064   1.041   2.122
 2706SOL    HW1 9017   0.031   1.131   2.094
 2706SOL    HW2 9018   0.002   0.970   2.090
 2707SOL     OW 9019   1.923   0.390   6.074
 2707SOL    HW1 9020   2.005   0.424   6.120
 2707SOL    HW2 9021   1.898   0.301   6.112
 2708SOL     OW 9022   2.518   2.461   1.613
 2708SOL    HW1 9023   2.575   2.447   1.695
 2708SOL    HW2 9024   2.428   2.495   1.640
 2709SOL     OW 9025   4.922   6.585   1.031
 2709SOL    HW1 9026   4.927   6.682   1.008
 2709SOL    HW2 9027   4.928   6.530   0.948
 2710SOL     OW 9028   6.901   3.670   2.607
 2710SOL    HW1 9029   6.886   3.769   2.612
 2710SOL    HW2 9030   6.944   3.648   2.519
 2711SOL     OW 9031   2.106   0.512   2.645
 2711SOL    HW1 9032   2.036   0.583   2.635
 2711SOL    HW2 9033   2.197   0.554   2.636
 2712SOL     OW 9034   3.083   5.044   6.905
 2712SOL    HW1 9035   3.054   5.054   6.810
 2712SOL    HW2 9036   3.012   4.995   6.956
 2713SOL     OW 9037   1.950   2.783   4.967
 2713SOL    HW1 9038   2.050   2.787   4.966
 2713SOL    HW2 9039   1.921   2.696   5.008
 2714SOL     OW 9040   5.543   1.909   6.996
 2714SOL    HW1 9041   5.557   1.984   0.038
 2714SOL    HW2 9042   5.444   1.897   6.980
 2715SOL     OW 9043   6.297   0.594   0.422
 2715SOL    HW1 9044   6.383   0.644   0.415
 2715SOL    HW2 9045   6.302   0.530   0.499
 2716SOL     OW 9046   6.974   5.450   1.511
 2716SOL    HW1 9047   6.878   5.480   1.515
 2716SOL    HW2 9048   7.012   5.452   1.604
 2717SOL     OW 9049   0.784   5.613   1.978
 2717SOL    HW1 9050   0.826   5.700   2.004
 2717SOL    HW2 9051   0.853   5.553   1.938
 2718SOL     OW 9052   2.267   4.212   4.004
 2718SOL    HW1 9053   2.198   4.284   4.003
 2718SOL    HW2 9054   2.334   4.231   4.076
 2719SOL     OW 9055   4.468   5.079   2.095
 2719SOL    HW1 9056   4.368   5.088   2.104
 2719SOL    HW2 9057   4.494   4.985   2.116
 2720SOL     OW 9058   1.856   6.077   3.538
 2720SOL    HW1 9059   1.793   6.082   3.460
 2720SOL    HW2 9060   1.936   6.023   3.512
 2721SOL     OW 9061   2.503   0.514   4.993
 2721SOL    HW1 9062   2.564   0.461   4.934
 2721SOL    HW2 9063   2.511   0.482   5.088
 2722SOL     OW 9064   6.689   5.456   3.325
 2722SOL    HW1 9065   6.594   5.434   3.348
 2722SOL    HW2 9066   6.722   5.393   3.255
 2723SOL     OW 9067   1.877   0.992   5.638
 2723SOL    HW1 9068   1.804   0.977   5.570
 2723SOL    HW2 9069   1.836   1.003   5.728
 2724SOL     OW 9070   3.021   5.870   5.546
 2724SOL    HW1 9071   2.999   5.829   5.458
 2724SOL    HW2 9072   3.077   5.806   5.600
 2725SOL     OW 9073   5.834   4.653   3.324
 2725SOL    HW1 9074   5.801   4.560   3.307
 2725SOL    HW2 9075   5.908   4.651   3.390
 2726SOL     OW 9076   4.912   5.100   1.613
 2726SOL    HW1 9077   4.865   5.134   1.694
 2726SOL    HW2 9078   5.005   5.137   1.610
 2727SOL     OW 9079   0.764   4.822   3.098
 2727SOL    HW1 9080   0.764   4.773   3.011
 2727SOL    HW2 9081   0.838   4.890   3.097
 2728SOL     OW 9082   2.897   0.510   4.574
 2728SOL    HW1 9083   2.852   0.534   4.660
 2728SOL    HW2 9084   2.829   0.472   4.511
 2729SOL     OW 9085   6.980   6.149   2.299
 2729SOL    HW1 9086   6.894   6.145   2.247
 2729SOL    HW2 9087   6.978   6.079   2.371
 2730SOL     OW 9088   2.162   0.048   0.981
 2730SOL    HW1 9089   2.167   6.994   1.045
 2730SOL    HW2 9090   2.066   0.072   0.967
 2731SOL     OW 9091   2.786   3.645   1.442
 2731SOL    HW1 9092   2.701   3.668   1.395
 2731SOL    HW2 9093   2.776   3.661   1.540
 2732SOL     OW 9094   5.894   3.357   2.507
 2732SOL    HW1 9095   5.873   3.308   2.591
 2732SOL    HW2 9096   5.990   3.387   2.509
 2733SOL     OW 9097   0.752   6.835   5.435
 2733SOL    HW1 9098   0.735   6.749   5.387
 2733SOL    HW2 9099   0.703   6.909   5.389
 2734SOL     OW 9100   1.553   5.358   3.089
 2734SOL    HW1 9101   1.652   5.355   3.076
 2734SOL    HW2 9102   1.530   5.418   3.165
 2735SOL     OW 9103   0.389   3.453   2.399
 2735SOL    HW1 9104   0.306   3.398   2.403
 2735SOL    HW2 9105   0.394   3.513   2.479
 2736SOL     OW 9106   4.732   0.704   4.857
 2736SOL    HW1 9107   4.765   0.792   4.825
 2736SOL    HW2 9108   4.642   0.715   4.898
 2737SOL     OW 9109   3.208   3.177   6.520
 2737SOL    HW1 9110   3.135   3.127   6.473
 2737SOL    HW2 9111   3.228   3.261   6.469
 2738SOL     OW 9112   5.035   5.580   4.333
 2738SOL    HW1 9113   5.131   5.560   4.316
 2738SOL    HW2 9114   5.027   5.670   4.378
 2739SOL     OW 9115   5.756   4.063   0.721
 2739SOL    HW1 9116   5.699   3.982   0.729
 2739SOL    HW2 9117   5.823   4.065   0.795
 2740SOL     OW 9118   5.919   2.382   2.425
 2740SOL    HW1 9119   5.927   2.356   2.329
 2740SOL    HW2 9120   5.848   2.327   2.469
 2741SOL     OW 9121   0.023   1.700   5.676
 2741SOL    HW1 9122   0.081   1.624   5.646
 2741SOL    HW2 9123   6.952   1.685   5.644
 2742SOL     OW 9124   1.473   5.790   6.270
 2742SOL    HW1 9125   1.570   5.780   6.290
 2742SOL    HW2 9126   1.460   5.864   6.203
 2743SOL     OW 9127   6.212   5.983   1.467
 2743SOL    HW1 9128   6.253   6.019   1.382
 2743SOL    HW2 9129   6.133   6.039   1.492
 2744SOL     OW 9130   4.532   1.706   6.760
 2744SOL    HW1 9131   4.568   1.776   6.699
 2744SOL    HW2 9132   4.437   1.688   6.737
 2745SOL     OW 9133   2.095   6.318   0.430
 2745SOL    HW1 9134   2.085   6.318   0.331
 2745SOL    HW2 9135   2.169   6.381   0.456
 2746SOL     OW 9136   1.764   3.436   4.946
 2746SOL    HW1 9137   1.826   3.514   4.946
 2746SOL    HW2 9138   1.817   3.351   4.949
 2747SOL     OW 9139   5.629   4.626   5.216
 2747SOL    HW1 9140   5.538   4.647   5.180
 2747SOL    HW2 9141   5.662   4.703   5.271
 2748SOL     OW 9142   3.427   1.360   2.794
 2748SOL    HW1 9143   3.452   1.265   2.807
 2748SOL    HW2 9144   3.337   1.377   2.835
 2749SOL     OW 9145   5.571   4.963   4.402
 2749SOL    HW1 9146   5.576   5.000   4.309
 2749SOL    HW2 9147   5.663   4.942   4.435
 2750SOL     OW 9148   0.844   5.029   1.667
 2750SOL    HW1 9149   0.821   5.097   1.597
 2750SOL    HW2 9150   0.761   5.003   1.716
 2751SOL     OW 9151   1.581   0.005   0.495
 2751SOL    HW1 9152   1.573   6.942   0.546
 2751SOL    HW2 9153   1.651   7.018   0.424
 2752SOL     OW 9154   4.796   5.897   5.204
 2752SOL    HW1 9155   4.717   5.928   5.150
 2752SOL    HW2 9156   4.804   5.953   5.286
 2753SOL     OW 9157   3.215   5.857   6.391
 2753SOL    HW1 9158   3.201   5.814   6.301
 2753SOL    HW2 9159   3.229   5.785   6.460
 2754SOL     OW 9160   0.005   0.028   4.254
 2754SOL    HW1 9161   0.088   0.047   4.307
 2754SOL    HW2 9162   6.948   0.061   4.304
 2755SOL     OW 9163   2.712   6.634   3.652
 2755SOL    HW1 9164   2.798   6.682   3.631
 2755SOL    HW2 9165   2.638   6.700   3.661
 2756SOL     OW 9166   6.353   4.539   4.315
 2756SOL    HW1 9167   6.422   4.547   4.387
 2756SOL    HW2 9168   6.262   4.554   4.355
 2757SOL     OW 9169   3.735   1.858   6.439
 2757SOL    HW1 9170   3.829   1.844   6.469
 2757SOL    HW2 9171   3.719   1.806   6.355
 2758SOL     OW 9172   5.277   5.914   3.526
 2758SOL    HW1 9173   5.281   5.884   3.622
 2758SOL    HW2 9174   5.181   5.926   3.500
 2759SOL     OW 9175   3.261   4.584   5.584
 2759SOL    HW1 9176   3.314   4.591   5.668
 2759SOL    HW2 9177   3.296   4.649   5.517
 2760SOL     OW 9178   6.239   5.880   2.421
 2760SOL    HW1 9179   6.220   5.973   2.455
 2760SOL    HW2 9180   6.279   5.826   2.494
 2761SOL     OW 9181   1.003   4.317   3.471
 2761SOL    HW1 9182   0.905   4.300   3.460
 2761SOL    HW2 9183   1.051   4.288   3.388
 2762SOL     OW 9184   1.230   2.287   6.552
 2762SOL    HW1 9185   1.201   2.375   6.589
 2762SOL    HW2 9186   1.184   2.213   6.601
 2763SOL     OW 9187   5.077   1.719   5.898
 2763SOL    HW1 9188   4.996   1.722   5.956
 2763SOL    HW2 9189   5.124   1.632   5.910
 2764SOL     OW 9190   0.619   4.239   2.939
 2764SOL    HW1 9191   0.539   4.298   2.928
 2764SOL    HW2 9192   0.651   4.244   3.034
 2765SOL     OW 9193   6.556   0.223   0.559
 2765SOL    HW1 9194   6.630   0.168   0.520
 2765SOL    HW2 9195   6.481   0.163   0.588
 2766SOL     OW 9196   4.130   1.128   6.832
 2766SOL    HW1 9197   4.061   1.089   6.771
 2766SOL    HW2 9198   4.213   1.150   6.780
 2767SOL     OW 9199   6.042   5.712   6.312
 2767SOL    HW1 9200   5.970   5.675   6.254
 2767SOL    HW2 9201   6.132   5.687   6.274
 2768SOL     OW 9202   3.485   0.183   0.601
 2768SOL    HW1 9203   3.388   0.204   0.608
 2768SOL    HW2 9204   3.535   0.225   0.677
 2769SOL     OW 9205   2.112   4.106   5.747
 2769SOL    HW1 9206   2.057   4.181   5.785
 2769SOL    HW2 9207   2.149   4.134   5.658
 2770SOL     OW 9208   3.533   6.439   5.990
 2770SOL    HW1 9209   3.582   6.401   6.069
 2770SOL    HW2 9210   3.547   6.380   5.911
 2771SOL     OW 9211   5.190   6.467   3.969
 2771SOL    HW1 9212   5.170   6.461   3.871
 2771SOL    HW2 9213   5.130   6.405   4.019
 2772SOL     OW 9214   3.741   0.883   2.504
 2772SOL    HW1 9215   3.837   0.909   2.492
 2772SOL    HW2 9216   3.683   0.947   2.454
 2773SOL     OW 9217   6.796   2.897   4.296
 2773SOL    HW1 9218   6.724   2.938   4.240
 2773SOL    HW2 9219   6.765   2.891   4.391
 2774SOL     OW 9220   5.359   2.106   2.953
 2774SOL    HW1 9221   5.404   2.194   2.970
 2774SOL    HW2 9222   5.289   2.091   3.022
 2775SOL     OW 9223   0.235   3.602   3.970
 2775SOL    HW1 9224   0.285   3.679   4.009
 2775SOL    HW2 9225   0.182   3.633   3.891
 2776SOL     OW 9226   5.268   5.411   0.352
 2776SOL    HW1 9227   5.323   5.361   0.285
 2776SOL    HW2 9228   5.265   5.508   0.328
 2777SOL     OW 9229   2.669   2.096   5.839
 2777SOL    HW1 9230   2.601   2.092   5.911
 2777SOL    HW2 9231   2.745   2.035   5.861
 2778SOL     OW 9232   2.901   5.640   6.506
 2778SOL    HW1 9233   2.993   5.678   6.514
 2778SOL    HW2 9234   2.836   5.714   6.488
 2779SOL     OW 9235   5.732   6.485   1.587
 2779SOL    HW1 9236   5.715   6.558   1.654
 2779SOL    HW2 9237   5.783   6.411   1.631
 2780SOL     OW 9238   0.231   0.733   6.382
 2780SOL    HW1 9239   0.230   0.833   6.379
 2780SOL    HW2 9240   0.205   0.697   6.292
 2781SOL     OW 9241   6.718   0.757   2.582
 2781SOL    HW1 9242   6.797   0.707   2.548
 2781SOL    HW2 9243   6.674   0.805   2.506
 2782SOL     OW 9244   4.311   0.842   5.716
 2782SOL    HW1 9245   4.294   0.776   5.789
 2782SOL    HW2 9246   4.323   0.933   5.756
 2783SOL     OW 9247   6.306   3.562   1.476
 2783SOL    HW1 9248   6.397   3.572   1.516
 2783SOL    HW2 9249   6.248   3.509   1.539
 2784SOL     OW 9250   3.087   1.316   2.089
 2784SOL    HW1 9251   3.021   1.279   2.024
 2784SOL    HW2 9252   3.170   1.259   2.088
 2785SOL     OW 9253   4.873   2.677   1.228
 2785SOL    HW1 9254   4.967   2.647   1.241
 2785SOL    HW2 9255   4.823   2.668   1.314
 2786SOL     OW 9256   6.735   5.652   1.046
 2786SOL    HW1 9257   6.803   5.612   0.984
 2786SOL    HW2 9258   6.648   5.660   0.999
 2787SOL     OW 9259   6.123   5.831   6.008
 2787SOL    HW1 9260   6.177   5.757   5.967
 2787SOL    HW2 9261   6.036   5.795   6.039
 2788SOL     OW 9262   3.292   6.498   5.837
 2788SOL    HW1 9263   3.215   6.539   5.885
 2788SOL    HW2 9264   3.370   6.489   5.899
 2789SOL     OW 9265   1.119   2.708   3.731
 2789SOL    HW1 9266   1.127   2.808   3.736
 2789SOL    HW2 9267   1.132   2.669   3.822
 2790SOL     OW 9268   2.505   5.263   0.477
 2790SOL    HW1 9269   2.448   5.341   0.449
 2790SOL    HW2 9270   2.598   5.295   0.497
 2791SOL     OW 9271   0.111   4.253   2.443
 2791SOL    HW1 9272   0.103   4.227   2.347
 2791SOL    HW2 9273   0.152   4.177   2.495
 2792SOL     OW 9274   2.934   0.830   4.962
 2792SOL    HW1 9275   2.938   0.834   5.061
 2792SOL    HW2 9276   3.020   0.794   4.926
 2793SOL     OW 9277   3.888   3.910   1.259
 2793SOL    HW1 9278   3.922   3.824   1.220
 2793SOL    HW2 9279   3.907   3.912   1.357
 2794SOL     OW 9280   6.567   0.954   6.779
 2794SOL    HW1 9281   6.567   1.054   6.787
 2794SOL    HW2 9282   6.598   0.928   6.687
 2795SOL     OW 9283   0.479   4.988   0.865
 2795SOL    HW1 9284   0.539   4.964   0.942
 2795SOL    HW2 9285   0.525   5.054   0.806
 2796SOL     OW 9286   0.693   5.711   5.420
 2796SOL    HW1 9287   0.788   5.728   5.444
 2796SOL    HW2 9288   0.648   5.797   5.397
 2797SOL     OW 9289   5.731   5.734   5.091
 2797SOL    HW1 9290   5.782   5.788   5.158
 2797SOL    HW2 9291   5.708   5.792   5.012
 2798SOL     OW 9292   6.409   6.542   2.546
 2798SOL    HW1 9293   6.458   6.579   2.624
 2798SOL    HW2 9294   6.324   6.499   2.577
 2799SOL     OW 9295   4.658   5.457   5.416
 2799SOL    HW1 9296   4.748   5.458   5.459
 2799SOL    HW2 9297   4.599   5.391   5.462
 2800SOL     OW 9298   5.701   0.373   0.026
 2800SOL    HW1 9299   5.658   0.419   0.104
 2800SOL    HW2 9300   5.789   0.416   0.006
 2801SOL     OW 9301   0.565   5.284   6.032
 2801SOL    HW1 9302   0.651   5.288   6.084
 2801SOL    HW2 9303   0.519   5.373   6.038
 2802SOL     OW 9304   6.226   6.701   5.522
 2802SOL    HW1 9305   6.142   6.650   5.539
 2802SOL    HW2 9306   6.300   6.663   5.577
 2803SOL     OW 9307   3.473   3.260   6.181
 2803SOL    HW1 9308   3.403   3.319   6.221
 2803SOL    HW2 9309   3.431   3.189   6.125
 2804SOL     OW 9310   0.108   2.837   3.765
 2804SOL    HW1 9311   0.096   2.788   3.851
 2804SOL    HW2 9312   0.060   2.789   3.692
 2805SOL     OW 9313   4.936   3.365   2.009
 2805SOL    HW1 9314   4.943   3.276   1.965
 2805SOL    HW2 9315   4.899   3.354   2.102
 2806SOL     OW 9316   2.208   3.705   6.009
 2806SOL    HW1 9317   2.276   3.764   6.052
 2806SOL    HW2 9318   2.124   3.757   5.993
 2807SOL     OW 9319   3.112   0.348   2.988
 2807SOL    HW1 9320   3.079   0.427   3.040
 2807SOL    HW2 9321   3.137   0.376   2.896
 2808SOL     OW 9322   6.573   5.622   0.620
 2808SOL    HW1 9323   6.589   5.718   0.640
 2808SOL    HW2 9324   6.644   5.566   0.665
 2809SOL     OW 9325   5.380   4.646   1.800
 2809SOL    HW1 9326   5.463   4.642   1.745
 2809SOL    HW2 9327   5.303   4.672   1.742
 2810SOL     OW 9328   2.399   6.157   3.634
 2810SOL    HW1 9329   2.384   6.255   3.617
 2810SOL    HW2 9330   2.328   6.123   3.695
 2811SOL     OW 9331   0.657   0.690   2.250
 2811SOL    HW1 9332   0.603   0.771   2.226
 2811SOL    HW2 9333   0.695   0.701   2.341
 2812SOL     OW 9334   0.212   3.003   0.655
 2812SOL    HW1 9335   0.264   3.049   0.583
 2812SOL    HW2 9336   0.229   3.048   0.742
 2813SOL     OW 9337   0.891   1.781   1.190
 2813SOL    HW1 9338   0.897   1.881   1.199
 2813SOL    HW2 9339   0.966   1.738   1.240
 2814SOL     OW 9340   2.501   4.101   6.861
 2814SOL    HW1 9341   2.462   4.121   6.771
 2814SOL    HW2 9342   2.468   4.169   6.927
 2815SOL     OW 9343   0.403   5.901   5.154
 2815SOL    HW1 9344   0.419   5.804   5.140
 2815SOL    HW2 9345   0.305   5.920   5.149
 2816SOL     OW 9346   6.763   6.263   5.408
 2816SOL    HW1 9347   6.716   6.190   5.359
 2816SOL    HW2 9348   6.752   6.349   5.358
 2817SOL     OW 9349   3.964   0.494   2.225
 2817SOL    HW1 9350   4.024   0.574   2.220
 2817SOL    HW2 9351   3.983   0.443   2.309
 2818SOL     OW 9352   1.571   0.921   1.114
 2818SOL    HW1 9353   1.554   0.995   1.179
 2818SOL    HW2 9354   1.659   0.878   1.135
 2819SOL     OW 9355   1.117   6.982   0.868
 2819SOL    HW1 9356   1.183   7.019   0.803
 2819SOL    HW2 9357   1.066   0.034   0.910
 2820SOL     OW 9358   0.821   2.613   2.183
 2820SOL    HW1 9359   0.762   2.642   2.107
 2820SOL    HW2 9360   0.806   2.516   2.201
 2821SOL     OW 9361   3.553   4.791   6.851
 2821SOL    HW1 9362   3.632   4.824   6.903
 2821SOL    HW2 9363   3.581   4.771   6.757
 2822SOL     OW 9364   3.783   3.012   1.081
 2822SOL    HW1 9365   3.877   2.979   1.088
 2822SOL    HW2 9366   3.774   3.072   1.001
 2823SOL     OW 9367   4.903   0.825   0.454
 2823SOL    HW1 9368   4.808   0.856   0.450
 2823SOL    HW2 9369   4.910   0.748   0.517
 2824SOL     OW 9370   1.296   4.050   6.052
 2824SOL    HW1 9371   1.258   4.106   5.979
 2824SOL    HW2 9372   1.327   3.963   6.015
 2825SOL     OW 9373   5.132   0.711   6.715
 2825SOL    HW1 9374   5.100   0.617   6.727
 2825SOL    HW2 9375   5.061   0.766   6.672
 2826SOL     OW 9376   1.228   3.164   6.430
 2826SOL    HW1 9377   1.189   3.155   6.521
 2826SOL    HW2 9378   1.198   3.086   6.373
 2827SOL     OW 9379   7.014   0.618   6.526
 2827SOL    HW1 9380   0.059   0.630   6.453
 2827SOL    HW2 9381   0.003   0.689   6.595
 2828SOL     OW 9382   1.297   3.531   1.406
 2828SOL    HW1 9383   1.332   3.591   1.478
 2828SOL    HW2 9384   1.355   3.539   1.325
 2829SOL     OW 9385   3.274   4.078   3.534
 2829SOL    HW1 9386   3.249   4.103   3.628
 2829SOL    HW2 9387   3.204   4.017   3.496
 2830SOL     OW 9388   4.482   5.288   5.653
 2830SOL    HW1 9389   4.553   5.220   5.633
 2830SOL    HW2 9390   4.412   5.247   5.711
 2831SOL     OW 9391   6.818   2.634   2.007
 2831SOL    HW1 9392   6.805   2.541   1.974
 2831SOL    HW2 9393   6.807   2.698   1.931
 2832SOL     OW 9394   0.957   3.218   1.025
 2832SOL    HW1 9395   0.956   3.256   1.117
 2832SOL    HW2 9396   1.010   3.277   0.964
 2833SOL     OW 9397   2.311   0.912   2.192
 2833SOL    HW1 9398   2.272   0.826   2.225
 2833SOL    HW2 9399   2.385   0.893   2.128
 2834SOL     OW 9400   4.570   6.305   5.074
 2834SOL    HW1 9401   4.544   6.226   5.018
 2834SOL    HW2 9402   4.572   6.387   5.017
 2835SOL     OW 9403   1.224   6.086   0.847
 2835SOL    HW1 9404   1.280   6.102   0.928
 2835SOL    HW2 9405   1.191   6.173   0.811
 2836SOL     OW 9406   3.454   0.016   3.184
 2836SOL    HW1 9407   3.442   6.951   3.232
 2836SOL    HW2 9408   3.402   0.087   3.231
 2837SOL     OW 9409   5.753   4.327   2.385
 2837SOL    HW1 9410   5.684   4.331   2.457
 2837SOL    HW2 9411   5.708   4.303   2.298
 2838SOL     OW 9412   4.850   3.854   6.274
 2838SOL    HW1 9413   4.938   3.897   6.254
 2838SOL    HW2 9414   4.778   3.898   6.220
 2839SOL     OW 9415   5.928   2.956   4.590
 2839SOL    HW1 9416   5.857   2.931   4.657
 2839SOL    HW2 9417   6.015   2.914   4.616
 2840SOL     OW 9418   0.949   6.046   2.653
 2840SOL    HW1 9419   0.917   5.977   2.589
 2840SOL    HW2 9420   0.873   6.104   2.681
 2841SOL     OW 9421   6.288   2.489   1.175
 2841SOL    HW1 9422   6.329   2.404   1.143
 2841SOL    HW2 9423   6.318   2.507   1.269
 2842SOL     OW 9424   1.343   6.299   4.444
 2842SOL    HW1 9425   1.367   6.256   4.357
 2842SOL    HW2 9426   1.422   6.298   4.505
 2843SOL     OW 9427   2.093   3.474   3.051
 2843SOL    HW1 9428   2.099   3.531   2.970
 2843SOL    HW2 9429   2.021   3.405   3.038
 2844SOL     OW 9430   4.916   4.619   0.920
 2844SOL    HW1 9431   5.003   4.641   0.875
 2844SOL    HW2 9432   4.866   4.704   0.937
 2845SOL     OW 9433   4.787   2.995   3.516
 2845SOL    HW1 9434   4.813   3.033   3.427
 2845SOL    HW2 9435   4.833   3.045   3.589
 2846SOL     OW 9436   4.857   0.383   0.165
 2846SOL    HW1 9437   4.931   0.388   0.098
 2846SOL    HW2 9438   4.769   0.391   0.117
 2847SOL     OW 9439   4.744   4.387   2.257
 2847SOL    HW1 9440   4.840   4.380   2.231
 2847SOL    HW2 9441   4.688   4.333   2.194
 2848SOL     OW 9442   0.749   3.162   4.800
 2848SOL    HW1 9443   0.787   3.094   4.738
 2848SOL    HW2 9444   0.651   3.146   4.811
 2849SOL     OW 9445   3.660   0.741   2.716
 2849SOL    HW1 9446   3.687   0.773   2.625
 2849SOL    HW2 9447   3.730   0.680   2.752
 2850SOL     OW 9448   2.683   6.764   3.157
 2850SOL    HW1 9449   2.592   6.731   3.181
 2850SOL    HW2 9450   2.732   6.791   3.240
 2851SOL     OW 9451   4.629   3.589   0.846
 2851SOL    HW1 9452   4.690   3.655   0.802
 2851SOL    HW2 9453   4.596   3.523   0.778
 2852SOL     OW 9454   6.489   4.157   6.425
 2852SOL    HW1 9455   6.420   4.105   6.475
 2852SOL    HW2 9456   6.505   4.245   6.470
 2853SOL     OW 9457   0.011   3.667   6.778
 2853SOL    HW1 9458   7.021   3.573   6.811
 2853SOL    HW2 9459   0.051   3.722   6.851
 2854SOL     OW 9460   2.828   1.018   6.612
 2854SOL    HW1 9461   2.848   0.963   6.693
 2854SOL    HW2 9462   2.752   0.978   6.562
 2855SOL     OW 9463   1.544   1.828   4.842
 2855SOL    HW1 9464   1.579   1.917   4.872
 2855SOL    HW2 9465   1.524   1.831   4.744
 2856SOL     OW 9466   1.490   4.108   3.111
 2856SOL    HW1 9467   1.521   4.147   3.198
 2856SOL    HW2 9468   1.467   4.011   3.124
 2857SOL     OW 9469   7.012   3.459   0.311
 2857SOL    HW1 9470   6.996   3.442   0.408
 2857SOL    HW2 9471   6.934   3.426   0.258
 2858SOL     OW 9472   5.035   5.610   2.920
 2858SOL    HW1 9473   5.020   5.638   3.015
 2858SOL    HW2 9474   4.952   5.569   2.884
 2859SOL     OW 9475   5.076   6.181   1.053
 2859SOL    HW1 9476   5.113   6.184   0.960
 2859SOL    HW2 9477   5.097   6.266   1.100
 2860SOL     OW 9478   1.314   6.021   1.797
 2860SOL    HW1 9479   1.296   5.998   1.702
 2860SOL    HW2 9480   1.301   6.120   1.811
 2861SOL     OW 9481   3.633   5.268   6.621
 2861SOL    HW1 9482   3.725   5.241   6.649
 2861SOL    HW2 9483   3.569   5.194   6.641
 2862SOL     OW 9484   4.276   3.143   1.168
 2862SOL    HW1 9485   4.327   3.206   1.110
 2862SOL    HW2 9486   4.337   3.071   1.202
 2863SOL     OW 9487   5.400   0.461   5.758
 2863SOL    HW1 9488   5.337   0.516   5.703
 2863SOL    HW2 9489   5.349   0.416   5.831
 2864SOL     OW 9490   3.884   3.291   1.891
 2864SOL    HW1 9491   3.947   3.271   1.816
 2864SOL    HW2 9492   3.881   3.213   1.954
 2865SOL     OW 9493   4.718   6.071   4.356
 2865SOL    HW1 9494   4.719   5.986   4.409
 2865SOL    HW2 9495   4.803   6.122   4.373
 2866SOL     OW 9496   5.519   4.580   6.505
 2866SOL    HW1 9497   5.562   4.502   6.458
 2866SOL    HW2 9498   5.547   4.665   6.460
 2867SOL     OW 9499   6.585   6.545   1.951
 2867SOL    HW1 9500   6.613   6.452   1.928
 2867SOL    HW2 9501   6.562   6.550   2.048
 2868SOL     OW 9502   1.700   1.481   5.763
 2868SOL    HW1 9503   1.718   1.434   5.676
 2868SOL    HW2 9504   1.734   1.575   5.757
 2869SOL     OW 9505   5.225   6.273   4.342
 2869SOL    HW1 9506   5.227   6.334   4.421
 2869SOL    HW2 9507   5.319   6.246   4.318
 2870SOL     OW 9508   1.375   1.568   0.850
 2870SOL    HW1 9509   1.324   1.482   0.844
 2870SOL    HW2 9510   1.314   1.640   0.885
 2871SOL     OW 9511   6.475   1.547   1.892
 2871SOL    HW1 9512   6.458   1.635   1.935
 2871SOL    HW2 9513   6.390   1.513   1.851
 2872SOL     OW 9514   2.312   2.081   2.597
 2872SOL    HW1 9515   2.398   2.086   2.546
 2872SOL    HW2 9516   2.272   1.990   2.583
 2873SOL     OW 9517   0.991   5.967   1.487
 2873SOL    HW1 9518   0.896   5.937   1.498
 2873SOL    HW2 9519   0.994   6.065   1.473
 2874SOL     OW 9520   2.862   0.270   3.141
 2874SOL    HW1 9521   2.778   0.268   3.087
 2874SOL    HW2 9522   2.940   0.245   3.084
 2875SOL     OW 9523   2.818   6.915   2.975
 2875SOL    HW1 9524   2.902   6.907   3.029
 2875SOL    HW2 9525   2.741   6.877   3.027
 2876SOL     OW 9526   1.776   6.104   2.069
 2876SOL    HW1 9527   1.741   6.039   2.002
 2876SOL    HW2 9528   1.755   6.197   2.039
 2877SOL     OW 9529   1.956   1.685   5.715
 2877SOL    HW1 9530   2.008   1.601   5.726
 2877SOL    HW2 9531   1.950   1.733   5.803
 2878SOL     OW 9532   3.530   2.934   5.066
 2878SOL    HW1 9533   3.603   2.927   4.997
 2878SOL    HW2 9534   3.536   2.857   5.129
 2879SOL     OW 9535   4.432   4.484   5.880
 2879SOL    HW1 9536   4.374   4.562   5.905
 2879SOL    HW2 9537   4.485   4.508   5.799
 2880SOL     OW 9538   0.786   1.806   4.215
 2880SOL    HW1 9539   0.779   1.836   4.310
 2880SOL    HW2 9540   0.740   1.872   4.156
 2881SOL     OW 9541   3.853   5.910   6.758
 2881SOL    HW1 9542   3.759   5.907   6.722
 2881SOL    HW2 9543   3.855   5.964   6.842
 2882SOL     OW 9544   5.183   6.370   0.239
 2882SOL    HW1 9545   5.160   6.280   0.203
 2882SOL    HW2 9546   5.099   6.424   0.250
 2883SOL     OW 9547   6.051   6.493   3.291
 2883SOL    HW1 9548   5.953   6.481   3.305
 2883SOL    HW2 9549   6.069   6.585   3.256
 2884SOL     OW 9550   6.800   5.138   2.893
 2884SOL    HW1 9551   6.853   5.061   2.860
 2884SOL    HW2 9552   6.702   5.117   2.885
 2885SOL     OW 9553   1.488   3.663   3.057
 2885SOL    HW1 9554   1.541   3.720   3.120
 2885SOL    HW2 9555   1.493   3.701   2.965
 2886SOL     OW 9556   2.610   4.581   6.521
 2886SOL    HW1 9557   2.615   4.645   6.598
 2886SOL    HW2 9558   2.649   4.624   6.439
 2887SOL     OW 9559   0.306   6.216   4.581
 2887SOL    HW1 9560   0.382   6.222   4.516
 2887SOL    HW2 9561   0.276   6.307   4.606
 2888SOL     OW 9562   7.020   6.339   0.332
 2888SOL    HW1 9563   6.969   6.333   0.247
 2888SOL    HW2 9564   6.998   6.261   0.390
 2889SOL     OW 9565   2.816   6.839   3.384
 2889SOL    HW1 9566   2.857   6.788   3.459
 2889SOL    HW2 9567   2.887   6.861   3.317
 2890SOL     OW 9568   1.835   6.059   1.321
 2890SOL    HW1 9569   1.788   6.092   1.403
 2890SOL    HW2 9570   1.860   6.136   1.263
 2891SOL     OW 9571   0.025   3.362   2.818
 2891SOL    HW1 9572   6.960   3.397   2.787
 2891SOL    HW2 9573   0.099   3.405   2.766
 2892SOL     OW 9574   6.295   4.105   0.719
 2892SOL    HW1 9575   6.337   4.148   0.639
 2892SOL    HW2 9576   6.249   4.175   0.773
 2893SOL     OW 9577   0.543   5.840   4.736
 2893SOL    HW1 9578   0.606   5.859   4.660
 2893SOL    HW2 9579   0.449   5.843   4.704
 2894SOL     OW 9580   1.150   4.478   2.066
 2894SOL    HW1 9581   1.175   4.392   2.020
 2894SOL    HW2 9582   1.071   4.518   2.020
 2895SOL     OW 9583   3.635   6.943   6.343
 2895SOL    HW1 9584   3.572   7.021   6.344
 2895SOL    HW2 9585   3.604   6.876   6.275
 2896SOL     OW 9586   5.895   6.874   5.563
 2896SOL    HW1 9587   5.946   6.942   5.510
 2896SOL    HW2 9588   5.906   6.893   5.660
 2897SOL     OW 9589   3.184   5.209   3.119
 2897SOL    HW1 9590   3.225   5.296   3.148
 2897SOL    HW2 9591   3.092   5.226   3.084
 2898SOL     OW 9592   5.914   3.976   2.413
 2898SOL    HW1 9593   5.953   4.037   2.482
 2898SOL    HW2 9594   5.984   3.912   2.381
 2899SOL     OW 9595   6.985   1.862   1.185
 2899SOL    HW1 9596   6.924   1.926   1.139
 2899SOL    HW2 9597   6.997   1.780   1.129
 2900SOL     OW 9598   3.185   3.554   0.100
 2900SOL    HW1 9599   3.259   3.621   0.087
 2900SOL    HW2 9600   3.207   3.494   0.176
 2901SOL     OW 9601   1.752   4.463   3.231
 2901SOL    HW1 9602   1.840   4.417   3.240
 2901SOL    HW2 9603   1.701   4.423   3.154
 2902SOL     OW 9604   0.542   6.057   3.870
 2902SOL    HW1 9605   0.566   6.064   3.967
 2902SOL    HW2 9606   0.502   5.967   3.852
 2903SOL     OW 9607   4.556   5.749   0.551
 2903SOL    HW1 9608   4.498   5.829   0.568
 2903SOL    HW2 9609   4.597   5.757   0.460
 2904SOL     OW 9610   2.543   4.507   5.103
 2904SOL    HW1 9611   2.625   4.560   5.082
 2904SOL    HW2 9612   2.501   4.475   5.018
 2905SOL     OW 9613   1.095   4.754   2.385
 2905SOL    HW1 9614   0.996   4.761   2.398
 2905SOL    HW2 9615   1.115   4.732   2.290
 2906SOL     OW 9616   5.336   6.257   2.652
 2906SOL    HW1 9617   5.243   6.224   2.631
 2906SOL    HW2 9618   5.388   6.184   2.695
 2907SOL     OW 9619   0.918   0.692   3.711
 2907SOL    HW1 9620   0.887   0.683   3.806
 2907SOL    HW2 9621   0.882   0.616   3.657
 2908SOL     OW 9622   5.195   0.224   3.408
 2908SOL    HW1 9623   5.136   0.274   3.344
 2908SOL    HW2 9624   5.187   0.264   3.499
 2909SOL     OW 9625   1.294   5.706   2.593
 2909SOL    HW1 9626   1.232   5.702   2.514
 2909SOL    HW2 9627   1.242   5.733   2.674
 2910SOL     OW 9628   6.638   0.986   3.668
 2910SOL    HW1 9629   6.712   0.949   3.612
 2910SOL    HW2 9630   6.630   1.084   3.652
 2911SOL     OW 9631   6.969   4.563   3.884
 2911SOL    HW1 9632   0.024   4.526   3.833
 2911SOL    HW2 9633   6.988   4.558   3.982
 2912SOL     OW 9634   0.106   6.373   0.657
 2912SOL    HW1 9635   0.140   6.463   0.629
 2912SOL    HW2 9636   0.021   6.353   0.609
 2913SOL     OW 9637   1.585   4.560   1.683
 2913SOL    HW1 9638   1.567   4.464   1.660
 2913SOL    HW2 9639   1.673   4.566   1.730
 2914SOL     OW 9640   5.401   4.605   0.161
 2914SOL    HW1 9641   5.348   4.683   0.128
 2914SOL    HW2 9642   5.422   4.617   0.258
 2915SOL     OW 9643   3.427   2.076   2.882
 2915SOL    HW1 9644   3.475   2.103   2.798
 2915SOL    HW2 9645   3.477   2.111   2.961
 2916SOL     OW 9646   2.230   5.284   0.761
 2916SOL    HW1 9647   2.262   5.229   0.684
 2916SOL    HW2 9648   2.224   5.228   0.843
 2917SOL     OW 9649   2.418   0.155   3.817
 2917SOL    HW1 9650   2.377   0.121   3.732
 2917SOL    HW2 9651   2.468   0.240   3.798
 2918SOL     OW 9652   5.998   4.106   1.278
 2918SOL    HW1 9653   5.922   4.118   1.342
 2918SOL    HW2 9654   6.002   4.011   1.248
 2919SOL     OW 9655   0.467   6.114   4.391
 2919SOL    HW1 9656   0.498   6.056   4.466
 2919SOL    HW2 9657   0.409   6.060   4.330
 2920SOL     OW 9658   2.041   0.557   2.081
 2920SOL    HW1 9659   2.020   0.654   2.088
 2920SOL    HW2 9660   2.091   0.527   2.162
 2921SOL     OW 9661   0.072   0.089   5.631
 2921SOL    HW1 9662   0.025   0.053   5.712
 2921SOL    HW2 9663   0.130   0.166   5.658
 2922SOL     OW 9664   4.565   0.553   3.327
 2922SOL    HW1 9665   4.544   0.477   3.389
 2922SOL    HW2 9666   4.526   0.534   3.237
 2923SOL     OW 9667   6.270   4.432   4.975
 2923SOL    HW1 9668   6.335   4.366   4.938
 2923SOL    HW2 9669   6.298   4.524   4.950
 2924SOL     OW 9670   6.870   2.172   5.312
 2924SOL    HW1 9671   6.778   2.134   5.323
 2924SOL    HW2 9672   6.867   2.270   5.329
 2925SOL     OW 9673   5.714   0.885   6.049
 2925SOL    HW1 9674   5.792   0.931   6.092
 2925SOL    HW2 9675   5.713   0.905   5.951
 2926SOL     OW 9676   0.469   2.113   4.859
 2926SOL    HW1 9677   0.553   2.105   4.913
 2926SOL    HW2 9678   0.408   2.037   4.882
 2927SOL     OW 9679   2.034   3.105   1.563
 2927SOL    HW1 9680   2.076   3.038   1.624
 2927SOL    HW2 9681   2.075   3.097   1.472
 2928SOL     OW 9682   6.335   1.779   0.097
 2928SOL    HW1 9683   6.340   1.877   0.075
 2928SOL    HW2 9684   6.409   1.731   0.051
 2929SOL     OW 9685   1.322   2.652   4.790
 2929SOL    HW1 9686   1.256   2.591   4.747
 2929SOL    HW2 9687   1.377   2.697   4.719
 2930SOL     OW 9688   6.507   5.723   4.887
 2930SOL    HW1 9689   6.489   5.737   4.984
 2930SOL    HW2 9690   6.500   5.810   4.838
 2931SOL     OW 9691   4.213   4.445   6.669
 2931SOL    HW1 9692   4.308   4.429   6.643
 2931SOL    HW2 9693   4.171   4.359   6.699
 2932SOL     OW 9694   0.112   6.299   1.157
 2932SOL    HW1 9695   0.158   6.244   1.227
 2932SOL    HW2 9696   0.014   6.277   1.157
 2933SOL     OW 9697   0.657   0.260   1.630
 2933SOL    HW1 9698   0.725   0.316   1.582
 2933SOL    HW2 9699   0.608   0.318   1.696
 2934SOL     OW 9700   4.082   3.213   0.918
 2934SOL    HW1 9701   4.173   3.233   0.882
 2934SOL    HW2 9702   4.070   3.114   0.925
 2935SOL     OW 9703   0.417   2.077   6.471
 2935SOL    HW1 9704   0.362   2.079   6.388
 2935SOL    HW2 9705   0.509   2.042   6.450
 2936SOL     OW 9706   4.543   0.019   0.488
 2936SOL    HW1 9707   4.636   0.052   0.473
 2936SOL    HW2 9708   4.488   0.092   0.529
 2937SOL     OW 9709   4.347   5.576   1.777
 2937SOL    HW1 9710   4.370   5.622   1.691
 2937SOL    HW2 9711   4.341   5.644   1.850
 2938SOL     OW 9712   6.257   5.950   6.402
 2938SOL    HW1 9713   6.167   5.941   6.445
 2938SOL    HW2 9714   6.266   6.042   6.363
 2939SOL     OW 9715   0.560   5.507   1.847
 2939SOL    HW1 9716   0.516   5.590   1.812
 2939SOL    HW2 9717   0.632   5.533   1.912
 2940SOL     OW 9718   5.895   6.194   4.287
 2940SOL    HW1 9719   5.900   6.112   4.230
 2940SOL    HW2 9720   5.821   6.252   4.255
 2941SOL     OW 9721   1.810   3.240   3.488
 2941SOL    HW1 9722   1.901   3.232   3.531
 2941SOL    HW2 9723   1.803   3.176   3.412
 2942SOL     OW 9724   2.332   1.479   6.718
 2942SOL    HW1 9725   2.249   1.495   6.770
 2942SOL    HW2 9726   2.412   1.493   6.778
 2943SOL     OW 9727   6.159   4.451   3.420
 2943SOL    HW1 9728   6.132   4.466   3.516
 2943SOL    HW2 9729   6.237   4.389   3.417
 2944SOL     OW 9730   2.886   6.430   4.022
 2944SOL    HW1 9731   2.810   6.381   4.065
 2944SOL    HW2 9732   2.874   6.429   3.922
 2945SOL     OW 9733   5.186   4.392   1.356
 2945SOL    HW1 9734   5.165   4.370   1.451
 2945SOL    HW2 9735   5.107   4.372   1.298
 2946SOL     OW 9736   3.119   3.818   5.977
 2946SOL    HW1 9737   3.179   3.744   6.009
 2946SOL    HW2 9738   3.142   3.840   5.882
 2947SOL     OW 9739   6.358   6.176   0.889
 2947SOL    HW1 9740   6.382   6.246   0.956
 2947SOL    HW2 9741   6.419   6.183   0.810
 2948SOL     OW 9742   6.043   4.730   3.485
 2948SOL    HW1 9743   6.089   4.662   3.542
 2948SOL    HW2 9744   6.069   4.821   3.514
 2949SOL     OW 9745   0.858   6.378   0.833
 2949SOL    HW1 9746   0.779   6.370   0.772
 2949SOL    HW2 9747   0.846   6.318   0.912
 2950SOL     OW 9748   4.639   4.816   2.504
 2950SOL    HW1 9749   4.552   4.826   2.455
 2950SOL    HW2 9750   4.688   4.737   2.467
 2951SOL     OW 9751   5.619   0.392   1.624
 2951SOL    HW1 9752   5.550   0.323   1.645
 2951SOL    HW2 9753   5.630   0.399   1.525
 2952SOL     OW 9754   5.956   0.636   4.179
 2952SOL    HW1 9755   6.040   0.690   4.180
 2952SOL    HW2 9756   5.881   0.690   4.141
 2953SOL     OW 9757   0.359   5.933   3.095
 2953SOL    HW1 9758   0.375   5.856   3.034
 2953SOL    HW2 9759   0.445   5.980   3.113
 2954SOL     OW 9760   0.975   4.274   6.557
 2954SOL    HW1 9761   0.960   4.337   6.481
 2954SOL    HW2 9762   0.990   4.326   6.641
 2955SOL     OW 9763   1.173   4.099   0.149
 2955SOL    HW1 9764   1.097   4.150   0.190
 2955SOL    HW2 9765   1.151   4.001   0.148
 2956SOL     OW 9766   6.747   4.570   4.215
 2956SOL    HW1 9767   6.708   4.502   4.153
 2956SOL    HW2 9768   6.693   4.572   4.300
 2957SOL     OW 9769   3.095   4.946   1.575
 2957SOL    HW1 9770   3.098   4.881   1.500
 2957SOL    HW2 9771   3.026   4.917   1.642
 2958SOL     OW 9772   1.880   4.768   2.922
 2958SOL    HW1 9773   1.975   4.789   2.946
 2958SOL    HW2 9774   1.818   4.823   2.980
 2959SOL     OW 9775   5.497   2.668   3.071
 2959SOL    HW1 9776   5.484   2.732   3.146
 2959SOL    HW2 9777   5.466   2.711   2.985
 2960SOL     OW 9778   3.838   0.840   0.129
 2960SOL    HW1 9779   3.838   0.925   0.077
 2960SOL    HW2 9780   3.928   0.826   0.170
 2961SOL     OW 9781   5.976   4.636   2.550
 2961SOL    HW1 9782   6.020   4.684   2.475
 2961SOL    HW2 9783   5.944   4.702   2.618
 2962SOL     OW 9784   5.869   6.328   2.469
 2962SOL    HW1 9785   5.890   6.366   2.379
 2962SOL    HW2 9786   5.773   6.345   2.491
 2963SOL     OW 9787   0.719   0.681   5.651
 2963SOL    HW1 9788   0.758   0.769   5.624
 2963SOL    HW2 9789   0.770   0.607   5.608
 2964SOL     OW 9790   0.492   2.698   6.865
 2964SOL    HW1 9791   0.588   2.676   6.880
 2964SOL    HW2 9792   0.477   2.796   6.880
 2965SOL     OW 9793   0.772   0.350   4.650
 2965SOL    HW1 9794   0.841   0.380   4.585
 2965SOL    HW2 9795   0.686   0.397   4.632
 2966SOL     OW 9796   4.468   5.437   3.586
 2966SOL    HW1 9797   4.519   5.360   3.623
 2966SOL    HW2 9798   4.511   5.467   3.501
 2967SOL     OW 9799   6.776   0.572   5.373
 2967SOL    HW1 9800   6.805   0.624   5.453
 2967SOL    HW2 9801   6.856   0.549   5.318
 2968SOL     OW 9802   2.096   2.753   1.287
 2968SOL    HW1 9803   2.186   2.745   1.331
 2968SOL    HW2 9804   2.087   2.843   1.245
 2969SOL     OW 9805   5.293   3.901   4.319
 2969SOL    HW1 9806   5.260   3.809   4.340
 2969SOL    HW2 9807   5.334   3.941   4.401
 2970SOL     OW 9808   2.630   2.871   5.367
 2970SOL    HW1 9809   2.730   2.872   5.364
 2970SOL    HW2 9810   2.595   2.948   5.314
 2971SOL     OW 9811   5.456   4.239   0.078
 2971SOL    HW1 9812   5.516   4.185   0.138
 2971SOL    HW2 9813   5.436   4.327   0.122
 2972SOL     OW 9814   6.214   5.000   6.651
 2972SOL    HW1 9815   6.206   4.972   6.555
 2972SOL    HW2 9816   6.292   5.062   6.661
 2973SOL     OW 9817   4.959   6.376   2.096
 2973SOL    HW1 9818   5.043   6.336   2.132
 2973SOL    HW2 9819   4.882   6.317   2.117
 2974SOL     OW 9820   6.263   4.559   3.198
 2974SOL    HW1 9821   6.230   4.517   3.282
 2974SOL    HW2 9822   6.359   4.585   3.209
 2975SOL     OW 9823   4.710   4.648   3.961
 2975SOL    HW1 9824   4.651   4.568   3.950
 2975SOL    HW2 9825   4.729   4.663   4.058
 2976SOL     OW 9826   4.776   2.091   2.953
 2976SOL    HW1 9827   4.801   2.002   2.990
 2976SOL    HW2 9828   4.856   2.130   2.907
 2977SOL     OW 9829   0.660   0.552   2.022
 2977SOL    HW1 9830   0.681   0.602   2.106
 2977SOL    HW2 9831   0.746   0.526   1.977
 2978SOL     OW 9832   4.707   4.347   6.196
 2978SOL    HW1 9833   4.709   4.288   6.115
 2978SOL    HW2 9834   4.622   4.400   6.198
 2979SOL     OW 9835   3.318   1.517   4.753
 2979SOL    HW1 9836   3.381   1.465   4.811
 2979SOL    HW2 9837   3.259   1.574   4.810
 2980SOL     OW 9838   3.894   4.233   6.220
 2980SOL    HW1 9839   3.905   4.134   6.211
 2980SOL    HW2 9840   3.855   4.269   6.135
 2981SOL     OW 9841   1.818   1.361   0.478
 2981SOL    HW1 9842   1.896   1.356   0.416
 2981SOL    HW2 9843   1.738   1.397   0.429
 2982SOL     OW 9844   1.403   6.782   2.562
 2982SOL    HW1 9845   1.377   6.691   2.594
 2982SOL    HW2 9846   1.380   6.791   2.465
 2983SOL     OW 9847   6.580   2.746   6.637
 2983SOL    HW1 9848   6.633   2.721   6.557
 2983SOL    HW2 9849   6.524   2.826   6.616
 2984SOL     OW 9850   6.429   5.243   0.188
 2984SOL    HW1 9851   6.441   5.267   0.284
 2984SOL    HW2 9852   6.364   5.167   0.181
 2985SOL     OW 9853   0.723   6.893   4.398
 2985SOL    HW1 9854   0.770   6.805   4.391
 2985SOL    HW2 9855   0.626   6.881   4.376
 2986SOL     OW 9856   3.317   4.122   2.732
 2986SOL    HW1 9857   3.287   4.078   2.816
 2986SOL    HW2 9858   3.393   4.184   2.752
 2987SOL     OW 9859   0.781   2.132   4.332
 2987SOL    HW1 9860   0.726   2.055   4.363
 2987SOL    HW2 9861   0.808   2.188   4.410
 2988SOL     OW 9862   1.299   1.176   1.199
 2988SOL    HW1 9863   1.360   1.149   1.274
 2988SOL    HW2 9864   1.207   1.191   1.234
 2989SOL     OW 9865   5.255   3.518   4.865
 2989SOL    HW1 9866   5.204   3.557   4.942
 2989SOL    HW2 9867   5.193   3.503   4.788
 2990SOL     OW 9868   5.200   2.147   4.122
 2990SOL    HW1 9869   5.225   2.186   4.211
 2990SOL    HW2 9870   5.267   2.077   4.096
 2991SOL     OW 9871   5.825   3.396   0.809
 2991SOL    HW1 9872   5.925   3.402   0.811
 2991SOL    HW2 9873   5.786   3.472   0.861
 2992SOL     OW 9874   0.503   4.020   4.552
 2992SOL    HW1 9875   0.530   4.103   4.600
 2992SOL    HW2 9876   0.534   3.940   4.603
 2993SOL     OW 9877   0.988   4.707   6.947
 2993SOL    HW1 9878   1.084   4.734   6.935
 2993SOL    HW2 9879   0.931   4.756   6.880
 2994SOL     OW 9880   4.354   5.599   6.749
 2994SOL    HW1 9881   4.413   5.635   6.677
 2994SOL    HW2 9882   4.380   5.641   6.836
 2995SOL     OW 9883   4.443   0.270   0.683
 2995SOL    HW1 9884   4.403   0.333   0.617
 2995SOL    HW2 9885   4.423   0.302   0.776
 2996SOL     OW 9886   1.306   2.253   4.888
 2996SOL    HW1 9887   1.273   2.309   4.965
 2996SOL    HW2 9888   1.402   2.276   4.869
 2997SOL     OW 9889   4.973   0.643   3.671
 2997SOL    HW1 9890   4.891   0.628   3.616
 2997SOL    HW2 9891   4.979   0.572   3.742
 2998SOL     OW 9892   2.535   0.434   3.537
 2998SOL    HW1 9893   2.556   0.457   3.632
 2998SOL    HW2 9894   2.610   0.381   3.498
 2999SOL     OW 9895   3.191   4.556   6.737
 2999SOL    HW1 9896   3.226   4.563   6.830
 2999SOL    HW2 9897   3.156   4.463   6.721
 3000SOL     OW 9898   3.037   3.391   5.452
 3000SOL    HW1 9899   2.980   3.450   5.510
 3000SOL    HW2 9900   3.088   3.447   5.387
 3001SOL     OW 9901   5.712   0.994   6.579
 3001SOL    HW1 9902   5.795   0.938   6.588
 3001SOL    HW2 9903   5.705   1.055   6.658
 3002SOL     OW 9904   3.006   1.251   1.102
 3002SOL    HW1 9905   2.927   1.192   1.081
 3002SOL    HW2 9906   3.053   1.274   1.017
 3003SOL     OW 9907   0.907   6.048   0.484
 3003SOL    HW1 9908   0.996   6.074   0.445
 3003SOL    HW2 9909   0.897   5.949   0.480
 3004SOL     OW 9910   2.554   4.580   4.236
 3004SOL    HW1 9911   2.468   4.564   4.285
 3004SOL    HW2 9912   2.604   4.654   4.280
 3005SOL     OW 9913   1.117   3.201   5.560
 3005SOL    HW1 9914   1.158   3.239   5.643
 3005SOL    HW2 9915   1.112   3.272   5.490
 3006SOL     OW 9916   5.822   1.889   5.691
 3006SOL    HW1 9917   5.884   1.968   5.696
 3006SOL    HW2 9918   5.818   1.845   5.780
 3007SOL     OW 9919   5.186   5.467   0.004
 3007SOL    HW1 9920   5.104   5.414   0.026
 3007SOL    HW2 9921   5.169   5.564   0.021
 3008SOL     OW 9922   4.329   1.666   5.994
 3008SOL    HW1 9923   4.243   1.662   5.942
 3008SOL    HW2 9924   4.395   1.604   5.952
 3009SOL     OW 9925   6.939   2.746   3.090
 3009SOL    HW1 9926   6.936   2.771   2.993
 3009SOL    HW2 9927   6.886   2.663   3.105
 3010SOL     OW 9928   4.266   5.367   6.010
 3010SOL    HW1 9929   4.206   5.342   6.086
 3010SOL    HW2 9930   4.361   5.364   6.041
 3011SOL     OW 9931   6.554   6.923   1.741
 3011SOL    HW1 9932   6.534   7.013   1.778
 3011SOL    HW2 9933   6.491   6.856   1.780
 3012SOL     OW 9934   2.988   3.271   6.679
 3012SOL    HW1 9935   2.973   3.366   6.705
 3012SOL    HW2 9936   3.053   3.267   6.603
 3013SOL     OW 9937   6.977   6.098   3.685
 3013SOL    HW1 9938   6.954   6.002   3.668
 3013SOL    HW2 9939   6.898   6.156   3.661
 3014SOL     OW 9940   5.368   0.745   5.722
 3014SOL    HW1 9941   5.343   0.838   5.748
 3014SOL    HW2 9942   5.395   0.694   5.804
 3015SOL     OW 9943   1.835   1.122   6.941
 3015SOL    HW1 9944   1.823   1.163   0.009
 3015SOL    HW2 9945   1.747   1.089   6.907
 3016SOL     OW 9946   3.223   6.866   4.234
 3016SOL    HW1 9947   3.223   6.966   4.226
 3016SOL    HW2 9948   3.210   6.826   4.143
 3017SOL     OW 9949   6.655   5.906   1.738
 3017SOL    HW1 9950   6.621   5.955   1.818
 3017SOL    HW2 9951   6.588   5.838   1.709
 3018SOL     OW 9952   3.568   7.005   0.325
 3018SOL    HW1 9953   3.653   0.003   0.374
 3018SOL    HW2 9954   3.512   6.942   0.380
 3019SOL     OW 9955   1.614   6.552   6.609
 3019SOL    HW1 9956   1.624   6.544   6.510
 3019SOL    HW2 9957   1.520   6.577   6.632
 3020SOL     OW 9958   5.200   3.089   6.644
 3020SOL    HW1 9959   5.265   3.052   6.710
 3020SOL    HW2 9960   5.141   3.156   6.688
 3021SOL     OW 9961   3.491   6.371   4.635
 3021SOL    HW1 9962   3.464   6.318   4.714
 3021SOL    HW2 9963   3.586   6.349   4.611
 3022SOL     OW 9964   3.907   5.790   3.371
 3022SOL    HW1 9965   3.979   5.744   3.319
 3022SOL    HW2 9966   3.917   5.768   3.468
 3023SOL     OW 9967   4.037   6.516   2.854
 3023SOL    HW1 9968   4.027   6.530   2.952
 3023SOL    HW2 9969   4.127   6.476   2.835
 3024SOL     OW 9970   7.012   6.318   5.569
 3024SOL    HW1 9971   6.936   6.348   5.511
 3024SOL    HW2 9972   6.976   6.283   5.656
 3025SOL     OW 9973   4.235   5.573   0.472
 3025SOL    HW1 9974   4.141   5.548   0.448
 3025SOL    HW2 9975   4.238   5.608   0.566
 3026SOL     OW 9976   5.673   0.889   1.036
 3026SOL    HW1 9977   5.700   0.914   0.943
 3026SOL    HW2 9978   5.585   0.842   1.034
 3027SOL     OW 9979   4.691   1.648   1.884
 3027SOL    HW1 9980   4.661   1.663   1.790
 3027SOL    HW2 9981   4.657   1.721   1.942
 3028SOL     OW 9982   2.102   3.707   6.448
 3028SOL    HW1 9983   2.104   3.711   6.548
 3028SOL    HW2 9984   2.007   3.716   6.416
 3029SOL     OW 9985   0.638   2.409   4.304
 3029SOL    HW1 9986   0.539   2.393   4.301
 3029SOL    HW2 9987   0.681   2.370   4.222
 3030SOL     OW 9988   1.512   4.438   1.286
 3030SOL    HW1 9989   1.589   4.465   1.229
 3030SOL    HW2 9990   1.426   4.456   1.238
 3031SOL     OW 9991   1.512   5.410   1.389
 3031SOL    HW1 9992   1.451   5.410   1.309
 3031SOL    HW2 9993   1.545   5.317   1.405
 3032SOL     OW 9994   1.732   0.029   3.164
 3032SOL    HW1 9995   1.758   0.117   3.203
 3032SOL    HW2 9996   1.722   0.038   3.065
 3033SOL     OW 9997   6.281   2.965   4.061
 3033SOL    HW1 9998   6.322   2.877   4.038
 3033SOL    HW2 9999   6.249   2.963   4.156
 3034SOL     OW10000   0.647   6.258   3.701
 3034SOL    HW110001   0.564   6.307   3.675
 3034SOL    HW210002   0.623   6.169   3.741
 3035SOL     OW10003   1.469   2.649   6.418
 3035SOL    HW110004   1.565   2.659   6.447
 3035SOL    HW210005   1.452   2.555   6.391
 3036SOL     OW10006   1.560   2.166   6.098
 3036SOL    HW110007   1.502   2.092   6.134
 3036SOL    HW210008   1.510   2.216   6.027
 3037SOL     OW10009   0.715   4.913   5.944
 3037SOL    HW110010   0.638   4.966   5.981
 3037SOL    HW210011   0.695   4.886   5.850
 3038SOL     OW10012   4.990   5.289   6.102
 3038SOL    HW110013   4.968   5.289   6.200
 3038SOL    HW210014   5.084   5.319   6.089
 3039SOL     OW10015   6.344   3.237   0.412
 3039SOL    HW110016   6.246   3.218   0.411
 3039SOL    HW210017   6.392   3.165   0.463
 3040SOL     OW10018   3.646   4.139   5.693
 3040SOL    HW110019   3.630   4.079   5.771
 3040SOL    HW210020   3.686   4.086   5.618
 3041SOL     OW10021   1.486   4.130   4.809
 3041SOL    HW110022   1.393   4.105   4.782
 3041SOL    HW210023   1.506   4.090   4.899
 3042SOL     OW10024   0.531   4.965   3.234
 3042SOL    HW110025   0.574   5.030   3.171
 3042SOL    HW210026   0.577   4.876   3.227
 3043SOL     OW10027   2.443   3.079   0.708
 3043SOL    HW110028   2.364   3.138   0.727
 3043SOL    HW210029   2.520   3.108   0.764
 3044SOL     OW10030   3.590   3.409   5.042
 3044SOL    HW110031   3.647   3.485   5.074
 3044SOL    HW210032   3.580   3.415   4.942
 3045SOL     OW10033   5.049   1.138   3.272
 3045SOL    HW110034   5.088   1.147   3.180
 3045SOL    HW210035   5.008   1.225   3.300
 3046SOL     OW10036   5.366   5.421   0.612
 3046SOL    HW110037   5.308   5.402   0.532
 3046SOL    HW210038   5.453   5.373   0.602
 3047SOL     OW10039   6.171   0.108   0.249
 3047SOL    HW110040   6.146   0.079   0.341
 3047SOL    HW210041   6.257   0.065   0.223
 3048SOL     OW10042   4.478   3.327   1.070
 3048SOL    HW110043   4.472   3.426   1.078
 3048SOL    HW210044   4.523   3.289   1.151
 3049SOL     OW10045   0.856   0.794   4.443
 3049SOL    HW110046   0.838   0.887   4.475
 3049SOL    HW210047   0.777   0.762   4.390
 3050SOL     OW10048   2.816   2.255   1.253
 3050SOL    HW110049   2.799   2.282   1.348
 3050SOL    HW210050   2.909   2.280   1.227
 3051SOL     OW10051   3.234   6.834   5.515
 3051SOL    HW110052   3.275   6.896   5.447
 3051SOL    HW210053   3.153   6.877   5.555
 3052SOL     OW10054   5.822   6.066   2.328
 3052SOL    HW110055   5.798   6.140   2.266
 3052SOL    HW210056   5.779   6.082   2.417
 3053SOL     OW10057   2.012   4.110   0.152
 3053SOL    HW110058   1.916   4.088   0.135
 3053SOL    HW210059   2.066   4.086   0.072
 3054SOL     OW10060   5.537   0.996   3.241
 3054SOL    HW110061   5.625   0.951   3.255
 3054SOL    HW210062   5.530   1.026   3.146
 3055SOL     OW10063   6.207   6.222   6.342
 3055SOL    HW110064   6.273   6.252   6.273
 3055SOL    HW210065   6.156   6.301   6.377
 3056SOL     OW10066   5.344   2.103   6.178
 3056SOL    HW110067   5.282   2.050   6.120
 3056SOL    HW210068   5.348   2.197   6.145
 3057SOL     OW10069   5.262   6.263   3.490
 3057SOL    HW110070   5.292   6.173   3.457
 3057SOL    HW210071   5.222   6.315   3.415
 3058SOL     OW10072   5.866   4.155   0.513
 3058SOL    HW110073   5.818   4.112   0.590
 3058SOL    HW210074   5.803   4.217   0.465
 3059SOL     OW10075   2.218   2.537   4.369
 3059SOL    HW110076   2.304   2.501   4.405
 3059SOL    HW210077   2.226   2.550   4.270
 3060SOL     OW10078   2.892   4.655   5.860
 3060SOL    HW110079   2.818   4.673   5.795
 3060SOL    HW210080   2.874   4.702   5.946
 3061SOL     OW10081   5.482   4.926   5.763
 3061SOL    HW110082   5.493   4.937   5.664
 3061SOL    HW210083   5.566   4.887   5.801
 3062SOL     OW10084   4.080   4.454   1.630
 3062SOL    HW110085   3.984   4.447   1.658
 3062SOL    HW210086   4.086   4.507   1.545
 3063SOL     OW10087   0.616   4.257   1.167
 3063SOL    HW110088   0.602   4.203   1.249
 3063SOL    HW210089   0.575   4.348   1.179
 3064SOL     OW10090   3.732   2.536   6.843
 3064SOL    HW110091   3.808   2.477   6.816
 3064SOL    HW210092   3.645   2.495   6.815
 3065SOL     OW10093   1.252   0.855   6.795
 3065SOL    HW110094   1.270   0.953   6.786
 3065SOL    HW210095   1.328   0.812   6.843
 3066SOL     OW10096   4.973   5.278   5.330
 3066SOL    HW110097   5.010   5.240   5.245
 3066SOL    HW210098   4.987   5.377   5.330
 3067SOL     OW10099   2.526   1.567   6.532
 3067SOL    HW110100   2.470   1.522   6.602
 3067SOL    HW210101   2.556   1.657   6.566
 3068SOL     OW10102   0.833   1.642   1.551
 3068SOL    HW110103   0.834   1.735   1.585
 3068SOL    HW210104   0.778   1.637   1.468
 3069SOL     OW10105   5.604   0.106   3.231
 3069SOL    HW110106   5.641   0.199   3.230
 3069SOL    HW210107   5.541   0.094   3.154
 3070SOL     OW10108   2.886   1.437   6.766
 3070SOL    HW110109   2.902   1.441   6.865
 3070SOL    HW210110   2.942   1.364   6.726
 3071SOL     OW10111   0.051   3.893   3.731
 3071SOL    HW110112   6.999   3.949   3.694
 3071SOL    HW210113   0.018   3.800   3.747
 3072SOL     OW10114   1.883   6.208   0.012
 3072SOL    HW110115   1.859   6.186   6.940
 3072SOL    HW210116   1.898   6.123   0.063
 3073SOL     OW10117   6.495   5.029   0.452
 3073SOL    HW110118   6.439   4.984   0.523
 3073SOL    HW210119   6.504   5.126   0.473
 3074SOL     OW10120   1.163   3.996   0.744
 3074SOL    HW110121   1.218   3.947   0.811
 3074SOL    HW210122   1.066   3.980   0.763
 3075SOL     OW10123   2.629   5.118   3.650
 3075SOL    HW110124   2.717   5.164   3.661
 3075SOL    HW210125   2.611   5.060   3.729
 3076SOL     OW10126   0.318   1.445   4.953
 3076SOL    HW110127   0.225   1.439   4.915
 3076SOL    HW210128   0.314   1.436   5.052
 3077SOL     OW10129   6.148   3.497   1.688
 3077SOL    HW110130   6.142   3.588   1.729
 3077SOL    HW210131   6.059   3.453   1.691
 3078SOL     OW10132   6.452   3.160   1.679
 3078SOL    HW110133   6.461   3.206   1.768
 3078SOL    HW210134   6.381   3.090   1.686
 3079SOL     OW10135   2.223   2.514   5.004
 3079SOL    HW110136   2.142   2.480   5.052
 3079SOL    HW210137   2.212   2.611   4.985
 3080SOL     OW10138   4.203   4.846   1.222
 3080SOL    HW110139   4.213   4.946   1.229
 3080SOL    HW210140   4.184   4.808   1.312
 3081SOL     OW10141   1.281   4.261   0.376
 3081SOL    HW110142   1.284   4.212   0.289
 3081SOL    HW210143   1.188   4.292   0.395
 3082SOL     OW10144   3.370   5.234   4.137
 3082SOL    HW110145   3.448   5.280   4.095
 3082SOL    HW210146   3.367   5.139   4.107
 3083SOL     OW10147   2.648   5.518   2.798
 3083SOL    HW110148   2.742   5.506   2.830
 3083SOL    HW210149   2.588   5.454   2.846
 3084SOL     OW10150   0.634   3.656   2.979
 3084SOL    HW110151   0.634   3.608   3.066
 3084SOL    HW210152   0.540   3.669   2.947
 3085SOL     OW10153   4.588   5.001   0.891
 3085SOL    HW110154   4.590   5.099   0.907
 3085SOL    HW210155   4.510   4.978   0.833
 3086SOL     OW10156   6.008   1.112   6.735
 3086SOL    HW110157   6.010   1.060   6.821
 3086SOL    HW210158   5.940   1.184   6.741
 3087SOL     OW10159   2.417   6.472   2.121
 3087SOL    HW110160   2.399   6.393   2.063
 3087SOL    HW210161   2.331   6.508   2.157
 3088SOL     OW10162   0.277   2.902   5.370
 3088SOL    HW110163   0.196   2.860   5.329
 3088SOL    HW210164   0.354   2.839   5.364
 3089SOL     OW10165   4.945   0.634   4.595
 3089SOL    HW110166   4.901   0.564   4.653
 3089SOL    HW210167   4.885   0.714   4.591
 3090SOL     OW10168   1.193   1.515   1.292
 3090SOL    HW110169   1.236   1.446   1.350
 3090SOL    HW210170   1.173   1.475   1.203
 3091SOL     OW10171   1.159   1.607   0.578
 3091SOL    HW110172   1.093   1.597   0.503
 3091SOL    HW210173   1.240   1.552   0.559
 3092SOL     OW10174   5.237   6.593   2.325
 3092SOL    HW110175   5.253   6.673   2.383
 3092SOL    HW210176   5.173   6.531   2.370
 3093SOL     OW10177   5.853   5.538   6.434
 3093SOL    HW110178   5.844   5.439   6.422
 3093SOL    HW210179   5.950   5.563   6.435
 3094SOL     OW10180   2.580   0.932   5.425
 3094SOL    HW110181   2.561   0.881   5.508
 3094SOL    HW210182   2.677   0.924   5.401
 3095SOL     OW10183   2.645   3.235   5.335
 3095SOL    HW110184   2.738   3.241   5.300
 3095SOL    HW210185   2.598   3.157   5.293
 3096SOL     OW10186   0.787   3.344   5.280
 3096SOL    HW110187   0.702   3.395   5.298
 3096SOL    HW210188   0.767   3.264   5.223
 3097SOL     OW10189   6.296   2.222   6.500
 3097SOL    HW110190   6.313   2.147   6.563
 3097SOL    HW210191   6.224   2.196   6.436
 3098SOL     OW10192   2.074   1.837   2.072
 3098SOL    HW110193   2.159   1.785   2.085
 3098SOL    HW210194   2.064   1.904   2.145
 3099SOL     OW10195   0.507   6.555   3.527
 3099SOL    HW110196   0.527   6.626   3.595
 3099SOL    HW210197   0.469   6.597   3.445
 3100SOL     OW10198   6.213   6.557   2.902
 3100SOL    HW110199   6.154   6.618   2.955
 3100SOL    HW210200   6.189   6.563   2.805
 3101SOL     OW10201   4.463   6.825   6.187
 3101SOL    HW110202   4.430   6.920   6.184
 3101SOL    HW210203   4.508   6.803   6.100
 3102SOL     OW10204   0.373   5.699   0.306
 3102SOL    HW110205   0.275   5.706   0.286
 3102SOL    HW210206   0.403   5.605   0.297
 3103SOL     OW10207   3.604   0.273   0.821
 3103SOL    HW110208   3.596   0.372   0.832
 3103SOL    HW210209   3.701   0.247   0.826
 3104SOL     OW10210   4.709   0.264   6.110
 3104SOL    HW110211   4.795   0.234   6.069
 3104SOL    HW210212   4.663   0.329   6.049
 3105SOL     OW10213   5.092   3.056   0.309
 3105SOL    HW110214   5.166   3.082   0.372
 3105SOL    HW210215   5.004   3.074   0.353
 3106SOL     OW10216   5.747   0.571   5.070
 3106SOL    HW110217   5.672   0.602   5.012
 3106SOL    HW210218   5.808   0.511   5.018
 3107SOL     OW10219   4.840   1.690   4.725
 3107SOL    HW110220   4.916   1.752   4.704
 3107SOL    HW210221   4.755   1.742   4.731
 3108SOL     OW10222   2.500   4.547   4.599
 3108SOL    HW110223   2.455   4.540   4.688
 3108SOL    HW210224   2.599   4.545   4.611
 3109SOL     OW10225   6.231   0.141   4.543
 3109SOL    HW110226   6.165   0.067   4.525
 3109SOL    HW210227   6.187   0.213   4.597
 3110SOL     OW10228   2.285   4.826   3.657
 3110SOL    HW110229   2.260   4.761   3.585
 3110SOL    HW210230   2.299   4.777   3.743
 3111SOL     OW10231   6.366   4.690   4.947
 3111SOL    HW110232   6.444   4.730   4.994
 3111SOL    HW210233   6.354   4.735   4.858
 3112SOL     OW10234   4.047   2.801   0.225
 3112SOL    HW110235   4.058   2.713   0.272
 3112SOL    HW210236   4.135   2.829   0.187
 3113SOL     OW10237   2.755   5.923   2.624
 3113SOL    HW110238   2.709   6.012   2.633
 3113SOL    HW210239   2.815   5.909   2.702
 3114SOL     OW10240   3.659   1.551   0.123
 3114SOL    HW110241   3.653   1.504   0.036
 3114SOL    HW210242   3.579   1.529   0.179
 3115SOL     OW10243   4.221   4.307   5.548
 3115SOL    HW110244   4.155   4.350   5.488
 3115SOL    HW210245   4.184   4.301   5.641
 3116SOL     OW10246   0.525   2.164   0.977
 3116SOL    HW110247   0.570   2.128   0.896
 3116SOL    HW210248   0.450   2.103   1.003
 3117SOL     OW10249   5.017   2.196   5.491
 3117SOL    HW110250   5.101   2.207   5.438
 3117SOL    HW210251   4.977   2.106   5.471
 3118SOL     OW10252   1.505   0.339   2.942
 3118SOL    HW110253   1.594   0.312   2.905
 3118SOL    HW210254   1.515   0.423   2.995
 3119SOL     OW10255   3.797   2.603   5.798
 3119SOL    HW110256   3.873   2.561   5.749
 3119SOL    HW210257   3.711   2.560   5.769
 3120SOL     OW10258   2.815   0.607   4.834
 3120SOL    HW110259   2.897   0.576   4.882
 3120SOL    HW210260   2.783   0.693   4.873
 3121SOL     OW10261   4.969   1.960   4.102
 3121SOL    HW110262   5.015   2.049   4.111
 3121SOL    HW210263   4.996   1.901   4.178
 3122SOL     OW10264   4.498   4.523   4.266
 3122SOL    HW110265   4.530   4.436   4.304
 3122SOL    HW210266   4.432   4.504   4.193
 3123SOL     OW10267   1.907   1.452   3.256
 3123SOL    HW110268   1.923   1.519   3.184
 3123SOL    HW210269   1.991   1.436   3.308
 3124SOL     OW10270   5.214   6.299   4.827
 3124SOL    HW110271   5.223   6.251   4.914
 3124SOL    HW210272   5.227   6.234   4.752
 3125SOL     OW10273   1.107   3.192   4.969
 3125SOL    HW110274   1.049   3.111   4.968
 3125SOL    HW210275   1.118   3.227   4.876
 3126SOL     OW10276   5.935   5.782   4.482
 3126SOL    HW110277   5.878   5.766   4.563
 3126SOL    HW210278   5.935   5.700   4.425
 3127SOL     OW10279   0.675   2.441   4.732
 3127SOL    HW110280   0.701   2.349   4.703
 3127SOL    HW210281   0.698   2.506   4.659
 3128SOL     OW10282   3.515   0.390   0.365
 3128SOL    HW110283   3.538   0.485   0.383
 3128SOL    HW210284   3.468   0.351   0.445
 3129SOL     OW10285   5.010   3.374   1.040
 3129SOL    HW110286   4.910   3.380   1.042
 3129SOL    HW210287   5.043   3.347   1.131
 3130SOL     OW10288   1.698   3.882   1.196
 3130SOL    HW110289   1.682   3.931   1.110
 3130SOL    HW210290   1.796   3.861   1.204
 3131SOL     OW10291   6.973   3.961   1.764
 3131SOL    HW110292   6.929   3.969   1.674
 3131SOL    HW210293   0.046   3.989   1.757
 3132SOL     OW10294   3.848   4.477   0.598
 3132SOL    HW110295   3.894   4.429   0.523
 3132SOL    HW210296   3.762   4.432   0.618
 3133SOL     OW10297   3.856   0.414   3.301
 3133SOL    HW110298   3.768   0.406   3.253
 3133SOL    HW210299   3.924   0.451   3.239
 3134SOL     OW10300   3.248   4.766   1.778
 3134SOL    HW110301   3.191   4.692   1.742
 3134SOL    HW210302   3.300   4.808   1.704
 3135SOL     OW10303   5.220   6.587   6.168
 3135SOL    HW110304   5.172   6.674   6.154
 3135SOL    HW210305   5.212   6.560   6.264
 3136SOL     OW10306   5.871   1.093   2.138
 3136SOL    HW110307   5.929   1.167   2.104
 3136SOL    HW210308   5.894   1.008   2.091
 3137SOL     OW10309   6.406   0.320   0.907
 3137SOL    HW110310   6.490   0.266   0.915
 3137SOL    HW210311   6.383   0.332   0.811
 3138SOL     OW10312   5.752   5.903   3.812
 3138SOL    HW110313   5.708   5.993   3.815
 3138SOL    HW210314   5.688   5.835   3.777
 3139SOL     OW10315   2.523   4.857   1.444
 3139SOL    HW110316   2.530   4.766   1.485
 3139SOL    HW210317   2.495   4.923   1.514
 3140SOL     OW10318   5.938   6.607   5.629
 3140SOL    HW110319   5.955   6.602   5.727
 3140SOL    HW210320   5.920   6.702   5.602
 3141SOL     OW10321   0.508   2.458   0.258
 3141SOL    HW110322   0.471   2.511   0.182
 3141SOL    HW210323   0.589   2.504   0.295
 3142SOL     OW10324   4.509   0.769   2.679
 3142SOL    HW110325   4.528   0.806   2.588
 3142SOL    HW210326   4.552   0.680   2.689
 3143SOL     OW10327   5.933   1.978   0.407
 3143SOL    HW110328   5.892   1.907   0.351
 3143SOL    HW210329   6.022   2.003   0.369
 3144SOL     OW10330   4.483   3.829   6.575
 3144SOL    HW110331   4.546   3.781   6.636
 3144SOL    HW210332   4.520   3.919   6.554
 3145SOL     OW10333   2.867   6.441   1.836
 3145SOL    HW110334   2.794   6.477   1.894
 3145SOL    HW210335   2.832   6.422   1.745
 3146SOL     OW10336   0.598   0.734   4.796
 3146SOL    HW110337   0.592   0.732   4.896
 3146SOL    HW210338   0.690   0.764   4.769
 3147SOL     OW10339   3.498   5.037   6.709
 3147SOL    HW110340   3.427   5.026   6.640
 3147SOL    HW210341   3.490   4.965   6.778
 3148SOL     OW10342   0.347   6.539   2.958
 3148SOL    HW110343   0.318   6.464   3.017
 3148SOL    HW210344   0.351   6.624   3.012
 3149SOL     OW10345   3.133   1.629   6.999
 3149SOL    HW110346   3.140   1.706   0.039
 3149SOL    HW210347   3.053   1.573   7.022
 3150SOL     OW10348   6.510   6.050   5.021
 3150SOL    HW110349   6.434   6.040   4.956
 3150SOL    HW210350   6.591   6.007   4.982
 3151SOL     OW10351   6.517   1.773   6.037
 3151SOL    HW110352   6.468   1.847   5.991
 3151SOL    HW210353   6.590   1.739   5.979
 3152SOL     OW10354   1.418   3.941   6.605
 3152SOL    HW110355   1.332   3.990   6.589
 3152SOL    HW210356   1.398   3.849   6.638
 3153SOL     OW10357   6.549   5.310   0.422
 3153SOL    HW110358   6.568   5.408   0.425
 3153SOL    HW210359   6.627   5.262   0.381
 3154SOL     OW10360   6.261   1.412   1.753
 3154SOL    HW110361   6.228   1.496   1.710
 3154SOL    HW210362   6.225   1.406   1.846
 3155SOL     OW10363   6.446   4.503   0.297
 3155SOL    HW110364   6.440   4.473   0.392
 3155SOL    HW210365   6.356   4.495   0.254
 3156SOL     OW10366   3.555   4.141   2.322
 3156SOL    HW110367   3.529   4.236   2.343
 3156SOL    HW210368   3.654   4.137   2.307
 3157SOL     OW10369   1.127   2.109   5.191
 3157SOL    HW110370   1.167   2.045   5.125
 3157SOL    HW210371   1.200   2.155   5.242
 3158SOL     OW10372   2.766   2.347   5.697
 3158SOL    HW110373   2.761   2.265   5.755
 3158SOL    HW210374   2.704   2.417   5.732
 3159SOL     OW10375   4.615   6.875   0.764
 3159SOL    HW110376   4.542   6.943   0.773
 3159SOL    HW210377   4.592   6.810   0.692
 3160SOL     OW10378   2.042   6.912   5.421
 3160SOL    HW110379   2.018   6.836   5.360
 3160SOL    HW210380   1.964   6.935   5.479
 3161SOL     OW10381   1.923   2.792   2.541
 3161SOL    HW110382   1.896   2.887   2.559
 3161SOL    HW210383   1.987   2.789   2.464
 3162SOL     OW10384   2.243   5.339   6.958
 3162SOL    HW110385   2.241   5.438   6.971
 3162SOL    HW210386   2.247   5.318   6.860
 3163SOL     OW10387   4.479   3.642   0.151
 3163SOL    HW110388   4.398   3.592   0.183
 3163SOL    HW210389   4.455   3.696   0.071
 3164SOL     OW10390   3.041   5.478   2.400
 3164SOL    HW110391   3.035   5.573   2.371
 3164SOL    HW210392   3.106   5.429   2.341
 3165SOL     OW10393   0.653   5.203   0.214
 3165SOL    HW110394   0.575   5.163   0.262
 3165SOL    HW210395   0.698   5.270   0.273
 3166SOL     OW10396   4.424   1.320   4.381
 3166SOL    HW110397   4.356   1.394   4.385
 3166SOL    HW210398   4.415   1.263   4.462
 3167SOL     OW10399   5.015   4.215   0.308
 3167SOL    HW110400   5.102   4.258   0.331
 3167SOL    HW210401   4.963   4.198   0.392
 3168SOL     OW10402   4.780   2.937   1.237
 3168SOL    HW110403   4.802   2.839   1.241
 3168SOL    HW210404   4.780   2.968   1.142
 3169SOL     OW10405   1.560   4.836   2.490
 3169SOL    HW110406   1.613   4.916   2.462
 3169SOL    HW210407   1.610   4.753   2.465
 3170SOL     OW10408   4.042   6.109   2.311
 3170SOL    HW110409   3.962   6.092   2.253
 3170SOL    HW210410   4.091   6.190   2.278
 3171SOL     OW10411   5.209   3.153   2.105
 3171SOL    HW110412   5.244   3.235   2.058
 3171SOL    HW210413   5.110   3.161   2.115
 3172SOL     OW10414   0.301   4.750   6.913
 3172SOL    HW110415   0.226   4.784   6.971
 3172SOL    HW210416   0.265   4.682   6.849
 3173SOL     OW10417   2.673   1.811   6.547
 3173SOL    HW110418   2.622   1.880   6.496
 3173SOL    HW210419   2.758   1.789   6.498
 3174SOL     OW10420   2.575   2.570   5.754
 3174SOL    HW110421   2.542   2.559   5.661
 3174SOL    HW210422   2.501   2.604   5.812
 3175SOL     OW10423   6.481   1.310   3.052
 3175SOL    HW110424   6.475   1.216   3.021
 3175SOL    HW210425   6.576   1.342   3.046
 3176SOL     OW10426   6.991   3.746   4.744
 3176SOL    HW110427   0.012   3.829   4.779
 3176SOL    HW210428   0.025   3.705   4.673
 3177SOL     OW10429   5.362   4.275   3.291
 3177SOL    HW110430   5.404   4.197   3.338
 3177SOL    HW210431   5.416   4.296   3.209
 3178SOL     OW10432   5.239   1.954   0.255
 3178SOL    HW110433   5.310   2.024   0.259
 3178SOL    HW210434   5.260   1.888   0.182
 3179SOL     OW10435   1.317   1.510   2.353
 3179SOL    HW110436   1.247   1.581   2.351
 3179SOL    HW210437   1.287   1.435   2.413
 3180SOL     OW10438   5.766   6.478   6.916
 3180SOL    HW110439   5.857   6.454   6.952
 3180SOL    HW210440   5.708   6.397   6.917
 3181SOL     OW10441   0.157   1.392   4.324
 3181SOL    HW110442   0.108   1.477   4.345
 3181SOL    HW210443   0.214   1.406   4.243
 3182SOL     OW10444   3.229   0.320   0.638
 3182SOL    HW110445   3.155   0.326   0.571
 3182SOL    HW210446   3.268   0.411   0.653
 3183SOL     OW10447   4.574   4.830   2.151
 3183SOL    HW110448   4.574   4.736   2.116
 3183SOL    HW210449   4.667   4.855   2.178
 3184SOL     OW10450   0.562   1.970   3.742
 3184SOL    HW110451   0.565   1.977   3.643
 3184SOL    HW210452   0.514   1.887   3.769
 3185SOL     OW10453   6.341   6.601   5.028
 3185SOL    HW110454   6.415   6.534   5.032
 3185SOL    HW210455   6.299   6.611   5.118
 3186SOL     OW10456   1.809   0.839   6.759
 3186SOL    HW110457   1.719   0.804   6.785
 3186SOL    HW210458   1.842   0.902   6.830
 3187SOL     OW10459   3.500   5.200   2.425
 3187SOL    HW110460   3.456   5.125   2.377
 3187SOL    HW210461   3.469   5.202   2.520
 3188SOL     OW10462   2.031   5.098   4.984
 3188SOL    HW110463   2.101   5.133   5.047
 3188SOL    HW210464   1.965   5.169   4.964
 3189SOL     OW10465   2.196   0.904   0.272
 3189SOL    HW110466   2.184   0.990   0.222
 3189SOL    HW210467   2.287   0.902   0.313
 3190SOL     OW10468   6.406   5.281   6.147
 3190SOL    HW110469   6.325   5.250   6.196
 3190SOL    HW210470   6.401   5.380   6.134
 3191SOL     OW10471   4.531   5.504   2.100
 3191SOL    HW110472   4.475   5.434   2.056
 3191SOL    HW210473   4.525   5.493   2.199
 3192SOL     OW10474   6.929   2.798   1.542
 3192SOL    HW110475   6.912   2.894   1.565
 3192SOL    HW210476   6.912   2.784   1.444
 3193SOL     OW10477   3.932   1.148   5.143
 3193SOL    HW110478   4.030   1.129   5.152
 3193SOL    HW210479   3.920   1.240   5.105
 3194SOL     OW10480   0.914   1.277   5.641
 3194SOL    HW110481   0.839   1.335   5.609
 3194SOL    HW210482   0.881   1.183   5.653
 3195SOL     OW10483   0.833   1.661   1.931
 3195SOL    HW110484   0.880   1.673   2.019
 3195SOL    HW210485   0.773   1.580   1.936
 3196SOL     OW10486   7.003   0.934   6.003
 3196SOL    HW110487   0.049   0.924   6.075
 3196SOL    HW210488   6.999   0.850   5.949
 3197SOL     OW10489   2.674   6.784   5.566
 3197SOL    HW110490   2.608   6.712   5.543
 3197SOL    HW210491   2.689   6.842   5.485
 3198SOL     OW10492   6.324   2.198   4.047
 3198SOL    HW110493   6.233   2.236   4.032
 3198SOL    HW210494   6.350   2.211   4.143
 3199SOL     OW10495   5.352   4.967   2.886
 3199SOL    HW110496   5.262   4.987   2.923
 3199SOL    HW210497   5.405   4.914   2.953
 3200SOL     OW10498   6.508   3.243   3.749
 3200SOL    HW110499   6.455   3.160   3.734
 3200SOL    HW210500   6.604   3.218   3.766
 3201SOL     OW10501   6.446   4.633   3.452
 3201SOL    HW110502   6.530   4.659   3.500
 3201SOL    HW210503   6.373   4.620   3.519
 3202SOL     OW10504   1.079   5.129   0.867
 3202SOL    HW110505   1.064   5.215   0.917
 3202SOL    HW210506   0.992   5.080   0.858
 3203SOL     OW10507   4.636   0.794   1.391
 3203SOL    HW110508   4.705   0.855   1.352
 3203SOL    HW210509   4.663   0.699   1.379
 3204SOL     OW10510   2.992   1.795   3.381
 3204SOL    HW110511   3.088   1.807   3.357
 3204SOL    HW210512   2.979   1.703   3.418
 3205SOL     OW10513   5.281   3.467   6.062
 3205SOL    HW110514   5.215   3.420   6.003
 3205SOL    HW210515   5.280   3.425   6.153
 3206SOL     OW10516   3.088   3.215   1.562
 3206SOL    HW110517   3.017   3.155   1.600
 3206SOL    HW210518   3.148   3.161   1.503
 3207SOL     OW10519   0.843   0.947   6.061
 3207SOL    HW110520   0.796   0.863   6.033
 3207SOL    HW210521   0.844   0.954   6.161
 3208SOL     OW10522   5.779   5.390   6.131
 3208SOL    HW110523   5.846   5.461   6.110
 3208SOL    HW210524   5.826   5.310   6.168
 3209SOL     OW10525   3.824   5.605   5.182
 3209SOL    HW110526   3.876   5.668   5.123
 3209SOL    HW210527   3.859   5.512   5.170
 3210SOL     OW10528   0.270   5.125   1.470
 3210SOL    HW110529   0.176   5.123   1.506
 3210SOL    HW210530   0.272   5.182   1.388
 3211SOL     OW10531   1.907   4.709   0.869
 3211SOL    HW110532   1.916   4.623   0.820
 3211SOL    HW210533   1.814   4.717   0.906
 3212SOL     OW10534   3.409   7.017   2.626
 3212SOL    HW110535   3.435   0.090   2.641
 3212SOL    HW210536   3.310   7.008   2.638
 3213SOL     OW10537   1.692   0.576   6.165
 3213SOL    HW110538   1.653   0.613   6.249
 3213SOL    HW210539   1.773   0.522   6.186
 3214SOL     OW10540   4.884   6.908   3.345
 3214SOL    HW110541   4.824   6.929   3.267
 3214SOL    HW210542   4.913   6.993   3.389
 3215SOL     OW10543   0.619   3.304   0.093
 3215SOL    HW110544   0.588   3.215   0.126
 3215SOL    HW210545   0.676   3.292   0.012
 3216SOL     OW10546   5.617   5.377   1.279
 3216SOL    HW110547   5.715   5.370   1.261
 3216SOL    HW210548   5.588   5.472   1.268
 3217SOL     OW10549   0.195   5.293   2.509
 3217SOL    HW110550   0.144   5.368   2.466
 3217SOL    HW210551   0.166   5.206   2.470
 3218SOL     OW10552   5.627   2.509   3.585
 3218SOL    HW110553   5.680   2.565   3.649
 3218SOL    HW210554   5.687   2.477   3.511
 3219SOL     OW10555   6.801   1.236   5.101
 3219SOL    HW110556   6.897   1.247   5.077
 3219SOL    HW210557   6.766   1.320   5.141
 3220SOL     OW10558   0.684   5.652   6.623
 3220SOL    HW110559   0.656   5.645   6.527
 3220SOL    HW210560   0.612   5.695   6.676
 3221SOL     OW10561   4.050   6.976   2.572
 3221SOL    HW110562   3.954   6.998   2.555
 3221SOL    HW210563   4.107   7.022   2.504
 3222SOL     OW10564   2.706   1.331   2.913
 3222SOL    HW110565   2.768   1.292   2.846
 3222SOL    HW210566   2.642   1.260   2.944
 3223SOL     OW10567   2.066   6.670   0.431
 3223SOL    HW110568   2.095   6.728   0.507
 3223SOL    HW210569   1.973   6.638   0.448
 3224SOL     OW10570   5.318   2.365   5.317
 3224SOL    HW110571   5.356   2.427   5.386
 3224SOL    HW210572   5.392   2.316   5.271
 3225SOL     OW10573   4.621   1.226   4.910
 3225SOL    HW110574   4.637   1.140   4.959
 3225SOL    HW210575   4.675   1.299   4.953
 3226SOL     OW10576   1.839   0.333   2.055
 3226SOL    HW110577   1.793   0.320   1.967
 3226SOL    HW210578   1.910   0.403   2.046
 3227SOL     OW10579   3.813   2.173   6.590
 3227SOL    HW110580   3.743   2.107   6.618
 3227SOL    HW210581   3.835   2.233   6.667
 3228SOL     OW10582   0.113   3.990   0.475
 3228SOL    HW110583   0.201   4.018   0.436
 3228SOL    HW210584   0.086   3.902   0.435
 3229SOL     OW10585   3.260   0.819   5.523
 3229SOL    HW110586   3.290   0.774   5.439
 3229SOL    HW210587   3.289   0.766   5.602
 3230SOL     OW10588   2.194   5.656   6.471
 3230SOL    HW110589   2.204   5.676   6.568
 3230SOL    HW210590   2.280   5.676   6.424
 3231SOL     OW10591   3.082   1.080   2.623
 3231SOL    HW110592   3.168   1.030   2.633
 3231SOL    HW210593   3.098   1.178   2.641
 3232SOL     OW10594   3.978   5.879   3.802
 3232SOL    HW110595   4.005   5.824   3.881
 3232SOL    HW210596   3.926   5.822   3.738
 3233SOL     OW10597   6.651   3.004   0.872
 3233SOL    HW110598   6.702   3.034   0.953
 3233SOL    HW210599   6.680   3.057   0.792
 3234SOL     OW10600   1.881   2.600   0.137
 3234SOL    HW110601   1.827   2.668   0.087
 3234SOL    HW210602   1.820   2.544   0.194
 3235SOL     OW10603   6.370   5.997   1.813
 3235SOL    HW110604   6.311   5.917   1.822
 3235SOL    HW210605   6.381   6.041   1.902
 3236SOL     OW10606   2.075   3.907   0.502
 3236SOL    HW110607   2.136   3.881   0.577
 3236SOL    HW210608   2.120   3.976   0.444
 3237SOL     OW10609   6.404   1.883   4.177
 3237SOL    HW110610   6.438   1.925   4.093
 3237SOL    HW210611   6.358   1.952   4.233
 3238SOL     OW10612   6.103   5.348   0.338
 3238SOL    HW110613   6.115   5.427   0.279
 3238SOL    HW210614   6.163   5.274   0.307
 3239SOL     OW10615   6.857   0.241   3.896
 3239SOL    HW110616   6.864   0.283   3.806
 3239SOL    HW210617   6.810   0.153   3.888
 3240SOL     OW10618   0.067   0.617   6.178
 3240SOL    HW110619   0.001   0.636   6.105
 3240SOL    HW210620   0.061   0.521   6.204
 3241SOL     OW10621   4.667   1.681   6.488
 3241SOL    HW110622   4.742   1.635   6.536
 3241SOL    HW210623   4.672   1.660   6.390
 3242SOL     OW10624   4.652   3.905   5.913
 3242SOL    HW110625   4.566   3.863   5.882
 3242SOL    HW210626   4.649   3.915   6.012
 3243SOL     OW10627   4.812   4.748   0.118
 3243SOL    HW110628   4.872   4.743   0.038
 3243SOL    HW210629   4.783   4.656   0.144
 3244SOL     OW10630   5.454   6.136   0.074
 3244SOL    HW110631   5.493   6.199   0.141
 3244SOL    HW210632   5.498   6.150   7.008
 3245SOL     OW10633   4.652   2.529   4.133
 3245SOL    HW110634   4.685   2.441   4.099
 3245SOL    HW210635   4.646   2.527   4.232
 3246SOL     OW10636   6.939   0.114   2.939
 3246SOL    HW110637   6.895   0.068   3.016
 3246SOL    HW210638   6.960   0.209   2.963
 3247SOL     OW10639   6.844   4.695   2.326
 3247SOL    HW110640   6.911   4.646   2.382
 3247SOL    HW210641   6.888   4.773   2.281
 3248SOL     OW10642   5.679   2.664   2.233
 3248SOL    HW110643   5.600   2.603   2.228
 3248SOL    HW210644   5.733   2.656   2.149
 3249SOL     OW10645   4.034   3.791   4.174
 3249SOL    HW110646   4.021   3.888   4.193
 3249SOL    HW210647   4.001   3.737   4.252
 3250SOL     OW10648   4.903   6.474   3.565
 3250SOL    HW110649   4.852   6.405   3.515
 3250SOL    HW210650   4.849   6.506   3.643
 3251SOL     OW10651   2.609   1.227   4.610
 3251SOL    HW110652   2.677   1.181   4.553
 3251SOL    HW210653   2.536   1.162   4.634
 3252SOL     OW10654   3.094   1.355   2.731
 3252SOL    HW110655   3.124   1.396   2.818
 3252SOL    HW210656   3.028   1.416   2.688
 3253SOL     OW10657   4.552   3.782   1.373
 3253SOL    HW110658   4.596   3.724   1.441
 3253SOL    HW210659   4.456   3.795   1.398
 3254SOL     OW10660   5.019   6.996   6.332
 3254SOL    HW110661   4.923   6.980   6.309
 3254SOL    HW210662   5.054   6.918   6.384
 3255SOL     OW10663   5.941   6.231   1.065
 3255SOL    HW110664   5.992   6.283   1.133
 3255SOL    HW210665   5.903   6.293   0.997
 3256SOL     OW10666   4.379   2.251   1.277
 3256SOL    HW110667   4.329   2.319   1.330
 3256SOL    HW210668   4.315   2.188   1.234
 3257SOL     OW10669   2.991   2.099   1.987
 3257SOL    HW110670   3.060   2.123   1.919
 3257SOL    HW210671   2.938   2.180   2.012
 3258SOL     OW10672   3.285   4.878   3.474
 3258SOL    HW110673   3.258   4.782   3.463
 3258SOL    HW210674   3.205   4.937   3.462
 3259SOL     OW10675   5.240   5.115   4.232
 3259SOL    HW110676   5.249   5.076   4.323
 3259SOL    HW210677   5.223   5.043   4.166
 3260SOL     OW10678   1.629   3.996   2.446
 3260SOL    HW110679   1.666   3.931   2.380
 3260SOL    HW210680   1.529   3.999   2.439
 3261SOL     OW10681   5.091   0.504   2.282
 3261SOL    HW110682   5.160   0.493   2.211
 3261SOL    HW210683   5.010   0.451   2.258
 3262SOL     OW10684   3.906   2.116   2.339
 3262SOL    HW110685   3.928   2.019   2.350
 3262SOL    HW210686   3.945   2.168   2.415
 3263SOL     OW10687   3.267   1.212   3.949
 3263SOL    HW110688   3.239   1.300   3.910
 3263SOL    HW210689   3.350   1.224   4.004
 3264SOL     OW10690   1.985   4.958   0.829
 3264SOL    HW110691   1.938   4.870   0.834
 3264SOL    HW210692   2.038   4.972   0.913
 3265SOL     OW10693   5.828   5.910   5.851
 3265SOL    HW110694   5.790   5.964   5.926
 3265SOL    HW210695   5.916   5.947   5.824
 3266SOL     OW10696   2.925   4.466   0.059
 3266SOL    HW110697   2.984   4.508   7.013
 3266SOL    HW210698   2.913   4.528   0.136
 3267SOL     OW10699   3.606   0.351   1.999
 3267SOL    HW110700   3.531   0.315   1.944
 3267SOL    HW210701   3.632   0.283   2.068
 3268SOL     OW10702   1.066   4.953   1.539
 3268SOL    HW110703   0.991   4.985   1.596
 3268SOL    HW210704   1.036   4.874   1.486
 3269SOL     OW10705   0.506   5.195   2.241
 3269SOL    HW110706   0.497   5.264   2.312
 3269SOL    HW210707   0.433   5.205   2.174
 3270SOL     OW10708   1.804   2.942   6.269
 3270SOL    HW110709   1.856   2.857   6.262
 3270SOL    HW210710   1.759   2.960   6.181
 3271SOL     OW10711   6.754   3.477   1.715
 3271SOL    HW110712   6.717   3.423   1.639
 3271SOL    HW210713   6.679   3.506   1.774
 3272SOL     OW10714   3.508   4.454   6.871
 3272SOL    HW110715   3.437   4.504   6.922
 3272SOL    HW210716   3.466   4.393   6.805
 3273SOL     OW10717   5.532   4.605   5.991
 3273SOL    HW110718   5.526   4.532   6.058
 3273SOL    HW210719   5.451   4.604   5.932
 3274SOL     OW10720   6.012   0.366   0.619
 3274SOL    HW110721   5.966   0.361   0.531
 3274SOL    HW210722   5.957   0.319   0.688
 3275SOL     OW10723   4.447   0.947   0.649
 3275SOL    HW110724   4.546   0.940   0.637
 3275SOL    HW210725   4.426   1.035   0.691
 3276SOL     OW10726   4.459   6.593   0.246
 3276SOL    HW110727   4.490   6.531   0.318
 3276SOL    HW210728   4.537   6.640   0.205
 3277SOL     OW10729   3.186   1.286   0.903
 3277SOL    HW110730   3.231   1.371   0.874
 3277SOL    HW210731   3.159   1.233   0.823
 3278SOL     OW10732   6.971   0.487   5.917
 3278SOL    HW110733   6.913   0.415   5.956
 3278SOL    HW210734   0.023   0.446   5.866
 3279SOL     OW10735   4.928   6.924   1.123
 3279SOL    HW110736   5.016   6.935   1.168
 3279SOL    HW210737   4.871   7.004   1.139
 3280SOL     OW10738   4.917   4.518   4.110
 3280SOL    HW110739   4.851   4.566   4.168
 3280SOL    HW210740   4.988   4.582   4.081
 3281SOL     OW10741   0.125   4.597   1.056
 3281SOL    HW110742   0.162   4.683   1.022
 3281SOL    HW210743   0.079   4.548   0.982
 3282SOL     OW10744   0.175   3.799   4.959
 3282SOL    HW110745   0.171   3.876   4.896
 3282SOL    HW210746   0.271   3.781   4.984
 3283SOL     OW10747   4.121   1.207   1.170
 3283SOL    HW110748   4.176   1.132   1.135
 3283SOL    HW210749   4.024   1.182   1.166
 3284SOL     OW10750   0.881   5.509   4.843
 3284SOL    HW110751   0.930   5.595   4.825
 3284SOL    HW210752   0.923   5.436   4.789
 3285SOL     OW10753   5.559   1.864   4.742
 3285SOL    HW110754   5.569   1.789   4.806
 3285SOL    HW210755   5.574   1.832   4.649
 3286SOL     OW10756   3.394   2.417   1.457
 3286SOL    HW110757   3.463   2.477   1.416
 3286SOL    HW210758   3.333   2.384   1.385
 3287SOL     OW10759   0.518   0.109   0.276
 3287SOL    HW110760   0.429   0.076   0.309
 3287SOL    HW210761   0.504   0.179   0.207
 3288SOL     OW10762   1.896   6.849   0.793
 3288SOL    HW110763   1.959   6.804   0.855
 3288SOL    HW210764   1.835   6.908   0.845
 3289SOL     OW10765   2.847   1.851   6.221
 3289SOL    HW110766   2.838   1.942   6.262
 3289SOL    HW210767   2.880   1.786   6.290
 3290SOL     OW10768   6.964   5.479   0.889
 3290SOL    HW110769   6.960   5.448   0.985
 3290SOL    HW210770   6.964   5.399   0.829
 3291SOL     OW10771   3.295   0.566   5.859
 3291SOL    HW110772   3.391   0.590   5.874
 3291SOL    HW210773   3.282   0.537   5.765
 3292SOL     OW10774   0.060   1.271   1.029
 3292SOL    HW110775   0.129   1.200   1.014
 3292SOL    HW210776   0.017   1.258   1.118
 3293SOL     OW10777   6.803   4.950   1.758
 3293SOL    HW110778   6.772   4.926   1.665
 3293SOL    HW210779   6.742   5.019   1.797
 3294SOL     OW10780   5.410   1.887   5.804
 3294SOL    HW110781   5.434   1.819   5.735
 3294SOL    HW210782   5.439   1.978   5.772
 3295SOL     OW10783   1.890   3.303   0.943
 3295SOL    HW110784   1.971   3.361   0.952
 3295SOL    HW210785   1.912   3.222   0.890
 3296SOL     OW10786   6.935   0.411   4.777
 3296SOL    HW110787   7.013   0.402   4.715
 3296SOL    HW210788   6.880   0.491   4.751
 3297SOL     OW10789   3.605   1.775   5.230
 3297SOL    HW110790   3.541   1.845   5.260
 3297SOL    HW210791   3.572   1.685   5.257
 3298SOL     OW10792   6.666   2.786   5.630
 3298SOL    HW110793   6.569   2.767   5.650
 3298SOL    HW210794   6.701   2.852   5.696
 3299SOL     OW10795   4.448   6.283   2.935
 3299SOL    HW110796   4.355   6.285   2.971
 3299SOL    HW210797   4.510   6.327   3.001
 3300SOL     OW10798   1.647   0.350   5.563
 3300SOL    HW110799   1.637   0.443   5.599
 3300SOL    HW210800   1.579   0.291   5.605
 3301SOL     OW10801   1.630   3.957   3.456
 3301SOL    HW110802   1.637   4.057   3.463
 3301SOL    HW210803   1.708   3.915   3.503
 3302SOL     OW10804   1.711   4.369   6.992
 3302SOL    HW110805   1.617   4.377   6.959
 3302SOL    HW210806   1.743   4.459   0.000
 3303SOL     OW10807   3.488   3.008   0.497
 3303SOL    HW110808   3.412   3.015   0.433
 3303SOL    HW210809   3.455   3.022   0.591
 3304SOL     OW10810   2.171   5.134   5.868
 3304SOL    HW110811   2.228   5.142   5.786
 3304SOL    HW210812   2.223   5.168   5.947
 3305SOL     OW10813   3.151   0.604   1.770
 3305SOL    HW110814   3.123   0.521   1.818
 3305SOL    HW210815   3.072   0.645   1.725
 3306SOL     OW10816   1.296   6.084   5.751
 3306SOL    HW110817   1.295   5.987   5.727
 3306SOL    HW210818   1.299   6.094   5.850
 3307SOL     OW10819   0.942   0.079   5.790
 3307SOL    HW110820   0.926   7.004   5.806
 3307SOL    HW210821   0.953   0.126   5.877
 3308SOL     OW10822   3.598   5.358   1.238
 3308SOL    HW110823   3.512   5.323   1.274
 3308SOL    HW210824   3.658   5.282   1.212
 3309SOL     OW10825   6.053   4.385   3.658
 3309SOL    HW110826   6.107   4.379   3.742
 3309SOL    HW210827   5.963   4.423   3.678
 3310SOL     OW10828   0.240   4.219   4.640
 3310SOL    HW110829   0.247   4.155   4.564
 3310SOL    HW210830   0.281   4.307   4.614
 3311SOL     OW10831   3.232   3.035   1.050
 3311SOL    HW110832   3.189   3.121   1.021
 3311SOL    HW210833   3.206   2.962   0.986
 3312SOL     OW10834   4.203   2.841   5.677
 3312SOL    HW110835   4.201   2.741   5.680
 3312SOL    HW210836   4.189   2.872   5.583
 3313SOL     OW10837   0.562   0.641   3.231
 3313SOL    HW110838   0.594   0.697   3.154
 3313SOL    HW210839   0.637   0.582   3.262
 3314SOL     OW10840   2.776   0.430   2.503
 3314SOL    HW110841   2.833   0.404   2.581
 3314SOL    HW210842   2.790   0.527   2.482
 3315SOL     OW10843   0.444   4.854   5.440
 3315SOL    HW110844   0.420   4.779   5.378
 3315SOL    HW210845   0.472   4.934   5.387
 3316SOL     OW10846   3.686   1.088   5.227
 3316SOL    HW110847   3.686   1.028   5.307
 3316SOL    HW210848   3.780   1.112   5.203
 3317SOL     OW10849   5.550   2.076   2.431
 3317SOL    HW110850   5.494   2.074   2.514
 3317SOL    HW210851   5.491   2.089   2.351
 3318SOL     OW10852   2.170   0.612   6.426
 3318SOL    HW110853   2.226   0.567   6.495
 3318SOL    HW210854   2.082   0.639   6.466
 3319SOL     OW10855   6.168   0.075   3.199
 3319SOL    HW110856   6.248   0.131   3.221
 3319SOL    HW210857   6.091   0.103   3.257
 3320SOL     OW10858   6.584   0.498   0.200
 3320SOL    HW110859   6.604   0.523   0.294
 3320SOL    HW210860   6.666   0.511   0.144
 3321SOL     OW10861   6.045   1.188   0.970
 3321SOL    HW110862   5.946   1.201   0.977
 3321SOL    HW210863   6.083   1.256   0.908
 3322SOL     OW10864   6.879   2.935   1.045
 3322SOL    HW110865   6.891   3.014   0.985
 3322SOL    HW210866   6.837   2.964   1.131
 3323SOL     OW10867   2.423   1.704   0.912
 3323SOL    HW110868   2.351   1.635   0.915
 3323SOL    HW210869   2.488   1.688   0.987
 3324SOL     OW10870   4.678   5.214   4.962
 3324SOL    HW110871   4.653   5.190   5.056
 3324SOL    HW210872   4.689   5.313   4.956
 3325SOL     OW10873   0.345   3.170   6.351
 3325SOL    HW110874   0.432   3.139   6.389
 3325SOL    HW210875   0.362   3.234   6.276
 3326SOL     OW10876   4.978   1.582   1.956
 3326SOL    HW110877   4.892   1.623   1.923
 3326SOL    HW210878   5.023   1.535   1.881
 3327SOL     OW10879   2.264   5.856   1.500
 3327SOL    HW110880   2.164   5.855   1.500
 3327SOL    HW210881   2.298   5.784   1.561
 3328SOL     OW10882   3.442   1.871   1.286
 3328SOL    HW110883   3.489   1.869   1.374
 3328SOL    HW210884   3.449   1.781   1.243
 3329SOL     OW10885   6.548   0.007   5.139
 3329SOL    HW110886   6.596   0.082   5.186
 3329SOL    HW210887   6.508   6.968   5.207
 3330SOL     OW10888   6.082   3.659   2.014
 3330SOL    HW110889   5.998   3.713   2.019
 3330SOL    HW210890   6.159   3.720   1.994
 3331SOL     OW10891   2.592   2.681   1.049
 3331SOL    HW110892   2.647   2.762   1.027
 3331SOL    HW210893   2.525   2.705   1.119
 3332SOL     OW10894   5.833   5.747   0.257
 3332SOL    HW110895   5.776   5.776   0.334
 3332SOL    HW210896   5.855   5.827   0.201
 3333SOL     OW10897   4.170   5.161   6.397
 3333SOL    HW110898   4.187   5.103   6.317
 3333SOL    HW210899   4.152   5.104   6.477
 3334SOL     OW10900   3.233   3.463   1.524
 3334SOL    HW110901   3.179   3.384   1.555
 3334SOL    HW210902   3.255   3.521   1.602
 3335SOL     OW10903   4.618   5.714   5.345
 3335SOL    HW110904   4.618   5.619   5.377
 3335SOL    HW210905   4.705   5.734   5.299
 3336SOL     OW10906   3.193   5.095   5.456
 3336SOL    HW110907   3.276   5.094   5.400
 3336SOL    HW210908   3.151   5.186   5.452
 3337SOL     OW10909   3.192   2.365   1.257
 3337SOL    HW110910   3.129   2.440   1.280
 3337SOL    HW210911   3.157   2.315   1.178
 3338SOL     OW10912   6.199   3.298   1.504
 3338SOL    HW110913   6.235   3.337   1.589
 3338SOL    HW210914   6.219   3.200   1.502
 3339SOL     OW10915   0.058   6.444   6.890
 3339SOL    HW110916   0.039   6.521   6.951
 3339SOL    HW210917   0.024   6.360   6.931
 3340SOL     OW10918   3.717   0.108   1.713
 3340SOL    HW110919   3.650   0.040   1.686
 3340SOL    HW210920   3.714   0.120   1.813
 3341SOL     OW10921   1.281   0.138   3.619
 3341SOL    HW110922   1.353   0.070   3.605
 3341SOL    HW210923   1.299   0.187   3.705
 3342SOL     OW10924   2.262   0.015   3.994
 3342SOL    HW110925   2.333   0.059   3.940
 3342SOL    HW210926   2.227   0.079   4.063
 3343SOL     OW10927   4.902   2.872   0.084
 3343SOL    HW110928   4.976   2.861   0.018
 3343SOL    HW210929   4.935   2.925   0.163
 3344SOL     OW10930   5.384   4.151   4.759
 3344SOL    HW110931   5.419   4.116   4.672
 3344SOL    HW210932   5.374   4.075   4.823
 3345SOL     OW10933   2.555   3.869   5.990
 3345SOL    HW110934   2.633   3.933   5.984
 3345SOL    HW210935   2.470   3.921   5.996
 3346SOL     OW10936   0.868   1.157   1.853
 3346SOL    HW110937   0.931   1.159   1.931
 3346SOL    HW210938   0.872   1.244   1.804
 3347SOL     OW10939   0.178   4.472   3.708
 3347SOL    HW110940   0.195   4.375   3.690
 3347SOL    HW210941   0.264   4.518   3.727
 3348SOL     OW10942   3.111   3.198   3.491
 3348SOL    HW110943   3.132   3.102   3.473
 3348SOL    HW210944   3.169   3.256   3.433
 3349SOL     OW10945   0.357   4.470   4.637
 3349SOL    HW110946   0.452   4.499   4.648
 3349SOL    HW210947   0.314   4.524   4.565
 3350SOL     OW10948   1.678   1.758   6.515
 3350SOL    HW110949   1.732   1.810   6.448
 3350SOL    HW210950   1.594   1.725   6.471
 3351SOL     OW10951   5.084   0.529   1.960
 3351SOL    HW110952   5.153   0.575   2.016
 3351SOL    HW210953   5.029   0.469   2.017
 3352SOL     OW10954   6.819   3.380   0.144
 3352SOL    HW110955   6.733   3.428   0.126
 3352SOL    HW210956   6.879   3.388   0.065
 3353SOL     OW10957   1.510   6.791   2.100
 3353SOL    HW110958   1.511   6.705   2.048
 3353SOL    HW210959   1.598   6.804   2.145
 3354SOL     OW10960   6.734   2.528   3.800
 3354SOL    HW110961   6.816   2.509   3.854
 3354SOL    HW210962   6.652   2.509   3.854
 3355SOL     OW10963   0.688   1.376   0.144
 3355SOL    HW110964   0.714   1.388   0.048
 3355SOL    HW210965   0.769   1.355   0.198
 3356SOL     OW10966   2.524   2.654   0.387
 3356SOL    HW110967   2.543   2.670   0.484
 3356SOL    HW210968   2.472   2.730   0.349
 3357SOL     OW10969   2.420   4.644   1.852
 3357SOL    HW110970   2.334   4.624   1.899
 3357SOL    HW210971   2.461   4.559   1.820
 3358SOL     OW10972   4.708   6.166   1.656
 3358SOL    HW110973   4.686   6.095   1.723
 3358SOL    HW210974   4.801   6.198   1.670
 3359SOL     OW10975   0.321   0.538   3.653
 3359SOL    HW110976   0.359   0.629   3.639
 3359SOL    HW210977   0.325   0.486   3.568
 3360SOL     OW10978   0.219   1.008   1.183
 3360SOL    HW110979   0.200   1.055   1.270
 3360SOL    HW210980   0.230   0.910   1.201
 3361SOL     OW10981   6.646   4.882   2.732
 3361SOL    HW110982   6.736   4.875   2.776
 3361SOL    HW210983   6.576   4.898   2.802
 3362SOL     OW10984   3.187   1.212   4.837
 3362SOL    HW110985   3.197   1.132   4.896
 3362SOL    HW210986   3.273   1.262   4.832
 3363SOL     OW10987   0.324   0.213   6.368
 3363SOL    HW110988   0.372   0.186   6.284
 3363SOL    HW210989   0.382   0.194   6.447
 3364SOL     OW10990   0.898   5.020   5.535
 3364SOL    HW110991   0.932   5.007   5.628
 3364SOL    HW210992   0.904   5.116   5.510
 3365SOL     OW10993   0.274   2.877   4.340
 3365SOL    HW110994   0.285   2.867   4.241
 3365SOL    HW210995   0.266   2.974   4.362
 3366SOL     OW10996   6.183   0.702   4.639
 3366SOL    HW110997   6.137   0.660   4.560
 3366SOL    HW210998   6.281   0.709   4.620
 3367SOL     OW10999   2.156   2.867   1.670
 3367SOL    HW111000   2.101   2.789   1.698
 3367SOL    HW211001   2.222   2.889   1.742
 3368SOL     OW11002   0.139   5.718   6.754
 3368SOL    HW111003   0.191   5.782   6.810
 3368SOL    HW211004   0.202   5.664   6.697
 3369SOL     OW11005   3.537   1.958   6.601
 3369SOL    HW111006   3.580   1.924   6.517
 3369SOL    HW211007   3.570   1.905   6.679
 3370SOL     OW11008   6.242   6.244   5.128
 3370SOL    HW111009   6.328   6.281   5.095
 3370SOL    HW211010   6.240   6.145   5.114
 3371SOL     OW11011   1.014   4.227   2.851
 3371SOL    HW111012   0.934   4.235   2.791
 3371SOL    HW211013   1.066   4.145   2.826
 3372SOL     OW11014   0.917   1.718   2.191
 3372SOL    HW111015   1.008   1.727   2.232
 3372SOL    HW211016   0.850   1.763   2.250
 3373SOL     OW11017   6.784   1.389   4.070
 3373SOL    HW111018   6.759   1.302   4.028
 3373SOL    HW211019   6.880   1.409   4.051
 3374SOL     OW11020   3.270   5.577   4.724
 3374SOL    HW111021   3.367   5.554   4.733
 3374SOL    HW211022   3.225   5.563   4.812
 3375SOL     OW11023   4.307   4.714   4.789
 3375SOL    HW111024   4.343   4.690   4.699
 3375SOL    HW211025   4.317   4.636   4.851
 3376SOL     OW11026   4.138   3.320   2.776
 3376SOL    HW111027   4.068   3.294   2.842
 3376SOL    HW211028   4.198   3.242   2.758
 3377SOL     OW11029   0.612   6.225   4.593
 3377SOL    HW111030   0.674   6.259   4.663
 3377SOL    HW211031   0.601   6.294   4.522
 3378SOL     OW11032   6.599   0.664   1.658
 3378SOL    HW111033   6.517   0.609   1.642
 3378SOL    HW211034   6.575   0.761   1.655
 3379SOL     OW11035   0.570   4.558   5.962
 3379SOL    HW111036   0.494   4.623   5.962
 3379SOL    HW211037   0.647   4.597   6.012
 3380SOL     OW11038   6.365   5.535   6.111
 3380SOL    HW111039   6.348   5.591   6.029
 3380SOL    HW211040   6.358   5.592   6.192
 3381SOL     OW11041   1.769   2.387   0.312
 3381SOL    HW111042   1.815   2.347   0.391
 3381SOL    HW211043   1.681   2.343   0.298
 3382SOL     OW11044   0.697   1.572   0.453
 3382SOL    HW111045   0.671   1.488   0.501
 3382SOL    HW211046   0.638   1.585   0.373
 3383SOL     OW11047   5.661   5.110   2.333
 3383SOL    HW111048   5.656   5.011   2.317
 3383SOL    HW211049   5.749   5.132   2.375
 3384SOL     OW11050   3.215   3.282   5.050
 3384SOL    HW111051   3.138   3.223   5.025
 3384SOL    HW211052   3.236   3.270   5.147
 3385SOL     OW11053   0.393   4.058   3.869
 3385SOL    HW111054   0.300   4.077   3.901
 3385SOL    HW211055   0.440   4.145   3.851
 3386SOL     OW11056   5.968   3.513   5.793
 3386SOL    HW111057   6.055   3.487   5.835
 3386SOL    HW211058   5.984   3.577   5.719
 3387SOL     OW11059   2.381   1.306   2.878
 3387SOL    HW111060   2.346   1.356   2.798
 3387SOL    HW211061   2.373   1.364   2.959
 3388SOL     OW11062   5.459   3.608   1.255
 3388SOL    HW111063   5.448   3.510   1.270
 3388SOL    HW211064   5.531   3.643   1.314
 3389SOL     OW11065   4.727   4.662   4.236
 3389SOL    HW111066   4.760   4.732   4.299
 3389SOL    HW211067   4.638   4.628   4.267
 3390SOL     OW11068   4.845   3.801   5.771
 3390SOL    HW111069   4.872   3.732   5.838
 3390SOL    HW211070   4.766   3.852   5.805
 3391SOL     OW11071   5.126   2.348   4.822
 3391SOL    HW111072   5.077   2.429   4.791
 3391SOL    HW211073   5.125   2.344   4.922
 3392SOL     OW11074   2.938   0.956   3.582
 3392SOL    HW111075   2.989   1.033   3.620
 3392SOL    HW211076   2.878   0.918   3.653
 3393SOL     OW11077   6.551   6.627   0.842
 3393SOL    HW111078   6.574   6.717   0.807
 3393SOL    HW211079   6.476   6.634   0.907
 3394SOL     OW11080   5.897   3.524   1.225
 3394SOL    HW111081   5.982   3.477   1.201
 3394SOL    HW211082   5.832   3.459   1.263
 3395SOL     OW11083   6.641   3.060   4.104
 3395SOL    HW111084   6.582   2.994   4.059
 3395SOL    HW211085   6.701   3.103   4.036
 3396SOL     OW11086   0.036   3.098   3.822
 3396SOL    HW111087   0.111   3.114   3.887
 3396SOL    HW211088   0.040   3.003   3.790
 3397SOL     OW11089   3.194   1.353   5.251
 3397SOL    HW111090   3.278   1.315   5.290
 3397SOL    HW211091   3.123   1.282   5.251
 3398SOL     OW11092   1.204   6.821   4.371
 3398SOL    HW111093   1.204   6.804   4.273
 3398SOL    HW211094   1.209   6.734   4.420
 3399SOL     OW11095   4.871   4.418   3.863
 3399SOL    HW111096   4.869   4.450   3.958
 3399SOL    HW211097   4.811   4.339   3.852
 3400SOL     OW11098   4.281   1.302   5.498
 3400SOL    HW111099   4.321   1.263   5.581
 3400SOL    HW211100   4.321   1.392   5.480
 3401SOL     OW11101   0.274   3.866   0.796
 3401SOL    HW111102   0.235   3.952   0.765
 3401SOL    HW211103   0.363   3.882   0.838
 3402SOL     OW11104   4.909   5.936   0.581
 3402SOL    HW111105   4.843   5.989   0.528
 3402SOL    HW211106   4.961   5.876   0.520
 3403SOL     OW11107   3.583   0.541   4.485
 3403SOL    HW111108   3.535   0.586   4.411
 3403SOL    HW211109   3.597   0.445   4.462
 3404SOL     OW11110   3.885   1.395   0.688
 3404SOL    HW111111   3.912   1.438   0.774
 3404SOL    HW211112   3.868   1.465   0.619
 3405SOL     OW11113   6.302   3.396   4.872
 3405SOL    HW111114   6.307   3.326   4.943
 3405SOL    HW211115   6.223   3.455   4.889
 3406SOL     OW11116   1.502   4.198   1.828
 3406SOL    HW111117   1.597   4.177   1.848
 3406SOL    HW211118   1.497   4.256   1.746
 3407SOL     OW11119   1.865   4.915   1.474
 3407SOL    HW111120   1.913   4.914   1.386
 3407SOL    HW211121   1.794   4.844   1.473
 3408SOL     OW11122   4.710   4.284   4.153
 3408SOL    HW111123   4.704   4.302   4.251
 3408SOL    HW211124   4.729   4.370   4.105
 3409SOL     OW11125   3.645   6.728   5.595
 3409SOL    HW111126   3.564   6.680   5.629
 3409SOL    HW211127   3.717   6.726   5.665
 3410SOL     OW11128   5.955   5.822   6.789
 3410SOL    HW111129   5.855   5.817   6.800
 3410SOL    HW211130   5.976   5.850   6.695
 3411SOL     OW11131   0.009   2.820   2.153
 3411SOL    HW111132   7.004   2.781   2.065
 3411SOL    HW211133   0.075   2.893   2.137
 3412SOL     OW11134   4.456   3.059   6.775
 3412SOL    HW111135   4.377   3.002   6.793
 3412SOL    HW211136   4.520   3.011   6.715
 3413SOL     OW11137   4.408   1.169   2.630
 3413SOL    HW111138   4.473   1.245   2.636
 3413SOL    HW211139   4.434   1.109   2.554
 3414SOL     OW11140   2.179   1.078   5.226
 3414SOL    HW111141   2.132   1.135   5.158
 3414SOL    HW211142   2.251   1.025   5.181
 3415SOL     OW11143   1.561   4.382   4.774
 3415SOL    HW111144   1.653   4.398   4.738
 3415SOL    HW211145   1.544   4.284   4.783
 3416SOL     OW11146   6.469   4.725   6.357
 3416SOL    HW111147   6.544   4.783   6.325
 3416SOL    HW211148   6.397   4.782   6.396
 3417SOL     OW11149   6.555   5.861   2.865
 3417SOL    HW111150   6.542   5.895   2.958
 3417SOL    HW211151   6.478   5.802   2.840
 3418SOL     OW11152   4.368   0.270   4.724
 3418SOL    HW111153   4.431   0.270   4.802
 3418SOL    HW211154   4.421   0.264   4.639
 3419SOL     OW11155   3.167   5.738   5.716
 3419SOL    HW111156   3.253   5.687   5.709
 3419SOL    HW211157   3.097   5.680   5.757
 3420SOL     OW11158   5.363   2.426   3.703
 3420SOL    HW111159   5.450   2.461   3.671
 3420SOL    HW211160   5.379   2.360   3.777
 3421SOL     OW11161   6.349   0.216   6.080
 3421SOL    HW111162   6.395   0.304   6.070
 3421SOL    HW211163   6.261   0.219   6.033
 3422SOL     OW11164   2.418   6.754   1.385
 3422SOL    HW111165   2.464   6.665   1.381
 3422SOL    HW211166   2.413   6.785   1.480
 3423SOL     OW11167   2.383   0.243   0.491
 3423SOL    HW111168   2.358   0.264   0.397
 3423SOL    HW211169   2.462   0.298   0.519
 3424SOL     OW11170   3.119   0.211   2.325
 3424SOL    HW111171   3.166   0.295   2.296
 3424SOL    HW211172   3.173   0.132   2.298
 3425SOL     OW11173   4.924   4.491   2.565
 3425SOL    HW111174   4.826   4.480   2.552
 3425SOL    HW211175   4.973   4.437   2.497
 3426SOL     OW11176   3.539   2.930   0.096
 3426SOL    HW111177   3.472   3.003   0.109
 3426SOL    HW211178   3.585   2.943   0.008
 3427SOL     OW11179   6.861   6.302   0.108
 3427SOL    HW111180   6.776   6.249   0.101
 3427SOL    HW211181   6.929   6.266   0.044
 3428SOL     OW11182   3.884   4.823   1.532
 3428SOL    HW111183   3.874   4.812   1.631
 3428SOL    HW211184   3.945   4.900   1.513
 3429SOL     OW11185   0.376   1.604   7.017
 3429SOL    HW111186   0.440   1.634   6.946
 3429SOL    HW211187   0.290   1.654   7.007
 3430SOL     OW11188   0.633   6.918   6.316
 3430SOL    HW111189   0.694   6.952   6.244
 3430SOL    HW211190   0.604   6.825   6.294
 3431SOL     OW11191   2.543   6.697   0.846
 3431SOL    HW111192   2.626   6.717   0.794
 3431SOL    HW211193   2.537   6.599   0.862
 3432SOL     OW11194   2.949   2.451   6.011
 3432SOL    HW111195   2.916   2.518   5.946
 3432SOL    HW211196   3.032   2.485   6.056
 3433SOL     OW11197   1.527   6.868   6.365
 3433SOL    HW111198   1.474   6.881   6.281
 3433SOL    HW211199   1.553   6.771   6.373
 3434SOL     OW11200   3.672   2.624   1.089
 3434SOL    HW111201   3.759   2.605   1.136
 3434SOL    HW211202   3.685   2.614   0.990
 3435SOL     OW11203   0.424   2.056   2.109
 3435SOL    HW111204   0.335   2.068   2.152
 3435SOL    HW211205   0.496   2.063   2.179
 3436SOL     OW11206   4.182   6.439   5.214
 3436SOL    HW111207   4.197   6.475   5.121
 3436SOL    HW211208   4.264   6.390   5.244
 3437SOL     OW11209   4.229   0.682   6.486
 3437SOL    HW111210   4.235   0.685   6.586
 3437SOL    HW211211   4.320   0.668   6.448
 3438SOL     OW11212   1.237   2.549   6.624
 3438SOL    HW111213   1.315   2.587   6.575
 3438SOL    HW211214   1.251   2.558   6.723
 3439SOL     OW11215   2.530   0.492   5.286
 3439SOL    HW111216   2.460   0.423   5.309
 3439SOL    HW211217   2.612   0.446   5.253
 3440SOL     OW11218   4.834   3.868   1.411
 3440SOL    HW111219   4.735   3.868   1.397
 3440SOL    HW211220   4.857   3.807   1.488
 3441SOL     OW11221   5.297   0.596   3.387
 3441SOL    HW111222   5.344   0.510   3.407
 3441SOL    HW211223   5.301   0.614   3.289
 3442SOL     OW11224   2.452   5.165   2.686
 3442SOL    HW111225   2.443   5.070   2.654
 3442SOL    HW211226   2.512   5.168   2.766
 3443SOL     OW11227   5.991   0.667   2.461
 3443SOL    HW111228   6.074   0.617   2.487
 3443SOL    HW211229   5.916   0.602   2.450
 3444SOL     OW11230   5.312   4.824   6.995
 3444SOL    HW111231   5.254   4.885   6.940
 3444SOL    HW211232   5.319   4.735   6.950
 3445SOL     OW11233   5.844   4.672   4.036
 3445SOL    HW111234   5.884   4.583   4.010
 3445SOL    HW211235   5.910   4.744   4.017
 3446SOL     OW11236   6.278   0.869   3.192
 3446SOL    HW111237   6.299   0.792   3.252
 3446SOL    HW211238   6.322   0.952   3.227
 3447SOL     OW11239   4.690   4.532   1.077
 3447SOL    HW111240   4.788   4.553   1.084
 3447SOL    HW211241   4.645   4.602   1.021
 3448SOL     OW11242   3.148   7.001   0.945
 3448SOL    HW111243   3.051   6.977   0.953
 3448SOL    HW211244   3.156   0.078   0.939
 3449SOL     OW11245   5.514   6.502   3.157
 3449SOL    HW111246   5.555   6.561   3.228
 3449SOL    HW211247   5.439   6.450   3.197
 3450SOL     OW11248   0.797   2.800   0.751
 3450SOL    HW111249   0.843   2.847   0.826
 3450SOL    HW211250   0.851   2.810   0.667
 3451SOL     OW11251   0.332   5.470   3.292
 3451SOL    HW111252   0.323   5.509   3.384
 3451SOL    HW211253   0.397   5.395   3.293
 3452SOL     OW11254   5.985   1.699   0.065
 3452SOL    HW111255   5.907   1.693   0.127
 3452SOL    HW211256   6.067   1.661   0.110
 3453SOL     OW11257   6.489   5.739   5.452
 3453SOL    HW111258   6.579   5.759   5.414
 3453SOL    HW211259   6.487   5.763   5.549
 3454SOL     OW11260   2.102   0.363   5.594
 3454SOL    HW111261   2.054   0.296   5.650
 3454SOL    HW211262   2.085   0.455   5.630
 3455SOL     OW11263   1.583   3.300   4.550
 3455SOL    HW111264   1.597   3.329   4.455
 3455SOL    HW211265   1.647   3.225   4.571
 3456SOL     OW11266   5.357   6.314   1.908
 3456SOL    HW111267   5.300   6.396   1.919
 3456SOL    HW211268   5.396   6.313   1.816
 3457SOL     OW11269   2.451   5.325   4.029
 3457SOL    HW111270   2.413   5.233   4.025
 3457SOL    HW211271   2.551   5.320   4.016
 3458SOL     OW11272   5.031   6.737   6.917
 3458SOL    HW111273   5.004   6.812   6.857
 3458SOL    HW211274   5.071   6.773   7.001
 3459SOL     OW11275   0.030   4.443   3.395
 3459SOL    HW111276   7.001   4.385   3.332
 3459SOL    HW211277   0.063   4.524   3.347
 3460SOL     OW11278   3.029   3.473   0.516
 3460SOL    HW111279   2.967   3.493   0.592
 3460SOL    HW211280   2.978   3.425   0.444
 3461SOL     OW11281   4.611   5.705   3.912
 3461SOL    HW111282   4.696   5.659   3.887
 3461SOL    HW211283   4.608   5.795   3.868
 3462SOL     OW11284   6.305   3.793   1.978
 3462SOL    HW111285   6.350   3.856   1.915
 3462SOL    HW211286   6.341   3.807   2.070
 3463SOL     OW11287   1.193   3.295   2.697
 3463SOL    HW111288   1.251   3.235   2.752
 3463SOL    HW211289   1.099   3.263   2.700
 3464SOL     OW11290   6.070   2.343   6.954
 3464SOL    HW111291   6.133   2.266   6.949
 3464SOL    HW211292   6.025   2.355   6.865
 3465SOL     OW11293   1.359   3.262   2.114
 3465SOL    HW111294   1.378   3.256   2.212
 3465SOL    HW211295   1.270   3.306   2.100
 3466SOL     OW11296   6.682   5.049   5.757
 3466SOL    HW111297   6.624   5.128   5.736
 3466SOL    HW211298   6.771   5.082   5.791
 3467SOL     OW11299   1.732   1.771   0.648
 3467SOL    HW111300   1.729   1.842   0.718
 3467SOL    HW211301   1.815   1.716   0.660
 3468SOL     OW11302   5.872   1.511   2.962
 3468SOL    HW111303   5.902   1.494   3.056
 3468SOL    HW211304   5.852   1.608   2.950
 3469SOL     OW11305   4.877   0.483   4.811
 3469SOL    HW111306   4.862   0.400   4.865
 3469SOL    HW211307   4.828   0.560   4.853
 3470SOL     OW11308   0.312   2.647   2.063
 3470SOL    HW111309   0.246   2.577   2.034
 3470SOL    HW211310   0.321   2.717   1.991
 3471SOL     OW11311   4.479   4.504   3.534
 3471SOL    HW111312   4.503   4.432   3.468
 3471SOL    HW211313   4.516   4.481   3.624
 3472SOL     OW11314   3.434   1.139   1.728
 3472SOL    HW111315   3.422   1.040   1.736
 3472SOL    HW211316   3.346   1.181   1.707
 3473SOL     OW11317   5.822   3.216   2.753
 3473SOL    HW111318   5.756   3.224   2.827
 3473SOL    HW211319   5.792   3.145   2.689
 3474SOL     OW11320   6.929   3.972   2.547
 3474SOL    HW111321   7.000   3.967   2.477
 3474SOL    HW211322   6.877   4.057   2.536
 3475SOL     OW11323   0.828   4.657   4.996
 3475SOL    HW111324   0.785   4.726   4.938
 3475SOL    HW211325   0.860   4.701   5.081
 3476SOL     OW11326   1.880   2.062   2.514
 3476SOL    HW111327   1.845   2.040   2.424
 3476SOL    HW211328   1.887   1.979   2.569
 3477SOL     OW11329   1.002   4.244   0.873
 3477SOL    HW111330   1.042   4.258   0.783
 3477SOL    HW211331   1.006   4.329   0.925
 3478SOL     OW11332   2.838   6.200   0.081
 3478SOL    HW111333   2.878   6.166   7.018
 3478SOL    HW211334   2.898   6.269   0.121
 3479SOL     OW11335   0.698   1.075   3.108
 3479SOL    HW111336   0.630   1.002   3.118
 3479SOL    HW211337   0.737   1.096   3.198
 3480SOL     OW11338   0.415   6.499   5.323
 3480SOL    HW111339   0.421   6.405   5.359
 3480SOL    HW211340   0.335   6.544   5.361
 3481SOL     OW11341   5.393   0.546   0.374
 3481SOL    HW111342   5.340   0.475   0.419
 3481SOL    HW211343   5.343   0.633   0.377
 3482SOL     OW11344   6.035   1.636   2.097
 3482SOL    HW111345   5.971   1.575   2.144
 3482SOL    HW211346   6.106   1.666   2.160
 3483SOL     OW11347   5.362   1.799   2.670
 3483SOL    HW111348   5.341   1.785   2.573
 3483SOL    HW211349   5.393   1.712   2.710
 3484SOL     OW11350   1.262   2.991   0.214
 3484SOL    HW111351   1.335   2.924   0.202
 3484SOL    HW211352   1.209   2.998   0.129
 3485SOL     OW11353   1.274   2.318   4.413
 3485SOL    HW111354   1.309   2.353   4.500
 3485SOL    HW211355   1.350   2.305   4.349
 3486SOL     OW11356   1.637   0.561   3.571
 3486SOL    HW111357   1.591   0.503   3.504
 3486SOL    HW211358   1.736   0.558   3.555
 3487SOL     OW11359   6.316   1.974   0.339
 3487SOL    HW111360   6.252   2.044   0.371
 3487SOL    HW211361   6.326   1.981   0.240
 3488SOL     OW11362   5.571   1.049   5.242
 3488SOL    HW111363   5.521   1.102   5.173
 3488SOL    HW211364   5.642   0.995   5.197
 3489SOL     OW11365   3.986   7.018   2.253
 3489SOL    HW111366   3.931   6.945   2.294
 3489SOL    HW211367   4.027   6.985   2.168
 3490SOL     OW11368   3.541   4.498   1.300
 3490SOL    HW111369   3.524   4.544   1.213
 3490SOL    HW211370   3.627   4.531   1.339
 3491SOL     OW11371   3.960   3.047   6.084
 3491SOL    HW111372   4.019   3.100   6.145
 3491SOL    HW211373   3.997   3.050   5.991
 3492SOL     OW11374   6.019   4.371   0.610
 3492SOL    HW111375   6.058   4.356   0.701
 3492SOL    HW211376   5.993   4.283   0.570
 3493SOL     OW11377   5.767   4.019   4.044
 3493SOL    HW111378   5.712   4.000   4.125
 3493SOL    HW211379   5.714   4.073   3.979
 3494SOL     OW11380   2.586   0.847   2.077
 3494SOL    HW111381   2.610   0.937   2.038
 3494SOL    HW211382   2.599   0.849   2.176
 3495SOL     OW11383   7.017   4.118   2.022
 3495SOL    HW111384   0.061   4.189   2.045
 3495SOL    HW211385   0.011   4.087   1.928
 3496SOL     OW11386   6.130   5.574   0.750
 3496SOL    HW111387   6.054   5.592   0.687
 3496SOL    HW211388   6.108   5.614   0.839
 3497SOL     OW11389   2.491   1.455   3.941
 3497SOL    HW111390   2.465   1.548   3.966
 3497SOL    HW211391   2.589   1.443   3.954
 3498SOL     OW11392   3.121   1.008   2.064
 3498SOL    HW111393   3.145   0.957   1.981
 3498SOL    HW211394   3.185   0.986   2.137
 3499SOL     OW11395   6.105   4.645   4.374
 3499SOL    HW111396   6.117   4.675   4.469
 3499SOL    HW211397   6.008   4.634   4.355
 3500SOL     OW11398   1.684   3.409   3.172
 3500SOL    HW111399   1.662   3.466   3.093
 3500SOL    HW211400   1.648   3.452   3.255
 3501SOL     OW11401   3.409   6.630   5.613
 3501SOL    HW111402   3.329   6.678   5.577
 3501SOL    HW211403   3.380   6.569   5.687
 3502SOL     OW11404   6.749   2.502   1.404
 3502SOL    HW111405   6.726   2.569   1.334
 3502SOL    HW211406   6.705   2.415   1.383
 3503SOL     OW11407   6.153   6.203   5.430
 3503SOL    HW111408   6.243   6.176   5.396
 3503SOL    HW211409   6.089   6.207   5.353
 3504SOL     OW11410   2.425   0.686   1.908
 3504SOL    HW111411   2.486   0.747   1.959
 3504SOL    HW211412   2.444   0.591   1.935
 3505SOL     OW11413   5.231   4.231   5.440
 3505SOL    HW111414   5.253   4.278   5.526
 3505SOL    HW211415   5.172   4.290   5.385
 3506SOL     OW11416   5.410   4.424   5.018
 3506SOL    HW111417   5.462   4.347   4.980
 3506SOL    HW211418   5.313   4.397   5.025
 3507SOL     OW11419   2.965   0.571   0.512
 3507SOL    HW111420   2.880   0.557   0.562
 3507SOL    HW211421   3.037   0.600   0.576
 3508SOL     OW11422   1.980   1.254   5.968
 3508SOL    HW111423   1.922   1.182   5.930
 3508SOL    HW211424   1.924   1.319   6.019
 3509SOL     OW11425   5.757   6.736   6.873
 3509SOL    HW111426   5.657   6.743   6.879
 3509SOL    HW211427   5.784   6.641   6.888
 3510SOL     OW11428   1.558   0.878   1.976
 3510SOL    HW111429   1.619   0.857   1.899
 3510SOL    HW211430   1.548   0.796   2.033
 3511SOL     OW11431   1.795   4.197   1.692
 3511SOL    HW111432   1.797   4.268   1.622
 3511SOL    HW211433   1.879   4.200   1.745
 3512SOL     OW11434   0.318   4.330   0.705
 3512SOL    HW111435   0.280   4.239   0.724
 3512SOL    HW211436   0.348   4.333   0.610
 3513SOL     OW11437   5.898   2.213   0.563
 3513SOL    HW111438   5.811   2.188   0.607
 3513SOL    HW211439   5.922   2.144   0.495
 3514SOL     OW11440   0.032   0.912   1.815
 3514SOL    HW111441   0.125   0.939   1.838
 3514SOL    HW211442   6.990   0.971   1.862
 3515SOL     OW11443   4.530   5.967   3.144
 3515SOL    HW111444   4.536   6.005   3.052
 3515SOL    HW211445   4.485   6.032   3.205
 3516SOL     OW11446   4.429   6.529   0.681
 3516SOL    HW111447   4.348   6.563   0.729
 3516SOL    HW211448   4.501   6.510   0.747
 3517SOL     OW11449   6.546   1.047   1.600
 3517SOL    HW111450   6.619   0.992   1.561
 3517SOL    HW211451   6.579   1.091   1.684
 3518SOL     OW11452   5.273   2.782   5.172
 3518SOL    HW111453   5.191   2.760   5.226
 3518SOL    HW211454   5.352   2.786   5.233
 3519SOL     OW11455   1.704   6.954   5.701
 3519SOL    HW111456   1.676   7.022   5.633
 3519SOL    HW211457   1.646   6.873   5.693
 3520SOL     OW11458   3.512   6.198   0.101
 3520SOL    HW111459   3.562   6.198   0.015
 3520SOL    HW211460   3.427   6.145   0.090
 3521SOL     OW11461   4.670   2.827   6.903
 3521SOL    HW111462   4.760   2.848   6.942
 3521SOL    HW211463   4.667   2.859   6.808
 3522SOL     OW11464   0.093   5.643   0.266
 3522SOL    HW111465   0.077   5.739   0.244
 3522SOL    HW211466   0.040   5.586   0.203
 3523SOL     OW11467   1.171   4.531   4.941
 3523SOL    HW111468   1.183   4.458   5.008
 3523SOL    HW211469   1.232   4.608   4.964
 3524SOL     OW11470   4.660   1.850   2.053
 3524SOL    HW111471   4.565   1.852   2.086
 3524SOL    HW211472   4.719   1.897   2.118
 3525SOL     OW11473   6.735   3.632   3.768
 3525SOL    HW111474   6.742   3.625   3.668
 3525SOL    HW211475   6.653   3.682   3.793
 3526SOL     OW11476   2.000   6.753   3.862
 3526SOL    HW111477   2.029   6.728   3.770
 3526SOL    HW211478   2.046   6.695   3.929
 3527SOL     OW11479   5.728   3.485   6.730
 3527SOL    HW111480   5.800   3.463   6.665
 3527SOL    HW211481   5.654   3.533   6.683
 3528SOL     OW11482   1.760   6.593   5.255
 3528SOL    HW111483   1.704   6.547   5.186
 3528SOL    HW211484   1.830   6.649   5.211
 3529SOL     OW11485   3.864   0.210   0.885
 3529SOL    HW111486   3.915   0.154   0.820
 3529SOL    HW211487   3.819   0.151   0.952
 3530SOL     OW11488   6.477   5.704   0.955
 3530SOL    HW111489   6.499   5.780   1.017
 3530SOL    HW211490   6.437   5.741   0.871
 3531SOL     OW11491   5.274   2.237   0.482
 3531SOL    HW111492   5.320   2.279   0.404
 3531SOL    HW211493   5.176   2.231   0.463
 3532SOL     OW11494   2.519   0.214   1.923
 3532SOL    HW111495   2.573   0.156   1.984
 3532SOL    HW211496   2.517   0.175   1.832
 3533SOL     OW11497   0.391   1.391   2.454
 3533SOL    HW111498   0.318   1.337   2.413
 3533SOL    HW211499   0.431   1.342   2.531
 3534SOL     OW11500   0.704   1.790   0.640
 3534SOL    HW111501   0.707   1.727   0.562
 3534SOL    HW211502   0.612   1.828   0.648
 3535SOL     OW11503   1.884   5.240   6.322
 3535SOL    HW111504   1.818   5.166   6.325
 3535SOL    HW211505   1.838   5.327   6.337
 3536SOL     OW11506   3.442   1.581   3.008
 3536SOL    HW111507   3.502   1.554   2.933
 3536SOL    HW211508   3.467   1.672   3.041
 3537SOL     OW11509   2.178   5.738   2.768
 3537SOL    HW111510   2.134   5.793   2.696
 3537SOL    HW211511   2.277   5.739   2.754
 3538SOL     OW11512   2.254   6.420   5.435
 3538SOL    HW111513   2.231   6.370   5.352
 3538SOL    HW211514   2.350   6.407   5.457
 3539SOL     OW11515   3.685   3.362   5.491
 3539SOL    HW111516   3.751   3.375   5.565
 3539SOL    HW211517   3.733   3.337   5.408
 3540SOL     OW11518   1.877   3.037   4.895
 3540SOL    HW111519   1.952   3.086   4.850
 3540SOL    HW211520   1.906   2.945   4.918
 3541SOL     OW11521   2.157   2.662   6.039
 3541SOL    HW111522   2.135   2.666   5.941
 3541SOL    HW211523   2.230   2.726   6.060
 3542SOL     OW11524   1.308   5.681   3.464
 3542SOL    HW111525   1.339   5.650   3.374
 3542SOL    HW211526   1.217   5.723   3.455
 3543SOL     OW11527   0.382   2.797   4.720
 3543SOL    HW111528   0.332   2.721   4.760
 3543SOL    HW211529   0.464   2.816   4.774
 3544SOL     OW11530   1.785   4.013   6.230
 3544SOL    HW111531   1.706   4.073   6.217
 3544SOL    HW211532   1.761   3.941   6.296
 3545SOL     OW11533   4.413   5.326   6.662
 3545SOL    HW111534   4.404   5.425   6.664
 3545SOL    HW211535   4.404   5.293   6.568
 3546SOL     OW11536   1.763   4.742   3.952
 3546SOL    HW111537   1.802   4.713   4.039
 3546SOL    HW211538   1.708   4.824   3.966
 3547SOL     OW11539   6.025   4.857   3.918
 3547SOL    HW111540   5.978   4.817   3.839
 3547SOL    HW211541   6.121   4.829   3.917
 3548SOL     OW11542   5.851   1.546   6.181
 3548SOL    HW111543   5.775   1.565   6.118
 3548SOL    HW211544   5.825   1.573   6.273
 3549SOL     OW11545   6.623   4.281   5.750
 3549SOL    HW111546   6.697   4.279   5.682
 3549SOL    HW211547   6.639   4.210   5.819
 3550SOL     OW11548   5.117   2.003   2.529
 3550SOL    HW111549   5.133   2.090   2.481
 3550SOL    HW211550   5.132   2.016   2.627
 3551SOL     OW11551   4.226   6.755   2.976
 3551SOL    HW111552   4.268   6.828   3.029
 3551SOL    HW211553   4.133   6.781   2.951
 3552SOL     OW11554   5.079   6.458   1.363
 3552SOL    HW111555   5.124   6.491   1.446
 3552SOL    HW211556   5.148   6.436   1.294
 3553SOL     OW11557   5.722   3.734   1.771
 3553SOL    HW111558   5.675   3.686   1.845
 3553SOL    HW211559   5.762   3.667   1.708
 3554SOL     OW11560   3.878   2.470   1.208
 3554SOL    HW111561   3.814   2.407   1.253
 3554SOL    HW211562   3.892   2.441   1.114
 3555SOL     OW11563   1.182   4.099   3.642
 3555SOL    HW111564   1.255   4.030   3.642
 3555SOL    HW211565   1.166   4.130   3.549
 3556SOL     OW11566   4.188   0.780   4.295
 3556SOL    HW111567   4.196   0.681   4.299
 3556SOL    HW211568   4.149   0.814   4.380
 3557SOL     OW11569   0.543   0.447   3.759
 3557SOL    HW111570   0.533   0.374   3.826
 3557SOL    HW211571   0.454   0.468   3.718
 3558SOL     OW11572   1.567   5.585   0.808
 3558SOL    HW111573   1.661   5.615   0.824
 3558SOL    HW211574   1.505   5.663   0.820
 3559SOL     OW11575   0.875   6.723   4.831
 3559SOL    HW111576   0.960   6.777   4.830
 3559SOL    HW211577   0.871   6.668   4.748
 3560SOL     OW11578   1.388   5.666   1.244
 3560SOL    HW111579   1.428   5.581   1.278
 3560SOL    HW211580   1.318   5.698   1.308
 3561SOL     OW11581   3.873   4.956   5.251
 3561SOL    HW111582   3.934   4.881   5.277
 3561SOL    HW211583   3.901   5.040   5.297
 3562SOL     OW11584   5.410   0.779   4.499
 3562SOL    HW111585   5.436   0.814   4.589
 3562SOL    HW211586   5.340   0.709   4.510
 3563SOL     OW11587   4.951   0.519   1.245
 3563SOL    HW111588   5.035   0.568   1.223
 3563SOL    HW211589   4.874   0.561   1.197
 3564SOL     OW11590   1.521   4.674   4.203
 3564SOL    HW111591   1.495   4.592   4.253
 3564SOL    HW211592   1.593   4.723   4.253
 3565SOL     OW11593   3.568   6.687   4.940
 3565SOL    HW111594   3.579   6.687   4.841
 3565SOL    HW211595   3.549   6.780   4.972
 3566SOL     OW11596   6.590   3.600   6.517
 3566SOL    HW111597   6.514   3.537   6.534
 3566SOL    HW211598   6.673   3.566   6.559
 3567SOL     OW11599   0.888   2.913   7.020
 3567SOL    HW111600   0.896   2.815   0.017
 3567SOL    HW211601   0.856   2.961   0.079
 3568SOL     OW11602   4.758   5.520   3.790
 3568SOL    HW111603   4.782   5.495   3.696
 3568SOL    HW211604   4.676   5.469   3.817
 3569SOL     OW11605   2.721   2.732   6.294
 3569SOL    HW111606   2.792   2.786   6.250
 3569SOL    HW211607   2.761   2.650   6.335
 3570SOL     OW11608   5.594   0.475   4.732
 3570SOL    HW111609   5.567   0.473   4.635
 3570SOL    HW211610   5.586   0.569   4.766
 3571SOL     OW11611   2.269   0.589   4.861
 3571SOL    HW111612   2.348   0.536   4.892
 3571SOL    HW211613   2.263   0.674   4.913
 3572SOL     OW11614   5.519   3.651   2.780
 3572SOL    HW111615   5.539   3.652   2.682
 3572SOL    HW211616   5.451   3.720   2.801
 3573SOL     OW11617   5.663   3.825   2.402
 3573SOL    HW111618   5.730   3.893   2.371
 3573SOL    HW211619   5.708   3.758   2.461
 3574SOL     OW11620   1.355   3.841   0.261
 3574SOL    HW111621   1.291   3.766   0.280
 3574SOL    HW211622   1.333   3.920   0.318
 3575SOL     OW11623   5.093   6.113   1.831
 3575SOL    HW111624   5.068   6.113   1.928
 3575SOL    HW211625   5.187   6.080   1.822
 3576SOL     OW11626   0.669   2.058   0.421
 3576SOL    HW111627   0.581   2.074   0.466
 3576SOL    HW211628   0.713   2.146   0.401
 3577SOL     OW11629   1.954   2.715   6.205
 3577SOL    HW111630   1.882   2.668   6.153
 3577SOL    HW211631   2.041   2.708   6.156
 3578SOL     OW11632   4.687   2.136   1.018
 3578SOL    HW111633   4.759   2.080   1.059
 3578SOL    HW211634   4.679   2.222   1.069
 3579SOL     OW11635   6.910   2.738   2.594
 3579SOL    HW111636   6.826   2.684   2.598
 3579SOL    HW211637   6.965   2.708   2.516
 3580SOL     OW11638   6.456   3.195   0.138
 3580SOL    HW111639   6.518   3.117   0.144
 3580SOL    HW211640   6.417   3.214   0.229
 3581SOL     OW11641   0.678   6.293   2.970
 3581SOL    HW111642   0.678   6.379   2.920
 3581SOL    HW211643   0.657   6.218   2.906
 3582SOL     OW11644   1.846   4.936   5.280
 3582SOL    HW111645   1.870   4.881   5.361
 3582SOL    HW211646   1.887   4.896   5.199
 3583SOL     OW11647   1.369   4.717   0.569
 3583SOL    HW111648   1.370   4.622   0.539
 3583SOL    HW211649   1.462   4.755   0.564
 3584SOL     OW11650   5.635   4.586   5.580
 3584SOL    HW111651   5.541   4.584   5.545
 3584SOL    HW211652   5.688   4.653   5.528
 3585SOL     OW11653   3.349   1.800   4.913
 3585SOL    HW111654   3.335   1.823   5.009
 3585SOL    HW211655   3.260   1.786   4.869
 3586SOL     OW11656   0.045   2.339   4.876
 3586SOL    HW111657   0.053   2.436   4.897
 3586SOL    HW211658   0.127   2.308   4.828
 3587SOL     OW11659   2.847   5.439   6.174
 3587SOL    HW111660   2.807   5.441   6.266
 3587SOL    HW211661   2.882   5.530   6.152
 3588SOL     OW11662   6.679   3.452   5.044
 3588SOL    HW111663   6.643   3.536   5.085
 3588SOL    HW211664   6.775   3.464   5.022
 3589SOL     OW11665   6.345   6.969   6.688
 3589SOL    HW111666   6.340   0.037   6.729
 3589SOL    HW211667   6.329   6.899   6.758
 3590SOL     OW11668   0.310   3.849   0.295
 3590SOL    HW111669   0.383   3.811   0.351
 3590SOL    HW211670   0.279   3.781   0.228
 3591SOL     OW11671   5.311   3.775   0.956
 3591SOL    HW111672   5.232   3.720   0.983
 3591SOL    HW211673   5.311   3.787   0.857
 3592SOL     OW11674   0.482   6.705   2.757
 3592SOL    HW111675   0.524   6.779   2.810
 3592SOL    HW211676   0.437   6.641   2.819
 3593SOL     OW11677   0.910   4.293   5.884
 3593SOL    HW111678   1.007   4.319   5.879
 3593SOL    HW211679   0.854   4.370   5.853
 3594SOL     OW11680   5.251   0.521   4.095
 3594SOL    HW111681   5.182   0.554   4.031
 3594SOL    HW211682   5.284   0.596   4.152
 3595SOL     OW11683   5.734   5.364   6.727
 3595SOL    HW111684   5.655   5.395   6.673
 3595SOL    HW211685   5.809   5.429   6.717
 3596SOL     OW11686   4.427   2.448   3.705
 3596SOL    HW111687   4.494   2.450   3.632
 3596SOL    HW211688   4.405   2.541   3.734
 3597SOL     OW11689   1.857   2.702   5.692
 3597SOL    HW111690   1.775   2.734   5.739
 3597SOL    HW211691   1.930   2.769   5.702
 3598SOL     OW11692   1.937   6.279   5.163
 3598SOL    HW111693   1.937   6.236   5.073
 3598SOL    HW211694   1.843   6.285   5.197
 3599SOL     OW11695   4.287   2.407   6.991
 3599SOL    HW111696   4.318   2.372   0.057
 3599SOL    HW211697   4.334   2.493   6.972
 3600SOL     OW11698   1.093   3.581   1.205
 3600SOL    HW111699   1.104   3.677   1.178
 3600SOL    HW211700   1.164   3.556   1.270
 3601SOL     OW11701   5.623   2.232   6.053
 3601SOL    HW111702   5.665   2.262   5.967
 3601SOL    HW211703   5.541   2.286   6.071
 3602SOL     OW11704   1.625   3.263   0.366
 3602SOL    HW111705   1.600   3.323   0.290
 3602SOL    HW211706   1.545   3.209   0.393
 3603SOL     OW11707   3.730   1.044   5.525
 3603SOL    HW111708   3.797   1.117   5.537
 3603SOL    HW211709   3.657   1.054   5.593
 3604SOL     OW11710   6.109   0.669   3.831
 3604SOL    HW111711   6.149   0.756   3.802
 3604SOL    HW211712   6.124   0.600   3.761
 3605SOL     OW11713   1.284   5.680   4.107
 3605SOL    HW111714   1.240   5.691   4.018
 3605SOL    HW211715   1.224   5.630   4.169
 3606SOL     OW11716   1.566   6.846   2.791
 3606SOL    HW111717   1.512   6.769   2.825
 3606SOL    HW211718   1.568   6.844   2.691
 3607SOL     OW11719   5.409   2.986   2.166
 3607SOL    HW111720   5.481   3.046   2.201
 3607SOL    HW211721   5.325   3.039   2.152
 3608SOL     OW11722   5.187   1.650   3.849
 3608SOL    HW111723   5.125   1.712   3.801
 3608SOL    HW211724   5.279   1.658   3.810
 3609SOL     OW11725   2.038   0.032   4.456
 3609SOL    HW111726   2.070   0.126   4.462
 3609SOL    HW211727   1.971   0.024   4.383
 3610SOL     OW11728   1.674   0.044   5.379
 3610SOL    HW111729   1.768   0.075   5.367
 3610SOL    HW211730   1.673   6.966   5.380
 3611SOL     OW11731   4.360   4.622   4.040
 3611SOL    HW111732   4.303   4.684   4.095
 3611SOL    HW211733   4.372   4.660   3.949
 3612SOL     OW11734   6.643   0.937   6.507
 3612SOL    HW111735   6.606   1.000   6.439
 3612SOL    HW211736   6.618   0.843   6.483
 3613SOL     OW11737   3.996   5.056   1.946
 3613SOL    HW111738   3.897   5.064   1.961
 3613SOL    HW211739   4.022   4.960   1.954
 3614SOL     OW11740   2.974   3.164   0.082
 3614SOL    HW111741   3.050   3.219   0.048
 3614SOL    HW211742   2.950   3.194   0.174
 3615SOL     OW11743   5.691   2.639   6.183
 3615SOL    HW111744   5.766   2.600   6.235
 3615SOL    HW211745   5.669   2.730   6.218
 3616SOL     OW11746   1.543   0.851   6.236
 3616SOL    HW111747   1.548   0.768   6.181
 3616SOL    HW211748   1.635   0.885   6.255
 3617SOL     OW11749   4.383   0.397   6.144
 3617SOL    HW111750   4.373   0.383   6.242
 3617SOL    HW211751   4.461   0.344   6.111
 3618SOL     OW11752   2.654   3.485   5.417
 3618SOL    HW111753   2.556   3.508   5.414
 3618SOL    HW211754   2.666   3.389   5.392
 3619SOL     OW11755   5.467   3.147   0.187
 3619SOL    HW111756   5.401   3.207   0.142
 3619SOL    HW211757   5.558   3.164   0.149
 3620SOL     OW11758   6.286   5.515   5.181
 3620SOL    HW111759   6.216   5.486   5.116
 3620SOL    HW211760   6.245   5.524   5.272
 3621SOL     OW11761   3.177   3.341   4.542
 3621SOL    HW111762   3.189   3.257   4.595
 3621SOL    HW211763   3.081   3.350   4.514
 3622SOL     OW11764   1.169   0.418   0.735
 3622SOL    HW111765   1.076   0.448   0.716
 3622SOL    HW211766   1.224   0.422   0.652
 3623SOL     OW11767   0.008   5.246   5.495
 3623SOL    HW111768   0.105   5.244   5.474
 3623SOL    HW211769   6.986   5.316   5.439
 3624SOL     OW11770   1.427   0.102   2.338
 3624SOL    HW111771   1.493   0.173   2.317
 3624SOL    HW211772   1.387   0.120   2.428
 3625SOL     OW11773   7.022   3.223   6.694
 3625SOL    HW111774   0.082   3.232   6.638
 3625SOL    HW211775   6.997   3.127   6.699
 3626SOL     OW11776   0.580   3.607   4.137
 3626SOL    HW111777   0.621   3.675   4.197
 3626SOL    HW211778   0.496   3.573   4.178
 3627SOL     OW11779   4.832   3.431   1.559
 3627SOL    HW111780   4.799   3.339   1.578
 3627SOL    HW211781   4.903   3.456   1.625
 3628SOL     OW11782   1.445   1.057   2.629
 3628SOL    HW111783   1.537   1.093   2.611
 3628SOL    HW211784   1.436   1.034   2.726
 3629SOL     OW11785   1.157   0.885   4.143
 3629SOL    HW111786   1.190   0.909   4.234
 3629SOL    HW211787   1.085   0.816   4.151
 3630SOL     OW11788   6.362   2.689   3.745
 3630SOL    HW111789   6.375   2.711   3.842
 3630SOL    HW211790   6.356   2.590   3.734
 3631SOL     OW11791   1.558   6.638   3.697
 3631SOL    HW111792   1.586   6.548   3.730
 3631SOL    HW211793   1.558   6.639   3.597
 3632SOL     OW11794   4.531   4.075   0.799
 3632SOL    HW111795   4.495   4.098   0.890
 3632SOL    HW211796   4.619   4.120   0.786
 3633SOL     OW11797   4.397   2.289   5.650
 3633SOL    HW111798   4.317   2.250   5.697
 3633SOL    HW211799   4.386   2.388   5.642
 3634SOL     OW11800   1.911   6.463   6.177
 3634SOL    HW111801   1.861   6.377   6.184
 3634SOL    HW211802   2.008   6.445   6.167
 3635SOL     OW11803   1.939   1.468   0.879
 3635SOL    HW111804   1.859   1.511   0.921
 3635SOL    HW211805   1.913   1.379   0.842
 3636SOL     OW11806   0.260   5.755   1.077
 3636SOL    HW111807   0.202   5.836   1.088
 3636SOL    HW211808   0.300   5.731   1.166
 3637SOL     OW11809   0.895   2.958   0.966
 3637SOL    HW111810   0.901   3.055   0.991
 3637SOL    HW211811   0.825   2.913   1.021
 3638SOL     OW11812   6.767   3.668   2.198
 3638SOL    HW111813   6.726   3.708   2.279
 3638SOL    HW211814   6.737   3.572   2.189
 3639SOL     OW11815   3.558   4.560   6.159
 3639SOL    HW111816   3.517   4.593   6.075
 3639SOL    HW211817   3.554   4.460   6.161
 3640SOL     OW11818   5.018   2.198   0.893
 3640SOL    HW111819   5.116   2.186   0.883
 3640SOL    HW211820   4.999   2.278   0.950
 3641SOL     OW11821   5.152   4.801   1.297
 3641SOL    HW111822   5.156   4.717   1.244
 3641SOL    HW211823   5.108   4.783   1.385
 3642SOL     OW11824   5.363   1.962   6.665
 3642SOL    HW111825   5.400   1.951   6.573
 3642SOL    HW211826   5.411   2.036   6.713
 3643SOL     OW11827   3.973   6.622   5.943
 3643SOL    HW111828   4.040   6.550   5.924
 3643SOL    HW211829   3.906   6.625   5.868
 3644SOL     OW11830   2.881   0.618   1.463
 3644SOL    HW111831   2.845   0.558   1.535
 3644SOL    HW211832   2.805   0.656   1.410
 3645SOL     OW11833   1.509   3.819   4.618
 3645SOL    HW111834   1.422   3.789   4.578
 3645SOL    HW211835   1.579   3.820   4.547
 3646SOL     OW11836   2.193   4.826   4.489
 3646SOL    HW111837   2.146   4.798   4.572
 3646SOL    HW211838   2.232   4.746   4.444
 3647SOL     OW11839   2.482   6.413   6.765
 3647SOL    HW111840   2.434   6.483   6.816
 3647SOL    HW211841   2.524   6.453   6.683
 3648SOL     OW11842   4.756   5.820   3.222
 3648SOL    HW111843   4.691   5.893   3.201
 3648SOL    HW211844   4.746   5.793   3.318
 3649SOL     OW11845   5.819   3.990   0.150
 3649SOL    HW111846   5.742   4.014   0.209
 3649SOL    HW211847   5.895   3.957   0.206
 3650SOL     OW11848   5.822   4.389   0.958
 3650SOL    HW111849   5.844   4.463   1.021
 3650SOL    HW211850   5.739   4.412   0.907
 3651SOL     OW11851   1.947   1.912   5.233
 3651SOL    HW111852   1.949   2.011   5.246
 3651SOL    HW211853   2.001   1.868   5.305
 3652SOL     OW11854   5.808   0.457   2.444
 3652SOL    HW111855   5.733   0.417   2.496
 3652SOL    HW211856   5.819   0.407   2.358
 3653SOL     OW11857   1.034   1.154   2.699
 3653SOL    HW111858   1.077   1.142   2.789
 3653SOL    HW211859   0.944   1.196   2.711
 3654SOL     OW11860   4.559   6.037   0.701
 3654SOL    HW111861   4.611   6.040   0.615
 3654SOL    HW211862   4.617   6.067   0.776
 3655SOL     OW11863   2.849   1.130   4.517
 3655SOL    HW111864   2.922   1.197   4.503
 3655SOL    HW211865   2.868   1.075   4.599
 3656SOL     OW11866   0.915   5.144   1.193
 3656SOL    HW111867   1.007   5.106   1.202
 3656SOL    HW211868   0.880   5.170   1.283
 3657SOL     OW11869   5.045   5.790   5.451
 3657SOL    HW111870   4.967   5.834   5.495
 3657SOL    HW211871   5.108   5.756   5.520
 3658SOL     OW11872   1.595   4.760   6.523
 3658SOL    HW111873   1.672   4.822   6.538
 3658SOL    HW211874   1.628   4.676   6.479
 3659SOL     OW11875   0.444   1.239   6.475
 3659SOL    HW111876   0.372   1.171   6.461
 3659SOL    HW211877   0.512   1.204   6.539
 3660SOL     OW11878   6.014   6.297   5.635
 3660SOL    HW111879   6.076   6.279   5.559
 3660SOL    HW211880   6.003   6.395   5.646
 3661SOL     OW11881   0.096   0.656   4.397
 3661SOL    HW111882   7.021   0.652   4.375
 3661SOL    HW211883   0.149   0.635   4.314
 3662SOL     OW11884   3.591   1.007   4.996
 3662SOL    HW111885   3.613   1.050   5.084
 3662SOL    HW211886   3.600   1.074   4.923
 3663SOL     OW11887   2.492   2.280   6.410
 3663SOL    HW111888   2.400   2.253   6.440
 3663SOL    HW211889   2.487   2.317   6.318
 3664SOL     OW11890   4.031   1.692   2.020
 3664SOL    HW111891   4.046   1.674   2.118
 3664SOL    HW211892   4.112   1.663   1.969
 3665SOL     OW11893   0.219   6.168   5.728
 3665SOL    HW111894   0.275   6.244   5.694
 3665SOL    HW211895   0.128   6.202   5.752
 3666SOL     OW11896   1.178   3.016   3.270
 3666SOL    HW111897   1.081   3.025   3.294
 3666SOL    HW211898   1.195   3.062   3.183
 3667SOL     OW11899   0.737   1.436   3.859
 3667SOL    HW111900   0.690   1.522   3.877
 3667SOL    HW211901   0.836   1.452   3.856
 3668SOL     OW11902   1.363   0.452   1.687
 3668SOL    HW111903   1.420   0.423   1.764
 3668SOL    HW211904   1.267   0.443   1.712
 3669SOL     OW11905   6.133   1.734   4.314
 3669SOL    HW111906   6.177   1.806   4.369
 3669SOL    HW211907   6.203   1.672   4.279
 3670SOL     OW11908   3.052   4.837   1.330
 3670SOL    HW111909   3.057   4.746   1.290
 3670SOL    HW211910   3.108   4.900   1.276
 3671SOL     OW11911   6.635   1.235   2.689
 3671SOL    HW111912   6.562   1.178   2.727
 3671SOL    HW211913   6.596   1.318   2.650
 3672SOL     OW11914   5.613   1.380   2.280
 3672SOL    HW111915   5.540   1.437   2.243
 3672SOL    HW211916   5.611   1.290   2.238
 3673SOL     OW11917   3.904   5.356   6.914
 3673SOL    HW111918   3.896   5.327   7.010
 3673SOL    HW211919   3.991   5.404   6.901
 3674SOL     OW11920   1.144   5.895   5.942
 3674SOL    HW111921   1.135   5.887   5.843
 3674SOL    HW211922   1.151   5.992   5.968
 3675SOL     OW11923   6.876   2.200   3.369
 3675SOL    HW111924   6.935   2.160   3.439
 3675SOL    HW211925   6.885   2.147   3.284
 3676SOL     OW11926   5.122   2.857   3.088
 3676SOL    HW111927   5.150   2.806   3.169
 3676SOL    HW211928   5.044   2.915   3.111
 3677SOL     OW11929   2.166   0.795   5.062
 3677SOL    HW111930   2.083   0.739   5.055
 3677SOL    HW211931   2.219   0.767   5.142
 3678SOL     OW11932   1.463   1.496   4.531
 3678SOL    HW111933   1.526   1.567   4.499
 3678SOL    HW211934   1.470   1.416   4.471
 3679SOL     OW11935   5.878   7.014   3.239
 3679SOL    HW111936   5.860   6.939   3.302
 3679SOL    HW211937   5.966   7.000   3.194
 3680SOL     OW11938   4.928   2.186   3.612
 3680SOL    HW111939   4.914   2.270   3.560
 3680SOL    HW211940   5.008   2.196   3.672
 3681SOL     OW11941   0.640   0.475   6.155
 3681SOL    HW111942   0.550   0.510   6.131
 3681SOL    HW211943   0.699   0.474   6.074
 3682SOL     OW11944   4.963   2.432   1.071
 3682SOL    HW111945   4.911   2.416   1.156
 3682SOL    HW211946   4.908   2.488   1.009
 3683SOL     OW11947   0.120   0.714   4.738
 3683SOL    HW111948   0.046   0.746   4.797
 3683SOL    HW211949   0.086   0.643   4.677
 3684SOL     OW11950   2.217   6.545   6.534
 3684SOL    HW111951   2.160   6.614   6.578
 3684SOL    HW211952   2.179   6.454   6.552
 3685SOL     OW11953   2.806   5.915   5.194
 3685SOL    HW111954   2.872   5.956   5.256
 3685SOL    HW211955   2.850   5.843   5.140
 3686SOL     OW11956   6.613   4.378   4.073
 3686SOL    HW111957   6.550   4.332   4.135
 3686SOL    HW211958   6.563   4.410   3.993
 3687SOL     OW11959   5.088   6.655   3.404
 3687SOL    HW111960   5.033   6.737   3.387
 3687SOL    HW211961   5.039   6.594   3.466
 3688SOL     OW11962   6.089   3.467   0.452
 3688SOL    HW111963   6.064   3.535   0.384
 3688SOL    HW211964   6.098   3.377   0.409
 3689SOL     OW11965   2.333   1.938   5.469
 3689SOL    HW111966   2.331   2.020   5.525
 3689SOL    HW211967   2.255   1.879   5.492
 3690SOL     OW11968   4.997   5.809   0.808
 3690SOL    HW111969   5.063   5.750   0.762
 3690SOL    HW211970   4.938   5.853   0.741
 3691SOL     OW11971   2.549   2.121   6.107
 3691SOL    HW111972   2.621   2.180   6.143
 3691SOL    HW211973   2.463   2.171   6.104
 3692SOL     OW11974   0.011   4.285   5.958
 3692SOL    HW111975   0.023   4.259   6.054
 3692SOL    HW211976   0.100   4.286   5.912
 3693SOL     OW11977   1.200   2.066   2.679
 3693SOL    HW111978   1.191   2.165   2.668
 3693SOL    HW211979   1.163   2.020   2.598
 3694SOL     OW11980   1.094   0.486   1.711
 3694SOL    HW111981   1.065   0.576   1.678
 3694SOL    HW211982   1.014   0.434   1.740
 3695SOL     OW11983   6.196   2.631   2.164
 3695SOL    HW111984   6.138   2.552   2.186
 3695SOL    HW211985   6.248   2.657   2.245
 3696SOL     OW11986   5.525   0.690   4.949
 3696SOL    HW111987   5.486   0.779   4.972
 3696SOL    HW211988   5.455   0.620   4.959
 3697SOL     OW11989   6.134   6.256   3.223
 3697SOL    HW111990   6.058   6.204   3.184
 3697SOL    HW211991   6.099   6.342   3.261
 3698SOL     OW11992   2.152   0.980   3.877
 3698SOL    HW111993   2.145   0.887   3.841
 3698SOL    HW211994   2.245   0.997   3.909
 3699SOL     OW11995   2.397   2.260   3.671
 3699SOL    HW111996   2.479   2.286   3.620
 3699SOL    HW211997   2.415   2.177   3.724
 3700SOL     OW11998   1.638   5.579   5.323
 3700SOL    HW111999   1.604   5.487   5.301
 3700SOL    HW212000   1.678   5.619   5.241
 3701SOL     OW12001   0.556   6.346   2.119
 3701SOL    HW112002   0.633   6.409   2.131
 3701SOL    HW212003   0.470   6.398   2.120
 3702SOL     OW12004   5.010   6.311   4.070
 3702SOL    HW112005   4.979   6.299   4.164
 3702SOL    HW212006   4.942   6.274   4.007
 3703SOL     OW12007   1.038   1.063   6.501
 3703SOL    HW112008   1.033   1.026   6.594
 3703SOL    HW212009   0.968   1.020   6.445
 3704SOL     OW12010   5.058   3.655   0.994
 3704SOL    HW112011   5.024   3.561   0.993
 3704SOL    HW212012   5.027   3.701   1.077
 3705SOL     OW12013   4.904   4.897   3.379
 3705SOL    HW112014   4.860   4.986   3.370
 3705SOL    HW212015   4.860   4.831   3.318
 3706SOL     OW12016   0.474   4.028   6.909
 3706SOL    HW112017   0.448   3.984   6.823
 3706SOL    HW212018   0.574   4.024   6.920
 3707SOL     OW12019   3.860   4.873   4.016
 3707SOL    HW112020   3.898   4.924   3.938
 3707SOL    HW212021   3.761   4.879   4.015
 3708SOL     OW12022   4.204   6.928   1.436
 3708SOL    HW112023   4.138   7.001   1.453
 3708SOL    HW212024   4.296   6.968   1.426
 3709SOL     OW12025   2.126   0.094   1.751
 3709SOL    HW112026   2.070   0.147   1.687
 3709SOL    HW212027   2.220   0.090   1.717
 3710SOL     OW12028   0.611   5.381   5.788
 3710SOL    HW112029   0.529   5.406   5.736
 3710SOL    HW212030   0.585   5.357   5.881
 3711SOL     OW12031   1.551   6.538   5.061
 3711SOL    HW112032   1.488   6.463   5.079
 3711SOL    HW212033   1.612   6.512   4.985
 3712SOL     OW12034   2.402   5.259   6.450
 3712SOL    HW112035   2.441   5.175   6.412
 3712SOL    HW212036   2.336   5.297   6.386
 3713SOL     OW12037   0.057   6.561   5.130
 3713SOL    HW112038   6.991   6.574   5.086
 3713SOL    HW212039   0.080   6.464   5.129
 3714SOL     OW12040   0.824   4.774   6.730
 3714SOL    HW112041   0.882   4.771   6.648
 3714SOL    HW212042   0.745   4.832   6.712
 3715SOL     OW12043   0.121   5.428   2.763
 3715SOL    HW112044   0.188   5.397   2.831
 3715SOL    HW212045   0.122   5.366   2.684
 3716SOL     OW12046   5.959   5.571   4.348
 3716SOL    HW112047   5.976   5.598   4.253
 3716SOL    HW212048   5.895   5.494   4.349
 3717SOL     OW12049   5.125   1.601   0.114
 3717SOL    HW112050   5.216   1.600   0.156
 3717SOL    HW212051   5.095   1.696   0.103
 3718SOL     OW12052   0.535   0.187   6.844
 3718SOL    HW112053   0.625   0.213   6.879
 3718SOL    HW212054   0.527   0.216   6.749
 3719SOL     OW12055   4.321   2.964   6.152
 3719SOL    HW112056   4.255   3.038   6.142
 3719SOL    HW212057   4.383   2.964   6.073
 3720SOL     OW12058   5.598   3.865   0.923
 3720SOL    HW112059   5.630   3.922   0.999
 3720SOL    HW212060   5.521   3.810   0.953
 3721SOL     OW12061   6.774   5.307   6.848
 3721SOL    HW112062   6.706   5.370   6.812
 3721SOL    HW212063   6.732   5.246   6.915
 3722SOL     OW12064   4.437   0.111   1.410
 3722SOL    HW112065   4.498   0.048   1.458
 3722SOL    HW212066   4.378   0.158   1.475
 3723SOL     OW12067   4.323   4.995   0.200
 3723SOL    HW112068   4.372   4.998   0.287
 3723SOL    HW212069   4.389   4.988   0.125
 3724SOL     OW12070   1.423   4.977   5.088
 3724SOL    HW112071   1.471   4.985   5.175
 3724SOL    HW212072   1.334   5.023   5.094
 3725SOL     OW12073   0.366   6.208   6.844
 3725SOL    HW112074   0.404   6.275   6.907
 3725SOL    HW212075   0.315   6.138   6.895
 3726SOL     OW12076   5.238   4.211   5.119
 3726SOL    HW112077   5.181   4.268   5.178
 3726SOL    HW212078   5.191   4.196   5.032
 3727SOL     OW12079   6.638   3.452   4.766
 3727SOL    HW112080   6.606   3.438   4.860
 3727SOL    HW212081   6.661   3.548   4.752
 3728SOL     OW12082   2.758   3.523   0.121
 3728SOL    HW112083   2.777   3.432   0.159
 3728SOL    HW212084   2.837   3.582   0.137
 3729SOL     OW12085   0.544   0.149   4.391
 3729SOL    HW112086   0.515   0.054   4.396
 3729SOL    HW212087   0.612   0.168   4.461
 3730SOL     OW12088   3.996   5.913   5.695
 3730SOL    HW112089   3.907   5.904   5.651
 3730SOL    HW212090   3.984   5.913   5.794
 3731SOL     OW12091   0.513   1.560   0.228
 3731SOL    HW112092   0.560   1.479   0.193
 3731SOL    HW212093   0.469   1.608   0.153
 3732SOL     OW12094   1.648   2.119   0.747
 3732SOL    HW112095   1.551   2.096   0.758
 3732SOL    HW212096   1.687   2.141   0.837
 3733SOL     OW12097   1.863   2.960   3.647
 3733SOL    HW112098   1.827   2.918   3.731
 3733SOL    HW212099   1.800   2.944   3.572
 3734SOL     OW12100   3.930   0.653   1.460
 3734SOL    HW112101   3.951   0.698   1.546
 3734SOL    HW212102   3.947   0.555   1.469
 3735SOL     OW12103   4.202   0.462   2.725
 3735SOL    HW112104   4.212   0.371   2.684
 3735SOL    HW212105   4.242   0.462   2.816
 3736SOL     OW12106   6.692   0.920   1.100
 3736SOL    HW112107   6.596   0.898   1.081
 3736SOL    HW212108   6.750   0.843   1.074
 3737SOL     OW12109   5.923   2.515   4.023
 3737SOL    HW112110   5.843   2.501   4.082
 3737SOL    HW212111   5.984   2.582   4.064
 3738SOL     OW12112   6.241   5.922   0.878
 3738SOL    HW112113   6.239   5.907   0.779
 3738SOL    HW212114   6.291   6.007   0.897
 3739SOL     OW12115   3.021   4.583   1.657
 3739SOL    HW112116   2.973   4.634   1.586
 3739SOL    HW212117   2.958   4.560   1.731
 3740SOL     OW12118   5.879   5.957   0.077
 3740SOL    HW112119   5.956   6.002   0.032
 3740SOL    HW212120   5.845   6.016   0.151
 3741SOL     OW12121   4.986   3.367   6.733
 3741SOL    HW112122   4.910   3.426   6.704
 3741SOL    HW212123   4.953   3.303   6.802
 3742SOL     OW12124   4.680   5.738   0.306
 3742SOL    HW112125   4.688   5.825   0.257
 3742SOL    HW212126   4.760   5.681   0.285
 3743SOL     OW12127   4.843   4.486   1.661
 3743SOL    HW112128   4.773   4.424   1.697
 3743SOL    HW212129   4.824   4.579   1.693
 3744SOL     OW12130   0.743   6.532   2.216
 3744SOL    HW112131   0.815   6.545   2.148
 3744SOL    HW212132   0.678   6.608   2.210
 3745SOL     OW12133   4.920   3.917   2.429
 3745SOL    HW112134   4.872   3.955   2.507
 3745SOL    HW212135   4.903   3.973   2.348
 3746SOL     OW12136   6.982   0.608   3.482
 3746SOL    HW112137   6.990   0.515   3.445
 3746SOL    HW212138   0.022   0.668   3.434
 3747SOL     OW12139   4.872   6.457   5.914
 3747SOL    HW112140   4.821   6.435   5.996
 3747SOL    HW212141   4.968   6.473   5.937
 3748SOL     OW12142   6.164   0.647   2.058
 3748SOL    HW112143   6.237   0.615   1.998
 3748SOL    HW212144   6.147   0.578   2.130
 3749SOL     OW12145   1.774   5.467   2.828
 3749SOL    HW112146   1.816   5.557   2.812
 3749SOL    HW212147   1.844   5.403   2.859
 3750SOL     OW12148   5.837   4.676   1.071
 3750SOL    HW112149   5.934   4.667   1.092
 3750SOL    HW212150   5.784   4.668   1.155
 3751SOL     OW12151   0.442   2.567   1.011
 3751SOL    HW112152   0.503   2.490   1.032
 3751SOL    HW212153   0.360   2.562   1.068
 3752SOL     OW12154   0.347   6.791   6.961
 3752SOL    HW112155   0.372   6.761   0.031
 3752SOL    HW212156   0.431   6.811   6.909
 3753SOL     OW12157   0.546   6.450   5.057
 3753SOL    HW112158   0.506   6.515   5.122
 3753SOL    HW212159   0.516   6.358   5.079
 3754SOL     OW12160   5.487   6.349   1.634
 3754SOL    HW112161   5.520   6.267   1.587
 3754SOL    HW212162   5.565   6.409   1.653
 3755SOL     OW12163   5.738   5.400   4.437
 3755SOL    HW112164   5.721   5.345   4.355
 3755SOL    HW212165   5.776   5.342   4.509
 3756SOL     OW12166   2.134   0.499   6.179
 3756SOL    HW112167   2.191   0.423   6.147
 3756SOL    HW212168   2.161   0.524   6.272
 3757SOL     OW12169   3.486   5.700   5.776
 3757SOL    HW112170   3.476   5.799   5.785
 3757SOL    HW212171   3.550   5.679   5.702
 3758SOL     OW12172   2.002   1.622   4.769
 3758SOL    HW112173   1.940   1.562   4.718
 3758SOL    HW212174   1.950   1.672   4.838
 3759SOL     OW12175   4.661   5.084   5.566
 3759SOL    HW112176   4.644   5.016   5.495
 3759SOL    HW212177   4.696   5.039   5.648
 3760SOL     OW12178   1.477   4.065   3.850
 3760SOL    HW112179   1.573   4.054   3.823
 3760SOL    HW212180   1.453   4.162   3.851
 3761SOL     OW12181   0.768   6.614   5.089
 3761SOL    HW112182   0.828   6.636   5.012
 3761SOL    HW212183   0.698   6.550   5.059
 3762SOL     OW12184   0.898   4.500   6.730
 3762SOL    HW112185   0.944   4.446   6.800
 3762SOL    HW212186   0.930   4.594   6.733
 3763SOL     OW12187   0.064   4.808   0.016
 3763SOL    HW112188   0.040   4.905   0.024
 3763SOL    HW212189   7.015   4.752   0.057
 3764SOL     OW12190   1.869   0.900   4.797
 3764SOL    HW112191   1.801   0.835   4.763
 3764SOL    HW212192   1.960   0.873   4.767
 3765SOL     OW12193   5.141   0.729   2.656
 3765SOL    HW112194   5.086   0.778   2.588
 3765SOL    HW212195   5.087   0.716   2.739
 3766SOL     OW12196   0.749   0.587   4.276
 3766SOL    HW112197   0.776   0.533   4.355
 3766SOL    HW212198   0.665   0.549   4.237
 3767SOL     OW12199   2.292   4.698   0.384
 3767SOL    HW112200   2.244   4.772   0.338
 3767SOL    HW212201   2.386   4.725   0.404
 3768SOL     OW12202   3.728   5.981   5.959
 3768SOL    HW112203   3.805   5.935   5.916
 3768SOL    HW212204   3.647   5.971   5.901
 3769SOL     OW12205   5.785   5.602   5.382
 3769SOL    HW112206   5.856   5.646   5.437
 3769SOL    HW212207   5.699   5.652   5.391
 3770SOL     OW12208   1.941   0.395   6.733
 3770SOL    HW112209   1.933   0.297   6.714
 3770SOL    HW212210   1.995   0.408   6.817
 3771SOL     OW12211   5.499   1.674   0.744
 3771SOL    HW112212   5.507   1.582   0.783
 3771SOL    HW212213   5.427   1.725   0.791
 3772SOL     OW12214   6.226   1.305   0.785
 3772SOL    HW112215   6.173   1.302   0.700
 3772SOL    HW212216   6.323   1.313   0.763
 3773SOL     OW12217   5.511   3.312   5.951
 3773SOL    HW112218   5.601   3.351   5.973
 3773SOL    HW212219   5.442   3.383   5.952
 3774SOL     OW12220   1.196   6.840   6.645
 3774SOL    HW112221   1.125   6.891   6.597
 3774SOL    HW212222   1.286   6.879   6.621
 3775SOL     OW12223   5.408   3.758   2.065
 3775SOL    HW112224   5.438   3.820   2.137
 3775SOL    HW212225   5.346   3.806   2.004
 3776SOL     OW12226   2.854   1.158   1.418
 3776SOL    HW112227   2.769   1.208   1.433
 3776SOL    HW212228   2.926   1.221   1.392
 3777SOL     OW12229   2.705   4.712   4.723
 3777SOL    HW112230   2.623   4.767   4.706
 3777SOL    HW212231   2.734   4.723   4.818
 3778SOL     OW12232   2.228   6.032   2.950
 3778SOL    HW112233   2.313   6.006   2.904
 3778SOL    HW212234   2.150   6.014   2.890
 3779SOL     OW12235   2.605   4.948   6.881
 3779SOL    HW112236   2.584   4.888   6.958
 3779SOL    HW212237   2.522   4.999   6.855
 3780SOL     OW12238   3.834   4.946   4.740
 3780SOL    HW112239   3.779   4.980   4.815
 3780SOL    HW212240   3.918   4.906   4.776
 3781SOL     OW12241   2.008   6.577   4.141
 3781SOL    HW112242   1.926   6.632   4.123
 3781SOL    HW212243   2.027   6.519   4.062
 3782SOL     OW12244   2.655   2.241   4.236
 3782SOL    HW112245   2.694   2.190   4.312
 3782SOL    HW212246   2.721   2.307   4.202
 3783SOL     OW12247   6.665   6.498   4.787
 3783SOL    HW112248   6.728   6.505   4.710
 3783SOL    HW212249   6.607   6.417   4.775
 3784SOL     OW12250   4.993   1.530   3.018
 3784SOL    HW112251   5.041   1.543   2.932
 3784SOL    HW212252   4.907   1.582   3.017
 3785SOL     OW12253   2.138   1.099   0.058
 3785SOL    HW112254   2.097   1.010   0.036
 3785SOL    HW212255   2.092   1.170   0.005
 3786SOL     OW12256   2.963   5.828   3.209
 3786SOL    HW112257   3.044   5.845   3.266
 3786SOL    HW212258   2.972   5.878   3.123
 3787SOL     OW12259   5.731   6.496   3.648
 3787SOL    HW112260   5.694   6.484   3.740
 3787SOL    HW212261   5.816   6.548   3.654
 3788SOL     OW12262   6.767   3.229   3.515
 3788SOL    HW112263   6.719   3.314   3.492
 3788SOL    HW212264   6.715   3.151   3.479
 3789SOL     OW12265   1.744   4.510   3.806
 3789SOL    HW112266   1.829   4.470   3.838
 3789SOL    HW212267   1.740   4.607   3.833
 3790SOL     OW12268   1.562   3.981   5.022
 3790SOL    HW112269   1.595   3.995   5.115
 3790SOL    HW212270   1.530   3.887   5.011
 3791SOL     OW12271   5.892   0.064   0.775
 3791SOL    HW112272   5.966   0.059   0.841
 3791SOL    HW212273   5.816   0.007   0.807
 3792SOL     OW12274   6.849   0.677   4.729
 3792SOL    HW112275   6.901   0.737   4.790
 3792SOL    HW212276   6.789   0.731   4.671
 3793SOL     OW12277   2.443   0.502   2.996
 3793SOL    HW112278   2.391   0.584   3.019
 3793SOL    HW212279   2.390   0.445   2.933
 3794SOL     OW12280   3.666   5.365   1.943
 3794SOL    HW112281   3.622   5.281   1.912
 3794SOL    HW212282   3.710   5.410   1.865
 3795SOL     OW12283   4.012   6.467   6.788
 3795SOL    HW112284   3.944   6.530   6.750
 3795SOL    HW212285   4.056   6.509   6.867
 3796SOL     OW12286   2.225   2.328   1.614
 3796SOL    HW112287   2.128   2.310   1.629
 3796SOL    HW212288   2.255   2.402   1.674
 3797SOL     OW12289   6.459   5.386   2.580
 3797SOL    HW112290   6.443   5.467   2.523
 3797SOL    HW212291   6.516   5.411   2.658
 3798SOL     OW12292   2.675   4.955   3.371
 3798SOL    HW112293   2.593   4.931   3.319
 3798SOL    HW212294   2.685   5.054   3.373
 3799SOL     OW12295   0.913   2.592   4.220
 3799SOL    HW112296   0.830   2.632   4.261
 3799SOL    HW212297   0.891   2.555   4.130
 3800SOL     OW12298   5.130   2.376   5.105
 3800SOL    HW112299   5.202   2.390   5.174
 3800SOL    HW212300   5.106   2.279   5.102
 3801SOL     OW12301   6.649   6.037   5.260
 3801SOL    HW112302   6.598   6.059   5.177
 3801SOL    HW212303   6.704   5.956   5.244
 3802SOL     OW12304   0.598   1.705   4.790
 3802SOL    HW112305   0.658   1.733   4.865
 3802SOL    HW212306   0.566   1.786   4.741
 3803SOL     OW12307   3.749   1.133   1.914
 3803SOL    HW112308   3.675   1.199   1.928
 3803SOL    HW212309   3.825   1.177   1.867
 3804SOL     OW12310   4.918   2.306   4.329
 3804SOL    HW112311   4.902   2.311   4.230
 3804SOL    HW212312   5.012   2.333   4.349
 3805SOL     OW12313   2.882   3.911   1.731
 3805SOL    HW112314   2.916   4.002   1.710
 3805SOL    HW212315   2.959   3.847   1.734
 3806SOL     OW12316   2.494   2.584   0.061
 3806SOL    HW112317   2.511   2.629   6.996
 3806SOL    HW212318   2.531   2.639   0.135
 3807SOL     OW12319   2.382   1.673   4.532
 3807SOL    HW112320   2.445   1.634   4.600
 3807SOL    HW212321   2.346   1.600   4.474
 3808SOL     OW12322   3.233   0.456   2.232
 3808SOL    HW112323   3.191   0.452   2.141
 3808SOL    HW212324   3.331   0.475   2.223
 3809SOL     OW12325   5.720   2.037   0.124
 3809SOL    HW112326   5.784   2.114   0.116
 3809SOL    HW212327   5.768   1.951   0.106
 3810SOL     OW12328   4.069   2.886   5.425
 3810SOL    HW112329   4.083   2.974   5.380
 3810SOL    HW212330   3.971   2.870   5.438
 3811SOL     OW12331   0.897   4.482   4.277
 3811SOL    HW112332   0.906   4.448   4.371
 3811SOL    HW212333   0.935   4.574   4.271
 3812SOL     OW12334   5.653   1.491   5.569
 3812SOL    HW112335   5.709   1.519   5.647
 3812SOL    HW212336   5.692   1.408   5.529
 3813SOL     OW12337   4.189   4.251   1.240
 3813SOL    HW112338   4.205   4.194   1.159
 3813SOL    HW212339   4.217   4.201   1.322
 3814SOL     OW12340   0.391   6.264   1.037
 3814SOL    HW112341   0.364   6.312   1.120
 3814SOL    HW212342   0.425   6.173   1.060
 3815SOL     OW12343   4.684   1.878   0.633
 3815SOL    HW112344   4.765   1.905   0.685
 3815SOL    HW212345   4.712   1.841   0.544
 3816SOL     OW12346   0.288   6.604   1.417
 3816SOL    HW112347   0.279   6.661   1.498
 3816SOL    HW212348   0.201   6.602   1.368
 3817SOL     OW12349   4.814   2.975   3.971
 3817SOL    HW112350   4.894   2.933   3.928
 3817SOL    HW212351   4.773   3.040   3.908
 3818SOL     OW12352   4.476   6.702   1.587
 3818SOL    HW112353   4.380   6.707   1.560
 3818SOL    HW212354   4.482   6.687   1.686
 3819SOL     OW12355   5.499   4.747   0.658
 3819SOL    HW112356   5.564   4.777   0.728
 3819SOL    HW212357   5.407   4.746   0.697
 3820SOL     OW12358   6.311   6.603   3.611
 3820SOL    HW112359   6.392   6.569   3.563
 3820SOL    HW212360   6.300   6.555   3.698
 3821SOL     OW12361   1.627   3.244   2.112
 3821SOL    HW112362   1.530   3.256   2.089
 3821SOL    HW212363   1.682   3.303   2.053
 3822SOL     OW12364   1.278   5.288   2.279
 3822SOL    HW112365   1.244   5.369   2.231
 3822SOL    HW212366   1.336   5.234   2.218
 3823SOL     OW12367   4.128   2.162   5.004
 3823SOL    HW112368   4.054   2.160   5.071
 3823SOL    HW212369   4.168   2.253   5.001
 3824SOL     OW12370   6.019   1.742   5.316
 3824SOL    HW112371   5.926   1.718   5.343
 3824SOL    HW212372   6.084   1.679   5.360
 3825SOL     OW12373   0.407   0.301   0.098
 3825SOL    HW112374   0.358   0.388   0.089
 3825SOL    HW212375   0.397   0.248   0.014
 3826SOL     OW12376   0.271   3.677   0.057
 3826SOL    HW112377   0.240   3.583   0.061
 3826SOL    HW212378   0.371   3.679   0.052
 3827SOL     OW12379   3.772   3.784   1.023
 3827SOL    HW112380   3.774   3.778   0.923
 3827SOL    HW212381   3.747   3.694   1.061
 3828SOL     OW12382   4.504   2.440   0.687
 3828SOL    HW112383   4.522   2.538   0.699
 3828SOL    HW212384   4.590   2.389   0.691
 3829SOL     OW12385   2.082   4.986   4.164
 3829SOL    HW112386   2.122   5.038   4.239
 3829SOL    HW212387   2.102   5.032   4.077
 3830SOL     OW12388   1.013   0.159   5.473
 3830SOL    HW112389   1.078   0.234   5.460
 3830SOL    HW212390   1.010   0.134   5.570
 3831SOL     OW12391   4.590   1.974   2.478
 3831SOL    HW112392   4.590   1.891   2.422
 3831SOL    HW212393   4.669   1.974   2.539
 3832SOL     OW12394   6.671   0.761   1.904
 3832SOL    HW112395   6.669   0.708   1.820
 3832SOL    HW212396   6.635   0.853   1.887
 3833SOL     OW12397   0.974   5.174   6.728
 3833SOL    HW112398   0.982   5.248   6.660
 3833SOL    HW212399   1.052   5.112   6.717
 3834SOL     OW12400   3.008   2.059   0.222
 3834SOL    HW112401   2.914   2.027   0.230
 3834SOL    HW212402   3.019   2.109   0.136
 3835SOL     OW12403   3.414   5.308   5.225
 3835SOL    HW112404   3.512   5.303   5.243
 3835SOL    HW212405   3.369   5.226   5.259
 3836SOL     OW12406   2.031   3.447   5.269
 3836SOL    HW112407   2.028   3.352   5.237
 3836SOL    HW212408   2.004   3.508   5.195
 3837SOL     OW12409   4.559   3.410   0.659
 3837SOL    HW112410   4.577   3.432   0.564
 3837SOL    HW212411   4.464   3.380   0.669
 3838SOL     OW12412   5.457   3.632   4.741
 3838SOL    HW112413   5.534   3.664   4.796
 3838SOL    HW212414   5.386   3.593   4.800
 3839SOL     OW12415   4.621   0.234   4.901
 3839SOL    HW112416   4.714   0.245   4.937
 3839SOL    HW212417   4.557   0.220   4.976
 3840SOL     OW12418   0.812   0.741   5.167
 3840SOL    HW112419   0.849   0.801   5.238
 3840SOL    HW212420   0.845   0.772   5.078
 3841SOL     OW12421   0.494   3.960   5.084
 3841SOL    HW112422   0.472   3.881   5.142
 3841SOL    HW212423   0.592   3.979   5.091
 3842SOL     OW12424   1.013   5.415   0.372
 3842SOL    HW112425   1.008   5.318   0.347
 3842SOL    HW212426   0.993   5.471   0.291
 3843SOL     OW12427   0.489   3.402   0.894
 3843SOL    HW112428   0.555   3.327   0.892
 3843SOL    HW212429   0.410   3.379   0.838
 3844SOL     OW12430   1.291   5.348   5.548
 3844SOL    HW112431   1.350   5.371   5.625
 3844SOL    HW212432   1.325   5.265   5.503
 3845SOL     OW12433   3.250   2.949   2.710
 3845SOL    HW112434   3.233   2.980   2.804
 3845SOL    HW212435   3.228   3.022   2.646
 3846SOL     OW12436   0.203   5.069   4.123
 3846SOL    HW112437   0.295   5.096   4.092
 3846SOL    HW212438   0.186   4.975   4.096
 3847SOL     OW12439   6.227   0.840   6.394
 3847SOL    HW112440   6.234   0.845   6.493
 3847SOL    HW212441   6.308   0.793   6.358
 3848SOL     OW12442   2.065   5.484   2.534
 3848SOL    HW112443   2.133   5.459   2.465
 3848SOL    HW212444   2.091   5.571   2.577
 3849SOL     OW12445   0.343   1.429   5.792
 3849SOL    HW112446   0.290   1.472   5.719
 3849SOL    HW212447   0.291   1.432   5.877
 3850SOL     OW12448   2.597   3.449   1.747
 3850SOL    HW112449   2.628   3.544   1.734
 3850SOL    HW212450   2.503   3.449   1.779
 3851SOL     OW12451   1.975   4.227   2.747
 3851SOL    HW112452   1.934   4.240   2.837
 3851SOL    HW212453   1.917   4.167   2.691
 3852SOL     OW12454   4.428   7.001   4.845
 3852SOL    HW112455   4.351   0.042   4.845
 3852SOL    HW212456   4.406   6.922   4.901
 3853SOL     OW12457   0.869   3.346   2.248
 3853SOL    HW112458   0.925   3.285   2.304
 3853SOL    HW212459   0.777   3.351   2.287
 3854SOL     OW12460   1.015   3.296   3.208
 3854SOL    HW112461   1.063   3.348   3.279
 3854SOL    HW212462   0.932   3.256   3.246
 3855SOL     OW12463   6.066   4.630   6.255
 3855SOL    HW112464   6.153   4.621   6.206
 3855SOL    HW212465   6.010   4.700   6.212
 3856SOL     OW12466   0.171   0.274   5.967
 3856SOL    HW112467   0.114   0.192   5.965
 3856SOL    HW212468   0.212   0.289   5.877
 3857SOL     OW12469   1.644   6.972   5.090
 3857SOL    HW112470   1.667   0.009   5.013
 3857SOL    HW212471   1.599   0.003   5.162
 3858SOL     OW12472   0.891   6.292   6.186
 3858SOL    HW112473   0.867   6.203   6.225
 3858SOL    HW212474   0.904   6.283   6.088
 3859SOL     OW12475   6.493   2.457   3.921
 3859SOL    HW112476   6.452   2.398   3.852
 3859SOL    HW212477   6.426   2.476   3.993
 3860SOL     OW12478   2.630   5.663   4.869
 3860SOL    HW112479   2.623   5.750   4.821
 3860SOL    HW212480   2.723   5.651   4.903
 3861SOL     OW12481   5.632   5.098   1.260
 3861SOL    HW112482   5.613   5.193   1.238
 3861SOL    HW212483   5.569   5.038   1.210
 3862SOL     OW12484   6.920   0.078   6.549
 3862SOL    HW112485   6.956   0.069   6.643
 3862SOL    HW212486   6.927   0.174   6.521
 3863SOL     OW12487   2.973   3.706   0.186
 3863SOL    HW112488   3.041   3.645   0.147
 3863SOL    HW212489   3.008   3.745   0.272
 3864SOL     OW12490   4.303   1.986   6.483
 3864SOL    HW112491   4.362   2.064   6.462
 3864SOL    HW212492   4.217   1.994   6.432
 3865SOL     OW12493   3.973   0.276   2.388
 3865SOL    HW112494   3.887   0.296   2.436
 3865SOL    HW212495   3.962   0.193   2.334
 3866SOL     OW12496   4.064   0.228   0.586
 3866SOL    HW112497   4.078   0.326   0.601
 3866SOL    HW212498   4.093   0.204   0.493
 3867SOL     OW12499   1.875   3.829   3.536
 3867SOL    HW112500   1.886   3.803   3.440
 3867SOL    HW212501   1.940   3.777   3.592
 3868SOL     OW12502   1.930   6.280   1.677
 3868SOL    HW112503   1.843   6.276   1.725
 3868SOL    HW212504   1.982   6.197   1.696
 3869SOL     OW12505   6.914   2.438   3.554
 3869SOL    HW112506   6.873   2.400   3.471
 3869SOL    HW212507   6.844   2.442   3.626
 3870SOL     OW12508   3.034   5.001   6.626
 3870SOL    HW112509   2.943   4.978   6.591
 3870SOL    HW212510   3.090   4.918   6.631
 3871SOL     OW12511   3.127   6.966   2.942
 3871SOL    HW112512   3.174   0.022   2.902
 3871SOL    HW212513   3.160   6.883   2.898
 3872SOL     OW12514   3.944   3.369   1.079
 3872SOL    HW112515   3.987   3.306   1.015
 3872SOL    HW212516   3.911   3.318   1.159
 3873SOL     OW12517   5.195   5.515   1.102
 3873SOL    HW112518   5.236   5.440   1.051
 3873SOL    HW212519   5.107   5.540   1.061
 3874SOL     OW12520   4.360   6.468   6.922
 3874SOL    HW112521   4.345   6.412   7.003
 3874SOL    HW212522   4.456   6.494   6.916
 3875SOL     OW12523   1.432   4.140   2.291
 3875SOL    HW112524   1.429   4.042   2.276
 3875SOL    HW212525   1.345   4.171   2.328
 3876SOL     OW12526   5.767   5.033   5.184
 3876SOL    HW112527   5.862   5.054   5.164
 3876SOL    HW212528   5.731   5.100   5.249
 3877SOL     OW12529   5.659   0.949   1.682
 3877SOL    HW112530   5.678   1.020   1.749
 3877SOL    HW212531   5.675   0.859   1.723
 3878SOL     OW12532   3.650   6.559   6.388
 3878SOL    HW112533   3.704   6.614   6.324
 3878SOL    HW212534   3.673   6.462   6.376
 3879SOL     OW12535   4.577   5.438   1.639
 3879SOL    HW112536   4.481   5.410   1.626
 3879SOL    HW212537   4.586   5.535   1.618
 3880SOL     OW12538   6.013   3.681   2.412
 3880SOL    HW112539   5.939   3.628   2.369
 3880SOL    HW212540   6.041   3.635   2.496
 3881SOL     OW12541   1.782   5.027   1.183
 3881SOL    HW112542   1.800   4.930   1.200
 3881SOL    HW212543   1.699   5.037   1.129
 3882SOL     OW12544   6.301   1.231   6.019
 3882SOL    HW112545   6.399   1.208   6.020
 3882SOL    HW212546   6.262   1.206   5.931
 3883SOL     OW12547   4.789   1.373   3.622
 3883SOL    HW112548   4.767   1.346   3.529
 3883SOL    HW212549   4.810   1.292   3.676
 3884SOL     OW12550   1.721   6.085   5.028
 3884SOL    HW112551   1.722   6.125   4.937
 3884SOL    HW212552   1.789   6.012   5.033
 3885SOL     OW12553   0.073   0.909   4.157
 3885SOL    HW112554   0.057   1.007   4.165
 3885SOL    HW212555   7.011   0.863   4.129
 3886SOL     OW12556   0.138   0.333   5.327
 3886SOL    HW112557   0.233   0.363   5.320
 3886SOL    HW212558   0.080   0.388   5.267
 3887SOL     OW12559   3.909   1.582   5.237
 3887SOL    HW112560   3.962   1.522   5.297
 3887SOL    HW212561   3.911   1.546   5.144
 3888SOL     OW12562   6.221   1.615   0.765
 3888SOL    HW112563   6.170   1.638   0.682
 3888SOL    HW212564   6.164   1.556   0.823
 3889SOL     OW12565   0.641   5.352   6.413
 3889SOL    HW112566   0.700   5.341   6.333
 3889SOL    HW212567   0.546   5.340   6.385
 3890SOL     OW12568   5.558   5.339   3.087
 3890SOL    HW112569   5.543   5.302   2.996
 3890SOL    HW212570   5.637   5.401   3.086
 3891SOL     OW12571   5.016   5.627   4.823
 3891SOL    HW112572   5.022   5.660   4.917
 3891SOL    HW212573   4.924   5.645   4.788
 3892SOL     OW12574   6.088   6.709   3.101
 3892SOL    HW112575   6.078   6.784   3.036
 3892SOL    HW212576   6.072   6.743   3.194
 3893SOL     OW12577   3.168   5.617   4.028
 3893SOL    HW112578   3.157   5.526   4.067
 3893SOL    HW212579   3.189   5.682   4.101
 3894SOL     OW12580   4.616   3.387   0.358
 3894SOL    HW112581   4.535   3.330   0.346
 3894SOL    HW212582   4.698   3.329   0.349
 3895SOL     OW12583   1.292   0.739   5.409
 3895SOL    HW112584   1.213   0.744   5.470
 3895SOL    HW212585   1.263   0.712   5.317
 3896SOL     OW12586   6.795   2.517   5.214
 3896SOL    HW112587   6.736   2.593   5.244
 3896SOL    HW212588   6.740   2.450   5.164
 3897SOL     OW12589   3.477   6.766   2.221
 3897SOL    HW112590   3.499   6.820   2.140
 3897SOL    HW212591   3.481   6.669   2.199
 3898SOL     OW12592   4.143   3.379   4.469
 3898SOL    HW112593   4.234   3.385   4.510
 3898SOL    HW212594   4.150   3.375   4.370
 3899SOL     OW12595   4.829   1.552   5.893
 3899SOL    HW112596   4.847   1.587   5.985
 3899SOL    HW212597   4.906   1.497   5.862
 3900SOL     OW12598   6.283   2.427   3.384
 3900SOL    HW112599   6.356   2.373   3.427
 3900SOL    HW212600   6.304   2.525   3.394
 3901SOL     OW12601   1.032   6.409   4.920
 3901SOL    HW112602   0.990   6.318   4.931
 3901SOL    HW212603   1.131   6.401   4.926
 3902SOL     OW12604   5.216   4.986   1.762
 3902SOL    HW112605   5.197   4.888   1.755
 3902SOL    HW212606   5.286   5.012   1.696
 3903SOL     OW12607   4.469   3.192   7.021
 3903SOL    HW112608   4.484   3.120   6.952
 3903SOL    HW212609   4.410   3.263   6.984
 3904SOL     OW12610   1.152   6.345   0.799
 3904SOL    HW112611   1.195   6.411   0.860
 3904SOL    HW212612   1.053   6.345   0.815
 3905SOL     OW12613   6.567   0.164   5.901
 3905SOL    HW112614   6.482   0.142   5.950
 3905SOL    HW212615   6.554   0.248   5.848
 3906SOL     OW12616   1.710   5.180   4.227
 3906SOL    HW112617   1.651   5.164   4.306
 3906SOL    HW212618   1.803   5.195   4.258
 3907SOL     OW12619   6.994   1.210   4.419
 3907SOL    HW112620   6.995   1.205   4.519
 3907SOL    HW212621   0.049   1.264   4.388
 3908SOL     OW12622   1.020   0.233   5.131
 3908SOL    HW112623   1.110   0.231   5.088
 3908SOL    HW212624   0.949   0.228   5.061
 3909SOL     OW12625   5.366   3.076   5.909
 3909SOL    HW112626   5.357   3.056   5.811
 3909SOL    HW212627   5.420   3.159   5.922
 3910SOL     OW12628   3.709   2.625   0.804
 3910SOL    HW112629   3.732   2.552   0.740
 3910SOL    HW212630   3.612   2.649   0.795
 3911SOL     OW12631   5.987   1.154   1.570
 3911SOL    HW112632   5.939   1.233   1.530
 3911SOL    HW212633   6.085   1.170   1.570
 3912SOL     OW12634   3.925   2.141   0.230
 3912SOL    HW112635   3.917   2.045   0.255
 3912SOL    HW212636   4.012   2.155   0.182
 3913SOL     OW12637   4.564   5.512   0.717
 3913SOL    HW112638   4.566   5.578   0.641
 3913SOL    HW212639   4.633   5.538   0.785
 3914SOL     OW12640   5.804   0.588   0.592
 3914SOL    HW112641   5.839   0.497   0.573
 3914SOL    HW212642   5.704   0.588   0.582
 3915SOL     OW12643   4.853   5.045   0.271
 3915SOL    HW112644   4.848   4.986   0.189
 3915SOL    HW212645   4.900   4.996   0.344
 3916SOL     OW12646   1.977   0.770   2.716
 3916SOL    HW112647   2.006   0.838   2.649
 3916SOL    HW212648   1.893   0.802   2.761
 3917SOL     OW12649   2.828   4.724   0.633
 3917SOL    HW112650   2.799   4.629   0.623
 3917SOL    HW212651   2.915   4.728   0.683
 3918SOL     OW12652   5.284   0.187   0.631
 3918SOL    HW112653   5.260   0.277   0.594
 3918SOL    HW212654   5.327   0.198   0.720
 3919SOL     OW12655   3.910   0.379   1.529
 3919SOL    HW112656   3.820   0.353   1.494
 3919SOL    HW212657   3.907   0.383   1.629
 3920SOL     OW12658   3.141   1.030   5.654
 3920SOL    HW112659   3.191   0.959   5.604
 3920SOL    HW212660   3.046   1.031   5.623
 3921SOL     OW12661   0.659   2.445   6.428
 3921SOL    HW112662   0.702   2.530   6.398
 3921SOL    HW212663   0.575   2.430   6.375
 3922SOL     OW12664   4.121   4.998   2.352
 3922SOL    HW112665   4.110   5.097   2.341
 3922SOL    HW212666   4.209   4.969   2.315
 3923SOL     OW12667   4.821   0.607   1.690
 3923SOL    HW112668   4.878   0.555   1.753
 3923SOL    HW212669   4.733   0.561   1.679
 3924SOL     OW12670   6.398   4.233   4.574
 3924SOL    HW112671   6.339   4.305   4.609
 3924SOL    HW212672   6.493   4.260   4.585
 3925SOL     OW12673   4.790   3.829   0.986
 3925SOL    HW112674   4.769   3.742   1.030
 3925SOL    HW212675   4.717   3.895   1.006
 3926SOL     OW12676   0.452   0.154   5.293
 3926SOL    HW112677   0.379   0.110   5.345
 3926SOL    HW212678   0.485   0.234   5.342
 3927SOL     OW12679   6.573   2.964   4.998
 3927SOL    HW112680   6.585   2.923   5.089
 3927SOL    HW212681   6.556   3.062   5.009
 3928SOL     OW12682   2.182   6.324   2.916
 3928SOL    HW112683   2.173   6.227   2.939
 3928SOL    HW212684   2.279   6.346   2.902
 3929SOL     OW12685   0.608   2.141   5.295
 3929SOL    HW112686   0.665   2.126   5.376
 3929SOL    HW212687   0.549   2.062   5.280
 3930SOL     OW12688   1.351   3.521   3.738
 3930SOL    HW112689   1.263   3.474   3.725
 3930SOL    HW212690   1.376   3.570   3.655
 3931SOL     OW12691   1.346   2.266   1.545
 3931SOL    HW112692   1.312   2.321   1.621
 3931SOL    HW212693   1.278   2.266   1.471
 3932SOL     OW12694   1.430   5.965   4.334
 3932SOL    HW112695   1.449   5.953   4.237
 3932SOL    HW212696   1.497   6.029   4.373
 3933SOL     OW12697   2.237   5.106   0.555
 3933SOL    HW112698   2.321   5.111   0.501
 3933SOL    HW212699   2.173   5.176   0.524
 3934SOL     OW12700   0.672   1.897   2.057
 3934SOL    HW112701   0.689   1.799   2.053
 3934SOL    HW212702   0.664   1.926   2.152
 3935SOL     OW12703   6.425   3.384   6.963
 3935SOL    HW112704   6.384   3.368   6.873
 3935SOL    HW212705   6.379   3.329   0.009
 3936SOL     OW12706   0.355   5.299   5.626
 3936SOL    HW112707   0.320   5.260   5.541
 3936SOL    HW212708   0.366   5.227   5.694
 3937SOL     OW12709   0.014   0.042   2.404
 3937SOL    HW112710   0.091   0.009   2.459
 3937SOL    HW212711   6.958   7.005   2.418
 3938SOL     OW12712   6.937   4.375   3.119
 3938SOL    HW112713   0.004   4.369   3.076
 3938SOL    HW212714   6.908   4.471   3.122
 3939SOL     OW12715   0.724   1.189   2.423
 3939SOL    HW112716   0.649   1.155   2.366
 3939SOL    HW212717   0.687   1.229   2.507
 3940SOL     OW12718   3.095   4.606   1.199
 3940SOL    HW112719   3.005   4.589   1.161
 3940SOL    HW212720   3.132   4.522   1.238
 3941SOL     OW12721   5.879   6.736   4.464
 3941SOL    HW112722   5.900   6.639   4.478
 3941SOL    HW212723   5.785   6.745   4.430
 3942SOL     OW12724   0.501   5.980   6.257
 3942SOL    HW112725   0.551   5.909   6.207
 3942SOL    HW212726   0.562   6.024   6.323
 3943SOL     OW12727   1.382   3.230   0.509
 3943SOL    HW112728   1.359   3.204   0.602
 3943SOL    HW212729   1.396   3.329   0.505
 3944SOL     OW12730   6.179   2.096   6.901
 3944SOL    HW112731   6.106   2.034   6.929
 3944SOL    HW212732   6.203   2.078   6.805
 3945SOL     OW12733   0.075   1.290   2.965
 3945SOL    HW112734   0.145   1.322   2.901
 3945SOL    HW212735   7.008   1.300   2.923
 3946SOL     OW12736   0.941   3.148   0.666
 3946SOL    HW112737   1.003   3.107   0.600
 3946SOL    HW212738   0.847   3.119   0.647
 3947SOL     OW12739   5.973   5.388   1.063
 3947SOL    HW112740   5.923   5.352   0.984
 3947SOL    HW212741   6.033   5.318   1.100
 3948SOL     OW12742   1.637   2.430   5.822
 3948SOL    HW112743   1.703   2.368   5.780
 3948SOL    HW212744   1.676   2.466   5.907
 3949SOL     OW12745   6.248   6.174   2.420
 3949SOL    HW112746   6.249   6.236   2.342
 3949SOL    HW212747   6.223   6.224   2.502
 3950SOL     OW12748   3.319   4.141   1.156
 3950SOL    HW112749   3.237   4.138   1.099
 3950SOL    HW212750   3.305   4.207   1.230
 3951SOL     OW12751   0.781   2.052   5.499
 3951SOL    HW112752   0.845   2.011   5.434
 3951SOL    HW212753   0.805   2.024   5.592
 3952SOL     OW12754   6.713   3.508   5.628
 3952SOL    HW112755   6.706   3.454   5.545
 3952SOL    HW212756   6.708   3.605   5.606
 3953SOL     OW12757   3.511   4.123   6.173
 3953SOL    HW112758   3.456   4.076   6.104
 3953SOL    HW212759   3.602   4.143   6.135
 3954SOL     OW12760   0.814   3.704   5.545
 3954SOL    HW112761   0.858   3.708   5.456
 3954SOL    HW212762   0.734   3.644   5.541
 3955SOL     OW12763   5.370   5.079   0.180
 3955SOL    HW112764   5.420   5.165   0.178
 3955SOL    HW212765   5.390   5.030   0.265
 3956SOL     OW12766   0.525   2.881   5.797
 3956SOL    HW112767   0.616   2.924   5.794
 3956SOL    HW212768   0.464   2.936   5.854
 3957SOL     OW12769   1.811   0.271   3.247
 3957SOL    HW112770   1.891   0.255   3.304
 3957SOL    HW212771   1.822   0.355   3.195
 3958SOL     OW12772   5.792   6.220   5.265
 3958SOL    HW112773   5.805   6.266   5.353
 3958SOL    HW212774   5.737   6.278   5.205
 3959SOL     OW12775   2.723   5.117   0.101
 3959SOL    HW112776   2.657   5.092   0.172
 3959SOL    HW212777   2.783   5.039   0.081
 3960SOL     OW12778   3.876   3.469   0.114
 3960SOL    HW112779   3.869   3.386   0.169
 3960SOL    HW212780   3.886   3.445   0.018
 3961SOL     OW12781   4.650   0.513   1.407
 3961SOL    HW112782   4.646   0.485   1.503
 3961SOL    HW212783   4.637   0.432   1.349
 3962SOL     OW12784   0.725   0.239   6.287
 3962SOL    HW112785   0.675   0.323   6.263
 3962SOL    HW212786   0.700   0.167   6.223
 3963SOL     OW12787   4.371   5.656   3.189
 3963SOL    HW112788   4.457   5.688   3.228
 3963SOL    HW212789   4.389   5.590   3.117
 3964SOL     OW12790   5.199   5.873   5.259
 3964SOL    HW112791   5.138   5.917   5.193
 3964SOL    HW212792   5.145   5.818   5.323
 3965SOL     OW12793   3.283   3.392   0.276
 3965SOL    HW112794   3.369   3.350   0.247
 3965SOL    HW212795   3.291   3.422   0.371
 3966SOL     OW12796   6.273   3.977   5.182
 3966SOL    HW112797   6.291   4.023   5.095
 3966SOL    HW212798   6.225   4.040   5.243
 3967SOL     OW12799   0.425   5.537   6.017
 3967SOL    HW112800   0.375   5.561   6.100
 3967SOL    HW212801   0.456   5.621   5.971
 3968SOL     OW12802   5.900   1.395   1.794
 3968SOL    HW112803   5.961   1.323   1.761
 3968SOL    HW212804   5.807   1.360   1.798
 3969SOL     OW12805   0.422   5.399   2.405
 3969SOL    HW112806   0.325   5.411   2.381
 3969SOL    HW212807   0.429   5.341   2.486
 3970SOL     OW12808   5.271   4.349   2.948
 3970SOL    HW112809   5.200   4.413   2.978
 3970SOL    HW212810   5.290   4.363   2.851
 3971SOL     OW12811   1.557   5.757   2.945
 3971SOL    HW112812   1.502   5.677   2.922
 3971SOL    HW212813   1.588   5.801   2.861
 3972SOL     OW12814   0.654   6.927   0.165
 3972SOL    HW112815   0.735   6.888   0.208
 3972SOL    HW212816   0.610   6.991   0.228
 3973SOL     OW12817   2.902   3.591   4.567
 3973SOL    HW112818   2.919   3.658   4.494
 3973SOL    HW212819   2.853   3.636   4.642
 3974SOL     OW12820   6.334   1.495   6.480
 3974SOL    HW112821   6.257   1.472   6.420
 3974SOL    HW212822   6.353   1.419   6.541
 3975SOL     OW12823   6.943   0.734   5.823
 3975SOL    HW112824   6.848   0.734   5.792
 3975SOL    HW212825   6.962   0.649   5.872
 3976SOL     OW12826   1.088   3.365   0.377
 3976SOL    HW112827   1.034   3.445   0.350
 3976SOL    HW212828   1.139   3.385   0.461
 3977SOL     OW12829   3.464   6.010   6.426
 3977SOL    HW112830   3.547   6.020   6.371
 3977SOL    HW212831   3.396   5.957   6.375
 3978SOL     OW12832   6.168   2.921   6.368
 3978SOL    HW112833   6.072   2.899   6.386
 3978SOL    HW212834   6.174   3.013   6.330
 3979SOL     OW12835   0.573   6.793   2.267
 3979SOL    HW112836   0.527   6.743   2.340
 3979SOL    HW212837   0.594   6.886   2.298
 3980SOL     OW12838   4.932   3.277   4.545
 3980SOL    HW112839   4.897   3.258   4.453
 3980SOL    HW212840   4.925   3.195   4.601
 3981SOL     OW12841   0.107   1.828   6.715
 3981SOL    HW112842   0.009   1.820   6.736
 3981SOL    HW212843   0.154   1.867   6.794
 3982SOL     OW12844   2.345   1.940   3.776
 3982SOL    HW112845   2.299   1.950   3.687
 3982SOL    HW212846   2.441   1.915   3.761
 3983SOL     OW12847   3.035   6.073   4.204
 3983SOL    HW112848   3.015   6.052   4.108
 3983SOL    HW212849   2.971   6.142   4.237
 3984SOL     OW12850   2.232   6.469   1.435
 3984SOL    HW112851   2.170   6.521   1.494
 3984SOL    HW212852   2.192   6.379   1.416
 3985SOL     OW12853   2.510   3.079   1.460
 3985SOL    HW112854   2.530   3.005   1.395
 3985SOL    HW212855   2.537   3.050   1.552
 3986SOL     OW12856   0.378   2.123   1.844
 3986SOL    HW112857   0.447   2.193   1.825
 3986SOL    HW212858   0.406   2.068   1.923
 3987SOL     OW12859   2.665   4.787   6.667
 3987SOL    HW112860   2.639   4.836   6.750
 3987SOL    HW212861   2.724   4.845   6.612
 3988SOL     OW12862   4.341   2.848   0.597
 3988SOL    HW112863   4.288   2.913   0.542
 3988SOL    HW212864   4.299   2.839   0.687
 3989SOL     OW12865   5.398   6.573   6.657
 3989SOL    HW112866   5.397   6.601   6.753
 3989SOL    HW212867   5.303   6.565   6.624
 3990SOL     OW12868   0.871   3.564   3.378
 3990SOL    HW112869   0.801   3.524   3.320
 3990SOL    HW212870   0.891   3.501   3.454
 3991SOL     OW12871   0.263   2.098   3.968
 3991SOL    HW112872   0.290   2.149   3.886
 3991SOL    HW212873   0.268   2.000   3.950
 3992SOL     OW12874   4.315   3.692   6.431
 3992SOL    HW112875   4.377   3.732   6.498
 3992SOL    HW212876   4.300   3.595   6.453
 3993SOL     OW12877   2.786   2.327   2.860
 3993SOL    HW112878   2.805   2.343   2.957
 3993SOL    HW212879   2.721   2.395   2.828
 3994SOL     OW12880   2.430   2.689   3.676
 3994SOL    HW112881   2.442   2.756   3.749
 3994SOL    HW212882   2.482   2.606   3.698
 3995SOL     OW12883   2.122   3.894   3.328
 3995SOL    HW112884   2.110   3.902   3.427
 3995SOL    HW212885   2.118   3.798   3.301
 3996SOL     OW12886   6.983   1.472   3.185
 3996SOL    HW112887   0.013   1.394   3.218
 3996SOL    HW212888   7.000   1.485   3.088
 3997SOL     OW12889   5.670   3.913   3.186
 3997SOL    HW112890   5.646   3.960   3.101
 3997SOL    HW212891   5.750   3.855   3.172
 3998SOL     OW12892   6.632   1.807   3.310
 3998SOL    HW112893   6.588   1.758   3.386
 3998SOL    HW212894   6.584   1.893   3.293
 3999SOL     OW12895   5.744   3.622   2.564
 3999SOL    HW112896   5.694   3.535   2.556
 3999SOL    HW212897   5.822   3.609   2.625
 4000SOL     OW12898   2.236   5.739   2.389
 4000SOL    HW112899   2.175   5.736   2.310
 4000SOL    HW212900   2.282   5.651   2.399
 4001SOL     OW12901   2.663   3.801   5.301
 4001SOL    HW112902   2.735   3.825   5.236
 4001SOL    HW212903   2.579   3.847   5.275
 4002SOL     OW12904   3.560   2.871   4.620
 4002SOL    HW112905   3.572   2.957   4.570
 4002SOL    HW212906   3.515   2.804   4.562
 4003SOL     OW12907   2.096   0.835   5.525
 4003SOL    HW112908   2.165   0.906   5.511
 4003SOL    HW212909   2.023   0.870   5.584
 4004SOL     OW12910   7.016   4.008   2.796
 4004SOL    HW112911   6.972   4.010   2.706
 4004SOL    HW212912   0.090   4.032   2.787
 4005SOL     OW12913   4.620   3.608   1.573
 4005SOL    HW112914   4.703   3.552   1.567
 4005SOL    HW212915   4.542   3.550   1.595
 4006SOL     OW12916   4.737   5.259   2.753
 4006SOL    HW112917   4.712   5.220   2.842
 4006SOL    HW212918   4.675   5.224   2.683
 4007SOL     OW12919   0.606   1.718   2.960
 4007SOL    HW112920   0.557   1.796   3.001
 4007SOL    HW212921   0.638   1.658   3.033
 4008SOL     OW12922   2.402   0.059   0.813
 4008SOL    HW112923   2.371   0.012   0.731
 4008SOL    HW212924   2.323   0.092   0.865
 4009SOL     OW12925   4.508   1.825   1.029
 4009SOL    HW112926   4.604   1.799   1.013
 4009SOL    HW212927   4.494   1.844   1.126
 4010SOL     OW12928   3.269   4.363   1.329
 4010SOL    HW112929   3.225   4.366   1.419
 4010SOL    HW212930   3.355   4.414   1.333
 4011SOL     OW12931   6.507   6.140   0.661
 4011SOL    HW112932   6.571   6.099   0.597
 4011SOL    HW212933   6.493   6.237   0.637
 4012SOL     OW12934   4.133   6.505   1.679
 4012SOL    HW112935   4.165   6.584   1.625
 4012SOL    HW212936   4.211   6.464   1.727
 4013SOL     OW12937   1.764   0.774   0.840
 4013SOL    HW112938   1.774   0.867   0.876
 4013SOL    HW212939   1.704   0.721   0.900
 4014SOL     OW12940   2.917   5.623   3.487
 4014SOL    HW112941   2.886   5.714   3.459
 4014SOL    HW212942   2.998   5.631   3.544
 4015SOL     OW12943   4.592   5.335   6.205
 4015SOL    HW112944   4.611   5.239   6.226
 4015SOL    HW212945   4.676   5.380   6.176
 4016SOL     OW12946   3.201   5.682   6.159
 4016SOL    HW112947   3.258   5.718   6.084
 4016SOL    HW212948   3.233   5.591   6.184
 4017SOL     OW12949   0.886   5.398   5.782
 4017SOL    HW112950   0.787   5.385   5.776
 4017SOL    HW212951   0.929   5.356   5.701
 4018SOL     OW12952   3.707   6.264   1.937
 4018SOL    HW112953   3.707   6.193   1.867
 4018SOL    HW212954   3.695   6.354   1.894
 4019SOL     OW12955   5.392   3.201   2.498
 4019SOL    HW112956   5.341   3.117   2.521
 4019SOL    HW212957   5.474   3.177   2.446
 4020SOL     OW12958   6.864   4.251   4.114
 4020SOL    HW112959   6.854   4.153   4.132
 4020SOL    HW212960   6.776   4.289   4.086
 4021SOL     OW12961   3.445   3.747   5.869
 4021SOL    HW112962   3.387   3.718   5.944
 4021SOL    HW212963   3.504   3.671   5.840
 4022SOL     OW12964   3.466   6.846   0.530
 4022SOL    HW112965   3.393   6.871   0.593
 4022SOL    HW212966   3.471   6.746   0.522
 4023SOL     OW12967   0.263   1.927   5.611
 4023SOL    HW112968   0.226   1.891   5.525
 4023SOL    HW212969   0.355   1.962   5.596
 4024SOL     OW12970   1.574   5.247   4.014
 4024SOL    HW112971   1.494   5.305   4.033
 4024SOL    HW212972   1.630   5.239   4.096
 4025SOL     OW12973   1.019   6.150   4.075
 4025SOL    HW112974   1.087   6.078   4.062
 4025SOL    HW212975   0.956   6.150   3.997
 4026SOL     OW12976   6.477   6.096   4.005
 4026SOL    HW112977   6.462   6.168   4.073
 4026SOL    HW212978   6.517   6.016   4.050
 4027SOL     OW12979   2.720   2.284   6.578
 4027SOL    HW112980   2.695   2.241   6.665
 4027SOL    HW212981   2.636   2.308   6.528
 4028SOL     OW12982   4.646   1.661   3.243
 4028SOL    HW112983   4.603   1.571   3.244
 4028SOL    HW212984   4.615   1.711   3.162
 4029SOL     OW12985   2.874   3.980   6.542
 4029SOL    HW112986   2.837   3.967   6.451
 4029SOL    HW212987   2.824   4.054   6.588
 4030SOL     OW12988   6.871   0.866   2.051
 4030SOL    HW112989   6.805   0.810   2.000
 4030SOL    HW212990   6.827   0.952   2.079
 4031SOL     OW12991   5.490   0.302   2.205
 4031SOL    HW112992   5.482   0.245   2.287
 4031SOL    HW212993   5.531   0.248   2.131
 4032SOL     OW12994   6.381   6.678   1.818
 4032SOL    HW112995   6.359   6.617   1.742
 4032SOL    HW212996   6.469   6.652   1.857
 4033SOL     OW12997   2.963   2.218   2.684
 4033SOL    HW112998   2.959   2.281   2.606
 4033SOL    HW212999   2.906   2.254   2.758
 4034SOL     OW13000   6.409   2.654   5.327
 4034SOL    HW113001   6.401   2.566   5.281
 4034SOL    HW213002   6.462   2.716   5.269
 4035SOL     OW13003   6.605   2.191   1.641
 4035SOL    HW113004   6.624   2.288   1.653
 4035SOL    HW213005   6.515   2.170   1.678
 4036SOL     OW13006   3.734   4.836   2.425
 4036SOL    HW113007   3.785   4.845   2.340
 4036SOL    HW213008   3.795   4.804   2.497
 4037SOL     OW13009   2.933   0.945   6.022
 4037SOL    HW113010   2.844   0.923   6.060
 4037SOL    HW213011   2.986   0.861   6.011
 4038SOL     OW13012   4.667   3.564   6.983
 4038SOL    HW113013   4.701   3.470   6.983
 4038SOL    HW213014   4.627   3.585   0.049
 4039SOL     OW13015   5.249   5.984   1.379
 4039SOL    HW113016   5.222   6.074   1.413
 4039SOL    HW213017   5.211   5.913   1.438
 4040SOL     OW13018   3.279   5.806   4.559
 4040SOL    HW113019   3.346   5.853   4.617
 4040SOL    HW213020   3.251   5.721   4.603
 4041SOL     OW13021   1.801   6.339   1.463
 4041SOL    HW113022   1.794   6.439   1.460
 4041SOL    HW213023   1.852   6.311   1.544
 4042SOL     OW13024   5.895   6.489   2.981
 4042SOL    HW113025   5.842   6.555   3.034
 4042SOL    HW213026   5.976   6.534   2.942
 4043SOL     OW13027   6.775   1.973   6.844
 4043SOL    HW113028   6.806   2.042   6.779
 4043SOL    HW213029   6.720   2.016   6.916
 4044SOL     OW13030   5.264   4.696   2.737
 4044SOL    HW113031   5.218   4.777   2.699
 4044SOL    HW213032   5.255   4.696   2.837
 4045SOL     OW13033   3.907   6.377   6.089
 4045SOL    HW113034   3.931   6.286   6.055
 4045SOL    HW213035   3.904   6.441   6.012
 4046SOL     OW13036   0.799   1.843   2.589
 4046SOL    HW113037   0.865   1.918   2.582
 4046SOL    HW213038   0.715   1.876   2.633
 4047SOL     OW13039   1.983   2.424   6.993
 4047SOL    HW113040   1.971   2.461   6.901
 4047SOL    HW213041   1.937   2.484   0.036
 4048SOL     OW13042   5.415   1.139   1.901
 4048SOL    HW113043   5.364   1.184   1.974
 4048SOL    HW213044   5.359   1.067   1.860
 4049SOL     OW13045   4.488   6.330   6.505
 4049SOL    HW113046   4.422   6.343   6.579
 4049SOL    HW213047   4.444   6.283   6.429
 4050SOL     OW13048   0.915   6.513   1.996
 4050SOL    HW113049   0.935   6.433   1.940
 4050SOL    HW213050   1.000   6.554   2.027
 4051SOL     OW13051   4.858   1.408   6.450
 4051SOL    HW113052   4.882   1.334   6.513
 4051SOL    HW213053   4.932   1.475   6.447
 4052SOL     OW13054   5.889   2.104   3.319
 4052SOL    HW113055   5.857   2.196   3.296
 4052SOL    HW213056   5.966   2.111   3.383
 4053SOL     OW13057   1.702   6.112   4.751
 4053SOL    HW113058   1.768   6.161   4.695
 4053SOL    HW213059   1.706   6.014   4.729
 4054SOL     OW13060   4.835   4.555   1.344
 4054SOL    HW113061   4.867   4.577   1.437
 4054SOL    HW213062   4.818   4.457   1.338
 4055SOL     OW13063   1.468   4.077   1.523
 4055SOL    HW113064   1.538   4.005   1.526
 4055SOL    HW213065   1.393   4.053   1.585
 4056SOL     OW13066   5.013   3.779   1.226
 4056SOL    HW113067   4.945   3.815   1.290
 4056SOL    HW213068   5.105   3.793   1.262
 4057SOL     OW13069   6.731   3.018   6.589
 4057SOL    HW113070   6.656   3.075   6.625
 4057SOL    HW213071   6.780   2.976   6.665
 4058SOL     OW13072   2.637   6.310   4.963
 4058SOL    HW113073   2.639   6.359   5.050
 4058SOL    HW213074   2.578   6.230   4.971
 4059SOL     OW13075   0.066   2.967   3.184
 4059SOL    HW113076   0.089   3.010   3.096
 4059SOL    HW213077   0.016   2.882   3.167
 4060SOL     OW13078   6.313   5.030   5.607
 4060SOL    HW113079   6.231   5.068   5.563
 4060SOL    HW213080   6.349   4.955   5.551
 4061SOL     OW13081   2.618   4.632   2.172
 4061SOL    HW113082   2.708   4.612   2.135
 4061SOL    HW213083   2.622   4.716   2.226
 4062SOL     OW13084   2.824   0.227   1.874
 4062SOL    HW113085   2.850   0.236   1.971
 4062SOL    HW213086   2.741   0.172   1.867
 4063SOL     OW13087   6.182   6.861   0.656
 4063SOL    HW113088   6.234   6.822   0.732
 4063SOL    HW213089   6.103   6.803   0.636
 4064SOL     OW13090   2.918   2.244   4.678
 4064SOL    HW113091   3.012   2.209   4.675
 4064SOL    HW213092   2.897   2.275   4.771
 4065SOL     OW13093   0.708   0.371   1.264
 4065SOL    HW113094   0.628   0.427   1.283
 4065SOL    HW213095   0.770   0.373   1.342
 4066SOL     OW13096   6.854   4.214   2.884
 4066SOL    HW113097   6.906   4.130   2.866
 4066SOL    HW213098   6.878   4.250   2.974
 4067SOL     OW13099   5.443   3.775   3.567
 4067SOL    HW113100   5.503   3.710   3.520
 4067SOL    HW213101   5.442   3.861   3.517
 4068SOL     OW13102   1.973   2.379   4.448
 4068SOL    HW113103   2.055   2.423   4.415
 4068SOL    HW213104   1.974   2.282   4.423
 4069SOL     OW13105   3.251   5.715   6.886
 4069SOL    HW113106   3.347   5.687   6.894
 4069SOL    HW213107   3.192   5.639   6.916
 4070SOL     OW13108   0.760   3.271   2.839
 4070SOL    HW113109   0.681   3.267   2.900
 4070SOL    HW213110   0.830   3.330   2.880
 4071SOL     OW13111   1.434   0.919   4.740
 4071SOL    HW113112   1.427   0.954   4.646
 4071SOL    HW213113   1.345   0.924   4.784
 4072SOL     OW13114   0.409   5.204   5.169
 4072SOL    HW113115   0.470   5.146   5.224
 4072SOL    HW213116   0.437   5.199   5.073
 4073SOL     OW13117   2.762   5.397   5.908
 4073SOL    HW113118   2.806   5.471   5.856
 4073SOL    HW213119   2.788   5.404   6.005
 4074SOL     OW13120   0.411   4.790   1.254
 4074SOL    HW113121   0.486   4.840   1.299
 4074SOL    HW213122   0.328   4.797   1.309
 4075SOL     OW13123   4.887   1.962   1.233
 4075SOL    HW113124   4.868   2.014   1.316
 4075SOL    HW213125   4.936   1.878   1.257
 4076SOL     OW13126   3.232   3.397   5.711
 4076SOL    HW113127   3.298   3.366   5.642
 4076SOL    HW213128   3.226   3.497   5.707
 4077SOL     OW13129   4.082   1.666   1.064
 4077SOL    HW113130   4.136   1.598   1.114
 4077SOL    HW213131   4.055   1.740   1.126
 4078SOL     OW13132   2.302   5.173   2.248
 4078SOL    HW113133   2.264   5.116   2.175
 4078SOL    HW213134   2.400   5.157   2.255
 4079SOL     OW13135   2.401   1.467   3.289
 4079SOL    HW113136   2.466   1.392   3.275
 4079SOL    HW213137   2.431   1.546   3.237
 4080SOL     OW13138   5.247   2.476   5.879
 4080SOL    HW113139   5.334   2.524   5.863
 4080SOL    HW213140   5.193   2.479   5.795
 4081SOL     OW13141   1.395   2.695   4.098
 4081SOL    HW113142   1.304   2.736   4.102
 4081SOL    HW213143   1.438   2.700   4.188
 4082SOL     OW13144   0.655   4.148   0.639
 4082SOL    HW113145   0.695   4.057   0.629
 4082SOL    HW213146   0.660   4.176   0.735
 4083SOL     OW13147   6.222   3.332   3.193
 4083SOL    HW113148   6.222   3.404   3.124
 4083SOL    HW213149   6.299   3.344   3.255
 4084SOL     OW13150   5.867   1.639   3.769
 4084SOL    HW113151   5.959   1.673   3.791
 4084SOL    HW213152   5.855   1.637   3.670
 4085SOL     OW13153   3.815   5.215   0.467
 4085SOL    HW113154   3.716   5.207   0.477
 4085SOL    HW213155   3.837   5.289   0.404
 4086SOL     OW13156   2.586   6.414   1.176
 4086SOL    HW113157   2.533   6.461   1.247
 4086SOL    HW213158   2.607   6.321   1.205
 4087SOL     OW13159   2.928   2.237   3.274
 4087SOL    HW113160   2.942   2.327   3.234
 4087SOL    HW213161   2.886   2.177   3.206
 4088SOL     OW13162   6.952   1.594   1.017
 4088SOL    HW113163   6.922   1.522   1.079
 4088SOL    HW213164   6.962   1.557   0.925
 4089SOL     OW13165   6.564   6.231   3.309
 4089SOL    HW113166   6.594   6.232   3.404
 4089SOL    HW213167   6.602   6.310   3.261
 4090SOL     OW13168   2.837   4.106   5.720
 4090SOL    HW113169   2.751   4.083   5.675
 4090SOL    HW213170   2.845   4.206   5.727
 4091SOL     OW13171   6.854   6.753   0.587
 4091SOL    HW113172   6.763   6.771   0.550
 4091SOL    HW213173   6.849   6.678   0.653
 4092SOL     OW13174   6.530   3.229   5.032
 4092SOL    HW113175   6.579   3.314   5.014
 4092SOL    HW213176   6.449   3.248   5.089
 4093SOL     OW13177   4.575   0.840   3.685
 4093SOL    HW113178   4.577   0.922   3.628
 4093SOL    HW213179   4.538   0.862   3.775
 4094SOL     OW13180   2.308   5.507   4.672
 4094SOL    HW113181   2.398   5.551   4.676
 4094SOL    HW213182   2.256   5.531   4.754
 4095SOL     OW13183   0.905   3.598   6.872
 4095SOL    HW113184   0.871   3.645   6.790
 4095SOL    HW213185   1.002   3.577   6.860
 4096SOL     OW13186   4.231   5.133   1.232
 4096SOL    HW113187   4.207   5.221   1.191
 4096SOL    HW213188   4.330   5.119   1.225
 4097SOL     OW13189   3.818   3.965   6.274
 4097SOL    HW113190   3.779   3.911   6.199
 4097SOL    HW213191   3.866   3.904   6.337
 4098SOL     OW13192   0.187   3.039   2.189
 4098SOL    HW113193   0.134   3.121   2.208
 4098SOL    HW213194   0.266   3.062   2.132
 4099SOL     OW13195   2.830   4.704   1.499
 4099SOL    HW113196   2.836   4.725   1.401
 4099SOL    HW213197   2.744   4.656   1.517
 4100SOL     OW13198   6.236   5.951   5.095
 4100SOL    HW113199   6.200   5.925   5.006
 4100SOL    HW213200   6.305   5.885   5.125
 4101SOL     OW13201   5.630   0.957   0.328
 4101SOL    HW113202   5.620   1.056   0.336
 4101SOL    HW213203   5.597   0.927   0.239
 4102SOL     OW13204   7.015   0.656   1.886
 4102SOL    HW113205   6.949   0.619   1.821
 4102SOL    HW213206   0.009   0.752   1.865
 4103SOL     OW13207   0.306   0.975   1.852
 4103SOL    HW113208   0.395   0.988   1.809
 4103SOL    HW213209   0.313   0.907   1.924
 4104SOL     OW13210   1.232   4.526   2.591
 4104SOL    HW113211   1.239   4.446   2.651
 4104SOL    HW213212   1.324   4.561   2.571
 4105SOL     OW13213   3.946   5.445   1.474
 4105SOL    HW113214   4.010   5.421   1.546
 4105SOL    HW213215   3.911   5.362   1.430
 4106SOL     OW13216   0.275   2.182   5.140
 4106SOL    HW113217   0.363   2.229   5.134
 4106SOL    HW213218   0.222   2.199   5.057
 4107SOL     OW13219   1.198   5.928   0.589
 4107SOL    HW113220   1.277   5.973   0.549
 4107SOL    HW213221   1.169   5.977   0.671
 4108SOL     OW13222   0.325   4.975   5.740
 4108SOL    HW113223   0.233   4.982   5.702
 4108SOL    HW213224   0.322   4.995   5.838
 4109SOL     OW13225   4.842   6.335   5.286
 4109SOL    HW113226   4.838   6.254   5.344
 4109SOL    HW213227   4.853   6.307   5.190
 4110SOL     OW13228   4.759   3.507   6.667
 4110SOL    HW113229   4.683   3.442   6.669
 4110SOL    HW213230   4.743   3.578   6.736
 4111SOL     OW13231   3.980   2.995   6.511
 4111SOL    HW113232   4.001   3.068   6.447
 4111SOL    HW213233   4.016   2.908   6.477
 4112SOL     OW13234   4.875   1.011   5.621
 4112SOL    HW113235   4.917   0.923   5.596
 4112SOL    HW213236   4.940   1.085   5.603
 4113SOL     OW13237   4.560   6.383   4.692
 4113SOL    HW113238   4.497   6.414   4.621
 4113SOL    HW213239   4.575   6.284   4.683
 4114SOL     OW13240   3.922   2.134   3.579
 4114SOL    HW113241   3.999   2.089   3.533
 4114SOL    HW213242   3.859   2.171   3.511
 4115SOL     OW13243   4.623   5.742   2.011
 4115SOL    HW113244   4.568   5.804   2.068
 4115SOL    HW213245   4.599   5.648   2.032
 4116SOL     OW13246   4.590   2.186   1.488
 4116SOL    HW113247   4.537   2.158   1.567
 4116SOL    HW213248   4.531   2.189   1.407
 4117SOL     OW13249   0.611   4.957   1.800
 4117SOL    HW113250   0.617   5.005   1.888
 4117SOL    HW213251   0.568   5.017   1.733
 4118SOL     OW13252   1.749   6.224   0.710
 4118SOL    HW113253   1.742   6.125   0.698
 4118SOL    HW213254   1.785   6.265   0.626
 4119SOL     OW13255   4.161   1.724   3.333
 4119SOL    HW113256   4.147   1.688   3.425
 4119SOL    HW213257   4.209   1.655   3.278
 4120SOL     OW13258   4.315   0.485   0.554
 4120SOL    HW113259   4.217   0.501   0.563
 4120SOL    HW213260   4.359   0.567   0.518
 4121SOL     OW13261   5.896   1.146   4.942
 4121SOL    HW113262   5.955   1.192   5.008
 4121SOL    HW213263   5.881   1.207   4.864
 4122SOL     OW13264   0.888   6.822   5.698
 4122SOL    HW113265   0.837   6.820   5.613
 4122SOL    HW213266   0.970   6.764   5.690
 4123SOL     OW13267   4.879   4.824   5.462
 4123SOL    HW113268   4.793   4.870   5.484
 4123SOL    HW213269   4.955   4.882   5.491
 4124SOL     OW13270   5.968   5.174   6.013
 4124SOL    HW113271   5.983   5.273   6.012
 4124SOL    HW213272   5.961   5.140   5.919
 4125SOL     OW13273   4.484   1.068   1.954
 4125SOL    HW113274   4.498   1.157   1.911
 4125SOL    HW213275   4.489   0.996   1.884
 4126SOL     OW13276   1.331   4.794   4.042
 4126SOL    HW113277   1.269   4.730   3.998
 4126SOL    HW213278   1.385   4.746   4.112
 4127SOL     OW13279   4.918   4.519   4.568
 4127SOL    HW113280   4.830   4.530   4.615
 4127SOL    HW213281   4.928   4.590   4.498
 4128SOL     OW13282   1.821   3.746   2.270
 4128SOL    HW113283   1.838   3.758   2.368
 4128SOL    HW213284   1.907   3.722   2.224
 4129SOL     OW13285   5.335   1.281   6.458
 4129SOL    HW113286   5.333   1.235   6.547
 4129SOL    HW213287   5.388   1.227   6.394
 4130SOL     OW13288   0.019   3.633   5.691
 4130SOL    HW113289   6.974   3.696   5.651
 4130SOL    HW213290   7.005   3.541   5.692
 4131SOL     OW13291   1.028   5.985   3.759
 4131SOL    HW113292   0.968   5.905   3.750
 4131SOL    HW213293   1.107   5.961   3.816
 4132SOL     OW13294   5.345   4.743   3.571
 4132SOL    HW113295   5.247   4.760   3.569
 4132SOL    HW213296   5.390   4.801   3.502
 4133SOL     OW13297   2.766   6.798   1.821
 4133SOL    HW113298   2.713   6.875   1.857
 4133SOL    HW213299   2.774   6.728   1.892
 4134SOL     OW13300   1.815   2.353   0.595
 4134SOL    HW113301   1.808   2.361   0.695
 4134SOL    HW213302   1.757   2.278   0.564
 4135SOL     OW13303   1.876   0.498   2.918
 4135SOL    HW113304   1.810   0.540   2.980
 4135SOL    HW213305   1.967   0.498   2.961
 4136SOL     OW13306   0.869   2.033   2.995
 4136SOL    HW113307   0.935   1.983   3.052
 4136SOL    HW213308   0.777   2.022   3.033
 4137SOL     OW13309   1.977   3.796   1.199
 4137SOL    HW113310   2.058   3.853   1.189
 4137SOL    HW213311   1.988   3.713   1.145
 4138SOL     OW13312   3.976   5.456   3.455
 4138SOL    HW113313   3.937   5.453   3.363
 4138SOL    HW213314   4.074   5.475   3.449
 4139SOL     OW13315   2.199   2.304   5.479
 4139SOL    HW113316   2.204   2.403   5.490
 4139SOL    HW213317   2.177   2.281   5.384
 4140SOL     OW13318   2.761   0.387   5.166
 4140SOL    HW113319   2.803   0.299   5.186
 4140SOL    HW213320   2.831   0.452   5.136
 4141SOL     OW13321   5.082   5.906   1.158
 4141SOL    HW113322   5.082   5.996   1.116
 4141SOL    HW213323   5.134   5.909   1.244
 4142SOL     OW13324   6.908   5.790   0.493
 4142SOL    HW113325   6.936   5.781   0.589
 4142SOL    HW213326   6.894   5.699   0.454
 4143SOL     OW13327   6.832   2.996   6.905
 4143SOL    HW113328   6.790   3.086   6.895
 4143SOL    HW213329   6.888   2.994   6.988
 4144SOL     OW13330   5.782   2.844   0.353
 4144SOL    HW113331   5.716   2.823   0.281
 4144SOL    HW213332   5.821   2.759   0.389
 4145SOL     OW13333   0.243   6.023   1.856
 4145SOL    HW113334   0.176   5.966   1.810
 4145SOL    HW213335   0.264   6.103   1.799
 4146SOL     OW13336   6.328   0.429   5.327
 4146SOL    HW113337   6.313   0.473   5.415
 4146SOL    HW213338   6.419   0.451   5.294
 4147SOL     OW13339   3.959   1.785   5.405
 4147SOL    HW113340   3.930   1.720   5.335
 4147SOL    HW213341   3.893   1.860   5.411
 4148SOL     OW13342   0.584   7.000   3.823
 4148SOL    HW113343   0.524   6.985   3.902
 4148SOL    HW213344   0.536   0.035   3.757
 4149SOL     OW13345   0.517   3.044   0.134
 4149SOL    HW113346   0.561   2.976   0.193
 4149SOL    HW213347   0.518   3.012   0.040
 4150SOL     OW13348   6.638   0.825   5.747
 4150SOL    HW113349   6.660   0.728   5.745
 4150SOL    HW213350   6.566   0.844   5.681
 4151SOL     OW13351   4.737   6.304   6.419
 4151SOL    HW113352   4.750   6.210   6.453
 4151SOL    HW213353   4.651   6.340   6.454
 4152SOL     OW13354   2.887   5.577   1.219
 4152SOL    HW113355   2.979   5.540   1.227
 4152SOL    HW213356   2.859   5.615   1.307
 4153SOL     OW13357   5.083   4.983   6.151
 4153SOL    HW113358   5.035   5.070   6.163
 4153SOL    HW213359   5.123   4.980   6.059
 4154SOL     OW13360   7.000   4.020   5.289
 4154SOL    HW113361   0.059   3.967   5.311
 4154SOL    HW213362   0.003   4.105   5.244
 4155SOL     OW13363   5.925   2.726   3.107
 4155SOL    HW113364   5.900   2.629   3.104
 4155SOL    HW213365   5.947   2.751   3.201
 4156SOL     OW13366   5.264   0.196   5.380
 4156SOL    HW113367   5.323   0.136   5.326
 4156SOL    HW213368   5.273   0.290   5.347
 4157SOL     OW13369   4.138   6.938   3.699
 4157SOL    HW113370   4.120   6.867   3.767
 4157SOL    HW213371   4.216   6.993   3.729
 4158SOL     OW13372   1.742   5.695   4.287
 4158SOL    HW113373   1.672   5.688   4.216
 4158SOL    HW213374   1.784   5.786   4.283
 4159SOL     OW13375   1.807   3.220   4.093
 4159SOL    HW113376   1.834   3.293   4.030
 4159SOL    HW213377   1.754   3.260   4.168
 4160SOL     OW13378   6.721   0.534   1.231
 4160SOL    HW113379   6.803   0.590   1.220
 4160SOL    HW213380   6.666   0.536   1.147
 4161SOL     OW13381   2.190   6.426   6.215
 4161SOL    HW113382   2.260   6.497   6.218
 4161SOL    HW213383   2.198   6.368   6.296
 4162SOL     OW13384   6.552   0.466   5.164
 4162SOL    HW113385   6.645   0.497   5.144
 4162SOL    HW213386   6.533   0.383   5.113
 4163SOL     OW13387   5.970   1.193   3.084
 4163SOL    HW113388   6.035   1.267   3.096
 4163SOL    HW213389   5.893   1.206   3.147
 4164SOL     OW13390   1.140   6.780   6.002
 4164SOL    HW113391   1.161   6.788   5.905
 4164SOL    HW213392   1.049   6.739   6.013
 4165SOL     OW13393   4.691   0.210   0.783
 4165SOL    HW113394   4.685   0.208   0.883
 4165SOL    HW213395   4.600   0.225   0.744
 4166SOL     OW13396   5.718   2.872   0.971
 4166SOL    HW113397   5.792   2.822   0.926
 4166SOL    HW213398   5.716   2.966   0.938
 4167SOL     OW13399   2.607   3.430   0.427
 4167SOL    HW113400   2.569   3.396   0.341
 4167SOL    HW213401   2.660   3.357   0.470
 4168SOL     OW13402   0.730   5.012   1.033
 4168SOL    HW113403   0.798   5.047   1.098
 4168SOL    HW213404   0.776   4.977   0.952
 4169SOL     OW13405   5.526   3.638   4.319
 4169SOL    HW113406   5.559   3.630   4.224
 4169SOL    HW213407   5.450   3.575   4.333
 4170SOL     OW13408   3.546   3.196   5.202
 4170SOL    HW113409   3.530   3.133   5.126
 4170SOL    HW213410   3.547   3.290   5.168
 4171SOL     OW13411   5.525   4.511   1.188
 4171SOL    HW113412   5.487   4.587   1.136
 4171SOL    HW213413   5.465   4.431   1.177
 4172SOL     OW13414   6.914   1.959   6.194
 4172SOL    HW113415   6.974   2.034   6.221
 4172SOL    HW213416   6.837   1.995   6.141
 4173SOL     OW13417   6.023   3.316   4.773
 4173SOL    HW113418   6.055   3.263   4.852
 4173SOL    HW213419   6.048   3.269   4.689
 4174SOL     OW13420   5.662   1.158   3.748
 4174SOL    HW113421   5.682   1.100   3.827
 4174SOL    HW213422   5.580   1.125   3.702
 4175SOL     OW13423   2.849   6.337   4.717
 4175SOL    HW113424   2.752   6.321   4.702
 4175SOL    HW213425   2.892   6.255   4.754
 4176SOL     OW13426   3.602   0.039   2.440
 4176SOL    HW113427   3.679   7.005   2.470
 4176SOL    HW213428   3.516   0.001   2.474
 4177SOL     OW13429   0.638   5.242   5.517
 4177SOL    HW113430   0.598   5.280   5.600
 4177SOL    HW213431   0.680   5.315   5.464
 4178SOL     OW13432   3.363   1.019   4.300
 4178SOL    HW113433   3.336   0.929   4.265
 4178SOL    HW213434   3.436   1.056   4.243
 4179SOL     OW13435   4.878   3.428   4.293
 4179SOL    HW113436   4.781   3.403   4.285
 4179SOL    HW213437   4.935   3.358   4.251
 4180SOL     OW13438   5.470   4.010   2.465
 4180SOL    HW113439   5.387   3.958   2.485
 4180SOL    HW213440   5.548   3.948   2.459
 4181SOL     OW13441   2.251   1.730   6.004
 4181SOL    HW113442   2.318   1.733   6.077
 4181SOL    HW213443   2.261   1.646   5.951
 4182SOL     OW13444   0.218   0.066   3.174
 4182SOL    HW113445   0.198   0.004   3.250
 4182SOL    HW213446   0.294   0.030   3.121
 4183SOL     OW13447   3.330   1.258   1.439
 4183SOL    HW113448   3.269   1.256   1.517
 4183SOL    HW213449   3.324   1.346   1.393
 4184SOL     OW13450   4.077   4.607   1.393
 4184SOL    HW113451   4.137   4.593   1.315
 4184SOL    HW213452   3.988   4.641   1.362
 4185SOL     OW13453   0.604   5.174   3.077
 4185SOL    HW113454   0.702   5.162   3.065
 4185SOL    HW213455   0.585   5.268   3.106
 4186SOL     OW13456   2.245   4.420   0.314
 4186SOL    HW113457   2.256   4.509   0.358
 4186SOL    HW213458   2.203   4.431   0.224
 4187SOL     OW13459   3.686   3.363   5.999
 4187SOL    HW113460   3.620   3.356   6.073
 4187SOL    HW213461   3.680   3.282   5.941
 4188SOL     OW13462   4.945   0.110   4.726
 4188SOL    HW113463   4.991   0.194   4.698
 4188SOL    HW213464   4.984   0.078   4.813
 4189SOL     OW13465   3.050   1.636   4.563
 4189SOL    HW113466   3.109   1.707   4.527
 4189SOL    HW213467   2.983   1.610   4.494
 4190SOL     OW13468   2.417   0.017   6.374
 4190SOL    HW113469   2.492   0.020   6.308
 4190SOL    HW213470   2.393   0.110   6.402
 4191SOL     OW13471   5.730   3.609   2.949
 4191SOL    HW113472   5.653   3.637   2.892
 4191SOL    HW213473   5.792   3.687   2.962
 4192SOL     OW13474   6.885   1.689   3.684
 4192SOL    HW113475   6.809   1.738   3.726
 4192SOL    HW213476   6.850   1.610   3.634
 4193SOL     OW13477   2.272   6.406   1.167
 4193SOL    HW113478   2.247   6.448   1.254
 4193SOL    HW213479   2.262   6.472   1.093
 4194SOL     OW13480   6.641   2.104   5.006
 4194SOL    HW113481   6.593   2.067   4.926
 4194SOL    HW213482   6.737   2.120   4.983
 4195SOL     OW13483   3.664   0.502   1.714
 4195SOL    HW113484   3.634   0.449   1.793
 4195SOL    HW213485   3.637   0.456   1.630
 4196SOL     OW13486   6.103   2.257   4.466
 4196SOL    HW113487   6.082   2.252   4.564
 4196SOL    HW213488   6.018   2.262   4.414
 4197SOL     OW13489   5.142   4.650   3.997
 4197SOL    HW113490   5.192   4.575   3.954
 4197SOL    HW213491   5.208   4.713   4.040
 4198SOL     OW13492   6.350   3.774   0.201
 4198SOL    HW113493   6.447   3.775   0.177
 4198SOL    HW213494   6.296   3.760   0.118
 4199SOL     OW13495   2.452   3.365   5.876
 4199SOL    HW113496   2.393   3.433   5.833
 4199SOL    HW213497   2.481   3.397   5.966
 4200SOL     OW13498   2.829   6.482   5.606
 4200SOL    HW113499   2.797   6.525   5.690
 4200SOL    HW213500   2.849   6.553   5.538
 4201SOL     OW13501   5.702   6.405   3.959
 4201SOL    HW113502   5.612   6.368   3.983
 4201SOL    HW213503   5.770   6.368   4.022
 4202SOL     OW13504   4.392   4.814   5.753
 4202SOL    HW113505   4.376   4.797   5.850
 4202SOL    HW213506   4.388   4.912   5.735
 4203SOL     OW13507   4.215   5.940   2.845
 4203SOL    HW113508   4.306   5.980   2.835
 4203SOL    HW213509   4.163   5.954   2.760
 4204SOL     OW13510   3.279   2.735   1.782
 4204SOL    HW113511   3.234   2.823   1.772
 4204SOL    HW213512   3.317   2.727   1.875
 4205SOL     OW13513   3.958   4.978   4.250
 4205SOL    HW113514   3.927   4.939   4.164
 4205SOL    HW213515   3.889   4.961   4.321
 4206SOL     OW13516   4.718   0.951   5.909
 4206SOL    HW113517   4.719   1.051   5.910
 4206SOL    HW213518   4.652   0.919   5.842
 4207SOL     OW13519   2.229   1.553   1.669
 4207SOL    HW113520   2.248   1.458   1.644
 4207SOL    HW213521   2.140   1.580   1.633
 4208SOL     OW13522   1.434   2.401   0.977
 4208SOL    HW113523   1.492   2.457   0.918
 4208SOL    HW213524   1.391   2.329   0.923
 4209SOL     OW13525   1.271   1.377   5.069
 4209SOL    HW113526   1.245   1.286   5.101
 4209SOL    HW213527   1.367   1.394   5.093
 4210SOL     OW13528   3.180   3.340   1.928
 4210SOL    HW113529   3.111   3.411   1.911
 4210SOL    HW213530   3.271   3.377   1.909
 4211SOL     OW13531   5.082   5.425   5.609
 4211SOL    HW113532   5.068   5.480   5.527
 4211SOL    HW213533   5.146   5.351   5.588
 4212SOL     OW13534   6.609   2.202   2.319
 4212SOL    HW113535   6.649   2.292   2.302
 4212SOL    HW213536   6.605   2.186   2.418
 4213SOL     OW13537   2.376   0.602   2.605
 4213SOL    HW113538   2.426   0.519   2.581
 4213SOL    HW213539   2.430   0.657   2.669
 4214SOL     OW13540   1.144   3.871   6.369
 4214SOL    HW113541   1.125   3.945   6.433
 4214SOL    HW213542   1.072   3.867   6.299
 4215SOL     OW13543   0.282   5.906   4.661
 4215SOL    HW113544   0.323   5.997   4.666
 4215SOL    HW213545   0.211   5.898   4.731
 4216SOL     OW13546   1.424   1.850   4.052
 4216SOL    HW113547   1.421   1.901   4.138
 4216SOL    HW213548   1.401   1.910   3.976
 4217SOL     OW13549   6.685   6.902   2.959
 4217SOL    HW113550   6.678   6.914   3.058
 4217SOL    HW213551   6.615   6.956   2.914
 4218SOL     OW13552   5.146   6.764   1.661
 4218SOL    HW113553   5.075   6.835   1.658
 4218SOL    HW213554   5.233   6.804   1.634
 4219SOL     OW13555   2.895   4.837   5.180
 4219SOL    HW113556   2.858   4.837   5.273
 4219SOL    HW213557   2.885   4.746   5.141
 4220SOL     OW13558   6.620   3.443   2.979
 4220SOL    HW113559   6.535   3.494   2.992
 4220SOL    HW213560   6.679   3.493   2.916
 4221SOL     OW13561   6.340   5.699   6.321
 4221SOL    HW113562   6.437   5.694   6.345
 4221SOL    HW213563   6.304   5.789   6.347
 4222SOL     OW13564   6.068   1.990   2.336
 4222SOL    HW113565   6.068   2.023   2.430
 4222SOL    HW213566   5.977   2.005   2.296
 4223SOL     OW13567   3.802   2.930   3.267
 4223SOL    HW113568   3.878   2.917   3.204
 4223SOL    HW213569   3.725   2.971   3.218
 4224SOL     OW13570   4.903   3.168   4.164
 4224SOL    HW113571   4.962   3.089   4.180
 4224SOL    HW213572   4.831   3.143   4.100
 4225SOL     OW13573   5.573   0.452   5.333
 4225SOL    HW113574   5.587   0.422   5.427
 4225SOL    HW213575   5.619   0.539   5.318
 4226SOL     OW13576   1.801   1.587   3.840
 4226SOL    HW113577   1.810   1.685   3.821
 4226SOL    HW213578   1.855   1.535   3.773
 4227SOL     OW13579   3.477   4.337   6.615
 4227SOL    HW113580   3.575   4.350   6.604
 4227SOL    HW213581   3.428   4.384   6.541
 4228SOL     OW13582   5.464   6.134   4.260
 4228SOL    HW113583   5.512   6.166   4.178
 4228SOL    HW213584   5.500   6.044   4.287
 4229SOL     OW13585   3.995   5.225   6.086
 4229SOL    HW113586   3.895   5.228   6.079
 4229SOL    HW213587   4.027   5.297   6.146
 4230SOL     OW13588   2.322   0.114   4.738
 4230SOL    HW113589   2.323   0.034   4.679
 4230SOL    HW213590   2.230   0.129   4.774
 4231SOL     OW13591   5.185   6.636   5.516
 4231SOL    HW113592   5.163   6.604   5.423
 4231SOL    HW213593   5.110   6.613   5.577
 4232SOL     OW13594   1.125   5.630   2.370
 4232SOL    HW113595   1.195   5.595   2.308
 4232SOL    HW213596   1.060   5.686   2.319
 4233SOL     OW13597   6.182   0.453   0.187
 4233SOL    HW113598   6.238   0.371   0.198
 4233SOL    HW213599   6.197   0.514   0.264
 4234SOL     OW13600   1.786   5.495   5.918
 4234SOL    HW113601   1.845   5.432   5.867
 4234SOL    HW213602   1.820   5.588   5.908
 4235SOL     OW13603   6.379   4.200   5.606
 4235SOL    HW113604   6.447   4.229   5.672
 4235SOL    HW213605   6.288   4.225   5.638
 4236SOL     OW13606   7.005   3.163   4.225
 4236SOL    HW113607   6.956   3.224   4.162
 4236SOL    HW213608   6.940   3.100   4.267
 4237SOL     OW13609   6.056   4.120   4.269
 4237SOL    HW113610   6.077   4.048   4.334
 4237SOL    HW213611   6.115   4.111   4.189
 4238SOL     OW13612   4.382   4.698   3.794
 4238SOL    HW113613   4.477   4.729   3.788
 4238SOL    HW213614   4.367   4.622   3.731
 4239SOL     OW13615   4.712   6.892   4.541
 4239SOL    HW113616   4.753   6.927   4.457
 4239SOL    HW213617   4.669   6.967   4.591
 4240SOL     OW13618   2.791   5.866   6.407
 4240SOL    HW113619   2.708   5.898   6.452
 4240SOL    HW213620   2.862   5.937   6.414
 4241SOL     OW13621   5.560   0.254   1.055
 4241SOL    HW113622   5.623   0.198   1.109
 4241SOL    HW213623   5.594   0.347   1.049
 4242SOL     OW13624   2.624   6.743   2.771
 4242SOL    HW113625   2.592   6.672   2.709
 4242SOL    HW213626   2.551   6.768   2.834
 4243SOL     OW13627   0.332   3.851   2.361
 4243SOL    HW113628   0.423   3.862   2.321
 4243SOL    HW213629   0.265   3.896   2.303
 4244SOL     OW13630   5.077   6.160   0.660
 4244SOL    HW113631   5.021   6.093   0.611
 4244SOL    HW213632   5.173   6.135   0.653
 4245SOL     OW13633   6.612   2.964   0.124
 4245SOL    HW113634   6.611   2.929   0.217
 4245SOL    HW213635   6.576   2.895   0.061
 4246SOL     OW13636   5.384   2.424   2.963
 4246SOL    HW113637   5.314   2.460   3.024
 4246SOL    HW213638   5.415   2.496   2.902
 4247SOL     OW13639   2.710   5.314   4.082
 4247SOL    HW113640   2.780   5.308   4.153
 4247SOL    HW213641   2.754   5.319   3.992
 4248SOL     OW13642   1.744   0.542   3.170
 4248SOL    HW113643   1.647   0.556   3.151
 4248SOL    HW213644   1.765   0.569   3.264
 4249SOL     OW13645   0.297   1.435   4.064
 4249SOL    HW113646   0.393   1.432   4.092
 4249SOL    HW213647   0.289   1.407   3.969
 4250SOL     OW13648   0.455   5.775   3.915
 4250SOL    HW113649   0.357   5.761   3.902
 4250SOL    HW213650   0.505   5.724   3.845
 4251SOL     OW13651   5.469   2.751   6.967
 4251SOL    HW113652   5.561   2.712   6.958
 4251SOL    HW213653   5.401   2.679   6.956
 4252SOL     OW13654   5.974   5.566   5.782
 4252SOL    HW113655   5.904   5.526   5.723
 4252SOL    HW213656   6.060   5.573   5.732
 4253SOL     OW13657   4.002   6.447   2.036
 4253SOL    HW113658   3.931   6.418   2.100
 4253SOL    HW213659   4.030   6.369   1.979
 4254SOL     OW13660   2.126   3.609   0.504
 4254SOL    HW113661   2.088   3.529   0.457
 4254SOL    HW213662   2.101   3.692   0.454
 4255SOL     OW13663   0.783   4.693   3.848
 4255SOL    HW113664   0.823   4.621   3.906
 4255SOL    HW213665   0.854   4.730   3.789
 4256SOL     OW13666   0.698   5.255   0.954
 4256SOL    HW113667   0.708   5.167   1.001
 4256SOL    HW213668   0.719   5.243   0.857
 4257SOL     OW13669   5.835   1.457   4.944
 4257SOL    HW113670   5.853   1.554   4.964
 4257SOL    HW213671   5.821   1.445   4.846
 4258SOL     OW13672   3.436   5.551   1.120
 4258SOL    HW113673   3.379   5.518   1.045
 4258SOL    HW213674   3.511   5.486   1.135
 4259SOL     OW13675   1.834   6.914   1.775
 4259SOL    HW113676   1.809   6.817   1.772
 4259SOL    HW213677   1.928   6.923   1.808
 4260SOL     OW13678   5.040   0.269   4.113
 4260SOL    HW113679   5.050   0.177   4.152
 4260SOL    HW213680   5.063   0.338   4.181
 4261SOL     OW13681   1.919   0.583   4.648
 4261SOL    HW113682   1.845   0.641   4.612
 4261SOL    HW213683   2.007   0.620   4.619
 4262SOL     OW13684   1.723   5.107   5.823
 4262SOL    HW113685   1.623   5.109   5.822
 4262SOL    HW213686   1.754   5.012   5.820
 4263SOL     OW13687   2.788   2.334   3.495
 4263SOL    HW113688   2.720   2.396   3.456
 4263SOL    HW213689   2.858   2.313   3.427
 4264SOL     OW13690   5.769   1.134   4.278
 4264SOL    HW113691   5.747   1.056   4.336
 4264SOL    HW213692   5.693   1.199   4.280
 4265SOL     OW13693   3.439   0.180   1.014
 4265SOL    HW113694   3.342   0.199   1.003
 4265SOL    HW213695   3.488   0.198   0.928
 4266SOL     OW13696   1.097   0.322   0.125
 4266SOL    HW113697   1.035   0.244   0.115
 4266SOL    HW213698   1.182   0.304   0.075
 4267SOL     OW13699   2.114   4.016   3.884
 4267SOL    HW113700   2.161   4.094   3.924
 4267SOL    HW213701   2.088   3.952   3.956
 4268SOL     OW13702   1.237   4.800   6.874
 4268SOL    HW113703   1.222   4.735   6.799
 4268SOL    HW213704   1.315   4.769   6.929
 4269SOL     OW13705   3.596   1.615   3.764
 4269SOL    HW113706   3.651   1.678   3.709
 4269SOL    HW213707   3.499   1.626   3.740
 4270SOL     OW13708   3.678   2.838   1.259
 4270SOL    HW113709   3.662   2.754   1.208
 4270SOL    HW213710   3.728   2.903   1.201
 4271SOL     OW13711   5.944   0.644   1.466
 4271SOL    HW113712   5.974   0.625   1.373
 4271SOL    HW213713   5.905   0.736   1.471
 4272SOL     OW13714   6.989   3.354   5.726
 4272SOL    HW113715   6.907   3.367   5.782
 4272SOL    HW213716   6.975   3.276   5.665
 4273SOL     OW13717   4.687   6.580   5.141
 4273SOL    HW113718   4.630   6.567   5.061
 4273SOL    HW213719   4.715   6.491   5.178
 4274SOL     OW13720   0.300   6.670   1.944
 4274SOL    HW113721   0.295   6.592   2.006
 4274SOL    HW213722   0.257   6.749   1.986
 4275SOL     OW13723   0.148   2.414   3.988
 4275SOL    HW113724   0.245   2.412   4.012
 4275SOL    HW213725   0.138   2.401   3.890
 4276SOL     OW13726   2.845   4.928   3.968
 4276SOL    HW113727   2.825   4.868   3.891
 4276SOL    HW213728   2.762   4.978   3.994
 4277SOL     OW13729   6.691   4.847   4.129
 4277SOL    HW113730   6.749   4.903   4.069
 4277SOL    HW213731   6.730   4.755   4.135
 4278SOL     OW13732   6.439   6.519   3.064
 4278SOL    HW113733   6.357   6.544   3.014
 4278SOL    HW213734   6.414   6.486   3.155
 4279SOL     OW13735   1.448   1.723   2.862
 4279SOL    HW113736   1.372   1.659   2.874
 4279SOL    HW213737   1.517   1.682   2.803
 4280SOL     OW13738   6.477   6.293   6.572
 4280SOL    HW113739   6.429   6.378   6.554
 4280SOL    HW213740   6.505   6.251   6.486
 4281SOL     OW13741   4.395   5.640   3.745
 4281SOL    HW113742   4.407   5.565   3.680
 4281SOL    HW213743   4.464   5.634   3.816
 4282SOL     OW13744   3.051   3.881   0.725
 4282SOL    HW113745   2.951   3.882   0.729
 4282SOL    HW213746   3.088   3.961   0.771
 4283SOL     OW13747   5.222   0.399   2.740
 4283SOL    HW113748   5.156   0.470   2.762
 4283SOL    HW213749   5.282   0.431   2.667
 4284SOL     OW13750   4.455   5.379   0.402
 4284SOL    HW113751   4.382   5.444   0.424
 4284SOL    HW213752   4.481   5.390   0.306
 4285SOL     OW13753   3.570   0.548   6.266
 4285SOL    HW113754   3.665   0.522   6.283
 4285SOL    HW213755   3.524   0.476   6.213
 4286SOL     OW13756   6.454   1.078   0.097
 4286SOL    HW113757   6.532   1.092   0.159
 4286SOL    HW213758   6.414   0.988   0.114
 4287SOL     OW13759   4.411   0.525   0.188
 4287SOL    HW113760   4.387   0.622   0.183
 4287SOL    HW213761   4.491   0.513   0.246
 4288SOL     OW13762   6.612   6.303   1.805
 4288SOL    HW113763   6.659   6.364   1.741
 4288SOL    HW213764   6.655   6.213   1.803
 4289SOL     OW13765   0.257   2.648   5.192
 4289SOL    HW113766   0.223   2.641   5.286
 4289SOL    HW213767   0.355   2.625   5.190
 4290SOL     OW13768   0.253   0.272   3.454
 4290SOL    HW113769   0.281   0.186   3.412
 4290SOL    HW213770   0.281   0.348   3.395
 4291SOL     OW13771   4.612   3.225   5.950
 4291SOL    HW113772   4.519   3.206   5.920
 4291SOL    HW213773   4.677   3.186   5.885
 4292SOL     OW13774   4.834   2.124   6.989
 4292SOL    HW113775   4.830   2.218   7.022
 4292SOL    HW213776   4.866   2.064   0.040
 4293SOL     OW13777   5.285   3.931   6.860
 4293SOL    HW113778   5.226   3.908   6.783
 4293SOL    HW213779   5.250   4.014   6.904
 4294SOL     OW13780   3.141   1.949   6.247
 4294SOL    HW113781   3.123   1.953   6.346
 4294SOL    HW213782   3.078   2.011   6.200
 4295SOL     OW13783   4.387   6.424   2.416
 4295SOL    HW113784   4.469   6.462   2.373
 4295SOL    HW213785   4.394   6.436   2.516
 4296SOL     OW13786   2.900   6.550   0.915
 4296SOL    HW113787   2.897   6.553   1.015
 4296SOL    HW213788   2.871   6.459   0.884
 4297SOL     OW13789   6.664   5.214   1.082
 4297SOL    HW113790   6.711   5.294   1.120
 4297SOL    HW213791   6.663   5.220   0.983
 4298SOL     OW13792   3.923   6.156   1.284
 4298SOL    HW113793   4.002   6.214   1.263
 4298SOL    HW213794   3.844   6.187   1.232
 4299SOL     OW13795   0.494   2.340   6.854
 4299SOL    HW113796   0.583   2.384   6.864
 4299SOL    HW213797   0.436   2.395   6.793
 4300SOL     OW13798   3.213   0.494   1.038
 4300SOL    HW113799   3.201   0.592   1.026
 4300SOL    HW213800   3.247   0.476   1.130
 4301SOL     OW13801   2.896   5.880   1.748
 4301SOL    HW113802   2.809   5.889   1.701
 4301SOL    HW213803   2.968   5.857   1.683
 4302SOL     OW13804   0.198   6.747   6.744
 4302SOL    HW113805   0.234   6.769   6.835
 4302SOL    HW213806   0.232   6.658   6.715
 4303SOL     OW13807   6.866   5.054   3.972
 4303SOL    HW113808   6.783   5.079   3.922
 4303SOL    HW213809   6.910   5.137   4.008
 4304SOL     OW13810   3.172   3.893   1.695
 4304SOL    HW113811   3.158   3.964   1.626
 4304SOL    HW213812   3.235   3.928   1.765
 4305SOL     OW13813   0.510   6.997   5.567
 4305SOL    HW113814   0.489   6.964   5.659
 4305SOL    HW213815   0.561   6.927   5.517
 4306SOL     OW13816   4.872   3.905   4.465
 4306SOL    HW113817   4.865   3.889   4.564
 4306SOL    HW213818   4.904   3.822   4.420
 4307SOL     OW13819   6.323   2.972   5.771
 4307SOL    HW113820   6.295   2.944   5.679
 4307SOL    HW213821   6.250   3.025   5.813
 4308SOL     OW13822   5.216   5.429   1.796
 4308SOL    HW113823   5.199   5.520   1.835
 4308SOL    HW213824   5.183   5.359   1.859
 4309SOL     OW13825   0.784   3.346   6.907
 4309SOL    HW113826   0.687   3.359   6.885
 4309SOL    HW213827   0.832   3.433   6.900
 4310SOL     OW13828   1.528   2.239   2.811
 4310SOL    HW113829   1.494   2.283   2.728
 4310SOL    HW213830   1.475   2.156   2.828
 4311SOL     OW13831   1.185   6.605   2.126
 4311SOL    HW113832   1.177   6.554   2.212
 4311SOL    HW213833   1.179   6.703   2.145
 4312SOL     OW13834   0.888   4.911   2.148
 4312SOL    HW113835   0.875   4.877   2.241
 4312SOL    HW213836   0.972   4.966   2.143
 4313SOL     OW13837   5.067   1.759   0.689
 4313SOL    HW113838   4.995   1.690   0.692
 4313SOL    HW213839   5.154   1.716   0.669
 4314SOL     OW13840   6.706   2.653   6.017
 4314SOL    HW113841   6.616   2.615   5.997
 4314SOL    HW213842   6.764   2.645   5.936
 4315SOL     OW13843   1.926   1.927   2.980
 4315SOL    HW113844   2.015   1.958   3.013
 4315SOL    HW213845   1.881   2.000   2.929
 4316SOL     OW13846   5.342   0.545   2.149
 4316SOL    HW113847   5.391   0.599   2.218
 4316SOL    HW213848   5.362   0.448   2.164
 4317SOL     OW13849   4.295   0.822   5.395
 4317SOL    HW113850   4.315   0.752   5.327
 4317SOL    HW213851   4.377   0.838   5.451
 4318SOL     OW13852   0.642   0.929   4.287
 4318SOL    HW113853   0.587   0.846   4.293
 4318SOL    HW213854   0.604   0.988   4.216
 4319SOL     OW13855   1.522   2.217   1.792
 4319SOL    HW113856   1.462   2.208   1.712
 4319SOL    HW213857   1.466   2.227   1.874
 4320SOL     OW13858   3.873   6.198   0.599
 4320SOL    HW113859   3.782   6.238   0.583
 4320SOL    HW213860   3.942   6.256   0.554
 4321SOL     OW13861   6.813   5.775   3.149
 4321SOL    HW113862   6.802   5.775   3.049
 4321SOL    HW213863   6.876   5.702   3.175
 4322SOL     OW13864   0.678   2.785   5.342
 4322SOL    HW113865   0.609   2.723   5.304
 4322SOL    HW213866   0.725   2.741   5.418
 4323SOL     OW13867   4.148   5.486   0.190
 4323SOL    HW113868   4.175   5.391   0.207
 4323SOL    HW213869   4.228   5.545   0.199
 4324SOL     OW13870   0.259   3.703   5.567
 4324SOL    HW113871   0.180   3.650   5.596
 4324SOL    HW213872   0.335   3.686   5.630
 4325SOL     OW13873   3.222   0.980   3.176
 4325SOL    HW113874   3.208   0.979   3.077
 4325SOL    HW213875   3.134   0.968   3.222
 4326SOL     OW13876   5.014   2.933   2.428
 4326SOL    HW113877   4.928   2.898   2.464
 4326SOL    HW213878   4.997   2.979   2.341
 4327SOL     OW13879   3.581   5.100   3.518
 4327SOL    HW113880   3.593   5.122   3.421
 4327SOL    HW213881   3.613   5.007   3.535
 4328SOL     OW13882   6.105   5.022   5.026
 4328SOL    HW113883   6.137   5.078   5.102
 4328SOL    HW213884   6.104   4.926   5.053
 4329SOL     OW13885   5.751   3.238   5.260
 4329SOL    HW113886   5.767   3.333   5.232
 4329SOL    HW213887   5.678   3.198   5.204
 4330SOL     OW13888   2.414   6.186   5.213
 4330SOL    HW113889   2.347   6.257   5.192
 4330SOL    HW213890   2.482   6.222   5.276
 4331SOL     OW13891   0.017   0.293   1.369
 4331SOL    HW113892   6.942   0.271   1.368
 4331SOL    HW213893   0.047   0.317   1.276
 4332SOL     OW13894   6.325   3.692   3.132
 4332SOL    HW113895   6.354   3.769   3.076
 4332SOL    HW213896   6.251   3.643   3.086
 4333SOL     OW13897   4.788   2.245   4.952
 4333SOL    HW113898   4.801   2.198   4.865
 4333SOL    HW213899   4.876   2.253   5.000
 4334SOL     OW13900   0.992   2.894   2.751
 4334SOL    HW113901   1.030   2.809   2.715
 4334SOL    HW213902   0.973   2.884   2.849
 4335SOL     OW13903   3.275   2.815   0.606
 4335SOL    HW113904   3.184   2.790   0.574
 4335SOL    HW213905   3.267   2.879   0.682
 4336SOL     OW13906   1.912   5.288   5.792
 4336SOL    HW113907   1.986   5.220   5.789
 4336SOL    HW213908   1.825   5.241   5.805
 4337SOL     OW13909   1.672   5.930   2.438
 4337SOL    HW113910   1.572   5.932   2.434
 4337SOL    HW213911   1.709   6.013   2.397
 4338SOL     OW13912   6.135   0.157   5.942
 4338SOL    HW113913   6.157   0.104   5.860
 4338SOL    HW213914   6.079   0.236   5.916
 4339SOL     OW13915   3.892   2.302   6.829
 4339SOL    HW113916   3.852   2.276   6.917
 4339SOL    HW213917   3.992   2.300   6.837
 4340SOL     OW13918   6.128   3.386   0.892
 4340SOL    HW113919   6.108   3.483   0.884
 4340SOL    HW213920   6.220   3.367   0.858
 4341SOL     OW13921   0.769   5.844   1.762
 4341SOL    HW113922   0.762   5.890   1.851
 4341SOL    HW213923   0.763   5.913   1.690
 4342SOL     OW13924   4.911   3.575   2.803
 4342SOL    HW113925   5.005   3.575   2.771
 4342SOL    HW213926   4.865   3.492   2.774
 4343SOL     OW13927   3.903   0.315   5.640
 4343SOL    HW113928   3.805   0.337   5.647
 4343SOL    HW213929   3.933   0.328   5.545
 4344SOL     OW13930   0.430   3.149   4.025
 4344SOL    HW113931   0.406   3.079   3.957
 4344SOL    HW213932   0.468   3.106   4.106
 4345SOL     OW13933   2.877   3.665   2.623
 4345SOL    HW113934   2.886   3.724   2.542
 4345SOL    HW213935   2.879   3.722   2.706
 4346SOL     OW13936   2.332   2.874   3.060
 4346SOL    HW113937   2.319   2.938   3.135
 4346SOL    HW213938   2.319   2.922   2.973
 4347SOL     OW13939   6.068   5.630   1.186
 4347SOL    HW113940   6.084   5.705   1.122
 4347SOL    HW213941   6.044   5.547   1.136
 4348SOL     OW13942   6.893   6.363   3.752
 4348SOL    HW113943   6.914   6.292   3.819
 4348SOL    HW213944   6.923   6.452   3.787
 4349SOL     OW13945   0.288   4.198   3.638
 4349SOL    HW113946   0.355   4.130   3.669
 4349SOL    HW213947   0.303   4.219   3.541
 4350SOL     OW13948   5.991   1.489   4.651
 4350SOL    HW113949   5.969   1.585   4.669
 4350SOL    HW213950   5.908   1.440   4.625
 4351SOL     OW13951   1.378   6.280   1.364
 4351SOL    HW113952   1.336   6.190   1.352
 4351SOL    HW213953   1.326   6.348   1.312
 4352SOL     OW13954   5.380   4.257   1.201
 4352SOL    HW113955   5.315   4.295   1.266
 4352SOL    HW213956   5.465   4.233   1.249
 4353SOL     OW13957   3.131   3.341   6.950
 4353SOL    HW113958   3.088   3.399   6.881
 4353SOL    HW213959   3.174   3.398   7.020
 4354SOL     OW13960   0.132   0.447   4.639
 4354SOL    HW113961   0.230   0.445   4.660
 4354SOL    HW213962   0.119   0.449   4.540
 4355SOL     OW13963   1.173   0.339   4.154
 4355SOL    HW113964   1.178   0.426   4.105
 4355SOL    HW213965   1.216   0.348   4.244
 4356SOL     OW13966   5.174   2.967   6.072
 4356SOL    HW113967   5.257   2.983   6.017
 4356SOL    HW213968   5.122   3.052   6.078
 4357SOL     OW13969   6.596   1.640   2.334
 4357SOL    HW113970   6.513   1.589   2.309
 4357SOL    HW213971   6.654   1.650   2.254
 4358SOL     OW13972   0.344   1.134   0.157
 4358SOL    HW113973   0.431   1.135   0.207
 4358SOL    HW213974   0.342   1.211   0.093
 4359SOL     OW13975   2.521   0.811   6.309
 4359SOL    HW113976   2.422   0.803   6.308
 4359SOL    HW213977   2.560   0.756   6.235
 4360SOL     OW13978   0.795   2.775   3.454
 4360SOL    HW113979   0.826   2.850   3.511
 4360SOL    HW213980   0.834   2.689   3.487
 4361SOL     OW13981   1.866   2.168   0.945
 4361SOL    HW113982   1.856   2.263   0.975
 4361SOL    HW213983   1.952   2.158   0.895
 4362SOL     OW13984   0.865   6.476   4.061
 4362SOL    HW113985   0.909   6.430   4.138
 4362SOL    HW213986   0.934   6.528   4.009
 4363SOL     OW13987   4.099   0.722   3.111
 4363SOL    HW113988   4.124   0.753   3.202
 4363SOL    HW213989   4.135   0.787   3.043
 4364SOL     OW13990   2.921   3.804   2.371
 4364SOL    HW113991   2.957   3.893   2.395
 4364SOL    HW213992   2.867   3.811   2.286
 4365SOL     OW13993   2.830   1.767   1.780
 4365SOL    HW113994   2.839   1.852   1.727
 4365SOL    HW213995   2.917   1.748   1.826
 4366SOL     OW13996   5.479   5.544   5.524
 4366SOL    HW113997   5.458   5.637   5.492
 4366SOL    HW213998   5.468   5.480   5.448
 4367SOL     OW13999   3.019   4.833   3.054
 4367SOL    HW114000   2.961   4.813   3.134
 4367SOL    HW214001   3.108   4.866   3.084
 4368SOL     OW14002   4.689   5.908   2.656
 4368SOL    HW114003   4.756   5.843   2.621
 4368SOL    HW214004   4.697   5.994   2.605
 4369SOL     OW14005   5.161   5.357   2.995
 4369SOL    HW114006   5.163   5.447   2.952
 4369SOL    HW214007   5.211   5.291   2.938
 4370SOL     OW14008   3.669   4.243   1.671
 4370SOL    HW114009   3.659   4.232   1.572
 4370SOL    HW214010   3.715   4.330   1.691
 4371SOL     OW14011   2.843   0.521   2.147
 4371SOL    HW114012   2.828   0.552   2.240
 4371SOL    HW214013   2.881   0.597   2.093
 4372SOL     OW14014   1.538   2.555   4.920
 4372SOL    HW114015   1.508   2.548   5.015
 4372SOL    HW214016   1.462   2.587   4.863
 4373SOL     OW14017   4.665   0.936   6.200
 4373SOL    HW114018   4.688   0.945   6.104
 4373SOL    HW214019   4.606   0.856   6.213
 4374SOL     OW14020   2.468   1.948   1.114
 4374SOL    HW114021   2.387   1.945   1.055
 4374SOL    HW214022   2.517   2.034   1.100
 4375SOL     OW14023   3.799   0.274   3.516
 4375SOL    HW114024   3.877   0.252   3.575
 4375SOL    HW214025   3.831   0.324   3.436
 4376SOL     OW14026   6.503   6.288   1.101
 4376SOL    HW114027   6.520   6.245   1.190
 4376SOL    HW214028   6.590   6.321   1.063
 4377SOL     OW14029   6.167   6.408   0.225
 4377SOL    HW114030   6.197   6.501   0.245
 4377SOL    HW214031   6.104   6.377   0.296
 4378SOL     OW14032   1.710   5.343   2.235
 4378SOL    HW114033   1.787   5.388   2.281
 4378SOL    HW214034   1.725   5.346   2.136
 4379SOL     OW14035   1.787   0.694   1.604
 4379SOL    HW114036   1.689   0.687   1.626
 4379SOL    HW214037   1.839   0.703   1.688
 4380SOL     OW14038   2.197   5.827   4.967
 4380SOL    HW114039   2.208   5.860   4.874
 4380SOL    HW214040   2.207   5.904   5.031
 4381SOL     OW14041   3.663   5.581   4.532
 4381SOL    HW114042   3.591   5.559   4.598
 4381SOL    HW214043   3.622   5.613   4.446
 4382SOL     OW14044   4.659   4.366   4.421
 4382SOL    HW114045   4.689   4.453   4.459
 4382SOL    HW214046   4.664   4.295   4.491
 4383SOL     OW14047   1.634   1.973   5.726
 4383SOL    HW114048   1.728   2.003   5.743
 4383SOL    HW214049   1.620   1.882   5.765
 4384SOL     OW14050   4.035   0.134   1.460
 4384SOL    HW114051   4.060   0.158   1.366
 4384SOL    HW214052   3.976   0.205   1.498
 4385SOL     OW14053   0.012   1.448   3.967
 4385SOL    HW114054   0.030   1.420   3.873
 4385SOL    HW214055   0.029   1.546   3.977
 4386SOL     OW14056   1.061   4.029   6.856
 4386SOL    HW114057   0.968   4.062   6.868
 4386SOL    HW214058   1.084   3.965   6.930
 4387SOL     OW14059   6.553   2.735   0.904
 4387SOL    HW114060   6.637   2.788   0.912
 4387SOL    HW214061   6.493   2.777   0.836
 4388SOL     OW14062   4.011   0.548   6.580
 4388SOL    HW114063   4.028   0.452   6.605
 4388SOL    HW214064   4.086   0.581   6.523
 4389SOL     OW14065   5.458   2.102   1.351
 4389SOL    HW114066   5.455   2.192   1.394
 4389SOL    HW214067   5.485   2.112   1.255
 4390SOL     OW14068   4.547   2.095   1.927
 4390SOL    HW114069   4.453   2.061   1.934
 4390SOL    HW214070   4.611   2.020   1.948
 4391SOL     OW14071   1.050   5.973   6.504
 4391SOL    HW114072   1.149   5.971   6.490
 4391SOL    HW214073   1.029   6.003   6.596
 4392SOL     OW14074   5.155   3.320   5.134
 4392SOL    HW114075   5.068   3.312   5.086
 4392SOL    HW214076   5.207   3.397   5.096
 4393SOL     OW14077   4.726   6.940   4.139
 4393SOL    HW114078   4.794   6.954   4.211
 4393SOL    HW214079   4.704   6.842   4.133
 4394SOL     OW14080   5.968   5.999   2.908
 4394SOL    HW114081   6.024   6.063   2.855
 4394SOL    HW214082   5.875   6.035   2.916
 4395SOL     OW14083   4.658   1.595   1.391
 4395SOL    HW114084   4.632   1.692   1.382
 4395SOL    HW214085   4.613   1.541   1.320
 4396SOL     OW14086   2.031   1.682   4.368
 4396SOL    HW114087   2.090   1.738   4.425
 4396SOL    HW214088   2.083   1.644   4.292
 4397SOL     OW14089   0.140   1.671   4.084
 4397SOL    HW114090   0.182   1.581   4.070
 4397SOL    HW214091   0.174   1.711   4.169
 4398SOL     OW14092   1.193   4.193   4.631
 4398SOL    HW114093   1.219   4.290   4.631
 4398SOL    HW214094   1.267   4.139   4.591
 4399SOL     OW14095   2.712   0.570   0.639
 4399SOL    HW114096   2.625   0.560   0.590
 4399SOL    HW214097   2.695   0.576   0.738
 4400SOL     OW14098   2.151   6.672   4.439
 4400SOL    HW114099   2.179   6.746   4.377
 4400SOL    HW214100   2.069   6.628   4.403
 4401SOL     OW14101   5.870   5.931   5.257
 4401SOL    HW114102   5.834   6.023   5.245
 4401SOL    HW214103   5.882   5.912   5.354
 4402SOL     OW14104   1.227   5.771   2.865
 4402SOL    HW114105   1.133   5.768   2.898
 4402SOL    HW214106   1.279   5.695   2.905
 4403SOL     OW14107   6.720   0.051   3.381
 4403SOL    HW114108   6.781   7.016   3.327
 4403SOL    HW214109   6.636   0.001   3.401
 4404SOL     OW14110   1.182   3.887   4.480
 4404SOL    HW114111   1.086   3.878   4.453
 4404SOL    HW214112   1.208   3.810   4.538
 4405SOL     OW14113   2.985   4.592   5.589
 4405SOL    HW114114   2.971   4.603   5.688
 4405SOL    HW214115   3.080   4.610   5.567
 4406SOL     OW14116   4.770   5.100   1.368
 4406SOL    HW114117   4.831   5.122   1.444
 4406SOL    HW214118   4.719   5.017   1.390
 4407SOL     OW14119   7.006   6.028   0.393
 4407SOL    HW114120   6.965   5.948   0.438
 4407SOL    HW214121   0.072   6.047   0.435
 4408SOL     OW14122   4.360   0.298   0.957
 4408SOL    HW114123   4.356   0.205   0.992
 4408SOL    HW214124   4.275   0.346   0.979
 4409SOL     OW14125   4.118   1.422   1.707
 4409SOL    HW114126   4.127   1.389   1.613
 4409SOL    HW214127   4.025   1.455   1.723
 4410SOL     OW14128   2.323   4.264   0.012
 4410SOL    HW114129   2.264   4.343   0.022
 4410SOL    HW214130   2.330   4.215   0.099
 4411SOL     OW14131   3.340   3.330   2.968
 4411SOL    HW114132   3.286   3.391   2.911
 4411SOL    HW214133   3.419   3.296   2.916
 4412SOL     OW14134   4.534   1.304   5.712
 4412SOL    HW114135   4.614   1.296   5.652
 4412SOL    HW214136   4.537   1.391   5.760
 4413SOL     OW14137   4.301   5.949   4.657
 4413SOL    HW114138   4.211   5.981   4.687
 4413SOL    HW214139   4.293   5.856   4.622
 4414SOL     OW14140   4.609   5.118   2.565
 4414SOL    HW114141   4.584   5.159   2.477
 4414SOL    HW214142   4.612   5.018   2.556
 4415SOL     OW14143   5.777   3.900   6.354
 4415SOL    HW114144   5.850   3.856   6.301
 4415SOL    HW214145   5.744   3.981   6.305
 4416SOL     OW14146   2.757   1.546   3.993
 4416SOL    HW114147   2.825   1.516   3.926
 4416SOL    HW214148   2.744   1.645   3.985
 4417SOL     OW14149   6.575   4.571   2.332
 4417SOL    HW114150   6.669   4.605   2.331
 4417SOL    HW214151   6.565   4.504   2.405
 4418SOL     OW14152   4.062   6.554   3.935
 4418SOL    HW114153   3.970   6.532   3.902
 4418SOL    HW214154   4.069   6.531   4.032
 4419SOL     OW14155   5.718   5.474   0.526
 4419SOL    HW114156   5.745   5.469   0.429
 4419SOL    HW214157   5.675   5.387   0.552
 4420SOL     OW14158   4.465   0.710   0.519
 4420SOL    HW114159   4.440   0.799   0.557
 4420SOL    HW214160   4.535   0.667   0.576
 4421SOL     OW14161   2.716   1.482   2.314
 4421SOL    HW114162   2.735   1.536   2.396
 4421SOL    HW214163   2.732   1.539   2.233
 4422SOL     OW14164   3.027   3.050   6.006
 4422SOL    HW114165   2.937   3.006   6.014
 4422SOL    HW214166   3.034   3.095   5.917
 4423SOL     OW14167   1.391   2.108   5.657
 4423SOL    HW114168   1.462   2.047   5.691
 4423SOL    HW214169   1.419   2.203   5.673
 4424SOL     OW14170   5.004   6.545   3.174
 4424SOL    HW114171   4.976   6.453   3.201
 4424SOL    HW214172   5.038   6.595   3.253
 4425SOL     OW14173   3.719   5.504   6.048
 4425SOL    HW114174   3.790   5.513   6.118
 4425SOL    HW214175   3.702   5.407   6.030
 4426SOL     OW14176   0.127   0.967   5.623
 4426SOL    HW114177   0.176   1.017   5.551
 4426SOL    HW214178   0.033   0.951   5.594
 4427SOL     OW14179   0.439   0.977   3.375
 4427SOL    HW114180   0.448   1.077   3.375
 4427SOL    HW214181   0.435   0.944   3.281
 4428SOL     OW14182   2.778   4.732   4.427
 4428SOL    HW114183   2.816   4.822   4.407
 4428SOL    HW214184   2.759   4.725   4.525
 4429SOL     OW14185   2.855   0.384   3.633
 4429SOL    HW114186   2.909   0.431   3.702
 4429SOL    HW214187   2.893   0.403   3.542
 4430SOL     OW14188   4.595   2.381   3.467
 4430SOL    HW114189   4.619   2.348   3.375
 4430SOL    HW214190   4.587   2.304   3.529
 4431SOL     OW14191   2.829   1.251   2.629
 4431SOL    HW114192   2.900   1.194   2.587
 4431SOL    HW214193   2.847   1.347   2.608
 4432SOL     OW14194   3.495   2.894   3.470
 4432SOL    HW114195   3.583   2.935   3.494
 4432SOL    HW214196   3.498   2.861   3.375
 4433SOL     OW14197   6.070   0.285   3.413
 4433SOL    HW114198   6.073   0.191   3.446
 4433SOL    HW214199   6.085   0.348   3.490
 4434SOL     OW14200   4.871   1.412   3.974
 4434SOL    HW114201   4.970   1.418   3.958
 4434SOL    HW214202   4.847   1.466   4.055
 4435SOL     OW14203   3.705   3.204   0.882
 4435SOL    HW114204   3.700   3.303   0.894
 4435SOL    HW214205   3.718   3.184   0.785
 4436SOL     OW14206   3.015   1.855   6.795
 4436SOL    HW114207   3.099   1.803   6.780
 4436SOL    HW214208   2.936   1.794   6.784
 4437SOL     OW14209   4.049   0.917   4.493
 4437SOL    HW114210   3.966   0.862   4.499
 4437SOL    HW214211   4.034   0.995   4.432
 4438SOL     OW14212   4.712   1.623   6.950
 4438SOL    HW114213   4.704   1.687   0.003
 4438SOL    HW214214   4.636   1.636   6.887
 4439SOL     OW14215   0.788   5.244   1.465
 4439SOL    HW114216   0.800   5.306   1.387
 4439SOL    HW214217   0.701   5.263   1.509
 4440SOL     OW14218   2.023   5.672   0.171
 4440SOL    HW114219   1.926   5.649   0.175
 4440SOL    HW214220   2.039   5.755   0.225
 4441SOL     OW14221   6.208   2.069   1.921
 4441SOL    HW114222   6.203   2.141   1.852
 4441SOL    HW214223   6.116   2.053   1.959
 4442SOL     OW14224   3.630   6.085   3.445
 4442SOL    HW114225   3.649   6.178   3.478
 4442SOL    HW214226   3.706   6.055   3.387
 4443SOL     OW14227   1.552   2.073   6.801
 4443SOL    HW114228   1.649   2.073   6.827
 4443SOL    HW214229   1.540   2.123   6.716
 4444SOL     OW14230   3.998   6.035   6.470
 4444SOL    HW114231   3.936   6.107   6.502
 4444SOL    HW214232   4.041   5.990   6.548
 4445SOL     OW14233   1.276   0.852   6.311
 4445SOL    HW114234   1.374   0.850   6.291
 4445SOL    HW214235   1.228   0.904   6.241
 4446SOL     OW14236   5.857   0.893   1.509
 4446SOL    HW114237   5.784   0.906   1.576
 4446SOL    HW214238   5.913   0.976   1.504
 4447SOL     OW14239   5.026   3.338   5.362
 4447SOL    HW114240   5.082   3.319   5.281
 4447SOL    HW214241   5.064   3.418   5.410
 4448SOL     OW14242   3.059   4.295   0.212
 4448SOL    HW114243   3.008   4.210   0.226
 4448SOL    HW214244   3.010   4.353   0.146
 4449SOL     OW14245   3.558   0.553   5.855
 4449SOL    HW114246   3.627   0.482   5.868
 4449SOL    HW214247   3.535   0.560   5.758
 4450SOL     OW14248   3.316   3.049   2.966
 4450SOL    HW114249   3.306   3.147   2.987
 4450SOL    HW214250   3.402   3.034   2.918
 4451SOL     OW14251   6.020   4.142   2.660
 4451SOL    HW114252   5.946   4.181   2.715
 4451SOL    HW214253   6.072   4.215   2.617
 4452SOL     OW14254   6.224   6.429   4.806
 4452SOL    HW114255   6.249   6.487   4.884
 4452SOL    HW214256   6.136   6.385   4.825
 4453SOL     OW14257   6.098   2.852   1.242
 4453SOL    HW114258   6.083   2.767   1.191
 4453SOL    HW214259   6.072   2.930   1.186
 4454SOL     OW14260   5.320   2.170   0.841
 4454SOL    HW114261   5.345   2.133   0.930
 4454SOL    HW214262   5.321   2.097   0.773
 4455SOL     OW14263   3.180   6.149   1.143
 4455SOL    HW114264   3.268   6.155   1.095
 4455SOL    HW214265   3.192   6.096   1.227
 4456SOL     OW14266   2.271   5.396   2.387
 4456SOL    HW114267   2.345   5.416   2.451
 4456SOL    HW214268   2.276   5.300   2.361
 4457SOL     OW14269   4.267   2.567   6.711
 4457SOL    HW114270   4.308   2.593   6.624
 4457SOL    HW214271   4.176   2.527   6.695
 4458SOL     OW14272   2.026   2.768   6.504
 4458SOL    HW114273   1.948   2.781   6.566
 4458SOL    HW214274   1.994   2.770   6.410
 4459SOL     OW14275   5.073   0.021   4.251
 4459SOL    HW114276   5.064   6.959   4.200
 4459SOL    HW214277   5.163   0.027   4.293
 4460SOL     OW14278   2.368   3.018   6.276
 4460SOL    HW114279   2.313   3.096   6.248
 4460SOL    HW214280   2.449   3.051   6.326
 4461SOL     OW14281   0.948   0.023   2.471
 4461SOL    HW114282   0.921   6.962   2.423
 4461SOL    HW214283   0.873   0.089   2.466
 4462SOL     OW14284   6.563   4.320   0.821
 4462SOL    HW114285   6.645   4.264   0.834
 4462SOL    HW214286   6.511   4.321   0.906
 4463SOL     OW14287   1.747   2.807   6.990
 4463SOL    HW114288   1.668   2.865   6.970
 4463SOL    HW214289   1.800   2.848   0.042
 4464SOL     OW14290   5.969   4.871   0.689
 4464SOL    HW114291   6.057   4.886   0.644
 4464SOL    HW214292   5.962   4.777   0.720
 4465SOL     OW14293   1.871   6.662   2.488
 4465SOL    HW114294   1.951   6.628   2.537
 4465SOL    HW214295   1.870   6.762   2.490
 4466SOL     OW14296   0.942   0.905   2.798
 4466SOL    HW114297   0.842   0.907   2.796
 4466SOL    HW214298   0.978   0.991   2.761
 4467SOL     OW14299   1.032   6.794   3.327
 4467SOL    HW114300   1.107   6.857   3.344
 4467SOL    HW214301   1.065   6.699   3.336
 4468SOL     OW14302   0.913   1.982   0.100
 4468SOL    HW114303   0.952   1.923   0.028
 4468SOL    HW214304   0.936   2.077   0.081
 4469SOL     OW14305   3.153   6.770   2.050
 4469SOL    HW114306   3.117   6.678   2.064
 4469SOL    HW214307   3.211   6.771   1.968
 4470SOL     OW14308   5.231   3.720   1.641
 4470SOL    HW114309   5.249   3.773   1.558
 4470SOL    HW214310   5.297   3.645   1.647
 4471SOL     OW14311   0.433   2.754   0.296
 4471SOL    HW114312   0.360   2.764   0.364
 4471SOL    HW214313   0.396   2.713   0.213
 4472SOL     OW14314   1.427   4.289   2.732
 4472SOL    HW114315   1.406   4.228   2.656
 4472SOL    HW214316   1.505   4.347   2.708
 4473SOL     OW14317   0.186   0.485   5.008
 4473SOL    HW114318   0.241   0.509   4.928
 4473SOL    HW214319   0.204   0.390   5.034
 4474SOL     OW14320   3.136   7.013   2.630
 4474SOL    HW114321   3.055   6.954   2.636
 4474SOL    HW214322   3.107   0.086   2.628
 4475SOL     OW14323   1.416   3.892   1.237
 4475SOL    HW114324   1.388   3.897   1.333
 4475SOL    HW214325   1.516   3.896   1.232
 4476SOL     OW14326   5.242   6.378   3.198
 4476SOL    HW114327   5.162   6.438   3.206
 4476SOL    HW214328   5.275   6.379   3.103
 4477SOL     OW14329   1.887   0.139   6.668
 4477SOL    HW114330   1.810   0.075   6.661
 4477SOL    HW214331   1.945   0.129   6.587
 4478SOL     OW14332   2.577   6.634   2.308
 4478SOL    HW114333   2.538   6.657   2.397
 4478SOL    HW214334   2.514   6.575   2.258
 4479SOL     OW14335   1.395   0.403   6.256
 4479SOL    HW114336   1.416   0.410   6.159
 4479SOL    HW214337   1.328   0.330   6.271
 4480SOL     OW14338   2.157   3.520   4.405
 4480SOL    HW114339   2.175   3.570   4.490
 4480SOL    HW214340   2.069   3.548   4.368
 4481SOL     OW14341   2.062   6.746   4.690
 4481SOL    HW114342   2.083   6.720   4.595
 4481SOL    HW214343   2.062   6.664   4.747
 4482SOL     OW14344   0.828   3.938   4.021
 4482SOL    HW114345   0.778   3.867   3.971
 4482SOL    HW214346   0.864   4.005   3.957
 4483SOL     OW14347   0.074   3.421   1.176
 4483SOL    HW114348   0.121   3.426   1.088
 4483SOL    HW214349   0.121   3.355   1.235
 4484SOL     OW14350   3.668   2.249   5.290
 4484SOL    HW114351   3.570   2.233   5.277
 4484SOL    HW214352   3.718   2.221   5.209
 4485SOL     OW14353   5.049   2.851   6.661
 4485SOL    HW114354   5.106   2.933   6.663
 4485SOL    HW214355   4.985   2.857   6.584
 4486SOL     OW14356   6.909   4.142   4.937
 4486SOL    HW114357   6.960   4.180   5.014
 4486SOL    HW214358   6.825   4.099   4.971
 4487SOL     OW14359   2.527   3.588   6.964
 4487SOL    HW114360   2.468   3.661   6.997
 4487SOL    HW214361   2.598   3.569   0.009
 4488SOL     OW14362   5.546   2.966   6.097
 4488SOL    HW114363   5.482   2.944   6.170
 4488SOL    HW214364   5.496   2.976   6.011
 4489SOL     OW14365   5.634   5.881   4.342
 4489SOL    HW114366   5.649   5.784   4.326
 4489SOL    HW214367   5.659   5.904   4.436
 4490SOL     OW14368   5.748   1.639   1.408
 4490SOL    HW114369   5.747   1.722   1.463
 4490SOL    HW214370   5.838   1.629   1.365
 4491SOL     OW14371   0.739   3.598   2.716
 4491SOL    HW114372   0.751   3.499   2.711
 4491SOL    HW214373   0.716   3.625   2.809
 4492SOL     OW14374   5.330   2.532   0.549
 4492SOL    HW114375   5.235   2.541   0.579
 4492SOL    HW214376   5.377   2.464   0.605
 4493SOL     OW14377   4.172   5.055   4.630
 4493SOL    HW114378   4.154   5.069   4.532
 4493SOL    HW214379   4.270   5.051   4.646
 4494SOL     OW14380   0.036   2.346   5.935
 4494SOL    HW114381   6.981   2.335   5.872
 4494SOL    HW214382   0.088   2.427   5.910
 4495SOL     OW14383   5.184   6.988   2.883
 4495SOL    HW114384   5.114   6.936   2.835
 4495SOL    HW214385   5.147   0.055   2.909
 4496SOL     OW14386   5.243   4.783   0.441
 4496SOL    HW114387   5.194   4.807   0.357
 4496SOL    HW214388   5.339   4.767   0.421
 4497SOL     OW14389   5.364   5.909   6.970
 4497SOL    HW114390   5.382   5.999   7.010
 4497SOL    HW214391   5.441   5.848   6.989
 4498SOL     OW14392   0.168   3.309   6.492
 4498SOL    HW114393   0.191   3.401   6.462
 4498SOL    HW214394   0.247   3.249   6.479
 4499SOL     OW14395   6.150   2.925   4.310
 4499SOL    HW114396   6.215   2.954   4.380
 4499SOL    HW214397   6.062   2.968   4.325
 4500SOL     OW14398   2.922   3.376   4.123
 4500SOL    HW114399   2.838   3.376   4.068
 4500SOL    HW214400   2.989   3.314   4.082
 4501SOL     OW14401   1.016   3.811   6.046
 4501SOL    HW114402   1.111   3.779   6.048
 4501SOL    HW214403   1.011   3.893   5.988
 4502SOL     OW14404   1.975   2.510   5.838
 4502SOL    HW114405   2.058   2.456   5.823
 4502SOL    HW214406   1.956   2.564   5.756
 4503SOL     OW14407   2.383   0.933   3.257
 4503SOL    HW114408   2.360   0.959   3.351
 4503SOL    HW214409   2.300   0.903   3.210
 4504SOL     OW14410   6.728   2.455   5.556
 4504SOL    HW114411   6.814   2.452   5.505
 4504SOL    HW214412   6.705   2.551   5.577
 4505SOL     OW14413   0.574   6.059   4.937
 4505SOL    HW114414   0.557   5.974   4.888
 4505SOL    HW214415   0.518   6.061   5.021
 4506SOL     OW14416   3.977   1.860   4.615
 4506SOL    HW114417   3.913   1.803   4.565
 4506SOL    HW214418   3.945   1.955   4.615
 4507SOL     OW14419   4.940   4.824   1.533
 4507SOL    HW114420   4.943   4.922   1.553
 4507SOL    HW214421   4.849   4.788   1.550
 4508SOL     OW14422   1.414   4.200   0.075
 4508SOL    HW114423   1.421   4.281   0.018
 4508SOL    HW214424   1.318   4.182   0.096
 4509SOL     OW14425   4.434   1.720   4.403
 4509SOL    HW114426   4.449   1.626   4.433
 4509SOL    HW214427   4.342   1.749   4.430
 4510SOL     OW14428   5.366   0.168   4.971
 4510SOL    HW114429   5.411   0.203   5.053
 4510SOL    HW214430   5.415   0.088   4.937
 4511SOL     OW14431   0.522   3.000   6.891
 4511SOL    HW114432   0.611   2.979   6.850
 4511SOL    HW214433   0.484   3.082   6.849
 4512SOL     OW14434   2.437   6.774   5.986
 4512SOL    HW114435   2.435   6.686   6.032
 4512SOL    HW214436   2.498   6.769   5.907
 4513SOL     OW14437   4.573   6.687   1.314
 4513SOL    HW114438   4.549   6.699   1.411
 4513SOL    HW214439   4.665   6.650   1.306
 4514SOL     OW14440   3.676   1.184   4.780
 4514SOL    HW114441   3.693   1.131   4.697
 4514SOL    HW214442   3.720   1.274   4.772
 4515SOL     OW14443   6.609   4.312   0.191
 4515SOL    HW114444   6.571   4.294   0.100
 4515SOL    HW214445   6.542   4.363   0.245
 4516SOL     OW14446   1.080   0.873   5.945
 4516SOL    HW114447   0.994   0.887   5.993
 4516SOL    HW214448   1.144   0.947   5.968
 4517SOL     OW14449   2.735   6.653   5.814
 4517SOL    HW114450   2.741   6.723   5.743
 4517SOL    HW214451   2.777   6.686   5.898
 4518SOL     OW14452   0.408   2.328   4.120
 4518SOL    HW114453   0.347   2.355   4.195
 4518SOL    HW214454   0.387   2.235   4.091
 4519SOL     OW14455   0.105   1.700   2.505
 4519SOL    HW114456   0.064   1.791   2.505
 4519SOL    HW214457   0.187   1.700   2.561
 4520SOL     OW14458   5.822   4.685   3.022
 4520SOL    HW114459   5.870   4.684   3.109
 4520SOL    HW214460   5.886   4.662   2.948
 4521SOL     OW14461   5.167   1.968   6.023
 4521SOL    HW114462   5.088   2.023   5.995
 4521SOL    HW214463   5.178   1.891   5.960
 4522SOL     OW14464   5.054   6.847   4.079
 4522SOL    HW114465   5.107   6.890   4.006
 4522SOL    HW214466   4.966   6.815   4.042
 4523SOL     OW14467   2.378   4.138   6.605
 4523SOL    HW114468   2.400   4.052   6.559
 4523SOL    HW214469   2.283   4.163   6.586
 4524SOL     OW14470   5.436   1.724   5.553
 4524SOL    HW114471   5.365   1.701   5.486
 4524SOL    HW214472   5.495   1.645   5.568
 4525SOL     OW14473   6.390   1.626   4.227
 4525SOL    HW114474   6.392   1.725   4.216
 4525SOL    HW214475   6.455   1.599   4.298
 4526SOL     OW14476   5.107   0.182   1.451
 4526SOL    HW114477   5.164   0.264   1.445
 4526SOL    HW214478   5.014   0.204   1.421
 4527SOL     OW14479   4.012   1.203   3.695
 4527SOL    HW114480   4.080   1.213   3.767
 4527SOL    HW214481   4.021   1.278   3.629
 4528SOL     OW14482   4.612   6.541   6.909
 4528SOL    HW114483   4.683   6.536   6.839
 4528SOL    HW214484   4.643   6.601   6.983
 4529SOL     OW14485   2.590   1.091   3.176
 4529SOL    HW114486   2.624   1.143   3.254
 4529SOL    HW214487   2.502   1.049   3.199
 4530SOL     OW14488   0.419   3.404   5.819
 4530SOL    HW114489   0.404   3.500   5.796
 4530SOL    HW214490   0.332   3.361   5.843
 4531SOL     OW14491   1.207   4.122   3.341
 4531SOL    HW114492   1.247   4.123   3.250
 4531SOL    HW214493   1.213   4.029   3.378
 4532SOL     OW14494   6.945   1.643   1.749
 4532SOL    HW114495   6.878   1.716   1.732
 4532SOL    HW214496   0.014   1.682   1.755
 4533SOL     OW14497   1.655   0.836   3.523
 4533SOL    HW114498   1.645   0.825   3.424
 4533SOL    HW214499   1.638   0.748   3.568
 4534SOL     OW14500   6.252   3.566   5.179
 4534SOL    HW114501   6.343   3.597   5.151
 4534SOL    HW214502   6.213   3.632   5.243
 4535SOL     OW14503   4.339   1.980   2.615
 4535SOL    HW114504   4.423   2.034   2.607
 4535SOL    HW214505   4.261   2.035   2.584
 4536SOL     OW14506   4.825   1.450   4.477
 4536SOL    HW114507   4.900   1.488   4.532
 4536SOL    HW214508   4.758   1.408   4.537
 4537SOL     OW14509   3.669   3.117   6.311
 4537SOL    HW114510   3.695   3.033   6.263
 4537SOL    HW214511   3.604   3.168   6.256
 4538SOL     OW14512   3.235   2.183   3.994
 4538SOL    HW114513   3.199   2.233   3.916
 4538SOL    HW214514   3.335   2.194   3.997
 4539SOL     OW14515   2.844   2.279   4.028
 4539SOL    HW114516   2.841   2.276   3.928
 4539SOL    HW214517   2.789   2.204   4.065
 4540SOL     OW14518   3.603   3.696   3.857
 4540SOL    HW114519   3.672   3.627   3.831
 4540SOL    HW214520   3.517   3.651   3.877
 4541SOL     OW14521   5.299   0.396   0.148
 4541SOL    HW114522   5.344   0.478   0.185
 4541SOL    HW214523   5.317   0.389   0.050
 4542SOL     OW14524   6.132   6.251   1.825
 4542SOL    HW114525   6.204   6.253   1.755
 4542SOL    HW214526   6.169   6.281   1.912
 4543SOL     OW14527   4.799   1.383   6.909
 4543SOL    HW114528   4.750   1.331   6.839
 4543SOL    HW214529   4.768   1.478   6.908
 4544SOL     OW14530   2.591   6.048   6.512
 4544SOL    HW114531   2.635   6.017   6.596
 4544SOL    HW214532   2.527   6.122   6.533
 4545SOL     OW14533   4.547   2.253   5.073
 4545SOL    HW114534   4.482   2.216   5.007
 4545SOL    HW214535   4.639   2.249   5.035
 4546SOL     OW14536   0.967   7.003   6.213
 4546SOL    HW114537   0.928   6.920   6.173
 4546SOL    HW214538   0.973   0.052   6.144
 4547SOL     OW14539   5.526   2.849   1.945
 4547SOL    HW114540   5.467   2.858   1.865
 4547SOL    HW214541   5.498   2.915   2.015
 4548SOL     OW14542   1.184   5.286   4.085
 4548SOL    HW114543   1.267   5.338   4.107
 4548SOL    HW214544   1.124   5.342   4.028
 4549SOL     OW14545   6.723   3.844   3.168
 4549SOL    HW114546   6.671   3.843   3.082
 4549SOL    HW214547   6.816   3.875   3.150
 4550SOL     OW14548   0.858   5.759   3.770
 4550SOL    HW114549   0.772   5.727   3.809
 4550SOL    HW214550   0.855   5.750   3.670
 4551SOL     OW14551   7.006   1.927   5.407
 4551SOL    HW114552   6.995   1.867   5.328
 4551SOL    HW214553   6.977   2.019   5.384
 4552SOL     OW14554   0.440   3.071   5.966
 4552SOL    HW114555   0.400   3.156   6.000
 4552SOL    HW214556   0.506   3.036   6.032
 4553SOL     OW14557   4.013   4.998   6.812
 4553SOL    HW114558   4.081   5.049   6.864
 4553SOL    HW214559   4.055   4.960   6.730
 4554SOL     OW14560   4.148   1.031   2.087
 4554SOL    HW114561   4.142   1.087   2.004
 4554SOL    HW214562   4.234   0.980   2.087
 4555SOL     OW14563   4.343   1.252   6.681
 4555SOL    HW114564   4.364   1.155   6.672
 4555SOL    HW214565   4.428   1.305   6.681
 4556SOL     OW14566   3.802   1.180   3.892
 4556SOL    HW114567   3.844   1.160   3.803
 4556SOL    HW214568   3.710   1.142   3.895
 4557SOL     OW14569   5.076   0.345   4.670
 4557SOL    HW114570   5.011   0.398   4.725
 4557SOL    HW214571   5.169   0.368   4.698
 4558SOL     OW14572   6.573   3.925   6.656
 4558SOL    HW114573   6.623   3.857   6.602
 4558SOL    HW214574   6.636   3.970   6.720
 4559SOL     OW14575   1.857   6.613   2.087
 4559SOL    HW114576   1.846   6.678   2.161
 4559SOL    HW214577   1.953   6.586   2.079
 4560SOL     OW14578   5.166   4.104   3.076
 4560SOL    HW114579   5.244   4.046   3.096
 4560SOL    HW214580   5.195   4.183   3.021
 4561SOL     OW14581   2.679   0.600   0.918
 4561SOL    HW114582   2.595   0.547   0.912
 4561SOL    HW214583   2.756   0.539   0.938
 4562SOL     OW14584   3.030   5.652   5.327
 4562SOL    HW114585   2.991   5.665   5.237
 4562SOL    HW214586   3.124   5.617   5.319
 4563SOL     OW14587   5.461   3.601   0.283
 4563SOL    HW114588   5.363   3.614   0.268
 4563SOL    HW214589   5.476   3.549   0.366
 4564SOL     OW14590   1.265   5.374   1.191
 4564SOL    HW114591   1.227   5.290   1.153
 4564SOL    HW214592   1.194   5.443   1.197
 4565SOL     OW14593   0.377   1.680   5.418
 4565SOL    HW114594   0.386   1.698   5.320
 4565SOL    HW214595   0.468   1.680   5.460
 4566SOL     OW14596   6.901   0.765   0.468
 4566SOL    HW114597   6.993   0.747   0.436
 4566SOL    HW214598   6.879   0.862   0.455
 4567SOL     OW14599   0.476   1.146   0.814
 4567SOL    HW114600   0.392   1.176   0.858
 4567SOL    HW214601   0.485   1.190   0.725
 4568SOL     OW14602   1.847   4.182   5.376
 4568SOL    HW114603   1.889   4.142   5.458
 4568SOL    HW214604   1.888   4.271   5.358
 4569SOL     OW14605   1.608   2.374   3.968
 4569SOL    HW114606   1.570   2.452   3.917
 4569SOL    HW214607   1.616   2.296   3.906
 4570SOL     OW14608   6.783   6.034   3.253
 4570SOL    HW114609   6.756   5.939   3.237
 4570SOL    HW214610   6.706   6.094   3.231
 4571SOL     OW14611   3.422   3.957   4.885
 4571SOL    HW114612   3.444   3.966   4.983
 4571SOL    HW214613   3.388   3.865   4.867
 4572SOL     OW14614   0.503   0.038   0.895
 4572SOL    HW114615   0.587   0.062   0.944
 4572SOL    HW214616   0.508   6.965   0.866
 4573SOL     OW14617   6.043   5.825   0.522
 4573SOL    HW114618   5.983   5.904   0.529
 4573SOL    HW214619   5.991   5.742   0.542
 4574SOL     OW14620   0.089   4.851   0.707
 4574SOL    HW114621   0.148   4.784   0.662
 4574SOL    HW214622   0.087   4.935   0.654
 4575SOL     OW14623   0.038   2.111   0.592
 4575SOL    HW114624   0.070   2.016   0.597
 4575SOL    HW214625   0.030   2.147   0.685
 4576SOL     OW14626   2.943   5.688   6.108
 4576SOL    HW114627   3.036   5.692   6.144
 4576SOL    HW214628   2.903   5.780   6.105
 4577SOL     OW14629   0.232   3.517   2.737
 4577SOL    HW114630   0.167   3.563   2.797
 4577SOL    HW214631   0.274   3.585   2.677
 4578SOL     OW14632   0.914   3.828   3.518
 4578SOL    HW114633   0.905   3.744   3.464
 4578SOL    HW214634   0.994   3.820   3.578
 4579SOL     OW14635   4.521   1.538   2.885
 4579SOL    HW114636   4.510   1.534   2.786
 4579SOL    HW214637   4.582   1.464   2.914
 4580SOL     OW14638   6.238   4.924   0.591
 4580SOL    HW114639   6.250   4.974   0.678
 4580SOL    HW214640   6.282   4.834   0.598
 4581SOL     OW14641   3.235   5.019   2.417
 4581SOL    HW114642   3.200   5.062   2.500
 4581SOL    HW214643   3.321   4.972   2.438
 4582SOL     OW14644   5.956   6.466   4.449
 4582SOL    HW114645   6.047   6.496   4.479
 4582SOL    HW214646   5.960   6.369   4.423
 4583SOL     OW14647   3.047   1.954   4.934
 4583SOL    HW114648   2.988   1.956   5.015
 4583SOL    HW214649   3.133   2.000   4.954
 4584SOL     OW14650   0.259   5.564   6.238
 4584SOL    HW114651   0.272   5.603   6.329
 4584SOL    HW214652   0.163   5.573   6.211
 4585SOL     OW14653   2.868   6.506   3.206
 4585SOL    HW114654   2.965   6.516   3.225
 4585SOL    HW214655   2.834   6.588   3.159
 4586SOL     OW14656   3.328   4.691   1.095
 4586SOL    HW114657   3.245   4.655   1.138
 4586SOL    HW214658   3.324   4.791   1.094
 4587SOL     OW14659   4.247   3.509   1.801
 4587SOL    HW114660   4.220   3.435   1.862
 4587SOL    HW214661   4.310   3.473   1.731
 4588SOL     OW14662   3.947   3.642   5.412
 4588SOL    HW114663   3.954   3.606   5.504
 4588SOL    HW214664   3.950   3.567   5.346
 4589SOL     OW14665   5.416   2.056   2.661
 4589SOL    HW114666   5.342   2.095   2.716
 4589SOL    HW214667   5.412   1.956   2.666
 4590SOL     OW14668   4.589   5.973   1.833
 4590SOL    HW114669   4.493   5.968   1.804
 4590SOL    HW214670   4.611   5.891   1.887
 4591SOL     OW14671   6.898   6.024   5.489
 4591SOL    HW114672   6.870   6.107   5.442
 4591SOL    HW214673   6.997   6.025   5.503
 4592SOL     OW14674   4.041   3.077   1.368
 4592SOL    HW114675   4.103   3.128   1.309
 4592SOL    HW214676   4.088   2.998   1.408
 4593SOL     OW14677   4.503   5.288   3.191
 4593SOL    HW114678   4.456   5.337   3.118
 4593SOL    HW214679   4.440   5.224   3.235
 4594SOL     OW14680   4.214   1.210   1.867
 4594SOL    HW114681   4.256   1.142   1.806
 4594SOL    HW214682   4.201   1.295   1.817
 4595SOL     OW14683   3.507   2.924   6.712
 4595SOL    HW114684   3.530   3.013   6.674
 4595SOL    HW214685   3.569   2.902   6.787
 4596SOL     OW14686   6.147   6.575   1.994
 4596SOL    HW114687   6.213   6.593   1.921
 4596SOL    HW214688   6.054   6.586   1.959
 4597SOL     OW14689   5.181   5.488   6.732
 4597SOL    HW114690   5.178   5.521   6.826
 4597SOL    HW214691   5.232   5.402   6.728
 4598SOL     OW14692   1.094   5.427   6.333
 4598SOL    HW114693   1.048   5.509   6.302
 4598SOL    HW214694   1.057   5.399   6.422
 4599SOL     OW14695   1.430   3.569   1.190
 4599SOL    HW114696   1.448   3.657   1.146
 4599SOL    HW214697   1.475   3.496   1.138
 4600SOL     OW14698   3.307   5.430   6.172
 4600SOL    HW114699   3.338   5.458   6.081
 4600SOL    HW214700   3.387   5.404   6.227
 4601SOL     OW14701   1.637   1.034   5.231
 4601SOL    HW114702   1.717   0.975   5.222
 4601SOL    HW214703   1.569   1.008   5.163
 4602SOL     OW14704   1.509   6.666   1.540
 4602SOL    HW114705   1.478   6.715   1.458
 4602SOL    HW214706   1.503   6.726   1.619
 4603SOL     OW14707   3.417   6.528   1.387
 4603SOL    HW114708   3.367   6.614   1.402
 4603SOL    HW214709   3.500   6.527   1.442
 4604SOL     OW14710   4.224   0.978   1.049
 4604SOL    HW114711   4.187   0.890   1.078
 4604SOL    HW214712   4.197   0.996   0.954
 4605SOL     OW14713   4.974   0.669   4.063
 4605SOL    HW114714   4.986   0.722   4.147
 4605SOL    HW214715   4.954   0.732   3.987
 4606SOL     OW14716   0.239   6.799   3.077
 4606SOL    HW114717   0.189   6.804   2.990
 4606SOL    HW214718   0.184   6.750   3.144
 4607SOL     OW14719   2.483   2.051   0.760
 4607SOL    HW114720   2.463   1.976   0.699
 4607SOL    HW214721   2.515   2.016   0.848
 4608SOL     OW14722   0.991   5.189   5.056
 4608SOL    HW114723   1.029   5.133   4.983
 4608SOL    HW214724   0.911   5.143   5.096
 4609SOL     OW14725   4.372   5.352   6.375
 4609SOL    HW114726   4.439   5.331   6.304
 4609SOL    HW214727   4.298   5.285   6.372
 4610SOL     OW14728   0.100   2.560   0.321
 4610SOL    HW114729   0.062   2.518   0.403
 4610SOL    HW214730   0.181   2.615   0.346
 4611SOL     OW14731   6.617   4.018   0.259
 4611SOL    HW114732   6.597   3.994   0.354
 4611SOL    HW214733   6.610   4.117   0.248
 4612SOL     OW14734   1.828   6.145   6.780
 4612SOL    HW114735   1.804   6.049   6.765
 4612SOL    HW214736   1.754   6.203   6.747
 4613SOL     OW14737   2.476   5.942   2.885
 4613SOL    HW114738   2.555   5.978   2.936
 4613SOL    HW214739   2.509   5.885   2.809
 4614SOL     OW14740   1.704   5.043   6.357
 4614SOL    HW114741   1.622   5.040   6.300
 4614SOL    HW214742   1.680   5.021   6.452
 4615SOL     OW14743   1.607   1.499   0.356
 4615SOL    HW114744   1.552   1.559   0.414
 4615SOL    HW214745   1.685   1.550   0.320
 4616SOL     OW14746   6.796   0.667   6.296
 4616SOL    HW114747   6.864   0.673   6.370
 4616SOL    HW214748   6.707   0.644   6.334
 4617SOL     OW14749   0.988   2.564   2.405
 4617SOL    HW114750   1.053   2.500   2.365
 4617SOL    HW214751   0.946   2.619   2.333
 4618SOL     OW14752   1.511   2.435   5.221
 4618SOL    HW114753   1.483   2.504   5.288
 4618SOL    HW214754   1.601   2.400   5.246
 4619SOL     OW14755   4.616   6.967   3.683
 4619SOL    HW114756   4.528   7.014   3.692
 4619SOL    HW214757   4.662   6.966   3.772
 4620SOL     OW14758   3.463   3.999   6.838
 4620SOL    HW114759   3.394   3.948   6.786
 4620SOL    HW214760   3.424   4.027   6.926
 4621SOL     OW14761   6.286   2.117   4.775
 4621SOL    HW114762   6.343   2.195   4.751
 4621SOL    HW214763   6.344   2.035   4.781
 4622SOL     OW14764   1.509   2.827   0.867
 4622SOL    HW114765   1.508   2.884   0.950
 4622SOL    HW214766   1.416   2.809   0.838
 4623SOL     OW14767   0.426   5.284   0.974
 4623SOL    HW114768   0.423   5.259   0.877
 4623SOL    HW214769   0.520   5.307   0.999
 4624SOL     OW14770   4.664   0.836   4.177
 4624SOL    HW114771   4.565   0.851   4.170
 4624SOL    HW214772   4.710   0.924   4.192
 4625SOL     OW14773   1.689   4.126   0.128
 4625SOL    HW114774   1.589   4.126   0.124
 4625SOL    HW214775   1.725   4.203   0.074
 4626SOL     OW14776   6.238   4.804   1.576
 4626SOL    HW114777   6.333   4.774   1.582
 4626SOL    HW214778   6.181   4.729   1.541
 4627SOL     OW14779   3.427   5.669   5.440
 4627SOL    HW114780   3.468   5.658   5.350
 4627SOL    HW214781   3.344   5.613   5.445
 4628SOL     OW14782   5.756   4.411   2.993
 4628SOL    HW114783   5.782   4.507   2.984
 4628SOL    HW214784   5.769   4.382   3.088
 4629SOL     OW14785   1.994   4.938   5.942
 4629SOL    HW114786   1.953   4.966   6.029
 4629SOL    HW214787   2.063   5.004   5.914
 4630SOL     OW14788   2.916   5.686   3.869
 4630SOL    HW114789   2.974   5.694   3.788
 4630SOL    HW214790   2.967   5.716   3.950
 4631SOL     OW14791   2.494   6.794   3.685
 4631SOL    HW114792   2.492   6.879   3.633
 4631SOL    HW214793   2.402   6.755   3.689
 4632SOL     OW14794   4.553   4.995   3.121
 4632SOL    HW114795   4.573   5.037   3.210
 4632SOL    HW214796   4.456   5.007   3.100
 4633SOL     OW14797   6.673   1.738   4.880
 4633SOL    HW114798   6.706   1.645   4.863
 4633SOL    HW214799   6.745   1.804   4.857
 4634SOL     OW14800   2.923   4.475   6.351
 4634SOL    HW114801   2.907   4.421   6.433
 4634SOL    HW214802   3.015   4.516   6.355
 4635SOL     OW14803   5.843   3.176   2.322
 4635SOL    HW114804   5.866   3.261   2.368
 4635SOL    HW214805   5.919   3.149   2.263
 4636SOL     OW14806   2.802   5.123   6.769
 4636SOL    HW114807   2.783   5.122   6.671
 4636SOL    HW214808   2.738   5.063   6.816
 4637SOL     OW14809   1.498   0.566   6.733
 4637SOL    HW114810   1.491   0.537   6.637
 4637SOL    HW214811   1.497   0.485   6.792
 4638SOL     OW14812   4.051   2.764   6.391
 4638SOL    HW114813   4.110   2.758   6.310
 4638SOL    HW214814   4.074   2.690   6.454
 4639SOL     OW14815   1.268   4.179   5.813
 4639SOL    HW114816   1.300   4.274   5.816
 4639SOL    HW214817   1.318   4.130   5.741
 4640SOL     OW14818   5.003   5.099   3.991
 4640SOL    HW114819   4.905   5.080   3.981
 4640SOL    HW214820   5.015   5.186   4.040
 4641SOL     OW14821   2.635   5.042   4.392
 4641SOL    HW114822   2.728   5.028   4.427
 4641SOL    HW214823   2.588   5.108   4.450
 4642SOL     OW14824   6.461   5.731   5.152
 4642SOL    HW114825   6.401   5.651   5.157
 4642SOL    HW214826   6.487   5.759   5.244
 4643SOL     OW14827   4.703   2.400   0.170
 4643SOL    HW114828   4.698   2.496   0.199
 4643SOL    HW214829   4.667   2.392   0.077
 4644SOL     OW14830   1.474   5.345   5.220
 4644SOL    HW114831   1.446   5.271   5.281
 4644SOL    HW214832   1.399   5.411   5.210
 4645SOL     OW14833   1.817   0.037   4.281
 4645SOL    HW114834   1.718   0.043   4.266
 4645SOL    HW214835   1.853   6.980   4.233
 4646SOL     OW14836   2.710   6.812   2.160
 4646SOL    HW114837   2.662   6.752   2.224
 4646SOL    HW214838   2.807   6.817   2.184
 4647SOL     OW14839   0.886   6.615   2.899
 4647SOL    HW114840   0.799   6.606   2.849
 4647SOL    HW214841   0.957   6.564   2.851
 4648SOL     OW14842   3.318   6.867   1.561
 4648SOL    HW114843   3.391   6.881   1.494
 4648SOL    HW214844   3.240   6.822   1.517
 4649SOL     OW14845   4.978   0.791   5.527
 4649SOL    HW114846   4.917   0.748   5.460
 4649SOL    HW214847   5.066   0.744   5.528
 4650SOL     OW14848   3.834   6.016   3.012
 4650SOL    HW114849   3.904   6.053   2.951
 4650SOL    HW214850   3.745   6.025   2.968
 4651SOL     OW14851   0.511   2.403   1.800
 4651SOL    HW114852   0.592   2.367   1.752
 4651SOL    HW214853   0.459   2.461   1.737
 4652SOL     OW14854   0.598   6.814   3.606
 4652SOL    HW114855   0.593   6.826   3.705
 4652SOL    HW214856   0.692   6.826   3.576
 4653SOL     OW14857   6.706   6.025   0.407
 4653SOL    HW114858   6.732   5.930   0.427
 4653SOL    HW214859   6.782   6.071   0.363
 4654SOL     OW14860   0.768   0.267   0.336
 4654SOL    HW114861   0.693   0.237   0.277
 4654SOL    HW214862   0.733   0.287   0.427
 4655SOL     OW14863   0.531   4.807   2.550
 4655SOL    HW114864   0.546   4.875   2.621
 4655SOL    HW214865   0.462   4.841   2.486
 4656SOL     OW14866   0.922   6.922   3.121
 4656SOL    HW114867   0.992   6.981   3.081
 4656SOL    HW214868   0.965   6.860   3.187
 4657SOL     OW14869   5.549   6.850   1.855
 4657SOL    HW114870   5.541   6.946   1.826
 4657SOL    HW214871   5.535   6.844   1.954
 4658SOL     OW14872   3.847   0.503   2.742
 4658SOL    HW114873   3.830   0.509   2.841
 4658SOL    HW214874   3.838   0.408   2.713
 4659SOL     OW14875   1.785   3.183   5.169
 4659SOL    HW114876   1.736   3.099   5.143
 4659SOL    HW214877   1.865   3.194   5.110
 4660SOL     OW14878   1.174   1.980   4.910
 4660SOL    HW114879   1.206   1.921   4.836
 4660SOL    HW214880   1.215   2.070   4.902
 4661SOL     OW14881   3.727   3.866   4.878
 4661SOL    HW114882   3.771   3.813   4.806
 4661SOL    HW214883   3.665   3.933   4.838
 4662SOL     OW14884   4.821   0.636   5.325
 4662SOL    HW114885   4.725   0.645   5.353
 4662SOL    HW214886   4.832   0.676   5.234
 4663SOL     OW14887   6.679   1.834   2.800
 4663SOL    HW114888   6.607   1.808   2.865
 4663SOL    HW214889   6.674   1.774   2.720
 4664SOL     OW14890   2.240   2.332   6.550
 4664SOL    HW114891   2.169   2.397   6.524
 4664SOL    HW214892   2.257   2.339   6.648
 4665SOL     OW14893   4.604   6.877   6.600
 4665SOL    HW114894   4.685   6.828   6.632
 4665SOL    HW214895   4.617   6.975   6.612
 4666SOL     OW14896   2.441   1.132   0.029
 4666SOL    HW114897   2.483   1.045   0.004
 4666SOL    HW214898   2.341   1.123   0.028
 4667SOL     OW14899   6.526   4.627   6.885
 4667SOL    HW114900   6.476   4.682   6.817
 4667SOL    HW214901   6.509   4.664   6.976
 4668SOL     OW14902   0.302   1.499   4.552
 4668SOL    HW114903   0.224   1.482   4.493
 4668SOL    HW214904   0.306   1.597   4.575
 4669SOL     OW14905   2.926   6.791   0.333
 4669SOL    HW114906   2.940   6.887   0.360
 4669SOL    HW214907   2.983   6.732   0.390
 4670SOL     OW14908   3.197   1.015   5.005
 4670SOL    HW114909   3.222   1.020   5.101
 4670SOL    HW214910   3.205   0.920   4.973
 4671SOL     OW14911   5.783   3.277   1.320
 4671SOL    HW114912   5.823   3.224   1.395
 4671SOL    HW214913   5.787   3.224   1.236
 4672SOL     OW14914   2.429   4.560   6.206
 4672SOL    HW114915   2.462   4.485   6.264
 4672SOL    HW214916   2.333   4.577   6.226
 4673SOL     OW14917   3.887   0.031   1.179
 4673SOL    HW114918   3.815   0.100   1.181
 4673SOL    HW214919   3.976   0.076   1.195
 4674SOL     OW14920   5.475   6.100   6.108
 4674SOL    HW114921   5.383   6.083   6.145
 4674SOL    HW214922   5.498   6.029   6.042
 4675SOL     OW14923   0.909   3.742   0.897
 4675SOL    HW114924   0.842   3.668   0.897
 4675SOL    HW214925   0.926   3.772   0.991
 4676SOL     OW14926   0.876   5.405   3.243
 4676SOL    HW114927   0.952   5.422   3.180
 4676SOL    HW214928   0.795   5.454   3.212
 4677SOL     OW14929   1.490   1.619   0.602
 4677SOL    HW114930   1.578   1.664   0.620
 4677SOL    HW214931   1.448   1.592   0.688
 4678SOL     OW14932   2.446   4.389   2.878
 4678SOL    HW114933   2.370   4.453   2.863
 4678SOL    HW214934   2.477   4.354   2.789
 4679SOL     OW14935   4.954   6.629   2.178
 4679SOL    HW114936   4.972   6.531   2.165
 4679SOL    HW214937   4.872   6.655   2.126
 4680SOL     OW14938   3.942   1.007   1.661
 4680SOL    HW114939   3.872   0.951   1.706
 4680SOL    HW214940   3.930   1.102   1.687
 4681SOL     OW14941   4.758   4.850   6.857
 4681SOL    HW114942   4.845   4.812   6.887
 4681SOL    HW214943   4.774   4.929   6.798
 4682SOL     OW14944   5.547   3.490   6.330
 4682SOL    HW114945   5.569   3.577   6.285
 4682SOL    HW214946   5.484   3.438   6.272
 4683SOL     OW14947   5.906   5.361   3.206
 4683SOL    HW114948   5.975   5.359   3.280
 4683SOL    HW214949   5.940   5.308   3.128
 4684SOL     OW14950   4.501   5.735   5.776
 4684SOL    HW114951   4.530   5.640   5.787
 4684SOL    HW214952   4.460   5.767   5.862
 4685SOL     OW14953   1.992   3.534   6.025
 4685SOL    HW114954   1.959   3.499   5.937
 4685SOL    HW214955   2.071   3.594   6.009
 4686SOL     OW14956   3.659   5.643   0.147
 4686SOL    HW114957   3.755   5.659   0.169
 4686SOL    HW214958   3.635   5.548   0.169
 4687SOL     OW14959   3.956   1.781   3.773
 4687SOL    HW114960   3.955   1.698   3.828
 4687SOL    HW214961   3.876   1.782   3.713
 4688SOL     OW14962   6.040   2.815   6.006
 4688SOL    HW114963   6.135   2.795   5.984
 4688SOL    HW214964   6.035   2.900   6.059
 4689SOL     OW14965   5.490   0.185   1.347
 4689SOL    HW114966   5.397   0.213   1.369
 4689SOL    HW214967   5.548   0.266   1.338
 4690SOL     OW14968   1.833   0.987   0.347
 4690SOL    HW114969   1.760   0.931   0.387
 4690SOL    HW214970   1.914   0.982   0.405
 4691SOL     OW14971   4.442   4.150   0.561
 4691SOL    HW114972   4.478   4.110   0.645
 4691SOL    HW214973   4.378   4.223   0.583
 4692SOL     OW14974   6.078   4.267   3.218
 4692SOL    HW114975   6.106   4.302   3.129
 4692SOL    HW214976   6.097   4.336   3.289
 4693SOL     OW14977   1.469   1.279   4.381
 4693SOL    HW114978   1.557   1.250   4.343
 4693SOL    HW214979   1.400   1.277   4.308
 4694SOL     OW14980   2.528   1.760   0.393
 4694SOL    HW114981   2.573   1.736   0.480
 4694SOL    HW214982   2.510   1.858   0.391
 4695SOL     OW14983   1.752   5.937   0.770
 4695SOL    HW114984   1.763   5.900   0.677
 4695SOL    HW214985   1.658   5.922   0.801
 4696SOL     OW14986   0.402   5.317   6.292
 4696SOL    HW114987   0.313   5.293   6.329
 4696SOL    HW214988   0.394   5.402   6.239
 4697SOL     OW14989   1.197   3.548   2.232
 4697SOL    HW114990   1.296   3.556   2.216
 4697SOL    HW214991   1.180   3.542   2.331
 4698SOL     OW14992   3.690   6.979   3.360
 4698SOL    HW114993   3.729   0.045   3.381
 4698SOL    HW214994   3.623   6.989   3.285
 4699SOL     OW14995   0.436   6.688   2.485
 4699SOL    HW114996   0.463   6.677   2.580
 4699SOL    HW214997   0.374   6.614   2.459
 4700SOL     OW14998   6.905   1.876   2.343
 4700SOL    HW114999   6.966   1.822   2.285
 4700SOL    HW215000   6.829   1.911   2.287
 4701SOL     OW15001   3.269   2.117   1.967
 4701SOL    HW115002   3.320   2.184   1.913
 4701SOL    HW215003   3.303   2.025   1.948
 4702SOL     OW15004   4.912   5.024   0.721
 4702SOL    HW115005   4.956   5.065   0.801
 4702SOL    HW215006   4.848   4.953   0.750
 4703SOL     OW15007   1.596   5.602   2.552
 4703SOL    HW115008   1.679   5.649   2.521
 4703SOL    HW215009   1.536   5.667   2.598
 4704SOL     OW15010   0.277   6.360   5.556
 4704SOL    HW115011   0.316   6.426   5.620
 4704SOL    HW215012   0.181   6.383   5.539
 4705SOL     OW15013   3.337   2.352   0.722
 4705SOL    HW115014   3.347   2.403   0.636
 4705SOL    HW215015   3.418   2.295   0.736
 4706SOL     OW15016   1.330   0.217   0.838
 4706SOL    HW115017   1.428   0.221   0.818
 4706SOL    HW215018   1.284   0.291   0.789
 4707SOL     OW15019   1.580   5.979   1.904
 4707SOL    HW115020   1.597   5.919   1.827
 4707SOL    HW215021   1.492   6.025   1.893
 4708SOL     OW15022   1.095   2.360   5.463
 4708SOL    HW115023   1.160   2.291   5.432
 4708SOL    HW215024   1.084   2.354   5.562
 4709SOL     OW15025   4.623   5.104   4.452
 4709SOL    HW115026   4.589   5.035   4.388
 4709SOL    HW215027   4.663   5.181   4.401
 4710SOL     OW15028   6.356   0.023   4.894
 4710SOL    HW115029   6.321   0.114   4.916
 4710SOL    HW215030   6.434   0.001   4.953
 4711SOL     OW15031   6.265   2.705   3.409
 4711SOL    HW115032   6.245   2.786   3.464
 4711SOL    HW215033   6.246   2.724   3.313
 4712SOL     OW15034   4.146   4.644   6.099
 4712SOL    HW115035   4.080   4.686   6.038
 4712SOL    HW215036   4.229   4.701   6.103
 4713SOL     OW15037   5.564   5.692   1.078
 4713SOL    HW115038   5.547   5.753   1.155
 4713SOL    HW215039   5.492   5.622   1.075
 4714SOL     OW15040   6.912   1.358   6.697
 4714SOL    HW115041   6.941   1.416   6.621
 4714SOL    HW215042   6.993   1.329   6.749
 4715SOL     OW15043   6.024   2.575   1.151
 4715SOL    HW115044   6.106   2.532   1.189
 4715SOL    HW215045   5.995   2.524   1.070
 4716SOL     OW15046   4.833   5.566   5.636
 4716SOL    HW115047   4.922   5.525   5.654
 4716SOL    HW215048   4.767   5.533   5.704
 4717SOL     OW15049   1.835   5.230   5.358
 4717SOL    HW115050   1.824   5.132   5.343
 4717SOL    HW215051   1.801   5.280   5.278
 4718SOL     OW15052   4.845   2.941   0.965
 4718SOL    HW115053   4.941   2.917   0.956
 4718SOL    HW215054   4.825   3.022   0.910
 4719SOL     OW15055   5.309   3.556   3.086
 4719SOL    HW115056   5.379   3.514   3.029
 4719SOL    HW215057   5.227   3.498   3.086
 4720SOL     OW15058   2.600   4.253   6.092
 4720SOL    HW115059   2.638   4.162   6.078
 4720SOL    HW215060   2.648   4.319   6.034
 4721SOL     OW15061   5.796   2.481   1.551
 4721SOL    HW115062   5.758   2.520   1.635
 4721SOL    HW215063   5.813   2.554   1.485
 4722SOL     OW15064   1.391   5.121   0.220
 4722SOL    HW115065   1.360   5.036   0.262
 4722SOL    HW215066   1.375   5.117   0.121
 4723SOL     OW15067   3.633   4.335   5.341
 4723SOL    HW115068   3.710   4.372   5.290
 4723SOL    HW215069   3.666   4.266   5.406
 4724SOL     OW15070   6.837   6.626   3.844
 4724SOL    HW115071   6.760   6.682   3.813
 4724SOL    HW215072   6.830   6.610   3.942
 4725SOL     OW15073   6.066   4.830   0.267
 4725SOL    HW115074   6.053   4.754   0.331
 4725SOL    HW215075   5.992   4.896   0.279
 4726SOL     OW15076   1.138   2.956   6.068
 4726SOL    HW115077   1.100   2.871   6.032
 4726SOL    HW215078   1.147   2.950   6.167
 4727SOL     OW15079   0.509   5.931   6.996
 4727SOL    HW115080   0.530   6.020   0.015
 4727SOL    HW215081   0.527   5.859   0.040
 4728SOL     OW15082   6.282   1.903   2.637
 4728SOL    HW115083   6.353   1.962   2.676
 4728SOL    HW215084   6.198   1.955   2.625
 4729SOL     OW15085   4.792   0.110   0.211
 4729SOL    HW115086   4.803   0.209   0.215
 4729SOL    HW215087   4.856   0.066   0.274
 4730SOL     OW15088   3.513   6.332   5.080
 4730SOL    HW115089   3.525   6.262   5.150
 4730SOL    HW215090   3.439   6.393   5.107
 4731SOL     OW15091   3.103   0.691   0.714
 4731SOL    HW115092   3.147   0.760   0.656
 4731SOL    HW215093   3.010   0.721   0.736
 4732SOL     OW15094   0.776   3.925   5.233
 4732SOL    HW115095   0.815   3.947   5.143
 4732SOL    HW215096   0.761   3.826   5.239
 4733SOL     OW15097   1.758   4.533   2.900
 4733SOL    HW115098   1.681   4.512   2.960
 4733SOL    HW215099   1.790   4.626   2.919
 4734SOL     OW15100   5.094   3.559   6.939
 4734SOL    HW115101   5.055   3.520   6.855
 4734SOL    HW215102   5.027   3.550   7.013
 4735SOL     OW15103   6.916   5.412   3.639
 4735SOL    HW115104   6.910   5.475   3.561
 4735SOL    HW215105   6.874   5.454   3.719
 4736SOL     OW15106   5.799   2.015   4.459
 4736SOL    HW115107   5.780   2.073   4.538
 4736SOL    HW215108   5.862   1.942   4.485
 4737SOL     OW15109   2.200   4.125   0.801
 4737SOL    HW115110   2.107   4.096   0.776
 4737SOL    HW215111   2.211   4.223   0.781
 4738SOL     OW15112   3.648   6.797   3.887
 4738SOL    HW115113   3.661   6.886   3.843
 4738SOL    HW215114   3.581   6.806   3.961
 4739SOL     OW15115   5.739   2.206   4.045
 4739SOL    HW115116   5.812   2.178   3.982
 4739SOL    HW215117   5.705   2.296   4.018
 4740SOL     OW15118   0.725   0.922   1.075
 4740SOL    HW115119   0.648   0.871   1.112
 4740SOL    HW215120   0.806   0.863   1.071
 4741SOL     OW15121   4.501   5.168   1.299
 4741SOL    HW115122   4.471   5.089   1.352
 4741SOL    HW215123   4.599   5.184   1.316
 4742SOL     OW15124   2.856   5.098   1.419
 4742SOL    HW115125   2.811   5.144   1.495
 4742SOL    HW215126   2.940   5.053   1.452
 4743SOL     OW15127   2.120   0.958   5.783
 4743SOL    HW115128   2.175   0.984   5.705
 4743SOL    HW215129   2.024   0.951   5.756
 4744SOL     OW15130   2.304   2.875   5.317
 4744SOL    HW115131   2.354   2.798   5.356
 4744SOL    HW215132   2.367   2.949   5.294
 4745SOL     OW15133   2.432   4.736   5.581
 4745SOL    HW115134   2.455   4.653   5.529
 4745SOL    HW215135   2.347   4.775   5.546
 4746SOL     OW15136   5.876   5.976   1.086
 4746SOL    HW115137   5.884   5.962   1.184
 4746SOL    HW215138   5.899   6.071   1.064
 4747SOL     OW15139   0.867   3.305   6.620
 4747SOL    HW115140   0.788   3.311   6.681
 4747SOL    HW215141   0.885   3.395   6.581
 4748SOL     OW15142   1.464   0.344   1.452
 4748SOL    HW115143   1.494   0.249   1.441
 4748SOL    HW215144   1.458   0.366   1.549
 4749SOL     OW15145   2.962   6.405   5.969
 4749SOL    HW115146   3.005   6.495   5.960
 4749SOL    HW215147   2.982   6.350   5.888
 4750SOL     OW15148   6.939   1.949   4.139
 4750SOL    HW115149   7.007   2.015   4.170
 4750SOL    HW215150   6.982   1.882   4.078
 4751SOL     OW15151   2.214   3.280   0.130
 4751SOL    HW115152   2.184   3.184   0.122
 4751SOL    HW215153   2.217   3.321   0.039
 4752SOL     OW15154   3.069   6.661   0.708
 4752SOL    HW115155   3.095   6.585   0.648
 4752SOL    HW215156   3.016   6.626   0.785
 4753SOL     OW15157   5.589   6.753   4.363
 4753SOL    HW115158   5.598   6.821   4.290
 4753SOL    HW215159   5.564   6.799   4.448
 4754SOL     OW15160   6.486   0.492   6.011
 4754SOL    HW115161   6.450   0.583   6.033
 4754SOL    HW215162   6.550   0.464   6.082
 4755SOL     OW15163   2.337   0.284   6.369
 4755SOL    HW115164   2.378   0.293   6.279
 4755SOL    HW215165   2.398   0.323   6.438
 4756SOL     OW15166   5.802   2.277   1.809
 4756SOL    HW115167   5.830   2.252   1.716
 4756SOL    HW215168   5.725   2.340   1.804
 4757SOL     OW15169   2.300   2.166   1.909
 4757SOL    HW115170   2.361   2.202   1.839
 4757SOL    HW215171   2.250   2.087   1.873
 4758SOL     OW15172   3.374   5.840   5.052
 4758SOL    HW115173   3.332   5.898   5.122
 4758SOL    HW215174   3.455   5.795   5.091
 4759SOL     OW15175   4.834   5.576   4.584
 4759SOL    HW115176   4.779   5.558   4.502
 4759SOL    HW215177   4.884   5.493   4.609
 4760SOL     OW15178   3.302   1.542   1.396
 4760SOL    HW115179   3.245   1.609   1.443
 4760SOL    HW215180   3.333   1.580   1.309
 4761SOL     OW15181   6.807   0.557   0.047
 4761SOL    HW115182   6.778   0.652   0.042
 4761SOL    HW215183   6.866   0.544   0.127
 4762SOL     OW15184   2.423   4.834   3.236
 4762SOL    HW115185   2.415   4.786   3.148
 4762SOL    HW215186   2.349   4.804   3.297
 4763SOL     OW15187   5.745   5.879   3.260
 4763SOL    HW115188   5.823   5.937   3.239
 4763SOL    HW215189   5.713   5.835   3.176
 4764SOL     OW15190   4.707   4.186   5.103
 4764SOL    HW115191   4.737   4.148   5.016
 4764SOL    HW215192   4.677   4.111   5.163
 4765SOL     OW15193   4.812   6.524   4.648
 4765SOL    HW115194   4.721   6.483   4.655
 4765SOL    HW215195   4.875   6.478   4.709
 4766SOL     OW15196   4.121   0.817   4.033
 4766SOL    HW115197   4.086   0.813   4.127
 4766SOL    HW215198   4.162   0.907   4.017
 4767SOL     OW15199   4.286   5.917   0.527
 4767SOL    HW115200   4.211   5.981   0.540
 4767SOL    HW215201   4.252   5.823   0.533
 4768SOL     OW15202   5.437   1.686   4.942
 4768SOL    HW115203   5.360   1.637   4.983
 4768SOL    HW215204   5.429   1.784   4.961
 4769SOL     OW15205   4.337   5.283   1.583
 4769SOL    HW115206   4.264   5.242   1.638
 4769SOL    HW215207   4.410   5.216   1.569
 4770SOL     OW15208   2.078   0.182   3.720
 4770SOL    HW115209   2.087   0.176   3.820
 4770SOL    HW215210   2.151   0.239   3.683
 4771SOL     OW15211   2.981   4.806   6.067
 4771SOL    HW115212   3.047   4.768   6.132
 4771SOL    HW215213   3.012   4.897   6.039
 4772SOL     OW15214   2.643   6.359   1.648
 4772SOL    HW115215   2.655   6.280   1.587
 4772SOL    HW215216   2.559   6.348   1.701
 4773SOL     OW15217   6.807   5.615   4.599
 4773SOL    HW115218   6.796   5.619   4.500
 4773SOL    HW215219   6.845   5.701   4.632
 4774SOL     OW15220   0.800   2.829   2.414
 4774SOL    HW115221   0.807   2.774   2.331
 4774SOL    HW215222   0.885   2.879   2.428
 4775SOL     OW15223   5.607   0.357   3.110
 4775SOL    HW115224   5.683   0.413   3.078
 4775SOL    HW215225   5.545   0.338   3.033
 4776SOL     OW15226   2.417   6.656   3.244
 4776SOL    HW115227   2.439   6.604   3.327
 4776SOL    HW215228   2.332   6.621   3.204
 4777SOL     OW15229   2.382   4.261   1.024
 4777SOL    HW115230   2.383   4.164   1.000
 4777SOL    HW215231   2.351   4.314   0.945
 4778SOL     OW15232   5.566   2.453   1.775
 4778SOL    HW115233   5.532   2.526   1.834
 4778SOL    HW215234   5.504   2.375   1.779
 4779SOL     OW15235   5.995   7.014   1.715
 4779SOL    HW115236   6.007   0.017   1.619
 4779SOL    HW215237   6.069   0.031   1.770
 4780SOL     OW15238   0.903   0.088   6.452
 4780SOL    HW115239   0.932   0.033   6.373
 4780SOL    HW215240   0.864   0.174   6.420
 4781SOL     OW15241   2.866   5.825   0.797
 4781SOL    HW115242   2.890   5.922   0.795
 4781SOL    HW215243   2.915   5.777   0.724
 4782SOL     OW15244   4.705   6.698   0.123
 4782SOL    HW115245   4.764   6.704   0.203
 4782SOL    HW215246   4.672   6.790   0.099
 4783SOL     OW15247   4.515   4.706   0.409
 4783SOL    HW115248   4.549   4.753   0.328
 4783SOL    HW215249   4.449   4.636   0.381
 4784SOL     OW15250   6.188   4.729   0.056
 4784SOL    HW115251   6.137   4.756   0.137
 4784SOL    HW215252   6.279   4.770   0.058
 4785SOL     OW15253   6.630   6.188   1.420
 4785SOL    HW115254   6.717   6.161   1.461
 4785SOL    HW215255   6.593   6.267   1.469
 4786SOL     OW15256   1.745   2.330   2.280
 4786SOL    HW115257   1.810   2.406   2.292
 4786SOL    HW215258   1.721   2.293   2.369
 4787SOL     OW15259   3.339   2.044   3.742
 4787SOL    HW115260   3.250   2.086   3.723
 4787SOL    HW215261   3.372   2.075   3.831
 4788SOL     OW15262   1.357   5.288   6.278
 4788SOL    HW115263   1.404   5.376   6.286
 4788SOL    HW215264   1.263   5.298   6.311
 4789SOL     OW15265   5.658   0.781   0.071
 4789SOL    HW115266   5.622   0.851   0.009
 4789SOL    HW215267   5.725   0.724   0.023
 4790SOL     OW15268   6.231   3.763   6.993
 4790SOL    HW115269   6.307   3.705   6.964
 4790SOL    HW215270   6.180   3.793   6.913
 4791SOL     OW15271   5.743   1.909   1.527
 4791SOL    HW115272   5.647   1.929   1.544
 4791SOL    HW215273   5.795   1.919   1.612
 4792SOL     OW15274   1.526   2.941   2.628
 4792SOL    HW115275   1.498   2.987   2.712
 4792SOL    HW215276   1.549   2.846   2.647
 4793SOL     OW15277   1.104   2.420   5.735
 4793SOL    HW115278   1.098   2.393   5.831
 4793SOL    HW215279   1.195   2.397   5.700
 4794SOL     OW15280   3.809   0.819   3.125
 4794SOL    HW115281   3.738   0.878   3.163
 4794SOL    HW215282   3.870   0.788   3.199
 4795SOL     OW15283   6.703   2.239   3.924
 4795SOL    HW115284   6.765   2.285   3.988
 4795SOL    HW215285   6.611   2.276   3.935
 4796SOL     OW15286   4.846   2.026   6.739
 4796SOL    HW115287   4.851   2.060   6.833
 4796SOL    HW215288   4.752   2.035   6.706
 4797SOL     OW15289   1.466   6.003   5.007
 4797SOL    HW115290   1.563   6.025   5.015
 4797SOL    HW215291   1.441   5.940   5.081
 4798SOL     OW15292   0.502   4.055   5.649
 4798SOL    HW115293   0.430   4.035   5.583
 4798SOL    HW215294   0.520   4.153   5.649
 4799SOL     OW15295   5.217   1.965   5.619
 4799SOL    HW115296   5.288   1.934   5.682
 4799SOL    HW215297   5.150   1.891   5.605
 4800SOL     OW15298   3.304   3.115   6.032
 4800SOL    HW115299   3.211   3.099   6.063
 4800SOL    HW215300   3.326   3.052   5.957
 4801SOL     OW15301   2.623   1.702   0.146
 4801SOL    HW115302   2.721   1.685   0.150
 4801SOL    HW215303   2.586   1.707   0.239
 4802SOL     OW15304   1.684   6.640   1.865
 4802SOL    HW115305   1.730   6.654   1.953
 4802SOL    HW215306   1.671   6.543   1.849
 4803SOL     OW15307   0.883   6.494   0.564
 4803SOL    HW115308   0.911   6.437   0.642
 4803SOL    HW215309   0.940   6.472   0.485
 4804SOL     OW15310   4.161   4.985   6.188
 4804SOL    HW115311   4.077   4.946   6.226
 4804SOL    HW215312   4.139   5.066   6.133
 4805SOL     OW15313   6.816   6.673   1.249
 4805SOL    HW115314   6.905   6.658   1.291
 4805SOL    HW215315   6.771   6.586   1.232
 4806SOL     OW15316   6.490   3.763   3.842
 4806SOL    HW115317   6.434   3.711   3.777
 4806SOL    HW215318   6.451   3.855   3.853
 4807SOL     OW15319   1.411   5.051   1.265
 4807SOL    HW115320   1.463   5.079   1.185
 4807SOL    HW215321   1.467   5.064   1.347
 4808SOL     OW15322   6.121   3.646   0.799
 4808SOL    HW115323   6.032   3.666   0.757
 4808SOL    HW215324   6.192   3.643   0.729
 4809SOL     OW15325   3.702   4.071   6.944
 4809SOL    HW115326   3.633   4.018   6.895
 4809SOL    HW215327   3.788   4.019   6.947
 4810SOL     OW15328   1.534   4.573   2.054
 4810SOL    HW115329   1.463   4.590   1.985
 4810SOL    HW215330   1.597   4.504   2.020
 4811SOL     OW15331   2.599   4.562   2.439
 4811SOL    HW115332   2.597   4.559   2.339
 4811SOL    HW215333   2.677   4.617   2.469
 4812SOL     OW15334   6.711   4.917   5.506
 4812SOL    HW115335   6.772   4.969   5.447
 4812SOL    HW215336   6.711   4.957   5.598
 4813SOL     OW15337   5.081   1.363   1.821
 4813SOL    HW115338   5.021   1.296   1.865
 4813SOL    HW215339   5.114   1.327   1.734
 4814SOL     OW15340   5.670   4.671   0.147
 4814SOL    HW115341   5.706   4.670   0.240
 4814SOL    HW215342   5.579   4.630   0.146
 4815SOL     OW15343   5.428   4.746   2.156
 4815SOL    HW115344   5.373   4.741   2.240
 4815SOL    HW215345   5.377   4.707   2.080
 4816SOL     OW15346   6.140   5.545   2.926
 4816SOL    HW115347   6.141   5.477   2.853
 4816SOL    HW215348   6.123   5.635   2.888
 4817SOL     OW15349   0.321   2.046   6.215
 4817SOL    HW115350   0.309   1.949   6.192
 4817SOL    HW215351   0.232   2.087   6.234
 4818SOL     OW15352   1.012   7.020   4.369
 4818SOL    HW115353   0.920   6.991   4.394
 4818SOL    HW215354   1.078   6.949   4.394
 4819SOL     OW15355   1.805   3.371   0.576
 4819SOL    HW115356   1.736   3.335   0.513
 4819SOL    HW215357   1.896   3.339   0.549
 4820SOL     OW15358   0.378   2.849   1.781
 4820SOL    HW115359   0.470   2.884   1.799
 4820SOL    HW215360   0.327   2.918   1.729
 4821SOL     OW15361   1.385   5.925   2.433
 4821SOL    HW115362   1.309   5.919   2.369
 4821SOL    HW215363   1.372   5.860   2.508
 4822SOL     OW15364   1.544   3.811   4.109
 4822SOL    HW115365   1.475   3.784   4.041
 4822SOL    HW215366   1.503   3.877   4.172
 4823SOL     OW15367   1.399   2.005   2.852
 4823SOL    HW115368   1.411   1.910   2.881
 4823SOL    HW215369   1.312   2.016   2.806
 4824SOL     OW15370   5.351   1.985   5.345
 4824SOL    HW115371   5.450   1.982   5.336
 4824SOL    HW215372   5.326   1.997   5.441
 4825SOL     OW15373   0.811   1.449   4.158
 4825SOL    HW115374   0.849   1.453   4.251
 4825SOL    HW215375   0.877   1.486   4.093
 4826SOL     OW15376   4.989   0.418   0.416
 4826SOL    HW115377   4.928   0.408   0.337
 4826SOL    HW215378   4.934   0.433   0.499
 4827SOL     OW15379   6.171   1.557   0.232
 4827SOL    HW115380   6.228   1.633   0.201
 4827SOL    HW215381   6.193   1.475   0.179
 4828SOL     OW15382   4.348   0.700   1.450
 4828SOL    HW115383   4.440   0.720   1.415
 4828SOL    HW215384   4.281   0.724   1.380
 4829SOL     OW15385   3.938   6.321   6.531
 4829SOL    HW115386   4.014   6.341   6.471
 4829SOL    HW215387   3.942   6.380   6.612
 4830SOL     OW15388   4.022   5.798   4.052
 4830SOL    HW115389   4.118   5.780   4.074
 4830SOL    HW215390   3.964   5.762   4.126
 4831SOL     OW15391   2.543   5.055   5.697
 4831SOL    HW115392   2.447   5.049   5.671
 4831SOL    HW215393   2.599   5.010   5.626
 4832SOL     OW15394   3.990   3.100   4.397
 4832SOL    HW115395   3.938   3.076   4.479
 4832SOL    HW215396   4.040   3.185   4.413
 4833SOL     OW15397   5.678   2.057   3.489
 4833SOL    HW115398   5.734   2.054   3.407
 4833SOL    HW215399   5.672   2.151   3.522
 4834SOL     OW15400   2.635   5.855   2.239
 4834SOL    HW115401   2.652   5.760   2.212
 4834SOL    HW215402   2.681   5.875   2.325
 4835SOL     OW15403   6.121   3.378   6.064
 4835SOL    HW115404   6.114   3.461   6.120
 4835SOL    HW215405   6.111   3.297   6.123
 4836SOL     OW15406   4.946   1.494   5.545
 4836SOL    HW115407   4.984   1.549   5.619
 4836SOL    HW215408   4.989   1.521   5.459
 4837SOL     OW15409   6.616   3.294   2.710
 4837SOL    HW115410   6.651   3.291   2.804
 4837SOL    HW215411   6.684   3.255   2.648
 4838SOL     OW15412   1.402   5.250   6.628
 4838SOL    HW115413   1.387   5.216   6.535
 4838SOL    HW215414   1.499   5.240   6.652
 4839SOL     OW15415   1.261   3.487   0.105
 4839SOL    HW115416   1.280   3.393   0.131
 4839SOL    HW215417   1.197   3.488   0.028
 4840SOL     OW15418   5.056   3.966   5.338
 4840SOL    HW115419   5.010   3.925   5.416
 4840SOL    HW215420   5.133   4.021   5.371
 4841SOL     OW15421   3.183   5.552   3.264
 4841SOL    HW115422   3.205   5.641   3.304
 4841SOL    HW215423   3.085   5.547   3.244
 4842SOL     OW15424   2.676   5.460   3.134
 4842SOL    HW115425   2.635   5.535   3.186
 4842SOL    HW215426   2.606   5.390   3.116
 4843SOL     OW15427   6.449   2.787   1.917
 4843SOL    HW115428   6.527   2.844   1.889
 4843SOL    HW215429   6.455   2.770   2.015
 4844SOL     OW15430   1.388   3.848   5.615
 4844SOL    HW115431   1.459   3.780   5.597
 4844SOL    HW215432   1.299   3.804   5.616
 4845SOL     OW15433   4.721   4.834   4.979
 4845SOL    HW115434   4.722   4.896   4.900
 4845SOL    HW215435   4.628   4.825   5.013
 4846SOL     OW15436   0.298   1.756   3.310
 4846SOL    HW115437   0.286   1.763   3.211
 4846SOL    HW215438   0.224   1.703   3.349
 4847SOL     OW15439   2.579   0.595   5.532
 4847SOL    HW115440   2.509   0.553   5.589
 4847SOL    HW215441   2.564   0.569   5.436
 4848SOL     OW15442   1.960   1.366   3.609
 4848SOL    HW115443   2.007   1.325   3.688
 4848SOL    HW215444   2.027   1.411   3.551
 4849SOL     OW15445   1.912   0.182   0.995
 4849SOL    HW115446   1.911   0.181   1.095
 4849SOL    HW215447   1.911   0.277   0.963
 4850SOL     OW15448   4.310   0.422   1.323
 4850SOL    HW115449   4.257   0.340   1.302
 4850SOL    HW215450   4.308   0.438   1.422
 4851SOL     OW15451   3.691   5.479   6.800
 4851SOL    HW115452   3.764   5.435   6.853
 4851SOL    HW215453   3.651   5.412   6.736
 4852SOL     OW15454   3.580   5.663   4.295
 4852SOL    HW115455   3.547   5.754   4.269
 4852SOL    HW215456   3.566   5.599   4.219
 4853SOL     OW15457   3.521   1.092   2.855
 4853SOL    HW115458   3.606   1.139   2.832
 4853SOL    HW215459   3.505   1.019   2.788
 4854SOL     OW15460   5.718   6.656   1.805
 4854SOL    HW115461   5.650   6.719   1.842
 4854SOL    HW215462   5.810   6.686   1.832
 4855SOL     OW15463   0.124   3.462   4.740
 4855SOL    HW115464   0.146   3.528   4.669
 4855SOL    HW215465   0.184   3.477   4.819
 4856SOL     OW15466   0.647   3.367   2.390
 4856SOL    HW115467   0.555   3.407   2.385
 4856SOL    HW215468   0.653   3.307   2.470
 4857SOL     OW15469   3.498   2.109   3.978
 4857SOL    HW115470   3.572   2.081   3.917
 4857SOL    HW215471   3.534   2.126   4.070
 4858SOL     OW15472   1.000   0.048   4.742
 4858SOL    HW115473   0.956   0.047   4.831
 4858SOL    HW215474   1.083   7.016   4.745
 4859SOL     OW15475   1.270   4.999   1.740
 4859SOL    HW115476   1.224   4.965   1.658
 4859SOL    HW215477   1.368   4.977   1.735
 4860SOL     OW15478   3.957   4.691   0.022
 4860SOL    HW115479   4.029   4.659   6.984
 4860SOL    HW215480   3.998   4.739   0.100
 4861SOL     OW15481   6.630   4.554   5.812
 4861SOL    HW115482   6.698   4.571   5.884
 4861SOL    HW215483   6.597   4.460   5.819
 4862SOL     OW15484   2.672   4.896   4.971
 4862SOL    HW115485   2.705   4.812   5.014
 4862SOL    HW215486   2.582   4.919   5.008
 4863SOL     OW15487   4.898   3.604   2.413
 4863SOL    HW115488   4.982   3.566   2.453
 4863SOL    HW215489   4.904   3.704   2.414
 4864SOL     OW15490   3.107   1.531   1.729
 4864SOL    HW115491   3.118   1.609   1.668
 4864SOL    HW215492   3.094   1.563   1.822
 4865SOL     OW15493   3.023   5.069   5.999
 4865SOL    HW115494   3.072   5.155   5.988
 4865SOL    HW215495   2.932   5.077   5.960
 4866SOL     OW15496   6.458   4.849   1.893
 4866SOL    HW115497   6.371   4.814   1.926
 4866SOL    HW215498   6.468   4.827   1.796
 4867SOL     OW15499   5.013   5.713   3.171
 4867SOL    HW115500   4.917   5.734   3.187
 4867SOL    HW215501   5.045   5.646   3.238
 4868SOL     OW15502   1.045   5.550   1.241
 4868SOL    HW115503   1.074   5.611   1.314
 4868SOL    HW215504   0.950   5.521   1.258
 4869SOL     OW15505   0.215   2.365   0.536
 4869SOL    HW115506   0.202   2.419   0.619
 4869SOL    HW215507   0.161   2.281   0.542
 4870SOL     OW15508   4.118   5.807   1.776
 4870SOL    HW115509   4.097   5.725   1.829
 4870SOL    HW215510   4.089   5.793   1.681
 4871SOL     OW15511   1.423   1.690   3.287
 4871SOL    HW115512   1.353   1.665   3.220
 4871SOL    HW215513   1.510   1.705   3.239
 4872SOL     OW15514   1.143   0.033   3.014
 4872SOL    HW115515   1.230   0.043   2.966
 4872SOL    HW215516   1.129   0.110   3.076
 4873SOL     OW15517   7.008   4.732   5.206
 4873SOL    HW115518   6.952   4.716   5.125
 4873SOL    HW215519   7.020   4.647   5.256
 4874SOL     OW15520   5.530   3.973   2.175
 4874SOL    HW115521   5.618   3.982   2.129
 4874SOL    HW215522   5.543   3.976   2.274
 4875SOL     OW15523   5.540   1.338   1.068
 4875SOL    HW115524   5.562   1.431   1.098
 4875SOL    HW215525   5.473   1.298   1.131
 4876SOL     OW15526   5.798   0.522   5.716
 4876SOL    HW115527   5.744   0.449   5.675
 4876SOL    HW215528   5.757   0.610   5.692
 4877SOL     OW15529   6.356   1.715   1.121
 4877SOL    HW115530   6.278   1.652   1.117
 4877SOL    HW215531   6.441   1.664   1.106
 4878SOL     OW15532   0.409   1.807   1.935
 4878SOL    HW115533   0.476   1.806   1.861
 4878SOL    HW215534   0.428   1.884   1.996
 4879SOL     OW15535   4.372   4.774   2.685
 4879SOL    HW115536   4.321   4.778   2.771
 4879SOL    HW215537   4.455   4.719   2.699
 4880SOL     OW15538   5.323   1.730   0.543
 4880SOL    HW115539   5.359   1.726   0.450
 4880SOL    HW215540   5.393   1.702   0.607
 4881SOL     OW15541   2.591   6.413   5.849
 4881SOL    HW115542   2.601   6.363   5.763
 4881SOL    HW215543   2.636   6.502   5.840
 4882SOL     OW15544   6.229   1.575   5.193
 4882SOL    HW115545   6.203   1.672   5.193
 4882SOL    HW215546   6.275   1.553   5.279
 4883SOL     OW15547   6.013   4.369   2.463
 4883SOL    HW115548   6.028   4.456   2.509
 4883SOL    HW215549   5.915   4.349   2.461
 4884SOL     OW15550   4.582   0.254   1.777
 4884SOL    HW115551   4.575   0.155   1.788
 4884SOL    HW215552   4.678   0.281   1.778
 4885SOL     OW15553   2.036   6.646   1.571
 4885SOL    HW115554   1.950   6.633   1.521
 4885SOL    HW215555   2.068   6.740   1.558
 4886SOL     OW15556   0.167   6.458   6.610
 4886SOL    HW115557   0.115   6.455   6.696
 4886SOL    HW215558   0.185   6.364   6.579
 4887SOL     OW15559   6.505   2.010   3.950
 4887SOL    HW115560   6.586   2.055   3.913
 4887SOL    HW215561   6.437   2.079   3.975
 4888SOL     OW15562   1.532   6.670   3.405
 4888SOL    HW115563   1.589   6.729   3.349
 4888SOL    HW215564   1.485   6.603   3.347
 4889SOL     OW15565   0.789   2.289   0.319
 4889SOL    HW115566   0.842   2.279   0.403
 4889SOL    HW215567   0.850   2.281   0.240
 4890SOL     OW15568   0.536   1.402   4.179
 4890SOL    HW115569   0.632   1.394   4.152
 4890SOL    HW215570   0.529   1.391   4.279
 4891SOL     OW15571   1.099   4.937   0.536
 4891SOL    HW115572   1.064   4.847   0.563
 4891SOL    HW215573   1.178   4.959   0.593
 4892SOL     OW15574   1.175   5.890   2.251
 4892SOL    HW115575   1.123   5.975   2.239
 4892SOL    HW215576   1.186   5.845   2.162
 4893SOL     OW15577   6.953   4.491   6.951
 4893SOL    HW115578   6.921   4.558   7.017
 4893SOL    HW215579   6.902   4.501   6.866
 4894SOL     OW15580   1.908   0.577   3.422
 4894SOL    HW115581   1.951   0.490   3.401
 4894SOL    HW215582   1.951   0.618   3.502
 4895SOL     OW15583   1.216   3.622   0.318
 4895SOL    HW115584   1.233   3.575   0.404
 4895SOL    HW215585   1.252   3.567   0.242
 4896SOL     OW15586   3.358   5.427   3.793
 4896SOL    HW115587   3.298   5.408   3.872
 4896SOL    HW215588   3.304   5.422   3.709
 4897SOL     OW15589   3.152   4.768   6.558
 4897SOL    HW115590   3.167   4.697   6.626
 4897SOL    HW215591   3.066   4.750   6.510
 4898SOL     OW15592   5.696   2.234   5.557
 4898SOL    HW115593   5.688   2.170   5.481
 4898SOL    HW215594   5.774   2.208   5.614
 4899SOL     OW15595   6.330   4.937   2.814
 4899SOL    HW115596   6.326   4.890   2.726
 4899SOL    HW215597   6.360   5.031   2.800
 4900SOL     OW15598   7.013   6.729   5.708
 4900SOL    HW115599   7.009   6.662   5.782
 4900SOL    HW215600   6.995   6.684   5.621
 4901SOL     OW15601   1.480   0.338   4.335
 4901SOL    HW115602   1.475   0.267   4.265
 4901SOL    HW215603   1.391   0.351   4.377
 4902SOL     OW15604   1.431   3.885   2.222
 4902SOL    HW115605   1.395   3.901   2.130
 4902SOL    HW215606   1.473   3.795   2.226
 4903SOL     OW15607   3.816   6.595   6.648
 4903SOL    HW115608   3.865   6.673   6.610
 4903SOL    HW215609   3.719   6.604   6.629
 4904SOL     OW15610   2.224   5.698   4.424
 4904SOL    HW115611   2.177   5.609   4.430
 4904SOL    HW215612   2.264   5.709   4.333
 4905SOL     OW15613   4.646   2.567   2.098
 4905SOL    HW115614   4.549   2.543   2.092
 4905SOL    HW215615   4.701   2.484   2.092
 4906SOL     OW15616   4.631   6.778   0.510
 4906SOL    HW115617   4.596   6.871   0.519
 4906SOL    HW215618   4.710   6.778   0.449
 4907SOL     OW15619   3.979   6.389   3.261
 4907SOL    HW115620   3.882   6.366   3.257
 4907SOL    HW215621   4.032   6.320   3.212
 4908SOL     OW15622   4.096   5.491   6.809
 4908SOL    HW115623   4.026   5.538   6.755
 4908SOL    HW215624   4.187   5.524   6.781
 4909SOL     OW15625   6.065   0.080   5.641
 4909SOL    HW115626   5.982   0.076   5.697
 4909SOL    HW215627   6.056   0.155   5.575
 4910SOL     OW15628   4.977   0.236   5.343
 4910SOL    HW115629   4.949   0.148   5.305
 4910SOL    HW215630   5.071   0.231   5.377
 4911SOL     OW15631   6.990   1.791   5.956
 4911SOL    HW115632   0.005   1.711   6.002
 4911SOL    HW215633   6.949   1.853   6.023
 4912SOL     OW15634   4.341   1.493   2.001
 4912SOL    HW115635   4.396   1.416   1.967
 4912SOL    HW215636   4.297   1.538   1.924
 4913SOL     OW15637   3.279   4.142   3.874
 4913SOL    HW115638   3.376   4.132   3.853
 4913SOL    HW215639   3.265   4.140   3.973
 4914SOL     OW15640   2.576   0.713   4.410
 4914SOL    HW115641   2.674   0.723   4.391
 4914SOL    HW215642   2.550   0.774   4.485
 4915SOL     OW15643   4.518   6.559   4.487
 4915SOL    HW115644   4.509   6.621   4.564
 4915SOL    HW215645   4.455   6.587   4.414
 4916SOL     OW15646   2.637   2.118   3.007
 4916SOL    HW115647   2.590   2.160   2.930
 4916SOL    HW215648   2.736   2.127   2.994
 4917SOL     OW15649   1.548   3.874   0.780
 4917SOL    HW115650   1.534   3.792   0.725
 4917SOL    HW215651   1.643   3.878   0.811
 4918SOL     OW15652   2.678   0.356   2.944
 4918SOL    HW115653   2.705   0.324   2.854
 4918SOL    HW215654   2.598   0.416   2.936
 4919SOL     OW15655   1.550   1.982   3.101
 4919SOL    HW115656   1.585   1.889   3.097
 4919SOL    HW215657   1.519   2.011   3.010
 4920SOL     OW15658   4.113   0.707   0.130
 4920SOL    HW115659   4.117   0.619   0.176
 4920SOL    HW215660   4.200   0.755   0.141
 4921SOL     OW15661   2.437   3.746   1.669
 4921SOL    HW115662   2.383   3.715   1.747
 4921SOL    HW215663   2.414   3.691   1.589
 4922SOL     OW15664   1.195   3.367   5.151
 4922SOL    HW115665   1.201   3.295   5.082
 4922SOL    HW215666   1.231   3.452   5.113
 4923SOL     OW15667   5.045   6.877   2.302
 4923SOL    HW115668   5.039   6.783   2.269
 4923SOL    HW215669   5.036   6.879   2.401
 4924SOL     OW15670   1.708   3.400   4.290
 4924SOL    HW115671   1.620   3.422   4.249
 4924SOL    HW215672   1.763   3.483   4.298
 4925SOL     OW15673   5.479   6.369   0.923
 4925SOL    HW115674   5.401   6.425   0.893
 4925SOL    HW215675   5.560   6.427   0.934
 4926SOL     OW15676   5.260   2.859   1.167
 4926SOL    HW115677   5.202   2.799   1.112
 4926SOL    HW215678   5.290   2.811   1.249
 4927SOL     OW15679   3.576   2.984   2.779
 4927SOL    HW115680   3.672   2.966   2.758
 4927SOL    HW215681   3.519   2.919   2.730
 4928SOL     OW15682   0.321   6.778   6.285
 4928SOL    HW115683   0.352   6.847   6.350
 4928SOL    HW215684   0.400   6.725   6.253
 4929SOL     OW15685   0.904   4.423   5.229
 4929SOL    HW115686   0.902   4.333   5.272
 4929SOL    HW215687   0.830   4.431   5.163
 4930SOL     OW15688   0.918   0.966   0.599
 4930SOL    HW115689   0.837   1.023   0.617
 4930SOL    HW215690   0.982   1.017   0.543
 4931SOL     OW15691   0.430   0.723   0.127
 4931SOL    HW115692   0.417   0.783   0.048
 4931SOL    HW215693   0.516   0.674   0.118
 4932SOL     OW15694   2.547   2.874   1.722
 4932SOL    HW115695   2.605   2.955   1.731
 4932SOL    HW215696   2.595   2.804   1.669
 4933SOL     OW15697   2.422   1.236   4.284
 4933SOL    HW115698   2.341   1.208   4.232
 4933SOL    HW215699   2.405   1.223   4.382
 4934SOL     OW15700   0.773   5.170   4.339
 4934SOL    HW115701   0.676   5.156   4.357
 4934SOL    HW215702   0.790   5.167   4.240
 4935SOL     OW15703   1.427   1.108   6.403
 4935SOL    HW115704   1.422   1.115   6.303
 4935SOL    HW215705   1.445   1.013   6.429
 4936SOL     OW15706   2.638   5.866   1.614
 4936SOL    HW115707   2.603   5.882   1.522
 4936SOL    HW215708   2.582   5.914   1.680
 4937SOL     OW15709   0.854   3.405   6.288
 4937SOL    HW115710   0.816   3.473   6.225
 4937SOL    HW215711   0.828   3.314   6.257
 4938SOL     OW15712   3.170   4.372   1.574
 4938SOL    HW115713   3.118   4.456   1.593
 4938SOL    HW215714   3.248   4.368   1.636
 4939SOL     OW15715   1.861   1.771   1.898
 4939SOL    HW115716   1.924   1.790   1.973
 4939SOL    HW215717   1.810   1.854   1.876
 4940SOL     OW15718   6.926   2.153   4.987
 4940SOL    HW115719   6.985   2.215   4.935
 4940SOL    HW215720   6.922   2.183   5.082
 4941SOL     OW15721   4.044   2.323   5.309
 4941SOL    HW115722   3.970   2.353   5.369
 4941SOL    HW215723   4.090   2.403   5.271
 4942SOL     OW15724   5.448   3.233   3.891
 4942SOL    HW115725   5.355   3.257   3.861
 4942SOL    HW215726   5.514   3.269   3.826
 4943SOL     OW15727   5.755   3.619   0.164
 4943SOL    HW115728   5.706   3.703   0.142
 4943SOL    HW215729   5.710   3.542   0.120
 4944SOL     OW15730   2.092   4.691   0.596
 4944SOL    HW115731   2.149   4.710   0.516
 4944SOL    HW215732   2.142   4.715   0.679
 4945SOL     OW15733   1.655   1.291   5.326
 4945SOL    HW115734   1.711   1.308   5.407
 4945SOL    HW215735   1.670   1.198   5.294
 4946SOL     OW15736   1.171   4.535   0.090
 4946SOL    HW115737   1.102   4.590   0.042
 4946SOL    HW215738   1.139   4.513   0.182
 4947SOL     OW15739   2.817   0.677   2.392
 4947SOL    HW115740   2.730   0.702   2.351
 4947SOL    HW215741   2.865   0.760   2.422
 4948SOL     OW15742   1.971   2.601   2.752
 4948SOL    HW115743   1.905   2.619   2.825
 4948SOL    HW215744   1.958   2.668   2.679
 4949SOL     OW15745   6.807   3.647   6.077
 4949SOL    HW115746   6.709   3.641   6.064
 4949SOL    HW215747   6.837   3.742   6.069
 4950SOL     OW15748   2.262   4.238   5.206
 4950SOL    HW115749   2.280   4.154   5.154
 4950SOL    HW215750   2.249   4.314   5.143
 4951SOL     OW15751   6.397   6.022   3.749
 4951SOL    HW115752   6.428   6.042   3.842
 4951SOL    HW215753   6.302   6.049   3.738
 4952SOL     OW15754   6.888   0.372   6.542
 4952SOL    HW115755   6.925   0.464   6.537
 4952SOL    HW215756   6.856   0.353   6.635
 4953SOL     OW15757   1.797   1.783   4.261
 4953SOL    HW115758   1.795   1.821   4.169
 4953SOL    HW215759   1.891   1.766   4.289
 4954SOL     OW15760   2.151   4.096   5.439
 4954SOL    HW115761   2.194   4.007   5.421
 4954SOL    HW215762   2.171   4.158   5.362
 4955SOL     OW15763   3.063   5.434   0.390
 4955SOL    HW115764   3.001   5.357   0.374
 4955SOL    HW215765   3.143   5.425   0.330
 4956SOL     OW15766   2.813   0.742   5.495
 4956SOL    HW115767   2.879   0.705   5.430
 4956SOL    HW215768   2.731   0.684   5.496
 4957SOL     OW15769   5.976   3.676   0.334
 4957SOL    HW115770   5.987   3.774   0.316
 4957SOL    HW215771   5.895   3.643   0.288
 4958SOL     OW15772   2.037   6.055   5.365
 4958SOL    HW115773   1.958   5.998   5.390
 4958SOL    HW215774   2.010   6.121   5.295
 4959SOL     OW15775   6.733   2.073   1.139
 4959SOL    HW115776   6.759   2.145   1.074
 4959SOL    HW215777   6.753   2.104   1.232
 4960SOL     OW15778   4.147   4.811   3.696
 4960SOL    HW115779   4.068   4.836   3.752
 4960SOL    HW215780   4.225   4.794   3.756
 4961SOL     OW15781   2.985   0.834   6.854
 4961SOL    HW115782   3.040   0.879   6.925
 4961SOL    HW215783   2.925   0.767   6.896
 4962SOL     OW15784   6.017   2.039   1.056
 4962SOL    HW115785   6.083   2.093   1.003
 4962SOL    HW215786   6.045   2.037   1.152
 4963SOL     OW15787   1.476   5.886   0.842
 4963SOL    HW115788   1.407   5.957   0.824
 4963SOL    HW215789   1.487   5.876   0.940
 4964SOL     OW15790   2.540   6.833   4.724
 4964SOL    HW115791   2.540   6.737   4.751
 4964SOL    HW215792   2.446   6.868   4.726
 4965SOL     OW15793   0.844   6.904   2.843
 4965SOL    HW115794   0.830   6.956   2.926
 4965SOL    HW215795   0.872   6.810   2.866
 4966SOL     OW15796   2.468   6.170   4.396
 4966SOL    HW115797   2.476   6.095   4.330
 4966SOL    HW215798   2.372   6.193   4.410
 4967SOL     OW15799   3.432   4.623   5.905
 4967SOL    HW115800   3.352   4.683   5.902
 4967SOL    HW215801   3.404   4.529   5.924
 4968SOL     OW15802   0.451   0.759   4.377
 4968SOL    HW115803   0.397   0.781   4.459
 4968SOL    HW215804   0.392   0.716   4.309
 4969SOL     OW15805   0.307   6.436   2.505
 4969SOL    HW115806   0.352   6.417   2.592
 4969SOL    HW215807   0.213   6.401   2.507
 4970SOL     OW15808   2.220   1.276   1.753
 4970SOL    HW115809   2.291   1.205   1.761
 4970SOL    HW215810   2.162   1.274   1.835
 4971SOL     OW15811   6.052   5.758   2.811
 4971SOL    HW115812   6.045   5.762   2.712
 4971SOL    HW215813   6.016   5.843   2.850
 4972SOL     OW15814   1.509   4.164   0.716
 4972SOL    HW115815   1.597   4.200   0.748
 4972SOL    HW215816   1.513   4.064   0.713
 4973SOL     OW15817   0.116   0.641   2.142
 4973SOL    HW115818   0.068   0.655   2.055
 4973SOL    HW215819   0.112   0.544   2.166
 4974SOL     OW15820   4.982   4.406   6.499
 4974SOL    HW115821   5.023   4.497   6.490
 4974SOL    HW215822   4.996   4.373   6.593
 4975SOL     OW15823   4.992   3.992   1.048
 4975SOL    HW115824   5.024   3.934   1.122
 4975SOL    HW215825   4.948   3.936   0.978
 4976SOL     OW15826   1.225   0.969   4.383
 4976SOL    HW115827   1.163   1.048   4.379
 4976SOL    HW215828   1.308   0.995   4.432
 4977SOL     OW15829   3.542   3.585   6.935
 4977SOL    HW115830   3.626   3.636   6.956
 4977SOL    HW215831   3.463   3.636   6.970
 4978SOL     OW15832   4.925   4.574   5.423
 4978SOL    HW115833   4.915   4.671   5.444
 4978SOL    HW215834   4.954   4.524   5.504
 4979SOL     OW15835   0.584   6.886   6.897
 4979SOL    HW115836   0.644   6.943   6.841
 4979SOL    HW215837   0.596   6.909   6.993
 4980SOL     OW15838   6.600   4.489   2.765
 4980SOL    HW115839   6.598   4.515   2.861
 4980SOL    HW215840   6.692   4.502   2.728
 4981SOL     OW15841   3.091   5.626   1.860
 4981SOL    HW115842   3.176   5.578   1.883
 4981SOL    HW215843   3.098   5.722   1.886
 4982SOL     OW15844   4.289   1.697   6.656
 4982SOL    HW115845   4.242   1.617   6.618
 4982SOL    HW215846   4.257   1.780   6.610
 4983SOL     OW15847   6.179   4.954   4.182
 4983SOL    HW115848   6.227   4.925   4.100
 4983SOL    HW215849   6.125   4.878   4.218
 4984SOL     OW15850   4.621   4.259   2.707
 4984SOL    HW115851   4.658   4.302   2.624
 4984SOL    HW215852   4.563   4.325   2.755
 4985SOL     OW15853   4.822   6.337   2.917
 4985SOL    HW115854   4.849   6.240   2.918
 4985SOL    HW215855   4.771   6.358   3.000
 4986SOL     OW15856   6.572   4.811   1.121
 4986SOL    HW115857   6.480   4.812   1.158
 4986SOL    HW215858   6.634   4.856   1.185
 4987SOL     OW15859   1.224   6.304   2.760
 4987SOL    HW115860   1.169   6.330   2.839
 4987SOL    HW215861   1.231   6.204   2.756
 4988SOL     OW15862   6.157   0.965   3.472
 4988SOL    HW115863   6.090   0.891   3.477
 4988SOL    HW215864   6.187   0.990   3.564
 4989SOL     OW15865   4.568   0.495   1.685
 4989SOL    HW115866   4.574   0.410   1.738
 4989SOL    HW215867   4.482   0.496   1.634
 4990SOL     OW15868   3.816   1.877   6.914
 4990SOL    HW115869   3.887   1.911   6.853
 4990SOL    HW215870   3.730   1.870   6.864
 4991SOL     OW15871   0.152   5.995   3.862
 4991SOL    HW115872   0.206   6.078   3.875
 4991SOL    HW215873   0.077   6.015   3.799
 4992SOL     OW15874   6.191   1.685   2.773
 4992SOL    HW115875   6.237   1.753   2.716
 4992SOL    HW215876   6.109   1.726   2.814
 4993SOL     OW15877   4.076   6.705   4.828
 4993SOL    HW115878   4.046   6.797   4.803
 4993SOL    HW215879   4.087   6.649   4.745
 4994SOL     OW15880   2.234   5.576   4.923
 4994SOL    HW115881   2.226   5.673   4.947
 4994SOL    HW215882   2.150   5.528   4.950
 4995SOL     OW15883   0.550   0.791   5.060
 4995SOL    HW115884   0.621   0.777   5.129
 4995SOL    HW215885   0.476   0.847   5.100
 4996SOL     OW15886   0.033   1.490   3.690
 4996SOL    HW115887   6.986   1.562   3.691
 4996SOL    HW215888   7.020   1.410   3.641
 4997SOL     OW15889   3.610   2.592   1.457
 4997SOL    HW115890   3.612   2.691   1.441
 4997SOL    HW215891   3.691   2.565   1.510
 4998SOL     OW15892   1.875   3.490   3.639
 4998SOL    HW115893   1.972   3.491   3.612
 4998SOL    HW215894   1.818   3.474   3.559
 4999SOL     OW15895   0.266   3.537   4.984
 4999SOL    HW115896   0.350   3.586   4.960
 4999SOL    HW215897   0.287   3.465   5.050
 5000SOL     OW15898   3.400   6.358   3.367
 5000SOL    HW115899   3.374   6.433   3.428
 5000SOL    HW215900   3.364   6.272   3.403
 5001SOL     OW15901   0.351   5.745   2.460
 5001SOL    HW115902   0.364   5.843   2.474
 5001SOL    HW215903   0.434   5.705   2.422
 5002SOL     OW15904   0.392   4.972   2.373
 5002SOL    HW115905   0.340   4.911   2.312
 5002SOL    HW215906   0.415   5.056   2.324
 5003SOL     OW15907   3.958   6.197   2.836
 5003SOL    HW115908   3.984   6.149   2.753
 5003SOL    HW215909   3.895   6.271   2.813
 5004SOL     OW15910   2.287   5.072   5.613
 5004SOL    HW115911   2.221   4.997   5.609
 5004SOL    HW215912   2.249   5.152   5.566
 5005SOL     OW15913   2.315   3.158   5.972
 5005SOL    HW115914   2.321   3.102   5.890
 5005SOL    HW215915   2.334   3.253   5.950
 5006SOL     OW15916   5.584   1.084   2.130
 5006SOL    HW115917   5.527   1.091   2.048
 5006SOL    HW215918   5.679   1.100   2.105
 5007SOL     OW15919   6.890   0.739   1.066
 5007SOL    HW115920   6.974   0.727   1.118
 5007SOL    HW215921   6.904   0.705   0.973
 5008SOL     OW15922   6.574   5.621   1.288
 5008SOL    HW115923   6.564   5.713   1.325
 5008SOL    HW215924   6.630   5.623   1.205
 5009SOL     OW15925   0.997   2.833   0.517
 5009SOL    HW115926   1.026   2.745   0.480
 5009SOL    HW215927   1.072   2.899   0.511
 5010SOL     OW15928   4.004   2.571   0.736
 5010SOL    HW115929   3.936   2.586   0.664
 5010SOL    HW215930   4.048   2.482   0.724
 5011SOL     OW15931   2.212   4.138   1.533
 5011SOL    HW115932   2.208   4.048   1.490
 5011SOL    HW215933   2.123   4.183   1.525
 5012SOL     OW15934   6.036   3.277   5.246
 5012SOL    HW115935   6.025   3.377   5.243
 5012SOL    HW215936   5.947   3.233   5.242
 5013SOL     OW15937   5.665   0.708   5.592
 5013SOL    HW115938   5.568   0.700   5.613
 5013SOL    HW215939   5.679   0.693   5.494
 5014SOL     OW15940   6.842   4.657   0.101
 5014SOL    HW115941   6.743   4.665   0.114
 5014SOL    HW215942   6.890   4.704   0.175
 5015SOL     OW15943   5.207   0.781   4.801
 5015SOL    HW115944   5.256   0.740   4.878
 5015SOL    HW215945   5.197   0.713   4.729
 5016SOL     OW15946   0.783   3.079   4.471
 5016SOL    HW115947   0.778   3.133   4.387
 5016SOL    HW215948   0.691   3.069   4.510
 5017SOL     OW15949   1.298   2.165   1.214
 5017SOL    HW115950   1.367   2.096   1.238
 5017SOL    HW215951   1.324   2.210   1.129
 5018SOL     OW15952   1.581   5.121   2.254
 5018SOL    HW115953   1.642   5.047   2.281
 5018SOL    HW215954   1.634   5.206   2.244
 5019SOL     OW15955   2.165   5.992   5.960
 5019SOL    HW115956   2.198   6.085   5.975
 5019SOL    HW215957   2.211   5.953   5.880
 5020SOL     OW15958   6.990   6.893   5.277
 5020SOL    HW115959   6.974   6.992   5.286
 5020SOL    HW215960   0.063   6.877   5.257
 5021SOL     OW15961   1.476   0.757   1.350
 5021SOL    HW115962   1.383   0.754   1.312
 5021SOL    HW215963   1.532   0.687   1.307
 5022SOL     OW15964   1.109   3.023   1.286
 5022SOL    HW115965   1.034   3.084   1.261
 5022SOL    HW215966   1.174   3.072   1.344
 5023SOL     OW15967   0.049   4.518   1.439
 5023SOL    HW115968   0.120   4.459   1.399
 5023SOL    HW215969   6.987   4.506   1.388
 5024SOL     OW15970   6.246   4.974   0.923
 5024SOL    HW115971   6.160   4.988   0.972
 5024SOL    HW215972   6.318   5.029   0.965
 5025SOL     OW15973   4.016   2.086   3.830
 5025SOL    HW115974   3.992   2.139   3.748
 5025SOL    HW215975   4.009   1.989   3.811
 5026SOL     OW15976   6.891   5.228   4.767
 5026SOL    HW115977   6.909   5.240   4.865
 5026SOL    HW215978   6.812   5.283   4.741
 5027SOL     OW15979   6.018   0.338   1.774
 5027SOL    HW115980   6.064   0.425   1.757
 5027SOL    HW215981   6.081   0.275   1.820
 5028SOL     OW15982   6.332   1.885   3.612
 5028SOL    HW115983   6.364   1.839   3.694
 5028SOL    HW215984   6.265   1.827   3.564
 5029SOL     OW15985   6.333   2.672   2.401
 5029SOL    HW115986   6.327   2.757   2.452
 5029SOL    HW215987   6.375   2.601   2.457
 5030SOL     OW15988   6.731   6.140   6.053
 5030SOL    HW115989   6.688   6.108   6.137
 5030SOL    HW215990   6.829   6.122   6.056
 5031SOL     OW15991   0.117   1.255   5.429
 5031SOL    HW115992   0.130   1.173   5.374
 5031SOL    HW215993   0.021   1.280   5.430
 5032SOL     OW15994   2.807   1.584   5.922
 5032SOL    HW115995   2.832   1.489   5.904
 5032SOL    HW215996   2.709   1.596   5.909
 5033SOL     OW15997   2.039   0.278   0.079
 5033SOL    HW115998   2.024   0.196   0.023
 5033SOL    HW215999   1.957   0.297   0.132
 5034SOL     OW16000   5.471   6.542   4.239
 5034SOL    HW116001   5.527   6.620   4.265
 5034SOL    HW216002   5.385   6.574   4.200
 5035SOL     OW16003   0.998   3.920   5.633
 5035SOL    HW116004   0.939   3.843   5.609
 5035SOL    HW216005   1.061   3.938   5.558
 5036SOL     OW16006   6.644   4.806   6.602
 5036SOL    HW116007   6.549   4.774   6.602
 5036SOL    HW216008   6.700   4.744   6.546
 5037SOL     OW16009   4.650   4.781   1.450
 5037SOL    HW116010   4.697   4.780   1.362
 5037SOL    HW216011   4.627   4.688   1.477
 5038SOL     OW16012   3.910   3.057   3.898
 5038SOL    HW116013   3.820   3.023   3.872
 5038SOL    HW216014   3.927   3.037   3.994
 5039SOL     OW16015   1.933   3.573   5.494
 5039SOL    HW116016   1.963   3.539   5.404
 5039SOL    HW216017   1.912   3.496   5.554
 5040SOL     OW16018   1.177   6.285   5.289
 5040SOL    HW116019   1.180   6.200   5.236
 5040SOL    HW216020   1.089   6.330   5.275
 5041SOL     OW16021   0.975   2.481   1.917
 5041SOL    HW116022   1.057   2.537   1.903
 5041SOL    HW216023   0.925   2.514   1.997
 5042SOL     OW16024   7.014   2.696   0.583
 5042SOL    HW116025   6.937   2.741   0.539
 5042SOL    HW216026   6.981   2.622   0.642
 5043SOL     OW16027   4.322   0.951   6.985
 5043SOL    HW116028   4.251   1.021   6.974
 5043SOL    HW216029   4.299   0.893   0.041
 5044SOL     OW16030   0.801   5.529   1.343
 5044SOL    HW116031   0.782   5.505   1.438
 5044SOL    HW216032   0.716   5.556   1.298
 5045SOL     OW16033   6.305   5.653   5.861
 5045SOL    HW116034   6.281   5.566   5.818
 5045SOL    HW216035   6.375   5.699   5.806
 5046SOL     OW16036   3.641   4.078   3.551
 5046SOL    HW116037   3.734   4.052   3.525
 5046SOL    HW216038   3.608   4.151   3.492
 5047SOL     OW16039   2.331   4.295   3.109
 5047SOL    HW116040   2.242   4.341   3.105
 5047SOL    HW216041   2.379   4.308   3.022
 5048SOL     OW16042   1.436   1.057   4.170
 5048SOL    HW116043   1.449   1.144   4.121
 5048SOL    HW216044   1.364   1.004   4.125
 5049SOL     OW16045   4.618   0.888   0.165
 5049SOL    HW116046   4.678   0.813   0.139
 5049SOL    HW216047   4.633   0.966   0.103
 5050SOL     OW16048   1.757   1.390   6.738
 5050SOL    HW116049   1.719   1.385   6.831
 5050SOL    HW216050   1.683   1.389   6.672
 5051SOL     OW16051   4.698   4.267   1.761
 5051SOL    HW116052   4.736   4.176   1.749
 5051SOL    HW216053   4.617   4.263   1.819
 5052SOL     OW16054   3.195   1.960   5.797
 5052SOL    HW116055   3.124   2.015   5.754
 5052SOL    HW216056   3.239   1.902   5.728
 5053SOL     OW16057   0.885   5.135   3.097
 5053SOL    HW116058   0.930   5.192   3.167
 5053SOL    HW216059   0.951   5.109   3.027
 5054SOL     OW16060   2.791   5.131   5.101
 5054SOL    HW116061   2.788   5.043   5.055
 5054SOL    HW216062   2.740   5.125   5.187
 5055SOL     OW16063   0.856   2.211   5.839
 5055SOL    HW116064   0.783   2.144   5.849
 5055SOL    HW216065   0.841   2.264   5.756
 5056SOL     OW16066   5.242   3.859   5.842
 5056SOL    HW116067   5.181   3.781   5.858
 5056SOL    HW216068   5.206   3.940   5.889
 5057SOL     OW16069   6.879   6.896   3.226
 5057SOL    HW116070   6.841   6.806   3.241
 5057SOL    HW216071   6.979   6.893   3.236
 5058SOL     OW16072   3.358   3.843   6.557
 5058SOL    HW116073   3.434   3.871   6.498
 5058SOL    HW216074   3.290   3.917   6.561
 5059SOL     OW16075   0.130   0.700   3.291
 5059SOL    HW116076   0.116   0.670   3.197
 5059SOL    HW216077   0.132   0.800   3.295
 5060SOL     OW16078   0.332   2.413   6.583
 5060SOL    HW116079   0.413   2.411   6.525
 5060SOL    HW216080   0.313   2.320   6.617
 5061SOL     OW16081   4.786   2.774   0.496
 5061SOL    HW116082   4.804   2.734   0.406
 5061SOL    HW216083   4.804   2.706   0.567
 5062SOL     OW16084   5.685   0.044   2.441
 5062SOL    HW116085   5.758   0.030   2.507
 5062SOL    HW216086   5.714   0.011   2.351
 5063SOL     OW16087   7.007   0.082   2.134
 5063SOL    HW116088   0.076   0.115   2.112
 5063SOL    HW216089   7.004   0.051   2.229
 5064SOL     OW16090   5.130   3.403   0.785
 5064SOL    HW116091   5.088   3.407   0.875
 5064SOL    HW216092   5.067   3.358   0.721
 5065SOL     OW16093   3.111   0.461   5.643
 5065SOL    HW116094   3.108   0.361   5.648
 5065SOL    HW216095   3.193   0.490   5.593
 5066SOL     OW16096   4.927   4.933   1.993
 5066SOL    HW116097   4.980   4.857   1.956
 5066SOL    HW216098   4.904   4.916   2.088
 5067SOL     OW16099   4.900   1.326   1.032
 5067SOL    HW116100   4.875   1.229   1.031
 5067SOL    HW216101   4.984   1.339   0.980
 5068SOL     OW16102   2.504   4.733   0.972
 5068SOL    HW116103   2.485   4.787   0.890
 5068SOL    HW216104   2.548   4.647   0.946
 5069SOL     OW16105   2.008   4.666   3.274
 5069SOL    HW116106   1.956   4.629   3.351
 5069SOL    HW216107   2.089   4.713   3.307
 5070SOL     OW16108   4.915   3.573   3.687
 5070SOL    HW116109   4.982   3.553   3.758
 5070SOL    HW216110   4.828   3.598   3.729
 5071SOL     OW16111   4.566   2.383   4.631
 5071SOL    HW116112   4.615   2.299   4.654
 5071SOL    HW216113   4.487   2.392   4.691
 5072SOL     OW16114   0.649   6.124   0.546
 5072SOL    HW116115   0.747   6.110   0.553
 5072SOL    HW216116   0.601   6.054   0.600
 5073SOL     OW16117   6.403   6.764   3.240
 5073SOL    HW116118   6.309   6.740   3.217
 5073SOL    HW216119   6.464   6.690   3.212
 5074SOL     OW16120   3.504   3.164   6.541
 5074SOL    HW116121   3.528   3.159   6.444
 5074SOL    HW216122   3.406   3.182   6.551
 5075SOL     OW16123   0.501   1.255   5.658
 5075SOL    HW116124   0.587   1.300   5.638
 5075SOL    HW216125   0.449   1.309   5.724
 5076SOL     OW16126   3.751   0.972   1.173
 5076SOL    HW116127   3.787   0.983   1.266
 5076SOL    HW216128   3.663   0.924   1.178
 5077SOL     OW16129   0.535   2.723   3.890
 5077SOL    HW116130   0.586   2.750   3.971
 5077SOL    HW216131   0.538   2.623   3.880
 5078SOL     OW16132   0.881   1.699   3.501
 5078SOL    HW116133   0.907   1.777   3.558
 5078SOL    HW216134   0.946   1.625   3.515
 5079SOL     OW16135   2.798   4.729   6.325
 5079SOL    HW116136   2.813   4.632   6.305
 5079SOL    HW216137   2.837   4.784   6.251
 5080SOL     OW16138   5.721   6.499   5.417
 5080SOL    HW116139   5.679   6.467   5.502
 5080SOL    HW216140   5.818   6.520   5.434
 5081SOL     OW16141   4.017   3.254   3.018
 5081SOL    HW116142   4.034   3.350   3.041
 5081SOL    HW216143   3.999   3.202   3.102
 5082SOL     OW16144   5.772   5.321   5.350
 5082SOL    HW116145   5.751   5.317   5.252
 5082SOL    HW216146   5.781   5.417   5.378
 5083SOL     OW16147   2.067   6.417   2.648
 5083SOL    HW116148   2.002   6.343   2.629
 5083SOL    HW216149   2.080   6.425   2.747
 5084SOL     OW16150   0.923   4.931   4.726
 5084SOL    HW116151   0.914   5.020   4.682
 5084SOL    HW216152   0.934   4.860   4.656
 5085SOL     OW16153   5.590   2.305   6.497
 5085SOL    HW116154   5.621   2.215   6.527
 5085SOL    HW216155   5.667   2.369   6.497
 5086SOL     OW16156   6.454   5.398   4.186
 5086SOL    HW116157   6.456   5.414   4.285
 5086SOL    HW216158   6.368   5.354   4.161
 5087SOL     OW16159   6.800   5.877   3.654
 5087SOL    HW116160   6.830   5.825   3.574
 5087SOL    HW216161   6.730   5.826   3.703
 5088SOL     OW16162   6.034   1.352   5.105
 5088SOL    HW116163   6.092   1.428   5.137
 5088SOL    HW216164   5.964   1.387   5.043
 5089SOL     OW16165   6.486   3.270   3.311
 5089SOL    HW116166   6.532   3.358   3.315
 5089SOL    HW216167   6.457   3.252   3.217
 5090SOL     OW16168   2.241   3.881   1.377
 5090SOL    HW116169   2.153   3.855   1.417
 5090SOL    HW216170   2.224   3.939   1.297
 5091SOL     OW16171   0.865   6.059   2.972
 5091SOL    HW116172   0.888   6.080   2.877
 5091SOL    HW216173   0.883   6.139   3.029
 5092SOL     OW16174   3.487   2.405   1.178
 5092SOL    HW116175   3.538   2.480   1.137
 5092SOL    HW216176   3.390   2.429   1.186
 5093SOL     OW16177   1.575   2.177   1.470
 5093SOL    HW116178   1.548   2.101   1.411
 5093SOL    HW216179   1.494   2.216   1.515
 5094SOL     OW16180   1.262   0.371   5.424
 5094SOL    HW116181   1.313   0.292   5.390
 5094SOL    HW216182   1.206   0.409   5.350
 5095SOL     OW16183   1.027   1.089   4.604
 5095SOL    HW116184   1.007   1.065   4.509
 5095SOL    HW216185   1.085   1.171   4.606
 5096SOL     OW16186   4.253   3.934   0.686
 5096SOL    HW116187   4.302   3.854   0.653
 5096SOL    HW216188   4.319   4.000   0.723
 5097SOL     OW16189   1.623   0.268   6.355
 5097SOL    HW116190   1.689   0.340   6.376
 5097SOL    HW216191   1.542   0.307   6.312
 5098SOL     OW16192   0.296   0.691   1.646
 5098SOL    HW116193   0.264   0.718   1.737
 5098SOL    HW216194   0.266   0.758   1.579
 5099SOL     OW16195   1.210   0.654   5.990
 5099SOL    HW116196   1.155   0.737   5.997
 5099SOL    HW216197   1.307   0.679   5.989
 5100SOL     OW16198   4.594   6.762   5.954
 5100SOL    HW116199   4.666   6.715   6.005
 5100SOL    HW216200   4.630   6.793   5.866
 5101SOL     OW16201   5.247   6.265   6.967
 5101SOL    HW116202   5.242   6.365   6.967
 5101SOL    HW216203   5.322   6.234   0.003
 5102SOL     OW16204   6.108   0.777   5.527
 5102SOL    HW116205   6.095   0.839   5.449
 5102SOL    HW216206   6.124   0.684   5.494
 5103SOL     OW16207   6.919   0.963   4.439
 5103SOL    HW116208   6.998   0.903   4.454
 5103SOL    HW216209   6.950   1.057   4.429
 5104SOL     OW16210   1.779   6.617   1.429
 5104SOL    HW116211   1.685   6.602   1.461
 5104SOL    HW216212   1.792   6.715   1.410
 5105SOL     OW16213   4.070   3.869   0.012
 5105SOL    HW116214   4.034   3.922   0.089
 5105SOL    HW216215   4.014   3.887   6.954
 5106SOL     OW16216   3.769   0.203   2.567
 5106SOL    HW116217   3.693   0.159   2.518
 5106SOL    HW216218   3.748   0.205   2.664
 5107SOL     OW16219   3.084   0.544   6.983
 5107SOL    HW116220   3.126   0.597   0.033
 5107SOL    HW216221   2.985   0.541   6.996
 5108SOL     OW16222   2.900   3.730   3.934
 5108SOL    HW116223   2.899   3.753   4.032
 5108SOL    HW216224   2.882   3.813   3.880
 5109SOL     OW16225   0.944   1.702   0.751
 5109SOL    HW116226   0.858   1.738   0.715
 5109SOL    HW216227   1.004   1.676   0.675
 5110SOL     OW16228   1.201   6.962   6.384
 5110SOL    HW116229   1.256   6.894   6.335
 5110SOL    HW216230   1.107   6.959   6.351
 5111SOL     OW16231   0.880   0.893   5.654
 5111SOL    HW116232   0.976   0.874   5.636
 5111SOL    HW216233   0.872   0.951   5.736
 5112SOL     OW16234   0.678   6.950   3.261
 5112SOL    HW116235   0.712   6.942   3.355
 5112SOL    HW216236   0.755   6.946   3.197
 5113SOL     OW16237   1.334   0.061   1.052
 5113SOL    HW116238   1.306   0.133   0.989
 5113SOL    HW216239   1.302   6.995   1.018
 5114SOL     OW16240   3.240   2.993   0.339
 5114SOL    HW116241   3.262   3.017   0.245
 5114SOL    HW216242   3.231   2.894   0.348
 5115SOL     OW16243   1.521   4.315   5.367
 5115SOL    HW116244   1.598   4.316   5.432
 5115SOL    HW216245   1.553   4.345   5.277
 5116SOL     OW16246   5.169   5.566   5.863
 5116SOL    HW116247   5.128   5.481   5.828
 5116SOL    HW216248   5.268   5.562   5.852
 5117SOL     OW16249   2.217   4.694   3.894
 5117SOL    HW116250   2.294   4.631   3.904
 5117SOL    HW216251   2.185   4.722   3.985
 5118SOL     OW16252   4.547   6.456   0.449
 5118SOL    HW116253   4.514   6.498   0.533
 5118SOL    HW216254   4.643   6.431   0.460
 5119SOL     OW16255   4.853   0.302   1.717
 5119SOL    HW116256   4.937   0.271   1.761
 5119SOL    HW216257   4.861   0.289   1.618
 5120SOL     OW16258   5.969   1.293   2.801
 5120SOL    HW116259   5.935   1.218   2.856
 5120SOL    HW216260   5.935   1.380   2.838
 5121SOL     OW16261   1.164   2.895   6.697
 5121SOL    HW116262   1.262   2.889   6.679
 5121SOL    HW216263   1.139   2.991   6.715
 5122SOL     OW16264   2.702   0.811   4.069
 5122SOL    HW116265   2.666   0.874   4.138
 5122SOL    HW216266   2.627   0.761   4.026
 5123SOL     OW16267   5.204   3.362   4.519
 5123SOL    HW116268   5.111   3.334   4.494
 5123SOL    HW216269   5.228   3.319   4.607
 5124SOL     OW16270   2.598   5.347   6.621
 5124SOL    HW116271   2.531   5.339   6.547
 5124SOL    HW216272   2.688   5.365   6.582
 5125SOL     OW16273   7.021   3.819   4.272
 5125SOL    HW116274   7.015   3.720   4.264
 5125SOL    HW216275   0.020   3.844   4.366
 5126SOL     OW16276   6.290   4.479   5.754
 5126SOL    HW116277   6.190   4.483   5.747
 5126SOL    HW216278   6.321   4.543   5.824
 5127SOL     OW16279   5.984   3.882   1.094
 5127SOL    HW116280   5.927   3.827   1.156
 5127SOL    HW216281   6.080   3.857   1.105
 5128SOL     OW16282   0.667   0.597   0.078
 5128SOL    HW116283   0.650   0.576   7.005
 5128SOL    HW216284   0.756   0.559   0.106
 5129SOL     OW16285   5.349   0.723   2.875
 5129SOL    HW116286   5.314   0.691   2.786
 5129SOL    HW216287   5.448   0.735   2.869
 5130SOL     OW16288   1.053   5.722   4.788
 5130SOL    HW116289   1.122   5.763   4.729
 5130SOL    HW216290   0.991   5.792   4.822
 5131SOL     OW16291   3.036   5.006   3.412
 5131SOL    HW116292   3.015   5.102   3.395
 5131SOL    HW216293   2.970   4.948   3.366
 5132SOL     OW16294   3.116   1.324   6.430
 5132SOL    HW116295   3.191   1.361   6.376
 5132SOL    HW216296   3.029   1.358   6.394
 5133SOL     OW16297   3.351   5.511   5.906
 5133SOL    HW116298   3.396   5.589   5.863
 5133SOL    HW216299   3.331   5.442   5.837
 5134SOL     OW16300   6.318   6.901   1.965
 5134SOL    HW116301   6.310   6.807   1.933
 5134SOL    HW216302   6.351   6.901   2.060
 5135SOL     OW16303   6.358   3.478   2.706
 5135SOL    HW116304   6.338   3.381   2.713
 5135SOL    HW216305   6.426   3.493   2.634
 5136SOL     OW16306   6.883   1.332   5.489
 5136SOL    HW116307   6.833   1.319   5.575
 5136SOL    HW216308   6.845   1.410   5.440
 5137SOL     OW16309   4.752   3.002   5.395
 5137SOL    HW116310   4.809   3.037   5.321
 5137SOL    HW216311   4.803   2.933   5.447
 5138SOL     OW16312   3.527   3.970   4.056
 5138SOL    HW116313   3.541   4.002   3.962
 5138SOL    HW216314   3.457   3.900   4.058
 5139SOL     OW16315   0.929   0.432   4.445
 5139SOL    HW116316   0.912   0.363   4.374
 5139SOL    HW216317   1.026   0.458   4.444
 5140SOL     OW16318   3.997   1.752   6.261
 5140SOL    HW116319   3.987   1.746   6.360
 5140SOL    HW216320   4.094   1.745   6.237
 5141SOL     OW16321   6.211   2.511   0.910
 5141SOL    HW116322   6.282   2.556   0.856
 5141SOL    HW216323   6.239   2.509   1.006
 5142SOL     OW16324   5.812   6.878   4.148
 5142SOL    HW116325   5.882   6.840   4.208
 5142SOL    HW216326   5.778   6.807   4.087
 5143SOL     OW16327   0.761   4.102   4.221
 5143SOL    HW116328   0.842   4.112   4.279
 5143SOL    HW216329   0.782   4.042   4.144
 5144SOL     OW16330   2.315   3.538   6.644
 5144SOL    HW116331   2.302   3.637   6.646
 5144SOL    HW216332   2.328   3.508   6.549
 5145SOL     OW16333   3.701   5.995   6.245
 5145SOL    HW116334   3.771   5.944   6.296
 5145SOL    HW216335   3.731   6.008   6.151
 5146SOL     OW16336   4.103   4.384   5.787
 5146SOL    HW116337   4.025   4.375   5.724
 5146SOL    HW216338   4.109   4.478   5.819
 5147SOL     OW16339   5.361   3.857   2.910
 5147SOL    HW116340   5.442   3.912   2.926
 5147SOL    HW216341   5.337   3.806   2.993
 5148SOL     OW16342   0.871   0.883   2.089
 5148SOL    HW116343   0.874   0.783   2.090
 5148SOL    HW216344   0.855   0.916   2.182
 5149SOL     OW16345   5.623   4.837   3.956
 5149SOL    HW116346   5.689   4.780   4.005
 5149SOL    HW216347   5.615   4.926   4.002
 5150SOL     OW16348   1.253   5.299   3.369
 5150SOL    HW116349   1.240   5.364   3.294
 5150SOL    HW216350   1.244   5.205   3.334
 5151SOL     OW16351   5.920   4.734   1.433
 5151SOL    HW116352   5.858   4.793   1.382
 5151SOL    HW216353   5.917   4.758   1.530
 5152SOL     OW16354   1.615   6.288   6.673
 5152SOL    HW116355   1.620   6.380   6.634
 5152SOL    HW216356   1.529   6.277   6.722
 5153SOL     OW16357   1.548   1.251   0.281
 5153SOL    HW116358   1.613   1.232   0.206
 5153SOL    HW216359   1.569   1.339   0.322
 5154SOL     OW16360   0.936   2.715   6.766
 5154SOL    HW116361   1.016   2.774   6.751
 5154SOL    HW216362   0.853   2.767   6.747
 5155SOL     OW16363   2.581   1.633   0.680
 5155SOL    HW116364   2.496   1.659   0.726
 5155SOL    HW216365   2.586   1.534   0.671
 5156SOL     OW16366   5.442   4.909   5.276
 5156SOL    HW116367   5.520   4.880   5.221
 5156SOL    HW216368   5.360   4.910   5.219
 5157SOL     OW16369   3.466   1.558   1.969
 5157SOL    HW116370   3.548   1.604   2.002
 5157SOL    HW216371   3.489   1.501   1.890
 5158SOL     OW16372   3.704   1.605   0.816
 5158SOL    HW116373   3.787   1.660   0.806
 5158SOL    HW216374   3.695   1.575   0.911
 5159SOL     OW16375   6.034   3.785   6.818
 5159SOL    HW116376   5.939   3.814   6.820
 5159SOL    HW216377   6.041   3.695   6.773
 5160SOL     OW16378   6.346   6.468   3.344
 5160SOL    HW116379   6.364   6.406   3.420
 5160SOL    HW216380   6.248   6.465   3.321
 5161SOL     OW16381   1.317   3.242   6.916
 5161SOL    HW116382   1.376   3.292   6.980
 5161SOL    HW216383   1.249   3.190   6.968
 5162SOL     OW16384   0.070   5.499   2.392
 5162SOL    HW116385   0.092   5.590   2.427
 5162SOL    HW216386   6.993   5.491   2.380
 5163SOL     OW16387   3.252   6.129   1.751
 5163SOL    HW116388   3.297   6.043   1.774
 5163SOL    HW216389   3.319   6.193   1.713
 5164SOL     OW16390   2.887   2.956   0.494
 5164SOL    HW116391   2.935   2.876   0.458
 5164SOL    HW216392   2.951   3.031   0.508
 5165SOL     OW16393   1.394   4.695   0.112
 5165SOL    HW116394   1.334   4.615   0.119
 5165SOL    HW216395   1.372   4.759   0.185
 5166SOL     OW16396   1.765   5.358   1.961
 5166SOL    HW116397   1.695   5.346   1.891
 5166SOL    HW216398   1.853   5.326   1.926
 5167SOL     OW16399   5.903   3.995   5.445
 5167SOL    HW116400   5.827   4.051   5.480
 5167SOL    HW216401   5.944   4.040   5.366
 5168SOL     OW16402   4.927   2.234   2.226
 5168SOL    HW116403   4.839   2.219   2.271
 5168SOL    HW216404   5.000   2.235   2.294
 5169SOL     OW16405   4.260   1.336   3.850
 5169SOL    HW116406   4.214   1.378   3.928
 5169SOL    HW216407   4.336   1.394   3.822
 5170SOL     OW16408   1.305   3.355   6.237
 5170SOL    HW116409   1.401   3.332   6.251
 5170SOL    HW216410   1.249   3.300   6.300
 5171SOL     OW16411   1.370   5.145   5.401
 5171SOL    HW116412   1.452   5.089   5.412
 5171SOL    HW216413   1.307   5.100   5.339
 5172SOL     OW16414   1.395   5.414   4.143
 5172SOL    HW116415   1.379   5.364   4.229
 5172SOL    HW216416   1.428   5.506   4.164
 5173SOL     OW16417   4.604   3.948   6.179
 5173SOL    HW116418   4.541   3.871   6.170
 5173SOL    HW216419   4.558   4.032   6.152
 5174SOL     OW16420   1.436   6.926   3.513
 5174SOL    HW116421   1.530   6.957   3.496
 5174SOL    HW216422   1.434   6.827   3.520
 5175SOL     OW16423   3.180   4.515   6.374
 5175SOL    HW116424   3.253   4.554   6.431
 5175SOL    HW216425   3.203   4.420   6.352
 5176SOL     OW16426   5.240   5.317   6.045
 5176SOL    HW116427   5.312   5.361   6.098
 5176SOL    HW216428   5.279   5.279   5.961
 5177SOL     OW16429   5.297   6.952   1.028
 5177SOL    HW116430   5.250   6.952   1.116
 5177SOL    HW216431   5.252   6.888   0.966
 5178SOL     OW16432   0.757   4.406   2.220
 5178SOL    HW116433   0.807   4.435   2.138
 5178SOL    HW216434   0.760   4.480   2.287
 5179SOL     OW16435   5.118   4.007   2.790
 5179SOL    HW116436   5.032   3.956   2.802
 5179SOL    HW216437   5.191   3.961   2.841
 5180SOL     OW16438   2.885   6.825   1.178
 5180SOL    HW116439   2.864   6.730   1.155
 5180SOL    HW216440   2.851   6.845   1.270
 5181SOL     OW16441   0.012   0.693   6.905
 5181SOL    HW116442   6.973   0.758   6.951
 5181SOL    HW216443   6.989   0.605   6.896
 5182SOL     OW16444   4.659   4.480   2.492
 5182SOL    HW116445   4.686   4.438   2.405
 5182SOL    HW216446   4.569   4.521   2.482
 5183SOL     OW16447   4.040   2.198   3.191
 5183SOL    HW116448   4.045   2.191   3.092
 5183SOL    HW216449   4.094   2.277   3.222
 5184SOL     OW16450   2.187   2.404   3.676
 5184SOL    HW116451   2.144   2.357   3.753
 5184SOL    HW216452   2.274   2.359   3.654
 5185SOL     OW16453   4.544   0.479   2.682
 5185SOL    HW116454   4.611   0.405   2.688
 5185SOL    HW216455   4.482   0.462   2.606
 5186SOL     OW16456   6.382   3.099   6.047
 5186SOL    HW116457   6.389   3.088   5.948
 5186SOL    HW216458   6.464   3.062   6.090
 5187SOL     OW16459   2.373   5.281   4.505
 5187SOL    HW116460   2.327   5.338   4.572
 5187SOL    HW216461   2.394   5.335   4.424
 5188SOL     OW16462   7.020   6.162   1.703
 5188SOL    HW116463   6.983   6.130   1.615
 5188SOL    HW216464   6.962   6.129   1.777
 5189SOL     OW16465   5.656   6.846   6.073
 5189SOL    HW116466   5.607   6.773   6.121
 5189SOL    HW216467   5.744   6.861   6.117
 5190SOL     OW16468   1.870   3.052   2.604
 5190SOL    HW116469   1.960   3.088   2.630
 5190SOL    HW216470   1.825   3.117   2.542
 5191SOL     OW16471   3.031   6.202   2.806
 5191SOL    HW116472   3.035   6.133   2.734
 5191SOL    HW216473   3.060   6.161   2.893
 5192SOL     OW16474   1.674   6.060   1.579
 5192SOL    HW116475   1.666   6.147   1.629
 5192SOL    HW216476   1.583   6.018   1.571
 5193SOL     OW16477   5.258   0.321   6.766
 5193SOL    HW116478   5.184   0.328   6.699
 5193SOL    HW216479   5.321   0.248   6.738
 5194SOL     OW16480   3.454   1.698   6.259
 5194SOL    HW116481   3.408   1.786   6.243
 5194SOL    HW216482   3.544   1.699   6.216
 5195SOL     OW16483   0.639   0.701   3.493
 5195SOL    HW116484   0.596   0.686   3.404
 5195SOL    HW216485   0.569   0.712   3.563
 5196SOL     OW16486   4.640   6.753   2.871
 5196SOL    HW116487   4.733   6.736   2.901
 5196SOL    HW216488   4.587   6.793   2.946
 5197SOL     OW16489   1.916   3.453   6.463
 5197SOL    HW116490   1.998   3.502   6.432
 5197SOL    HW216491   1.858   3.432   6.384
 5198SOL     OW16492   4.350   5.454   3.018
 5198SOL    HW116493   4.261   5.456   3.063
 5198SOL    HW216494   4.340   5.426   2.923
 5199SOL     OW16495   0.282   5.223   1.205
 5199SOL    HW116496   0.333   5.230   1.119
 5199SOL    HW216497   0.239   5.311   1.225
 5200SOL     OW16498   0.429   3.735   5.237
 5200SOL    HW116499   0.463   3.699   5.324
 5200SOL    HW216500   0.331   3.754   5.246
 5201SOL     OW16501   0.393   6.610   3.958
 5201SOL    HW116502   0.336   6.645   3.884
 5201SOL    HW216503   0.335   6.588   4.037
 5202SOL     OW16504   6.969   3.175   6.364
 5202SOL    HW116505   0.010   3.233   6.416
 5202SOL    HW216506   7.002   3.081   6.365
 5203SOL     OW16507   0.993   2.617   0.165
 5203SOL    HW116508   0.924   2.621   0.237
 5203SOL    HW216509   1.077   2.661   0.196
 5204SOL     OW16510   3.963   4.963   0.556
 5204SOL    HW116511   3.925   4.876   0.525
 5204SOL    HW216512   3.896   5.036   0.542
 5205SOL     OW16513   1.926   0.307   1.606
 5205SOL    HW116514   1.939   0.348   1.696
 5205SOL    HW216515   1.926   0.379   1.536
 5206SOL     OW16516   0.553   4.424   6.905
 5206SOL    HW116517   0.501   4.437   6.821
 5206SOL    HW216518   0.649   4.408   6.884
 5207SOL     OW16519   1.543   5.692   4.112
 5207SOL    HW116520   1.444   5.699   4.099
 5207SOL    HW216521   1.587   5.668   4.025
 5208SOL     OW16522   3.691   0.997   0.509
 5208SOL    HW116523   3.761   1.060   0.475
 5208SOL    HW216524   3.647   1.035   0.589
 5209SOL     OW16525   5.962   6.072   3.723
 5209SOL    HW116526   5.994   6.075   3.818
 5209SOL    HW216527   5.878   6.018   3.717
 5210SOL     OW16528   5.372   3.896   4.926
 5210SOL    HW116529   5.443   3.896   4.997
 5210SOL    HW216530   5.282   3.891   4.969
 5211SOL     OW16531   3.598   3.259   3.808
 5211SOL    HW116532   3.506   3.257   3.847
 5211SOL    HW216533   3.629   3.166   3.789
 5212SOL     OW16534   6.928   2.498   0.735
 5212SOL    HW116535   6.907   2.572   0.799
 5212SOL    HW216536   6.850   2.437   0.728
 5213SOL     OW16537   5.376   1.901   6.393
 5213SOL    HW116538   5.333   1.813   6.416
 5213SOL    HW216539   5.345   1.929   6.302
 5214SOL     OW16540   5.253   1.513   6.344
 5214SOL    HW116541   5.289   1.436   6.397
 5214SOL    HW216542   5.166   1.544   6.384
 5215SOL     OW16543   5.728   5.528   3.088
 5215SOL    HW116544   5.724   5.626   3.106
 5215SOL    HW216545   5.816   5.492   3.119
 5216SOL     OW16546   4.786   5.981   1.160
 5216SOL    HW116547   4.760   6.021   1.248
 5216SOL    HW216548   4.885   5.965   1.159
 5217SOL     OW16549   3.151   5.289   3.952
 5217SOL    HW116550   3.161   5.229   4.031
 5217SOL    HW216551   3.135   5.235   3.870
 5218SOL     OW16552   1.572   0.678   3.825
 5218SOL    HW116553   1.557   0.644   3.732
 5218SOL    HW216554   1.485   0.712   3.862
 5219SOL     OW16555   3.577   6.731   6.640
 5219SOL    HW116556   3.514   6.698   6.710
 5219SOL    HW216557   3.596   6.828   6.656
 5220SOL     OW16558   1.004   5.569   2.604
 5220SOL    HW116559   0.908   5.586   2.581
 5220SOL    HW216560   1.059   5.574   2.521
 5221SOL     OW16561   5.375   2.025   4.633
 5221SOL    HW116562   5.433   1.966   4.689
 5221SOL    HW216563   5.320   1.968   4.571
 5222SOL     OW16564   2.633   6.798   4.215
 5222SOL    HW116565   2.603   6.868   4.150
 5222SOL    HW216566   2.594   6.817   4.305
 5223SOL     OW16567   4.489   0.498   1.110
 5223SOL    HW116568   4.475   0.415   1.055
 5223SOL    HW216569   4.441   0.487   1.198
 5224SOL     OW16570   6.788   1.533   3.483
 5224SOL    HW116571   6.748   1.624   3.475
 5224SOL    HW216572   6.740   1.469   3.423
 5225SOL     OW16573   6.233   0.742   2.939
 5225SOL    HW116574   6.292   0.703   3.009
 5225SOL    HW216575   6.164   0.801   2.982
 5226SOL     OW16576   0.201   6.663   5.404
 5226SOL    HW116577   0.106   6.659   5.432
 5226SOL    HW216578   0.213   6.733   5.334
 5227SOL     OW16579   0.891   5.087   4.053
 5227SOL    HW116580   0.847   4.998   4.045
 5227SOL    HW216581   0.983   5.083   4.014
 5228SOL     OW16582   6.338   2.671   0.238
 5228SOL    HW116583   6.404   2.744   0.259
 5228SOL    HW216584   6.250   2.694   0.279
 5229SOL     OW16585   2.142   4.388   6.466
 5229SOL    HW116586   2.225   4.354   6.421
 5229SOL    HW216587   2.138   4.351   6.559
 5230SOL     OW16588   0.564   0.468   0.901
 5230SOL    HW116589   0.488   0.403   0.902
 5230SOL    HW216590   0.570   0.510   0.810
 5231SOL     OW16591   3.190   3.124   4.725
 5231SOL    HW116592   3.120   3.128   4.796
 5231SOL    HW216593   3.256   3.053   4.748
 5232SOL     OW16594   3.444   2.213   6.295
 5232SOL    HW116595   3.437   2.114   6.293
 5232SOL    HW216596   3.537   2.241   6.270
 5233SOL     OW16597   6.954   6.355   1.507
 5233SOL    HW116598   7.022   6.322   1.572
 5233SOL    HW216599   6.946   6.291   1.431
 5234SOL     OW16600   3.208   0.213   0.074
 5234SOL    HW116601   3.304   0.195   0.096
 5234SOL    HW216602   3.202   0.278   7.021
 5235SOL     OW16603   1.770   2.830   1.436
 5235SOL    HW116604   1.712   2.844   1.516
 5235SOL    HW216605   1.827   2.750   1.449
 5236SOL     OW16606   5.458   3.184   1.376
 5236SOL    HW116607   5.491   3.223   1.290
 5236SOL    HW216608   5.358   3.181   1.374
 5237SOL     OW16609   2.948   1.961   5.176
 5237SOL    HW116610   2.944   2.054   5.215
 5237SOL    HW216611   2.880   1.903   5.221
 5238SOL     OW16612   1.741   5.478   0.435
 5238SOL    HW116613   1.839   5.458   0.434
 5238SOL    HW216614   1.713   5.513   0.345
 5239SOL     OW16615   3.709   3.759   4.205
 5239SOL    HW116616   3.671   3.845   4.169
 5239SOL    HW216617   3.787   3.731   4.150
 5240SOL     OW16618   3.311   2.294   5.693
 5240SOL    HW116619   3.325   2.392   5.683
 5240SOL    HW216620   3.213   2.274   5.697
 5241SOL     OW16621   1.331   5.878   6.505
 5241SOL    HW116622   1.359   5.823   6.427
 5241SOL    HW216623   1.401   5.947   6.525
 5242SOL     OW16624   5.773   0.257   5.180
 5242SOL    HW116625   5.710   0.204   5.236
 5242SOL    HW216626   5.837   0.306   5.239
 5243SOL     OW16627   1.390   6.132   1.063
 5243SOL    HW116628   1.410   6.040   1.095
 5243SOL    HW216629   1.386   6.195   1.141
 5244SOL     OW16630   4.411   4.209   5.904
 5244SOL    HW116631   4.431   4.169   5.815
 5244SOL    HW216632   4.390   4.306   5.892
 5245SOL     OW16633   4.436   4.180   6.349
 5245SOL    HW116634   4.393   4.178   6.258
 5245SOL    HW216635   4.369   4.212   6.417
 5246SOL     OW16636   6.650   4.039   2.325
 5246SOL    HW116637   6.659   3.956   2.380
 5246SOL    HW216638   6.588   4.103   2.372
 5247SOL     OW16639   0.887   6.591   0.153
 5247SOL    HW116640   0.889   6.555   0.060
 5247SOL    HW216641   0.932   6.526   0.214
 5248SOL     OW16642   5.099   0.178   5.593
 5248SOL    HW116643   5.176   0.164   5.532
 5248SOL    HW216644   5.045   0.094   5.598
 5249SOL     OW16645   0.352   5.474   5.125
 5249SOL    HW116646   0.424   5.519   5.074
 5249SOL    HW216647   0.381   5.382   5.150
 5250SOL     OW16648   0.282   1.227   6.070
 5250SOL    HW116649   0.236   1.231   5.982
 5250SOL    HW216650   0.380   1.215   6.056
 5251SOL     OW16651   0.203   3.114   0.925
 5251SOL    HW116652   0.118   3.085   0.970
 5251SOL    HW216653   0.230   3.203   0.961
 5252SOL     OW16654   2.213   5.526   1.201
 5252SOL    HW116655   2.253   5.435   1.188
 5252SOL    HW216656   2.284   5.590   1.228
 5253SOL     OW16657   5.728   3.981   4.629
 5253SOL    HW116658   5.659   3.915   4.599
 5253SOL    HW216659   5.771   4.022   4.549
 5254SOL     OW16660   5.277   1.371   3.234
 5254SOL    HW116661   5.297   1.458   3.187
 5254SOL    HW216662   5.180   1.367   3.257
 5255SOL     OW16663   4.110   0.333   4.668
 5255SOL    HW116664   4.197   0.301   4.705
 5255SOL    HW216665   4.088   0.282   4.585
 5256SOL     OW16666   5.033   0.743   3.133
 5256SOL    HW116667   5.133   0.749   3.125
 5256SOL    HW216668   4.991   0.820   3.086
 5257SOL     OW16669   4.601   0.055   2.186
 5257SOL    HW116670   4.634   6.993   2.144
 5257SOL    HW216671   4.506   0.070   2.159
 5258SOL     OW16672   5.125   4.630   1.659
 5258SOL    HW116673   5.085   4.707   1.609
 5258SOL    HW216674   5.104   4.545   1.611
 5259SOL     OW16675   4.708   6.365   1.284
 5259SOL    HW116676   4.679   6.331   1.195
 5259SOL    HW216677   4.761   6.449   1.273
 5260SOL     OW16678   4.887   3.320   0.657
 5260SOL    HW116679   4.891   3.409   0.611
 5260SOL    HW216680   4.889   3.247   0.589
 5261SOL     OW16681   1.173   2.616   5.435
 5261SOL    HW116682   1.168   2.517   5.442
 5261SOL    HW216683   1.128   2.646   5.351
 5262SOL     OW16684   2.370   6.757   2.932
 5262SOL    HW116685   2.301   6.824   2.959
 5262SOL    HW216686   2.443   6.755   3.000
 5263SOL     OW16687   1.001   0.381   6.335
 5263SOL    HW116688   0.934   0.328   6.284
 5263SOL    HW216689   1.090   0.336   6.330
 5264SOL     OW16690   6.285   1.187   1.587
 5264SOL    HW116691   6.290   1.260   1.655
 5264SOL    HW216692   6.369   1.134   1.587
 5265SOL     OW16693   5.195   4.076   2.180
 5265SOL    HW116694   5.281   4.080   2.130
 5265SOL    HW216695   5.200   4.138   2.259
 5266SOL     OW16696   2.505   6.520   1.455
 5266SOL    HW116697   2.407   6.499   1.454
 5266SOL    HW216698   2.549   6.474   1.532
 5267SOL     OW16699   4.615   4.717   5.644
 5267SOL    HW116700   4.553   4.743   5.718
 5267SOL    HW216701   4.610   4.618   5.631
 5268SOL     OW16702   6.492   5.400   5.493
 5268SOL    HW116703   6.527   5.441   5.409
 5268SOL    HW216704   6.397   5.428   5.507
 5269SOL     OW16705   2.315   6.337   4.036
 5269SOL    HW116706   2.321   6.362   4.132
 5269SOL    HW216707   2.389   6.380   3.985
 5270SOL     OW16708   4.907   2.091   1.758
 5270SOL    HW116709   4.903   2.101   1.659
 5270SOL    HW216710   4.856   2.010   1.785
 5271SOL     OW16711   4.432   5.228   4.124
 5271SOL    HW116712   4.460   5.133   4.138
 5271SOL    HW216713   4.332   5.234   4.129
 5272SOL     OW16714   0.884   6.135   3.569
 5272SOL    HW116715   0.925   6.081   3.643
 5272SOL    HW216716   0.803   6.182   3.603
 5273SOL     OW16717   1.119   3.024   3.711
 5273SOL    HW116718   1.152   3.041   3.804
 5273SOL    HW216719   1.186   3.057   3.645
 5274SOL     OW16720   6.259   5.320   3.049
 5274SOL    HW116721   6.191   5.390   3.030
 5274SOL    HW216722   6.292   5.281   2.963
 5275SOL     OW16723   2.983   0.961   6.298
 5275SOL    HW116724   2.895   1.001   6.323
 5275SOL    HW216725   2.991   0.958   6.198
 5276SOL     OW16726   0.221   6.040   0.539
 5276SOL    HW116727   0.298   6.065   0.481
 5276SOL    HW216728   0.222   6.097   0.622
 5277SOL     OW16729   1.810   2.150   2.886
 5277SOL    HW116730   1.717   2.188   2.889
 5277SOL    HW216731   1.870   2.215   2.839
 5278SOL     OW16732   5.565   0.093   5.663
 5278SOL    HW116733   5.582   0.004   5.621
 5278SOL    HW216734   5.469   0.100   5.688
 5279SOL     OW16735   1.131   6.434   6.295
 5279SOL    HW116736   1.062   6.370   6.262
 5279SOL    HW216737   1.089   6.501   6.356
 5280SOL     OW16738   3.512   6.145   5.321
 5280SOL    HW116739   3.577   6.070   5.310
 5280SOL    HW216740   3.427   6.111   5.362
 5281SOL     OW16741   1.040   1.782   4.145
 5281SOL    HW116742   1.074   1.876   4.146
 5281SOL    HW216743   0.942   1.781   4.166
 5282SOL     OW16744   2.101   0.196   2.420
 5282SOL    HW116745   2.068   0.145   2.499
 5282SOL    HW216746   2.198   0.217   2.431
 5283SOL     OW16747   1.402   0.994   3.112
 5283SOL    HW116748   1.415   1.070   3.176
 5283SOL    HW216749   1.321   0.942   3.139
 5284SOL     OW16750   4.570   2.587   3.258
 5284SOL    HW116751   4.558   2.548   3.349
 5284SOL    HW216752   4.625   2.670   3.263
 5285SOL     OW16753   1.025   3.555   4.168
 5285SOL    HW116754   1.044   3.532   4.263
 5285SOL    HW216755   0.940   3.511   4.139
 5286SOL     OW16756   5.987   3.144   1.051
 5286SOL    HW116757   6.035   3.062   1.019
 5286SOL    HW216758   6.023   3.224   1.003
 5287SOL     OW16759   3.003   5.234   1.252
 5287SOL    HW116760   2.956   5.161   1.300
 5287SOL    HW216761   3.042   5.298   1.319
 5288SOL     OW16762   4.396   0.547   3.128
 5288SOL    HW116763   4.310   0.513   3.166
 5288SOL    HW216764   4.377   0.621   3.063
 5289SOL     OW16765   2.375   5.059   6.273
 5289SOL    HW116766   2.287   5.041   6.317
 5289SOL    HW216767   2.429   4.975   6.271
 5290SOL     OW16768   1.543   3.603   5.621
 5290SOL    HW116769   1.585   3.519   5.589
 5290SOL    HW216770   1.593   3.638   5.700
 5291SOL     OW16771   2.728   4.425   5.924
 5291SOL    HW116772   2.799   4.493   5.909
 5291SOL    HW216773   2.661   4.430   5.850
 5292SOL     OW16774   5.878   4.671   6.045
 5292SOL    HW116775   5.957   4.684   5.985
 5292SOL    HW216776   5.880   4.578   6.083
 5293SOL     OW16777   1.875   6.816   5.164
 5293SOL    HW116778   1.959   6.859   5.131
 5293SOL    HW216779   1.796   6.871   5.137
 5294SOL     OW16780   4.850   1.921   5.135
 5294SOL    HW116781   4.901   1.855   5.191
 5294SOL    HW216782   4.754   1.895   5.133
 5295SOL     OW16783   3.598   0.935   3.217
 5295SOL    HW116784   3.557   1.007   3.162
 5295SOL    HW216785   3.582   0.953   3.314
 5296SOL     OW16786   3.295   4.179   6.961
 5296SOL    HW116787   3.271   4.165   6.865
 5296SOL    HW216788   3.234   4.248   7.001
 5297SOL     OW16789   1.414   3.723   0.021
 5297SOL    HW116790   1.412   3.797   0.088
 5297SOL    HW216791   1.370   3.642   0.060
 5298SOL     OW16792   1.812   6.068   6.233
 5298SOL    HW116793   1.900   6.022   6.227
 5298SOL    HW216794   1.806   6.138   6.163
 5299SOL     OW16795   3.031   2.715   0.499
 5299SOL    HW116796   3.061   2.672   0.414
 5299SOL    HW216797   2.967   2.655   0.546
 5300SOL     OW16798   0.319   5.906   1.569
 5300SOL    HW116799   0.231   5.907   1.522
 5300SOL    HW216800   0.367   5.992   1.552
 5301SOL     OW16801   4.265   1.744   6.236
 5301SOL    HW116802   4.283   1.703   6.146
 5301SOL    HW216803   4.315   1.693   6.306
 5302SOL     OW16804   5.786   6.190   3.375
 5302SOL    HW116805   5.746   6.257   3.312
 5302SOL    HW216806   5.763   6.098   3.345
 5303SOL     OW16807   6.948   5.253   5.023
 5303SOL    HW116808   6.949   5.167   5.074
 5303SOL    HW216809   0.019   5.281   5.002
 5304SOL     OW16810   5.912   0.988   0.389
 5304SOL    HW116811   5.819   0.967   0.361
 5304SOL    HW216812   5.935   0.934   0.470
 5305SOL     OW16813   0.898   5.295   2.338
 5305SOL    HW116814   0.834   5.219   2.349
 5305SOL    HW216815   0.990   5.259   2.326
 5306SOL     OW16816   0.881   4.697   5.631
 5306SOL    HW116817   0.825   4.672   5.552
 5306SOL    HW216818   0.890   4.796   5.635
 5307SOL     OW16819   3.744   1.798   0.163
 5307SOL    HW116820   3.748   1.842   0.073
 5307SOL    HW216821   3.701   1.708   0.155
 5308SOL     OW16822   1.213   4.157   2.437
 5308SOL    HW116823   1.149   4.081   2.447
 5308SOL    HW216824   1.164   4.240   2.412
 5309SOL     OW16825   3.842   4.826   1.810
 5309SOL    HW116826   3.755   4.800   1.851
 5309SOL    HW216827   3.916   4.777   1.857
 5310SOL     OW16828   5.910   3.343   1.673
 5310SOL    HW116829   5.943   3.266   1.618
 5310SOL    HW216830   5.922   3.322   1.770
 5311SOL     OW16831   6.197   6.674   0.215
 5311SOL    HW116832   6.103   6.705   0.223
 5311SOL    HW216833   6.235   6.704   0.127
 5312SOL     OW16834   0.970   5.445   1.863
 5312SOL    HW116835   1.046   5.502   1.830
 5312SOL    HW216836   0.998   5.348   1.859
 5313SOL     OW16837   1.160   2.878   6.354
 5313SOL    HW116838   1.198   2.866   6.446
 5313SOL    HW216839   1.132   2.789   6.317
 5314SOL     OW16840   4.179   6.572   0.254
 5314SOL    HW116841   4.151   6.655   0.303
 5314SOL    HW216842   4.279   6.569   0.248
 5315SOL     OW16843   5.164   3.561   1.866
 5315SOL    HW116844   5.166   3.660   1.855
 5315SOL    HW216845   5.125   3.539   1.955
 5316SOL     OW16846   1.056   3.391   5.370
 5316SOL    HW116847   1.111   3.362   5.292
 5316SOL    HW216848   0.959   3.386   5.347
 5317SOL     OW16849   5.948   2.033   5.355
 5317SOL    HW116850   5.997   1.947   5.361
 5317SOL    HW216851   6.001   2.105   5.400
 5318SOL     OW16852   0.855   2.536   0.619
 5318SOL    HW116853   0.941   2.489   0.638
 5318SOL    HW216854   0.844   2.613   0.683
 5319SOL     OW16855   4.039   5.994   0.699
 5319SOL    HW116856   4.131   6.028   0.716
 5319SOL    HW216857   3.976   6.070   0.688
 5320SOL     OW16858   4.271   4.911   0.906
 5320SOL    HW116859   4.277   5.011   0.903
 5320SOL    HW216860   4.254   4.875   0.814
 5321SOL     OW16861   2.338   4.579   4.390
 5321SOL    HW116862   2.248   4.535   4.397
 5321SOL    HW216863   2.383   4.577   4.479
 5322SOL     OW16864   5.415   5.968   0.334
 5322SOL    HW116865   5.419   6.027   0.253
 5322SOL    HW216866   5.388   6.023   0.414
 5323SOL     OW16867   3.804   1.838   5.741
 5323SOL    HW116868   3.735   1.876   5.680
 5323SOL    HW216869   3.767   1.759   5.790
 5324SOL     OW16870   3.611   2.264   0.941
 5324SOL    HW116871   3.545   2.267   1.016
 5324SOL    HW216872   3.680   2.336   0.954
 5325SOL     OW16873   4.080   0.529   4.387
 5325SOL    HW116874   4.049   0.581   4.466
 5325SOL    HW216875   4.056   0.433   4.399
 5326SOL     OW16876   6.649   5.157   3.326
 5326SOL    HW116877   6.670   5.204   3.412
 5326SOL    HW216878   6.561   5.189   3.291
 5327SOL     OW16879   5.957   3.157   5.628
 5327SOL    HW116880   5.894   3.219   5.675
 5327SOL    HW216881   5.947   3.065   5.665
 5328SOL     OW16882   3.797   3.839   5.829
 5328SOL    HW116883   3.763   3.835   5.923
 5328SOL    HW216884   3.719   3.846   5.766
 5329SOL     OW16885   0.437   4.397   6.641
 5329SOL    HW116886   0.386   4.336   6.579
 5329SOL    HW216887   0.531   4.405   6.610
 5330SOL     OW16888   4.600   3.873   0.351
 5330SOL    HW116889   4.594   3.972   0.338
 5330SOL    HW216890   4.515   3.830   0.320
 5331SOL     OW16891   6.284   1.774   6.473
 5331SOL    HW116892   6.235   1.750   6.389
 5331SOL    HW216893   6.313   1.690   6.519
 5332SOL     OW16894   0.429   3.189   1.303
 5332SOL    HW116895   0.460   3.143   1.220
 5332SOL    HW216896   0.422   3.287   1.286
 5333SOL     OW16897   0.812   0.774   3.071
 5333SOL    HW116898   0.886   0.748   3.133
 5333SOL    HW216899   0.823   0.870   3.044
 5334SOL     OW16900   3.466   0.365   4.144
 5334SOL    HW116901   3.380   0.388   4.189
 5334SOL    HW216902   3.452   0.359   4.045
 5335SOL     OW16903   0.084   5.995   0.875
 5335SOL    HW116904   0.149   6.053   0.827
 5335SOL    HW216905   0.104   5.899   0.857
 5336SOL     OW16906   1.746   3.564   2.951
 5336SOL    HW116907   1.687   3.633   2.909
 5336SOL    HW216908   1.801   3.606   3.023
 5337SOL     OW16909   4.987   4.294   1.210
 5337SOL    HW116910   4.941   4.212   1.244
 5337SOL    HW216911   4.971   4.303   1.112
 5338SOL     OW16912   5.780   1.723   0.269
 5338SOL    HW116913   5.821   1.654   0.329
 5338SOL    HW216914   5.703   1.766   0.315
 5339SOL     OW16915   6.826   1.738   4.258
 5339SOL    HW116916   6.852   1.824   4.214
 5339SOL    HW216917   6.770   1.685   4.195
 5340SOL     OW16918   4.554   4.447   1.332
 5340SOL    HW116919   4.597   4.357   1.332
 5340SOL    HW216920   4.578   4.495   1.248
 5341SOL     OW16921   3.524   2.787   6.451
 5341SOL    HW116922   3.428   2.801   6.429
 5341SOL    HW216923   3.546   2.831   6.537
 5342SOL     OW16924   4.074   0.154   3.957
 5342SOL    HW116925   4.173   0.141   3.962
 5342SOL    HW216926   4.028   0.075   3.998
 5343SOL     OW16927   3.602   4.114   4.426
 5343SOL    HW116928   3.598   4.018   4.453
 5343SOL    HW216929   3.657   4.164   4.493
 5344SOL     OW16930   2.193   2.915   2.588
 5344SOL    HW116931   2.221   2.840   2.648
 5344SOL    HW216932   2.198   2.885   2.493
 5345SOL     OW16933   4.052   5.878   1.078
 5345SOL    HW116934   3.995   5.824   1.139
 5345SOL    HW216935   4.018   5.871   0.985
 5346SOL     OW16936   3.299   6.080   3.899
 5346SOL    HW116937   3.373   6.138   3.865
 5346SOL    HW216938   3.274   6.108   3.991
 5347SOL     OW16939   0.790   2.593   2.729
 5347SOL    HW116940   0.863   2.526   2.739
 5347SOL    HW216941   0.828   2.686   2.733
 5348SOL     OW16942   0.085   1.922   0.890
 5348SOL    HW116943   7.012   1.898   0.875
 5348SOL    HW216944   0.142   1.841   0.876
 5349SOL     OW16945   1.268   2.634   0.208
 5349SOL    HW116946   1.349   2.682   0.242
 5349SOL    HW216947   1.296   2.558   0.149
 5350SOL     OW16948   1.497   0.552   5.388
 5350SOL    HW116949   1.422   0.495   5.354
 5350SOL    HW216950   1.475   0.648   5.374
 5351SOL     OW16951   6.210   5.757   1.769
 5351SOL    HW116952   6.206   5.674   1.825
 5351SOL    HW216953   6.275   5.744   1.695
 5352SOL     OW16954   1.864   5.785   3.545
 5352SOL    HW116955   1.890   5.794   3.641
 5352SOL    HW216956   1.919   5.848   3.490
 5353SOL     OW16957   3.810   5.288   3.827
 5353SOL    HW116958   3.774   5.285   3.920
 5353SOL    HW216959   3.737   5.314   3.763
 5354SOL     OW16960   2.272   5.241   1.618
 5354SOL    HW116961   2.248   5.331   1.583
 5354SOL    HW216962   2.311   5.250   1.710
 5355SOL     OW16963   5.193   3.160   3.764
 5355SOL    HW116964   5.263   3.110   3.713
 5355SOL    HW216965   5.194   3.256   3.736
 5356SOL     OW16966   6.151   4.548   1.519
 5356SOL    HW116967   6.201   4.469   1.483
 5356SOL    HW216968   6.055   4.543   1.489
 5357SOL     OW16969   3.960   6.438   0.132
 5357SOL    HW116970   3.954   6.340   0.149
 5357SOL    HW216971   4.042   6.475   0.175
 5358SOL     OW16972   4.800   1.246   0.123
 5358SOL    HW116973   4.804   1.306   0.043
 5358SOL    HW216974   4.739   1.284   0.191
 5359SOL     OW16975   1.867   1.696   6.968
 5359SOL    HW116976   1.862   1.747   0.031
 5359SOL    HW216977   1.792   1.726   6.908
 5360SOL     OW16978   4.609   6.552   5.627
 5360SOL    HW116979   4.520   6.571   5.669
 5360SOL    HW216980   4.634   6.457   5.646
 5361SOL     OW16981   1.993   0.282   5.017
 5361SOL    HW116982   2.009   0.346   5.092
 5361SOL    HW216983   2.037   0.316   4.934
 5362SOL     OW16984   5.830   5.212   3.445
 5362SOL    HW116985   5.922   5.242   3.466
 5362SOL    HW216986   5.793   5.266   3.369
 5363SOL     OW16987   0.539   0.073   6.505
 5363SOL    HW116988   0.604   0.027   6.444
 5363SOL    HW216989   0.471   0.006   6.537
 5364SOL     OW16990   6.867   5.667   1.862
 5364SOL    HW116991   6.846   5.664   1.959
 5364SOL    HW216992   6.782   5.682   1.810
 5365SOL     OW16993   3.620   3.134   6.953
 5365SOL    HW116994   3.532   3.166   6.919
 5365SOL    HW216995   3.680   3.113   6.876
 5366SOL     OW16996   4.972   6.033   1.598
 5366SOL    HW116997   4.975   6.104   1.527
 5366SOL    HW216998   5.006   6.071   1.684
 5367SOL     OW16999   0.647   5.641   0.756
 5367SOL    HW117000   0.552   5.650   0.786
 5367SOL    HW217001   0.686   5.732   0.738
 5368SOL     OW17002   5.457   0.174   2.514
 5368SOL    HW117003   5.538   0.120   2.493
 5368SOL    HW217004   5.483   0.254   2.567
 5369SOL     OW17005   3.322   0.055   2.194
 5369SOL    HW117006   3.278   6.991   2.169
 5369SOL    HW217007   3.417   0.038   2.221
 5370SOL     OW17008   4.480   2.794   1.289
 5370SOL    HW117009   4.451   2.759   1.378
 5370SOL    HW217010   4.558   2.855   1.300
 5371SOL     OW17011   1.714   4.073   4.393
 5371SOL    HW117012   1.709   4.142   4.321
 5371SOL    HW217013   1.808   4.062   4.423
 5372SOL     OW17014   2.164   6.028   3.787
 5372SOL    HW117015   2.177   5.934   3.754
 5372SOL    HW217016   2.157   6.028   3.886
 5373SOL     OW17017   3.623   6.007   3.943
 5373SOL    HW117018   3.719   6.028   3.960
 5373SOL    HW217019   3.600   6.030   3.848
 5374SOL     OW17020   0.941   4.240   0.280
 5374SOL    HW117021   0.926   4.290   0.365
 5374SOL    HW217022   0.888   4.284   0.207
 5375SOL     OW17023   1.653   4.832   4.466
 5375SOL    HW117024   1.705   4.794   4.542
 5375SOL    HW217025   1.715   4.852   4.390
 5376SOL     OW17026   2.015   3.181   0.508
 5376SOL    HW117027   2.038   3.171   0.605
 5376SOL    HW217028   2.074   3.250   0.466
 5377SOL     OW17029   0.390   0.430   2.006
 5377SOL    HW117030   0.457   0.504   1.997
 5377SOL    HW217031   0.425   0.360   2.068
 5378SOL     OW17032   0.089   0.396   2.245
 5378SOL    HW117033   0.175   0.345   2.233
 5378SOL    HW217034   0.063   0.393   2.341
 5379SOL     OW17035   1.829   5.608   5.060
 5379SOL    HW117036   1.809   5.520   5.102
 5379SOL    HW217037   1.813   5.603   4.961
 5380SOL     OW17038   1.842   1.846   3.772
 5380SOL    HW117039   1.900   1.837   3.691
 5380SOL    HW217040   1.747   1.830   3.747
 5381SOL     OW17041   6.426   3.871   0.757
 5381SOL    HW117042   6.376   3.955   0.735
 5381SOL    HW217043   6.361   3.796   0.767
 5382SOL     OW17044   3.063   0.257   2.608
 5382SOL    HW117045   3.126   0.323   2.649
 5382SOL    HW217046   3.075   0.258   2.509
 5383SOL     OW17047   2.537   2.428   5.444
 5383SOL    HW117048   2.508   2.417   5.349
 5383SOL    HW217049   2.562   2.339   5.481
 5384SOL     OW17050   5.778   0.261   4.192
 5384SOL    HW117051   5.684   0.293   4.199
 5384SOL    HW217052   5.835   0.307   4.261
 5385SOL     OW17053   3.186   3.013   4.124
 5385SOL    HW117054   3.146   3.017   4.216
 5385SOL    HW217055   3.144   3.082   4.066
 5386SOL     OW17056   4.692   0.124   4.649
 5386SOL    HW117057   4.785   0.101   4.681
 5386SOL    HW217058   4.637   0.154   4.727
 5387SOL     OW17059   3.188   6.486   3.731
 5387SOL    HW117060   3.106   6.472   3.675
 5387SOL    HW217061   3.262   6.523   3.674
 5388SOL     OW17062   6.275   0.221   3.633
 5388SOL    HW117063   6.217   0.263   3.703
 5388SOL    HW217064   6.217   0.180   3.562
 5389SOL     OW17065   4.770   0.815   1.871
 5389SOL    HW117066   4.774   0.731   1.816
 5389SOL    HW217067   4.698   0.807   1.939
 5390SOL     OW17068   4.746   4.110   3.224
 5390SOL    HW117069   4.798   4.132   3.141
 5390SOL    HW217070   4.652   4.143   3.214
 5391SOL     OW17071   1.742   2.346   1.385
 5391SOL    HW117072   1.690   2.266   1.414
 5391SOL    HW217073   1.688   2.400   1.321
 5392SOL     OW17074   5.775   3.138   0.889
 5392SOL    HW117075   5.766   3.230   0.852
 5392SOL    HW217076   5.848   3.137   0.958
 5393SOL     OW17077   5.410   0.118   6.641
 5393SOL    HW117078   5.406   0.169   6.555
 5393SOL    HW217079   5.480   0.047   6.635
 5394SOL     OW17080   6.903   4.210   6.966
 5394SOL    HW117081   6.964   4.168   0.011
 5394SOL    HW217082   6.919   4.309   6.965
 5395SOL     OW17083   4.937   1.106   1.888
 5395SOL    HW117084   4.913   1.125   1.983
 5395SOL    HW217085   4.858   1.066   1.841
 5396SOL     OW17086   5.011   4.361   2.807
 5396SOL    HW117087   5.087   4.313   2.763
 5396SOL    HW217088   4.975   4.431   2.746
 5397SOL     OW17089   0.044   3.033   1.929
 5397SOL    HW117090   0.104   3.007   2.005
 5397SOL    HW217091   0.095   3.031   1.843
 5398SOL     OW17092   3.385   1.803   2.591
 5398SOL    HW117093   3.397   1.892   2.547
 5398SOL    HW217094   3.354   1.816   2.686
 5399SOL     OW17095   2.527   5.529   6.858
 5399SOL    HW117096   2.550   5.494   6.768
 5399SOL    HW217097   2.510   5.453   6.921
 5400SOL     OW17098   2.654   3.863   0.775
 5400SOL    HW117099   2.595   3.815   0.840
 5400SOL    HW217100   2.624   3.843   0.682
 5401SOL     OW17101   5.598   3.583   1.945
 5401SOL    HW117102   5.533   3.637   1.998
 5401SOL    HW217103   5.648   3.522   2.006
 5402SOL     OW17104   2.018   4.398   1.875
 5402SOL    HW117105   2.064   4.334   1.936
 5402SOL    HW217106   2.006   4.485   1.922
 5403SOL     OW17107   6.376   2.479   6.478
 5403SOL    HW117108   6.341   2.387   6.494
 5403SOL    HW217109   6.362   2.504   6.382
 5404SOL     OW17110   0.819   1.352   2.779
 5404SOL    HW117111   0.856   1.435   2.738
 5404SOL    HW217112   0.771   1.376   2.864
 5405SOL     OW17113   5.845   6.095   6.744
 5405SOL    HW117114   5.839   6.116   6.647
 5405SOL    HW217115   5.810   6.003   6.761
 5406SOL     OW17116   2.507   0.611   6.935
 5406SOL    HW117117   2.548   0.527   6.899
 5406SOL    HW217118   2.512   0.610   0.012
 5407SOL     OW17119   4.070   2.963   1.060
 5407SOL    HW117120   4.111   2.875   1.084
 5407SOL    HW217121   4.133   3.037   1.081
 5408SOL     OW17122   3.186   1.077   6.448
 5408SOL    HW117123   3.159   1.173   6.442
 5408SOL    HW217124   3.113   1.020   6.409
 5409SOL     OW17125   5.970   0.971   4.123
 5409SOL    HW117126   5.912   1.040   4.168
 5409SOL    HW217127   5.912   0.897   4.089
 5410SOL     OW17128   2.340   2.465   1.390
 5410SOL    HW117129   2.435   2.448   1.415
 5410SOL    HW217130   2.279   2.424   1.458
 5411SOL     OW17131   6.226   5.374   5.863
 5411SOL    HW117132   6.309   5.318   5.861
 5411SOL    HW217133   6.174   5.359   5.780
 5412SOL     OW17134   3.851   1.112   6.691
 5412SOL    HW117135   3.786   1.078   6.759
 5412SOL    HW217136   3.819   1.088   6.599
 5413SOL     OW17137   1.991   1.347   1.294
 5413SOL    HW117138   1.998   1.340   1.394
 5413SOL    HW217139   2.021   1.438   1.265
 5414SOL     OW17140   5.452   2.518   5.041
 5414SOL    HW117141   5.419   2.597   5.094
 5414SOL    HW217142   5.374   2.459   5.019
 5415SOL     OW17143   1.515   5.872   1.107
 5415SOL    HW117144   1.615   5.867   1.111
 5415SOL    HW217145   1.477   5.809   1.176
 5416SOL     OW17146   4.747   4.907   6.065
 5416SOL    HW117147   4.758   4.929   6.162
 5416SOL    HW217148   4.717   4.813   6.056
 5417SOL     OW17149   4.175   6.718   5.316
 5417SOL    HW117150   4.182   6.670   5.229
 5417SOL    HW217151   4.160   6.652   5.390
 5418SOL     OW17152   3.822   6.665   4.071
 5418SOL    HW117153   3.814   6.566   4.060
 5418SOL    HW217154   3.771   6.711   3.999
 5419SOL     OW17155   2.912   5.223   0.318
 5419SOL    HW117156   2.957   5.136   0.341
 5419SOL    HW217157   2.855   5.210   0.237
 5420SOL     OW17158   1.130   2.322   2.275
 5420SOL    HW117159   1.117   2.226   2.250
 5420SOL    HW217160   1.205   2.361   2.222
 5421SOL     OW17161   2.179   3.122   2.954
 5421SOL    HW117162   2.189   3.175   3.039
 5421SOL    HW217163   2.113   3.048   2.969
 5422SOL     OW17164   0.945   5.606   0.143
 5422SOL    HW117165   0.974   5.660   0.064
 5422SOL    HW217166   0.849   5.581   0.133
 5423SOL     OW17167   5.976   2.588   0.148
 5423SOL    HW117168   6.003   2.505   0.100
 5423SOL    HW217169   5.946   2.565   0.240
 5424SOL     OW17170   5.075   2.939   4.240
 5424SOL    HW117171   5.150   2.902   4.184
 5424SOL    HW217172   5.006   2.868   4.253
 5425SOL     OW17173   4.110   1.466   4.097
 5425SOL    HW117174   4.205   1.494   4.109
 5425SOL    HW217175   4.100   1.369   4.122
 5426SOL     OW17176   6.142   5.277   4.136
 5426SOL    HW117177   6.071   5.316   4.194
 5426SOL    HW217178   6.153   5.180   4.158
 5427SOL     OW17179   4.676   4.890   0.489
 5427SOL    HW117180   4.643   4.802   0.456
 5427SOL    HW217181   4.776   4.894   0.481
 5428SOL     OW17182   0.234   0.272   1.852
 5428SOL    HW117183   0.212   0.320   1.768
 5428SOL    HW217184   0.272   0.336   1.919
 5429SOL     OW17185   1.394   1.984   6.231
 5429SOL    HW117186   1.356   1.974   6.323
 5429SOL    HW217187   1.434   1.897   6.201
 5430SOL     OW17188   0.541   3.483   6.041
 5430SOL    HW117189   0.619   3.545   6.050
 5430SOL    HW217190   0.529   3.458   5.945
 5431SOL     OW17191   3.641   5.530   0.460
 5431SOL    HW117192   3.644   5.609   0.399
 5431SOL    HW217193   3.577   5.462   0.423
 5432SOL     OW17194   4.945   6.380   6.603
 5432SOL    HW117195   4.870   6.384   6.537
 5432SOL    HW217196   4.916   6.420   6.689
 5433SOL     OW17197   0.477   1.713   3.835
 5433SOL    HW117198   0.478   1.631   3.778
 5433SOL    HW217199   0.528   1.696   3.920
 5434SOL     OW17200   3.944   1.151   4.786
 5434SOL    HW117201   4.006   1.122   4.858
 5434SOL    HW217202   3.850   1.131   4.813
 5435SOL     OW17203   5.068   0.823   1.829
 5435SOL    HW117204   5.055   0.727   1.807
 5435SOL    HW217205   4.985   0.860   1.871
 5436SOL     OW17206   5.184   3.771   3.678
 5436SOL    HW117207   5.128   3.689   3.671
 5436SOL    HW217208   5.278   3.749   3.650
 5437SOL     OW17209   3.156   4.768   6.268
 5437SOL    HW117210   3.162   4.674   6.301
 5437SOL    HW217211   3.211   4.827   6.326
 5438SOL     OW17212   6.572   3.823   2.474
 5438SOL    HW117213   6.559   3.729   2.506
 5438SOL    HW217214   6.545   3.887   2.545
 5439SOL     OW17215   1.223   2.796   1.251
 5439SOL    HW117216   1.281   2.813   1.331
 5439SOL    HW217217   1.177   2.881   1.225
 5440SOL     OW17218   0.613   1.442   2.071
 5440SOL    HW117219   0.702   1.428   2.114
 5440SOL    HW217220   0.591   1.364   2.013
 5441SOL     OW17221   4.950   2.307   2.805
 5441SOL    HW117222   4.907   2.300   2.715
 5441SOL    HW217223   5.049   2.311   2.795
 5442SOL     OW17224   3.600   5.912   3.654
 5442SOL    HW117225   3.506   5.878   3.651
 5442SOL    HW217226   3.614   5.978   3.580
 5443SOL     OW17227   2.491   0.715   3.919
 5443SOL    HW117228   2.404   0.669   3.938
 5443SOL    HW217229   2.477   0.786   3.849
 5444SOL     OW17230   1.602   0.573   4.346
 5444SOL    HW117231   1.543   0.493   4.343
 5444SOL    HW217232   1.658   0.570   4.429
 5445SOL     OW17233   5.813   3.740   3.680
 5445SOL    HW117234   5.867   3.780   3.755
 5445SOL    HW217235   5.872   3.685   3.622
 5446SOL     OW17236   6.419   5.156   5.317
 5446SOL    HW117237   6.477   5.194   5.388
 5446SOL    HW217238   6.445   5.061   5.300
 5447SOL     OW17239   2.215   1.823   6.448
 5447SOL    HW117240   2.190   1.793   6.540
 5447SOL    HW217241   2.301   1.779   6.422
 5448SOL     OW17242   4.764   2.816   4.657
 5448SOL    HW117243   4.688   2.821   4.592
 5448SOL    HW217244   4.834   2.753   4.622
 5449SOL     OW17245   1.790   2.295   6.729
 5449SOL    HW117246   1.838   2.381   6.744
 5449SOL    HW217247   1.740   2.300   6.642
 5450SOL     OW17248   1.463   0.616   2.051
 5450SOL    HW117249   1.443   0.579   2.142
 5450SOL    HW217250   1.471   0.541   1.986
 5451SOL     OW17251   0.953   6.259   3.138
 5451SOL    HW117252   1.011   6.221   3.211
 5451SOL    HW217253   1.010   6.312   3.075
 5452SOL     OW17254   2.530   4.392   6.699
 5452SOL    HW117255   2.564   4.458   6.631
 5452SOL    HW217256   2.461   4.334   6.657
 5453SOL     OW17257   5.577   4.636   1.600
 5453SOL    HW117258   5.515   4.670   1.528
 5453SOL    HW217259   5.620   4.714   1.645
 5454SOL     OW17260   6.860   3.880   6.521
 5454SOL    HW117261   6.892   3.879   6.616
 5454SOL    HW217262   6.916   3.817   6.466
 5455SOL     OW17263   6.156   3.075   0.655
 5455SOL    HW117264   6.148   3.174   0.646
 5455SOL    HW217265   6.235   3.053   0.712
 5456SOL     OW17266   3.085   0.459   6.680
 5456SOL    HW117267   3.082   0.558   6.666
 5456SOL    HW217268   3.132   0.438   6.766
 5457SOL     OW17269   6.438   2.426   6.946
 5457SOL    HW117270   6.487   2.426   6.859
 5457SOL    HW217271   6.364   2.493   6.943
 5458SOL     OW17272   0.491   4.316   0.185
 5458SOL    HW117273   0.421   4.246   0.173
 5458SOL    HW217274   0.456   4.404   0.153
 5459SOL     OW17275   2.433   3.919   6.471
 5459SOL    HW117276   2.521   3.873   6.480
 5459SOL    HW217277   2.405   3.919   6.375
 5460SOL     OW17278   3.569   0.423   3.265
 5460SOL    HW117279   3.501   0.370   3.316
 5460SOL    HW217280   3.528   0.458   3.181
 5461SOL     OW17281   5.969   0.022   5.345
 5461SOL    HW117282   5.881   0.031   5.299
 5461SOL    HW217283   6.029   0.098   5.319
 5462SOL     OW17284   0.984   0.069   6.705
 5462SOL    HW117285   0.955   0.090   6.611
 5462SOL    HW217286   1.045   0.141   6.738
 5463SOL     OW17287   6.680   2.248   0.400
 5463SOL    HW117288   6.622   2.310   0.345
 5463SOL    HW217289   6.628   2.215   0.478
 5464SOL     OW17290   1.022   1.295   3.801
 5464SOL    HW117291   1.111   1.339   3.795
 5464SOL    HW217292   0.997   1.282   3.897
 5465SOL     OW17293   3.833   6.033   3.287
 5465SOL    HW117294   3.848   6.039   3.188
 5465SOL    HW217295   3.864   5.944   3.320
 5466SOL     OW17296   5.366   3.810   5.391
 5466SOL    HW117297   5.419   3.837   5.311
 5466SOL    HW217298   5.387   3.871   5.467
 5467SOL     OW17299   5.162   2.531   3.090
 5467SOL    HW117300   5.186   2.575   3.177
 5467SOL    HW217301   5.062   2.531   3.079
 5468SOL     OW17302   5.691   2.171   4.976
 5468SOL    HW117303   5.706   2.142   4.882
 5468SOL    HW217304   5.778   2.194   5.018
 5469SOL     OW17305   3.927   5.571   6.426
 5469SOL    HW117306   3.935   5.608   6.519
 5469SOL    HW217307   3.896   5.476   6.431
 5470SOL     OW17308   3.453   6.096   2.663
 5470SOL    HW117309   3.419   6.182   2.626
 5470SOL    HW217310   3.396   6.021   2.629
 5471SOL     OW17311   4.931   7.020   2.627
 5471SOL    HW117312   5.019   0.046   2.631
 5471SOL    HW217313   4.948   6.922   2.616
 5472SOL     OW17314   4.047   3.867   5.770
 5472SOL    HW117315   3.947   3.876   5.779
 5472SOL    HW217316   4.090   3.882   5.859
 5473SOL     OW17317   0.244   3.422   3.115
 5473SOL    HW117318   0.319   3.360   3.134
 5473SOL    HW217319   0.163   3.370   3.088
 5474SOL     OW17320   1.833   4.501   4.381
 5474SOL    HW117321   1.866   4.557   4.306
 5474SOL    HW217322   1.746   4.458   4.355
 5475SOL     OW17323   2.341   2.741   1.401
 5475SOL    HW117324   2.375   2.769   1.491
 5475SOL    HW217325   2.331   2.642   1.398
 5476SOL     OW17326   1.783   4.366   5.644
 5476SOL    HW117327   1.846   4.375   5.721
 5476SOL    HW217328   1.793   4.444   5.582
 5477SOL     OW17329   2.206   4.617   3.498
 5477SOL    HW117330   2.258   4.540   3.460
 5477SOL    HW217331   2.113   4.586   3.520
 5478SOL     OW17332   4.049   5.449   4.908
 5478SOL    HW117333   4.039   5.548   4.917
 5478SOL    HW217334   4.116   5.428   4.837
 5479SOL     OW17335   5.050   1.114   6.065
 5479SOL    HW117336   5.113   1.181   6.104
 5479SOL    HW217337   4.956   1.147   6.075
 5480SOL     OW17338   6.875   4.185   3.300
 5480SOL    HW117339   6.944   4.114   3.284
 5480SOL    HW217340   6.886   4.258   3.232
 5481SOL     OW17341   4.222   1.521   4.490
 5481SOL    HW117342   4.212   1.621   4.486
 5481SOL    HW217343   4.271   1.496   4.573
 5482SOL     OW17344   3.597   4.837   1.259
 5482SOL    HW117345   3.537   4.856   1.181
 5482SOL    HW217346   3.545   4.844   1.343
 5483SOL     OW17347   7.010   2.000   5.663
 5483SOL    HW117348   0.083   2.028   5.653
 5483SOL    HW217349   6.973   1.974   5.573
 5484SOL     OW17350   4.168   1.238   4.642
 5484SOL    HW117351   4.081   1.214   4.686
 5484SOL    HW217352   4.217   1.302   4.700
 5485SOL     OW17353   4.258   0.362   5.651
 5485SOL    HW117354   4.279   0.452   5.613
 5485SOL    HW217355   4.232   0.372   5.747
 5486SOL     OW17356   2.933   5.568   5.546
 5486SOL    HW117357   2.981   5.578   5.459
 5486SOL    HW217358   2.835   5.586   5.533
 5487SOL     OW17359   4.044   3.404   6.679
 5487SOL    HW117360   3.989   3.388   6.762
 5487SOL    HW217361   4.114   3.473   6.699
 5488SOL     OW17362   6.266   0.785   1.469
 5488SOL    HW117363   6.356   0.788   1.426
 5488SOL    HW217364   6.225   0.696   1.452
 5489SOL     OW17365   0.034   3.756   1.550
 5489SOL    HW117366   0.076   3.667   1.571
 5489SOL    HW217367   0.105   3.826   1.546
 5490SOL     OW17368   2.393   0.148   2.272
 5490SOL    HW117369   2.493   0.140   2.275
 5490SOL    HW217370   2.367   0.200   2.191
 5491SOL     OW17371   0.664   2.824   0.201
 5491SOL    HW117372   0.569   2.792   0.196
 5491SOL    HW217373   0.722   2.751   0.237
 5492SOL     OW17374   0.611   2.927   6.178
 5492SOL    HW117375   0.531   2.928   6.238
 5492SOL    HW217376   0.673   3.000   6.205
 5493SOL     OW17377   4.137   3.499   3.063
 5493SOL    HW117378   4.147   3.509   2.964
 5493SOL    HW217379   4.091   3.580   3.100
 5494SOL     OW17380   6.825   3.811   5.281
 5494SOL    HW117381   6.874   3.898   5.267
 5494SOL    HW217382   6.870   3.739   5.228
 5495SOL     OW17383   5.731   0.655   1.244
 5495SOL    HW117384   5.693   0.607   1.165
 5495SOL    HW217385   5.815   0.701   1.218
 5496SOL     OW17386   4.556   1.163   3.771
 5496SOL    HW117387   4.530   1.113   3.689
 5496SOL    HW217388   4.649   1.135   3.799
 5497SOL     OW17389   0.691   1.411   5.554
 5497SOL    HW117390   0.682   1.507   5.528
 5497SOL    HW217391   0.657   1.353   5.480
 5498SOL     OW17392   6.807   4.997   2.210
 5498SOL    HW117393   6.776   4.975   2.302
 5498SOL    HW217394   6.749   4.950   2.143
 5499SOL     OW17395   0.936   0.304   3.785
 5499SOL    HW117396   0.903   0.227   3.839
 5499SOL    HW217397   0.860   0.348   3.738
 5500SOL     OW17398   1.080   0.760   6.968
 5500SOL    HW117399   1.015   0.687   6.947
 5500SOL    HW217400   1.134   0.782   6.886
 5501SOL     OW17401   3.945   1.766   0.771
 5501SOL    HW117402   3.963   1.861   0.743
 5501SOL    HW217403   4.001   1.743   0.850
 5502SOL     OW17404   5.771   3.377   6.451
 5502SOL    HW117405   5.818   3.290   6.440
 5502SOL    HW217406   5.692   3.380   6.389
 5503SOL     OW17407   0.400   4.382   1.003
 5503SOL    HW117408   0.415   4.352   0.909
 5503SOL    HW217409   0.302   4.400   1.017
 5504SOL     OW17410   4.757   1.231   5.274
 5504SOL    HW117411   4.781   1.283   5.192
 5504SOL    HW217412   4.823   1.157   5.287
 5505SOL     OW17413   2.186   4.948   3.257
 5505SOL    HW117414   2.242   5.024   3.290
 5505SOL    HW217415   2.106   4.938   3.315
 5506SOL     OW17416   0.203   3.411   0.151
 5506SOL    HW117417   0.117   3.448   0.188
 5506SOL    HW217418   0.191   3.314   0.131
 5507SOL     OW17419   3.411   0.872   4.805
 5507SOL    HW117420   3.471   0.933   4.856
 5507SOL    HW217421   3.390   0.912   4.716
 5508SOL     OW17422   1.200   0.633   0.481
 5508SOL    HW117423   1.247   0.544   0.475
 5508SOL    HW217424   1.247   0.691   0.546
 5509SOL     OW17425   0.581   5.799   0.196
 5509SOL    HW117426   0.610   5.705   0.182
 5509SOL    HW217427   0.496   5.800   0.249
 5510SOL     OW17428   4.588   5.089   6.627
 5510SOL    HW117429   4.525   5.148   6.678
 5510SOL    HW217430   4.678   5.090   6.672
 5511SOL     OW17431   1.271   1.048   5.346
 5511SOL    HW117432   1.286   1.032   5.248
 5511SOL    HW217433   1.315   0.975   5.398
 5512SOL     OW17434   3.389   1.351   0.571
 5512SOL    HW117435   3.454   1.426   0.555
 5512SOL    HW217436   3.321   1.380   0.639
 5513SOL     OW17437   3.258   5.311   5.731
 5513SOL    HW117438   3.277   5.224   5.776
 5513SOL    HW217439   3.177   5.302   5.672
 5514SOL     OW17440   3.218   0.495   5.134
 5514SOL    HW117441   3.298   0.546   5.102
 5514SOL    HW217442   3.248   0.407   5.172
 5515SOL     OW17443   1.884   5.772   2.002
 5515SOL    HW117444   1.801   5.752   2.053
 5515SOL    HW217445   1.862   5.828   1.922
 5516SOL     OW17446   2.204   2.818   4.943
 5516SOL    HW117447   2.253   2.890   4.993
 5516SOL    HW217448   2.235   2.818   4.848
 5517SOL     OW17449   2.168   3.710   1.822
 5517SOL    HW117450   2.154   3.782   1.890
 5517SOL    HW217451   2.193   3.625   1.868
 5518SOL     OW17452   6.410   4.705   5.920
 5518SOL    HW117453   6.383   4.798   5.896
 5518SOL    HW217454   6.495   4.681   5.873
 5519SOL     OW17455   5.703   2.919   3.503
 5519SOL    HW117456   5.696   2.996   3.440
 5519SOL    HW217457   5.633   2.852   3.480
 5520SOL     OW17458   5.501   6.494   2.336
 5520SOL    HW117459   5.406   6.499   2.307
 5520SOL    HW217460   5.552   6.571   2.296
 5521SOL     OW17461   5.912   5.747   1.735
 5521SOL    HW117462   5.885   5.660   1.695
 5521SOL    HW217463   6.010   5.748   1.751
 5522SOL     OW17464   6.290   5.441   1.605
 5522SOL    HW117465   6.363   5.373   1.599
 5522SOL    HW217466   6.281   5.488   1.517
 5523SOL     OW17467   5.065   0.987   2.270
 5523SOL    HW117468   5.075   0.891   2.297
 5523SOL    HW217469   5.147   1.037   2.294
 5524SOL     OW17470   3.193   0.111   4.653
 5524SOL    HW117471   3.123   0.114   4.582
 5524SOL    HW217472   3.239   0.200   4.659
 5525SOL     OW17473   0.800   2.590   0.339
 5525SOL    HW117474   0.822   2.496   0.313
 5525SOL    HW217475   0.785   2.595   0.438
 5526SOL     OW17476   4.631   4.354   3.027
 5526SOL    HW117477   4.698   4.281   3.016
 5526SOL    HW217478   4.643   4.422   2.955
 5527SOL     OW17479   4.888   4.181   2.996
 5527SOL    HW117480   4.899   4.174   2.897
 5527SOL    HW217481   4.978   4.180   3.040
 5528SOL     OW17482   1.890   1.005   1.178
 5528SOL    HW117483   1.895   1.010   1.278
 5528SOL    HW217484   1.880   1.098   1.141
 5529SOL     OW17485   2.890   6.833   4.005
 5529SOL    HW117486   2.985   6.808   3.990
 5529SOL    HW217487   2.839   6.755   4.040
 5530SOL     OW17488   6.251   2.269   1.529
 5530SOL    HW117489   6.190   2.199   1.566
 5530SOL    HW217490   6.327   2.224   1.481
 5531SOL     OW17491   3.775   3.587   1.602
 5531SOL    HW117492   3.710   3.516   1.627
 5531SOL    HW217493   3.842   3.599   1.675
 5532SOL     OW17494   1.981   3.091   0.771
 5532SOL    HW117495   1.992   3.037   0.854
 5532SOL    HW217496   1.949   3.032   0.697
 5533SOL     OW17497   4.912   1.610   3.701
 5533SOL    HW117498   4.853   1.670   3.756
 5533SOL    HW217499   4.859   1.533   3.666
 5534SOL     OW17500   1.204   0.717   6.532
 5534SOL    HW117501   1.222   0.775   6.612
 5534SOL    HW217502   1.198   0.774   6.450
 5535SOL     OW17503   1.092   1.325   2.482
 5535SOL    HW117504   1.072   1.349   2.577
 5535SOL    HW217505   1.119   1.229   2.477
 5536SOL     OW17506   3.831   0.641   4.309
 5536SOL    HW117507   3.828   0.658   4.408
 5536SOL    HW217508   3.893   0.564   4.291
 5537SOL     OW17509   3.796   1.537   2.609
 5537SOL    HW117510   3.894   1.515   2.608
 5537SOL    HW217511   3.757   1.519   2.518
 5538SOL     OW17512   3.882   6.403   4.741
 5538SOL    HW117513   3.848   6.373   4.830
 5538SOL    HW217514   3.811   6.389   4.672
 5539SOL     OW17515   1.858   3.586   1.517
 5539SOL    HW117516   1.860   3.500   1.568
 5539SOL    HW217517   1.806   3.573   1.432
 5540SOL     OW17518   4.619   4.895   3.509
 5540SOL    HW117519   4.681   4.966   3.544
 5540SOL    HW217520   4.672   4.812   3.488
 5541SOL     OW17521   4.913   0.584   6.457
 5541SOL    HW117522   4.957   0.631   6.381
 5541SOL    HW217523   4.903   0.648   6.534
 5542SOL     OW17524   4.237   3.225   6.101
 5542SOL    HW117525   4.231   3.215   6.002
 5542SOL    HW217526   4.289   3.307   6.124
 5543SOL     OW17527   5.779   3.773   6.861
 5543SOL    HW117528   5.697   3.827   6.873
 5543SOL    HW217529   5.756   3.675   6.863
 5544SOL     OW17530   5.318   0.304   6.381
 5544SOL    HW117531   5.326   0.401   6.358
 5544SOL    HW217532   5.396   0.254   6.344
 5545SOL     OW17533   4.053   1.930   3.203
 5545SOL    HW117534   4.096   2.021   3.209
 5545SOL    HW217535   4.109   1.864   3.252
 5546SOL     OW17536   1.103   5.566   5.732
 5546SOL    HW117537   1.012   5.539   5.765
 5546SOL    HW217538   1.141   5.493   5.676
 5547SOL     OW17539   3.092   5.883   4.841
 5547SOL    HW117540   3.187   5.896   4.814
 5547SOL    HW217541   3.042   5.837   4.767
 5548SOL     OW17542   6.301   3.549   5.864
 5548SOL    HW117543   6.350   3.478   5.914
 5548SOL    HW217544   6.294   3.631   5.920
 5549SOL     OW17545   3.425   4.785   0.050
 5549SOL    HW117546   3.391   4.874   0.080
 5549SOL    HW217547   3.458   4.792   6.978
 5550SOL     OW17548   2.449   5.631   1.924
 5550SOL    HW117549   2.471   5.728   1.940
 5550SOL    HW217550   2.428   5.587   2.011
 5551SOL     OW17551   1.485   0.603   3.073
 5551SOL    HW117552   1.502   0.693   3.032
 5551SOL    HW217553   1.388   0.596   3.097
 5552SOL     OW17554   6.886   1.733   0.553
 5552SOL    HW117555   6.877   1.796   0.630
 5552SOL    HW217556   6.937   1.777   0.479
 5553SOL     OW17557   4.329   6.902   6.980
 5553SOL    HW117558   4.278   6.816   6.977
 5553SOL    HW217559   4.407   6.893   0.019
 5554SOL     OW17560   3.162   2.454   5.431
 5554SOL    HW117561   3.064   2.455   5.454
 5554SOL    HW217562   3.173   2.428   5.335
 5555SOL     OW17563   0.547   5.483   2.974
 5555SOL    HW117564   0.566   5.540   3.054
 5555SOL    HW217565   0.448   5.473   2.963
 5556SOL     OW17566   1.032   2.269   4.748
 5556SOL    HW117567   1.041   2.365   4.774
 5556SOL    HW217568   1.116   2.220   4.771
 5557SOL     OW17569   2.617   6.017   3.593
 5557SOL    HW117570   2.531   6.065   3.611
 5557SOL    HW217571   2.675   6.073   3.534
 5558SOL     OW17572   5.241   3.086   5.202
 5558SOL    HW117573   5.211   3.180   5.186
 5558SOL    HW217574   5.341   3.082   5.197
 5559SOL     OW17575   2.277   0.301   1.030
 5559SOL    HW117576   2.358   0.257   1.069
 5559SOL    HW217577   2.207   0.232   1.013
 5560SOL     OW17578   0.447   0.899   3.069
 5560SOL    HW117579   0.398   0.812   3.069
 5560SOL    HW217580   0.385   0.971   3.039
 5561SOL     OW17581   1.408   3.163   4.074
 5561SOL    HW117582   1.366   3.250   4.098
 5561SOL    HW217583   1.474   3.137   4.144
 5562SOL     OW17584   1.803   2.525   6.041
 5562SOL    HW117585   1.787   2.434   6.078
 5562SOL    HW217586   1.870   2.520   5.967
 5563SOL     OW17587   4.497   6.197   2.289
 5563SOL    HW117588   4.453   6.273   2.338
 5563SOL    HW217589   4.436   6.166   2.216
 5564SOL     OW17590   5.045   4.055   1.824
 5564SOL    HW117591   5.018   4.069   1.728
 5564SOL    HW217592   4.963   4.043   1.880
 5565SOL     OW17593   4.660   2.187   5.614
 5565SOL    HW117594   4.697   2.208   5.524
 5565SOL    HW217595   4.567   2.223   5.621
 5566SOL     OW17596   1.851   5.621   0.838
 5566SOL    HW117597   1.909   5.540   0.826
 5566SOL    HW217598   1.900   5.688   0.893
 5567SOL     OW17599   1.981   5.675   1.219
 5567SOL    HW117600   2.057   5.611   1.215
 5567SOL    HW217601   1.895   5.625   1.229
 5568SOL     OW17602   4.537   1.536   0.719
 5568SOL    HW117603   4.584   1.536   0.807
 5568SOL    HW217604   4.448   1.581   0.729
 5569SOL     OW17605   4.085   1.774   1.539
 5569SOL    HW117606   4.140   1.858   1.532
 5569SOL    HW217607   4.134   1.699   1.496
 5570SOL     OW17608   6.386   4.538   5.481
 5570SOL    HW117609   6.421   4.456   5.436
 5570SOL    HW217610   6.366   4.518   5.577
 5571SOL     OW17611   0.222   5.773   0.598
 5571SOL    HW117612   0.287   5.720   0.543
 5571SOL    HW217613   0.237   5.871   0.583
 5572SOL     OW17614   4.436   2.375   6.059
 5572SOL    HW117615   4.371   2.317   6.107
 5572SOL    HW217616   4.528   2.335   6.067
 5573SOL     OW17617   1.284   4.004   0.493
 5573SOL    HW117618   1.230   4.008   0.577
 5573SOL    HW217619   1.295   4.097   0.456
 5574SOL     OW17620   0.414   6.584   4.853
 5574SOL    HW117621   0.385   6.680   4.859
 5574SOL    HW217622   0.477   6.564   4.928
 5575SOL     OW17623   1.700   1.042   0.867
 5575SOL    HW117624   1.685   1.121   0.809
 5575SOL    HW217625   1.629   1.038   0.938
 5576SOL     OW17626   5.895   5.629   0.629
 5576SOL    HW117627   5.840   5.559   0.582
 5576SOL    HW217628   5.851   5.651   0.717
 5577SOL     OW17629   2.374   3.494   5.461
 5577SOL    HW117630   2.309   3.570   5.461
 5577SOL    HW217631   2.357   3.436   5.380
 5578SOL     OW17632   4.548   2.839   0.138
 5578SOL    HW117633   4.596   2.844   0.051
 5578SOL    HW217634   4.601   2.783   0.202
 5579SOL     OW17635   5.322   3.710   7.011
 5579SOL    HW117636   5.303   3.781   6.943
 5579SOL    HW217637   5.251   3.640   7.006
 5580SOL     OW17638   5.080   1.023   0.766
 5580SOL    HW117639   5.111   1.030   0.861
 5580SOL    HW217640   4.980   1.016   0.764
 5581SOL     OW17641   1.728   0.514   6.460
 5581SOL    HW117642   1.804   0.552   6.514
 5581SOL    HW217643   1.643   0.558   6.487
 5582SOL     OW17644   3.763   3.306   4.150
 5582SOL    HW117645   3.762   3.370   4.227
 5582SOL    HW217646   3.756   3.358   4.064
 5583SOL     OW17647   3.491   6.868   1.970
 5583SOL    HW117648   3.542   6.919   1.901
 5583SOL    HW217649   3.408   6.830   1.930
 5584SOL     OW17650   6.294   4.164   2.906
 5584SOL    HW117651   6.236   4.243   2.927
 5584SOL    HW217652   6.374   4.194   2.854
 5585SOL     OW17653   6.593   0.503   3.752
 5585SOL    HW117654   6.565   0.454   3.834
 5585SOL    HW217655   6.691   0.519   3.754
 5586SOL     OW17656   2.556   1.666   5.871
 5586SOL    HW117657   2.579   1.721   5.791
 5586SOL    HW217658   2.549   1.725   5.952
 5587SOL     OW17659   4.175   0.531   3.721
 5587SOL    HW117660   4.247   0.572   3.665
 5587SOL    HW217661   4.088   0.536   3.671
 5588SOL     OW17662   2.284   0.019   5.340
 5588SOL    HW117663   2.254   0.066   5.257
 5588SOL    HW217664   2.204   7.005   5.388
 5589SOL     OW17665   4.952   2.665   6.094
 5589SOL    HW117666   5.037   2.694   6.138
 5589SOL    HW217667   4.932   2.571   6.120
 5590SOL     OW17668   6.870   6.096   4.370
 5590SOL    HW117669   6.947   6.160   4.372
 5590SOL    HW217670   6.785   6.146   4.354
 5591SOL     OW17671   5.838   0.660   6.935
 5591SOL    HW117672   5.927   0.615   6.941
 5591SOL    HW217673   5.797   0.641   6.846
 5592SOL     OW17674   1.413   4.028   2.838
 5592SOL    HW117675   1.408   4.125   2.813
 5592SOL    HW217676   1.381   4.016   2.932
 5593SOL     OW17677   1.080   2.694   5.961
 5593SOL    HW117678   0.983   2.685   5.938
 5593SOL    HW217679   1.135   2.691   5.877
 5594SOL     OW17680   2.129   0.128   0.366
 5594SOL    HW117681   2.160   0.034   0.356
 5594SOL    HW217682   2.169   0.185   0.295
 5595SOL     OW17683   6.773   1.411   6.019
 5595SOL    HW117684   6.839   1.361   5.964
 5595SOL    HW217685   6.760   1.502   5.980
 5596SOL     OW17686   4.978   0.734   2.370
 5596SOL    HW117687   5.015   0.642   2.356
 5596SOL    HW217688   4.903   0.750   2.307
 5597SOL     OW17689   6.195   1.095   6.253
 5597SOL    HW117690   6.219   1.013   6.305
 5597SOL    HW217691   6.262   1.109   6.180
 5598SOL     OW17692   5.832   1.964   3.749
 5598SOL    HW117693   5.828   1.865   3.754
 5598SOL    HW217694   5.764   1.998   3.684
 5599SOL     OW17695   4.894   4.066   2.206
 5599SOL    HW117696   4.986   4.071   2.167
 5599SOL    HW217697   4.827   4.084   2.134
 5600SOL     OW17698   2.150   0.893   3.104
 5600SOL    HW117699   2.179   0.884   3.008
 5600SOL    HW217700   2.131   0.803   3.142
 5601SOL     OW17701   5.287   3.428   5.704
 5601SOL    HW117702   5.191   3.455   5.693
 5601SOL    HW217703   5.346   3.500   5.668
 5602SOL     OW17704   0.326   2.367   3.493
 5602SOL    HW117705   0.352   2.447   3.440
 5602SOL    HW217706   0.397   2.297   3.485
 5603SOL     OW17707   4.344   2.374   4.795
 5603SOL    HW117708   4.317   2.421   4.879
 5603SOL    HW217709   4.294   2.288   4.788
 5604SOL     OW17710   0.843   0.043   3.841
 5604SOL    HW117711   0.861   7.021   3.928
 5604SOL    HW217712   0.746   0.034   3.817
 5605SOL     OW17713   2.176   6.287   4.442
 5605SOL    HW117714   2.210   6.381   4.444
 5605SOL    HW217715   2.101   6.280   4.376
 5606SOL     OW17716   4.743   2.286   0.787
 5606SOL    HW117717   4.685   2.216   0.829
 5606SOL    HW217718   4.839   2.264   0.804
 5607SOL     OW17719   6.141   2.896   2.309
 5607SOL    HW117720   6.117   2.839   2.230
 5607SOL    HW217721   6.095   2.861   2.390
 5608SOL     OW17722   5.392   1.190   4.000
 5608SOL    HW117723   5.303   1.236   4.001
 5608SOL    HW217724   5.411   1.157   3.908
 5609SOL     OW17725   6.403   6.692   1.288
 5609SOL    HW117726   6.463   6.716   1.364
 5609SOL    HW217727   6.337   6.766   1.273
 5610SOL     OW17728   5.283   4.545   6.900
 5610SOL    HW117729   5.281   4.528   6.801
 5610SOL    HW217730   5.345   4.480   6.944
 5611SOL     OW17731   0.519   5.114   1.563
 5611SOL    HW117732   0.527   5.190   1.628
 5611SOL    HW217733   0.426   5.113   1.526
 5612SOL     OW17734   3.109   1.137   0.692
 5612SOL    HW117735   3.012   1.161   0.698
 5612SOL    HW217736   3.134   1.126   0.596
 5613SOL     OW17737   6.684   5.045   5.110
 5613SOL    HW117738   6.757   5.002   5.057
 5613SOL    HW217739   6.708   5.046   5.207
 5614SOL     OW17740   5.702   2.092   4.717
 5614SOL    HW117741   5.648   2.009   4.726
 5614SOL    HW217742   5.653   2.158   4.660
 5615SOL     OW17743   6.810   2.922   2.410
 5615SOL    HW117744   6.831   2.912   2.508
 5615SOL    HW217745   6.836   2.838   2.362
 5616SOL     OW17746   1.649   3.822   3.208
 5616SOL    HW117747   1.744   3.827   3.177
 5616SOL    HW217748   1.638   3.878   3.290
 5617SOL     OW17749   2.183   5.352   6.314
 5617SOL    HW117750   2.177   5.452   6.314
 5617SOL    HW217751   2.091   5.313   6.305
 5618SOL     OW17752   6.817   5.541   3.876
 5618SOL    HW117753   6.804   5.477   3.951
 5618SOL    HW217754   6.874   5.618   3.907
 5619SOL     OW17755   3.566   3.310   4.647
 5619SOL    HW117756   3.518   3.234   4.604
 5619SOL    HW217757   3.505   3.354   4.714
 5620SOL     OW17758   4.161   4.669   5.734
 5620SOL    HW117759   4.129   4.636   5.645
 5620SOL    HW217760   4.249   4.715   5.722
 5621SOL     OW17761   1.606   2.975   4.801
 5621SOL    HW117762   1.626   3.005   4.708
 5621SOL    HW217763   1.686   2.992   4.859
 5622SOL     OW17764   4.545   5.542   4.727
 5622SOL    HW117765   4.597   5.469   4.682
 5622SOL    HW217766   4.447   5.521   4.720
 5623SOL     OW17767   4.470   6.628   4.059
 5623SOL    HW117768   4.454   6.568   3.981
 5623SOL    HW217769   4.412   6.599   4.135
 5624SOL     OW17770   0.018   5.598   4.307
 5624SOL    HW117771   0.002   5.664   4.380
 5624SOL    HW217772   0.113   5.568   4.309
 5625SOL     OW17773   1.242   5.874   4.621
 5625SOL    HW117774   1.207   5.941   4.555
 5625SOL    HW217775   1.316   5.822   4.579
 5626SOL     OW17776   2.032   4.168   4.432
 5626SOL    HW117777   2.038   4.110   4.513
 5626SOL    HW217778   2.105   4.145   4.368
 5627SOL     OW17779   1.225   5.688   0.415
 5627SOL    HW117780   1.157   5.663   0.346
 5627SOL    HW217781   1.202   5.777   0.454
 5628SOL     OW17782   2.872   2.576   0.685
 5628SOL    HW117783   2.876   2.522   0.769
 5628SOL    HW217784   2.818   2.528   0.617
 5629SOL     OW17785   5.008   4.100   1.558
 5629SOL    HW117786   4.924   4.109   1.504
 5629SOL    HW217787   5.053   4.189   1.564
 5630SOL     OW17788   1.787   3.488   6.211
 5630SOL    HW117789   1.873   3.523   6.174
 5630SOL    HW217790   1.725   3.465   6.136
 5631SOL     OW17791   4.425   0.743   2.346
 5631SOL    HW117792   4.497   0.804   2.379
 5631SOL    HW217793   4.440   0.651   2.384
 5632SOL     OW17794   5.849   0.097   5.807
 5632SOL    HW117795   5.821   0.113   5.902
 5632SOL    HW217796   5.773   0.120   5.746
 5633SOL     OW17797   0.651   4.303   6.055
 5633SOL    HW117798   0.730   4.272   6.001
 5633SOL    HW217799   0.625   4.395   6.024
 5634SOL     OW17800   2.926   6.223   6.643
 5634SOL    HW117801   2.947   6.144   6.585
 5634SOL    HW217802   2.908   6.303   6.585
 5635SOL     OW17803   2.459   6.809   6.474
 5635SOL    HW117804   2.448   6.899   6.434
 5635SOL    HW217805   2.369   6.769   6.493
 5636SOL     OW17806   6.368   1.138   5.527
 5636SOL    HW117807   6.331   1.141   5.621
 5636SOL    HW217808   6.412   1.050   5.512
 5637SOL     OW17809   5.262   6.088   4.668
 5637SOL    HW117810   5.349   6.040   4.671
 5637SOL    HW217811   5.199   6.040   4.607
 5638SOL     OW17812   4.957   5.685   1.051
 5638SOL    HW117813   4.958   5.735   0.964
 5638SOL    HW217814   5.015   5.733   1.117
 5639SOL     OW17815   1.201   0.061   1.600
 5639SOL    HW117816   1.215   6.991   1.633
 5639SOL    HW217817   1.241   0.071   1.509
 5640SOL     OW17818   2.935   5.922   2.898
 5640SOL    HW117819   2.980   5.834   2.883
 5640SOL    HW217820   3.001   5.988   2.933
 5641SOL     OW17821   1.330   5.087   4.528
 5641SOL    HW117822   1.333   5.034   4.443
 5641SOL    HW217823   1.306   5.028   4.604
 5642SOL     OW17824   1.430   4.425   6.970
 5642SOL    HW117825   1.403   4.389   6.881
 5642SOL    HW217826   1.414   4.524   6.972
 5643SOL     OW17827   3.902   2.122   4.406
 5643SOL    HW117828   3.896   2.034   4.359
 5643SOL    HW217829   3.993   2.161   4.391
 5644SOL     OW17830   5.386   1.182   5.104
 5644SOL    HW117831   5.296   1.213   5.075
 5644SOL    HW217832   5.454   1.253   5.082
 5645SOL     OW17833   4.908   5.696   2.627
 5645SOL    HW117834   4.926   5.751   2.708
 5645SOL    HW217835   4.935   5.602   2.644
 5646SOL     OW17836   0.435   5.872   3.397
 5646SOL    HW117837   0.508   5.935   3.421
 5646SOL    HW217838   0.408   5.887   3.302
 5647SOL     OW17839   6.041   6.115   6.953
 5647SOL    HW117840   6.011   6.104   6.859
 5647SOL    HW217841   6.115   6.050   6.972
 5648SOL     OW17842   1.965   1.778   3.538
 5648SOL    HW117843   2.047   1.724   3.522
 5648SOL    HW217844   1.978   1.870   3.503
 5649SOL     OW17845   1.130   0.706   4.462
 5649SOL    HW117846   1.033   0.726   4.448
 5649SOL    HW217847   1.179   0.792   4.478
 5650SOL     OW17848   6.687   4.894   0.297
 5650SOL    HW117849   6.629   4.961   0.342
 5650SOL    HW217850   6.733   4.838   0.367
 5651SOL     OW17851   0.232   1.232   1.878
 5651SOL    HW117852   0.232   1.132   1.878
 5651SOL    HW217853   0.226   1.265   1.784
 5652SOL     OW17854   5.136   5.785   1.527
 5652SOL    HW117855   5.091   5.842   1.596
 5652SOL    HW217856   5.170   5.701   1.570
 5653SOL     OW17857   6.747   5.656   5.845
 5653SOL    HW117858   6.726   5.558   5.838
 5653SOL    HW217859   6.844   5.671   5.829
 5654SOL     OW17860   0.227   0.318   5.692
 5654SOL    HW117861   0.182   0.400   5.656
 5654SOL    HW217862   0.326   0.325   5.678
 5655SOL     OW17863   1.053   3.453   3.770
 5655SOL    HW117864   1.073   3.442   3.867
 5655SOL    HW217865   0.963   3.494   3.758
 5656SOL     OW17866   2.866   3.693   0.913
 5656SOL    HW117867   2.829   3.615   0.964
 5656SOL    HW217868   2.814   3.775   0.936
 5657SOL     OW17869   4.323   0.222   1.641
 5657SOL    HW117870   4.299   0.315   1.615
 5657SOL    HW217871   4.399   0.224   1.707
 5658SOL     OW17872   3.423   6.966   5.341
 5658SOL    HW117873   3.491   6.991   5.409
 5658SOL    HW217874   3.466   6.962   5.251
 5659SOL     OW17875   3.203   3.585   3.385
 5659SOL    HW117876   3.147   3.539   3.317
 5659SOL    HW217877   3.270   3.521   3.422
 5660SOL     OW17878   5.162   0.198   0.271
 5660SOL    HW117879   5.189   0.260   0.198
 5660SOL    HW217880   5.112   0.248   0.341
 5661SOL     OW17881   0.273   6.145   5.375
 5661SOL    HW117882   0.267   6.061   5.429
 5661SOL    HW217883   0.251   6.224   5.433
 5662SOL     OW17884   2.526   4.654   3.968
 5662SOL    HW117885   2.590   4.605   3.909
 5662SOL    HW217886   2.532   4.619   4.061
 5663SOL     OW17887   1.256   4.257   0.709
 5663SOL    HW117888   1.215   4.170   0.735
 5663SOL    HW217889   1.344   4.241   0.664
 5664SOL     OW17890   0.310   4.765   3.081
 5664SOL    HW117891   0.384   4.710   3.043
 5664SOL    HW217892   0.318   4.859   3.047
 5665SOL     OW17893   1.993   2.452   6.456
 5665SOL    HW117894   2.014   2.517   6.383
 5665SOL    HW217895   2.003   2.358   6.421
 5666SOL     OW17896   4.770   5.566   0.868
 5666SOL    HW117897   4.754   5.641   0.932
 5666SOL    HW217898   4.803   5.486   0.918
 5667SOL     OW17899   6.869   4.878   2.885
 5667SOL    HW117900   6.871   4.917   2.978
 5667SOL    HW217901   6.939   4.806   2.878
 5668SOL     OW17902   4.536   1.401   6.157
 5668SOL    HW117903   4.439   1.379   6.141
 5668SOL    HW217904   4.561   1.375   6.250
 5669SOL     OW17905   0.221   5.528   5.721
 5669SOL    HW117906   0.273   5.448   5.691
 5669SOL    HW217907   0.187   5.512   5.814
 5670SOL     OW17908   0.517   3.221   3.697
 5670SOL    HW117909   0.457   3.258   3.768
 5670SOL    HW217910   0.469   3.149   3.647
 5671SOL     OW17911   2.114   6.891   6.401
 5671SOL    HW117912   2.029   6.839   6.387
 5671SOL    HW217913   2.144   6.929   6.314
 5672SOL     OW17914   5.062   3.666   5.942
 5672SOL    HW117915   5.101   3.608   6.014
 5672SOL    HW217916   5.035   3.609   5.865
 5673SOL     OW17917   0.445   0.782   2.500
 5673SOL    HW117918   0.463   0.838   2.420
 5673SOL    HW217919   0.469   0.833   2.583
 5674SOL     OW17920   0.523   3.861   1.653
 5674SOL    HW117921   0.503   3.920   1.574
 5674SOL    HW217922   0.437   3.825   1.690
 5675SOL     OW17923   4.482   2.580   5.336
 5675SOL    HW117924   4.539   2.555   5.415
 5675SOL    HW217925   4.399   2.626   5.368
 5676SOL     OW17926   1.449   1.042   1.377
 5676SOL    HW117927   1.504   1.068   1.455
 5676SOL    HW217928   1.427   0.945   1.382
 5677SOL     OW17929   6.542   2.116   3.597
 5677SOL    HW117930   6.487   2.033   3.606
 5677SOL    HW217931   6.632   2.101   3.637
 5678SOL     OW17932   3.975   6.233   2.570
 5678SOL    HW117933   3.991   6.198   2.477
 5678SOL    HW217934   3.993   6.331   2.572
 5679SOL     OW17935   1.423   6.739   4.835
 5679SOL    HW117936   1.437   6.668   4.904
 5679SOL    HW217937   1.461   6.825   4.869
 5680SOL     OW17938   1.250   5.046   6.699
 5680SOL    HW117939   1.314   4.970   6.712
 5680SOL    HW217940   1.300   5.130   6.682
 5681SOL     OW17941   0.993   2.626   6.513
 5681SOL    HW117942   1.083   2.625   6.470
 5681SOL    HW217943   1.003   2.630   6.612
 5682SOL     OW17944   1.121   2.824   5.617
 5682SOL    HW117945   1.119   2.738   5.565
 5682SOL    HW217946   1.118   2.901   5.553
 5683SOL     OW17947   3.385   2.272   6.558
 5683SOL    HW117948   3.463   2.240   6.505
 5683SOL    HW217949   3.416   2.339   6.626
 5684SOL     OW17950   3.709   3.456   4.353
 5684SOL    HW117951   3.676   3.396   4.426
 5684SOL    HW217952   3.632   3.493   4.303
 5685SOL     OW17953   0.728   5.086   2.366
 5685SOL    HW117954   0.646   5.126   2.325
 5685SOL    HW217955   0.709   5.060   2.461
 5686SOL     OW17956   3.728   0.172   0.442
 5686SOL    HW117957   3.637   0.192   0.479
 5686SOL    HW217958   3.768   0.257   0.407
 5687SOL     OW17959   5.964   4.282   4.660
 5687SOL    HW117960   5.968   4.355   4.728
 5687SOL    HW217961   5.947   4.323   4.570
 5688SOL     OW17962   6.100   2.046   1.311
 5688SOL    HW117963   6.053   2.013   1.393
 5688SOL    HW217964   6.194   2.069   1.333
 5689SOL     OW17965   4.680   0.957   0.461
 5689SOL    HW117966   4.670   0.956   0.362
 5689SOL    HW217967   4.706   1.050   0.490
 5690SOL     OW17968   3.501   6.284   0.802
 5690SOL    HW117969   3.532   6.236   0.720
 5690SOL    HW217970   3.576   6.339   0.838
 5691SOL     OW17971   3.205   6.565   2.479
 5691SOL    HW117972   3.149   6.567   2.561
 5691SOL    HW217973   3.197   6.652   2.431
 5692SOL     OW17974   6.748   1.674   5.870
 5692SOL    HW117975   6.725   1.703   5.777
 5692SOL    HW217976   6.832   1.720   5.899
 5693SOL     OW17977   4.963   2.629   2.321
 5693SOL    HW117978   5.017   2.601   2.241
 5693SOL    HW217979   4.904   2.706   2.296
 5694SOL     OW17980   0.517   1.229   3.457
 5694SOL    HW117981   0.527   1.328   3.463
 5694SOL    HW217982   0.459   1.197   3.532
 5695SOL     OW17983   1.442   2.353   3.677
 5695SOL    HW117984   1.400   2.405   3.751
 5695SOL    HW217985   1.496   2.415   3.620
 5696SOL     OW17986   3.003   1.510   5.008
 5696SOL    HW117987   2.920   1.554   5.042
 5696SOL    HW217988   3.031   1.554   4.922
 5697SOL     OW17989   0.156   2.410   0.810
 5697SOL    HW117990   0.138   2.316   0.841
 5697SOL    HW217991   0.071   2.462   0.811
 5698SOL     OW17992   0.499   2.442   2.249
 5698SOL    HW117993   0.543   2.469   2.335
 5698SOL    HW217994   0.417   2.497   2.234
 5699SOL     OW17995   6.390   1.100   4.000
 5699SOL    HW117996   6.310   1.041   3.985
 5699SOL    HW217997   6.367   1.171   4.066
 5700SOL     OW17998   1.085   6.334   4.338
 5700SOL    HW117999   1.073   6.410   4.275
 5700SOL    HW218000   1.179   6.301   4.333
 5701SOL     OW18001   0.672   6.185   2.704
 5701SOL    HW118002   0.670   6.086   2.692
 5701SOL    HW218003   0.579   6.219   2.717
 5702SOL     OW18004   1.637   6.804   5.416
 5702SOL    HW118005   1.562   6.747   5.382
 5702SOL    HW218006   1.724   6.763   5.389
 5703SOL     OW18007   4.690   5.170   6.932
 5703SOL    HW118008   4.698   5.089   6.989
 5703SOL    HW218009   4.766   5.173   6.867
 5704SOL     OW18010   4.645   5.456   3.353
 5704SOL    HW118011   4.695   5.518   3.291
 5704SOL    HW218012   4.600   5.385   3.300
 5705SOL     OW18013   6.258   0.671   1.100
 5705SOL    HW118014   6.186   0.633   1.041
 5705SOL    HW218015   6.241   0.769   1.114
 5706SOL     OW18016   1.466   1.793   0.328
 5706SOL    HW118017   1.420   1.778   0.415
 5706SOL    HW218018   1.448   1.716   0.266
 5707SOL     OW18019   1.464   6.995   6.591
 5707SOL    HW118020   1.478   6.965   6.496
 5707SOL    HW218021   1.431   0.066   6.591
 5708SOL     OW18022   4.951   0.071   2.134
 5708SOL    HW118023   4.920   0.014   2.058
 5708SOL    HW218024   4.975   0.014   2.212
 5709SOL     OW18025   0.441   6.643   3.260
 5709SOL    HW118026   0.527   6.636   3.210
 5709SOL    HW218027   0.380   6.569   3.231
 5710SOL     OW18028   2.932   3.673   6.130
 5710SOL    HW118029   2.937   3.578   6.099
 5710SOL    HW218030   2.991   3.730   6.073
 5711SOL     OW18031   4.945   0.850   3.850
 5711SOL    HW118032   5.036   0.888   3.834
 5711SOL    HW218033   4.924   0.784   3.778
 5712SOL     OW18034   6.957   0.127   5.383
 5712SOL    HW118035   7.022   0.184   5.333
 5712SOL    HW218036   6.996   0.102   5.471
 5713SOL     OW18037   0.253   2.425   1.911
 5713SOL    HW118038   0.337   2.386   1.874
 5713SOL    HW218039   0.210   2.482   1.841
 5714SOL     OW18040   1.357   7.018   6.909
 5714SOL    HW118041   1.269   6.970   6.909
 5714SOL    HW218042   1.390   0.004   6.815
 5715SOL     OW18043   1.236   6.027   2.750
 5715SOL    HW118044   1.158   6.032   2.687
 5715SOL    HW218045   1.221   5.953   2.815
 5716SOL     OW18046   1.662   4.144   5.760
 5716SOL    HW118047   1.577   4.125   5.711
 5716SOL    HW218048   1.702   4.229   5.726
 5717SOL     OW18049   1.497   4.776   1.199
 5717SOL    HW118050   1.456   4.867   1.203
 5717SOL    HW218051   1.434   4.713   1.154
 5718SOL     OW18052   1.841   4.587   0.064
 5718SOL    HW118053   1.874   4.612   6.995
 5718SOL    HW218054   1.820   4.669   0.116
 5719SOL     OW18055   2.677   1.112   5.772
 5719SOL    HW118056   2.756   1.129   5.713
 5719SOL    HW218057   2.697   1.036   5.833
 5720SOL     OW18058   0.022   4.952   4.744
 5720SOL    HW118059   6.982   5.016   4.699
 5720SOL    HW218060   0.110   4.998   4.760
 5721SOL     OW18061   0.821   3.511   0.325
 5721SOL    HW118062   0.724   3.497   0.303
 5721SOL    HW218063   0.859   3.581   0.266
 5722SOL     OW18064   5.516   0.881   4.719
 5722SOL    HW118065   5.446   0.888   4.790
 5722SOL    HW218066   5.597   0.932   4.748
 5723SOL     OW18067   3.562   4.688   0.753
 5723SOL    HW118068   3.646   4.731   0.785
 5723SOL    HW218069   3.540   4.721   0.662
 5724SOL     OW18070   4.430   2.227   6.452
 5724SOL    HW118071   4.386   2.298   6.396
 5724SOL    HW218072   4.459   2.268   6.539
 5725SOL     OW18073   5.435   5.667   3.592
 5725SOL    HW118074   5.360   5.733   3.584
 5725SOL    HW218075   5.487   5.666   3.506
 5726SOL     OW18076   6.015   3.839   4.815
 5726SOL    HW118077   6.039   3.804   4.905
 5726SOL    HW218078   5.982   3.764   4.758
 5727SOL     OW18079   5.662   2.821   2.816
 5727SOL    HW118080   5.684   2.836   2.913
 5727SOL    HW218081   5.572   2.779   2.808
 5728SOL     OW18082   5.940   1.041   6.150
 5728SOL    HW118083   5.875   1.115   6.130
 5728SOL    HW218084   6.014   1.077   6.207
 5729SOL     OW18085   0.386   1.884   0.298
 5729SOL    HW118086   0.381   1.981   0.274
 5729SOL    HW218087   0.466   1.843   0.255
 5730SOL     OW18088   3.675   5.953   5.204
 5730SOL    HW118089   3.693   5.987   5.112
 5730SOL    HW218090   3.635   5.861   5.199
 5731SOL     OW18091   1.337   6.593   4.052
 5731SOL    HW118092   1.336   6.681   4.003
 5731SOL    HW218093   1.426   6.550   4.040
 5732SOL     OW18094   6.301   5.058   4.493
 5732SOL    HW118095   6.329   5.034   4.400
 5732SOL    HW218096   6.381   5.089   4.544
 5733SOL     OW18097   3.502   0.735   6.563
 5733SOL    HW118098   3.477   0.686   6.646
 5733SOL    HW218099   3.542   0.671   6.498
 5734SOL     OW18100   1.341   6.869   5.457
 5734SOL    HW118101   1.440   6.861   5.453
 5734SOL    HW218102   1.309   6.846   5.549
 5735SOL     OW18103   3.740   0.988   2.140
 5735SOL    HW118104   3.818   0.973   2.200
 5735SOL    HW218105   3.769   1.036   2.057
 5736SOL     OW18106   5.211   4.459   6.256
 5736SOL    HW118107   5.164   4.532   6.306
 5736SOL    HW218108   5.163   4.373   6.270
 5737SOL     OW18109   5.300   6.354   1.223
 5737SOL    HW118110   5.367   6.421   1.254
 5737SOL    HW218111   5.346   6.280   1.174
 5738SOL     OW18112   3.440   1.051   6.712
 5738SOL    HW118113   3.456   1.142   6.674
 5738SOL    HW218114   3.522   1.020   6.760
 5739SOL     OW18115   2.038   6.621   5.862
 5739SOL    HW118116   2.047   6.674   5.947
 5739SOL    HW218117   2.125   6.625   5.812
 5740SOL     OW18118   4.739   3.433   1.050
 5740SOL    HW118119   4.685   3.497   0.996
 5740SOL    HW218120   4.740   3.343   1.005
 5741SOL     OW18121   0.676   3.717   3.901
 5741SOL    HW118122   0.627   3.675   3.977
 5741SOL    HW218123   0.738   3.650   3.859
 5742SOL     OW18124   3.708   6.595   3.685
 5742SOL    HW118125   3.771   6.625   3.613
 5742SOL    HW218126   3.703   6.665   3.756
 5743SOL     OW18127   3.600   4.929   6.157
 5743SOL    HW118128   3.595   4.861   6.231
 5743SOL    HW218129   3.513   4.933   6.109
 5744SOL     OW18130   6.154   0.452   2.994
 5744SOL    HW118131   6.212   0.407   3.062
 5744SOL    HW218132   6.082   0.389   2.966
 5745SOL     OW18133   2.609   2.458   3.726
 5745SOL    HW118134   2.620   2.491   3.632
 5745SOL    HW218135   2.672   2.382   3.742
 5746SOL     OW18136   4.368   0.064   3.811
 5746SOL    HW118137   4.363   6.998   3.857
 5746SOL    HW218138   4.372   0.137   3.879
 5747SOL     OW18139   1.308   6.418   1.914
 5747SOL    HW118140   1.260   6.478   1.979
 5747SOL    HW218141   1.284   6.444   1.821
 5748SOL     OW18142   0.465   6.482   0.842
 5748SOL    HW118143   0.459   6.410   0.911
 5748SOL    HW218144   0.545   6.466   0.784
 5749SOL     OW18145   1.985   0.072   4.722
 5749SOL    HW118146   1.957   0.168   4.718
 5749SOL    HW218147   2.005   0.040   4.629
 5750SOL     OW18148   6.687   4.401   5.071
 5750SOL    HW118149   6.588   4.393   5.069
 5750SOL    HW218150   6.719   4.404   5.166
 5751SOL     OW18151   1.908   3.238   4.406
 5751SOL    HW118152   1.852   3.318   4.385
 5751SOL    HW218153   1.865   3.156   4.370
 5752SOL     OW18154   5.684   0.378   1.361
 5752SOL    HW118155   5.777   0.350   1.385
 5752SOL    HW218156   5.687   0.470   1.321
 5753SOL     OW18157   2.858   3.915   5.146
 5753SOL    HW118158   2.935   3.966   5.185
 5753SOL    HW218159   2.842   3.945   5.052
 5754SOL     OW18160   1.696   6.414   2.037
 5754SOL    HW118161   1.781   6.465   2.053
 5754SOL    HW218162   1.640   6.415   2.120
 5755SOL     OW18163   2.079   1.730   6.218
 5755SOL    HW118164   2.160   1.720   6.159
 5755SOL    HW218165   2.107   1.771   6.305
 5756SOL     OW18166   6.487   0.030   2.794
 5756SOL    HW118167   6.543   0.065   2.719
 5756SOL    HW218168   6.445   0.107   2.843
 5757SOL     OW18169   0.146   5.458   3.957
 5757SOL    HW118170   0.087   5.538   3.948
 5757SOL    HW218171   0.213   5.473   4.030
 5758SOL     OW18172   2.184   6.929   3.410
 5758SOL    HW118173   2.114   6.938   3.339
 5758SOL    HW218174   2.274   6.932   3.367
 5759SOL     OW18175   4.702   6.833   2.107
 5759SOL    HW118176   4.626   6.790   2.057
 5759SOL    HW218177   4.779   6.846   2.045
 5760SOL     OW18178   6.663   3.389   2.066
 5760SOL    HW118179   6.670   3.460   1.995
 5760SOL    HW218180   6.650   3.300   2.023
 5761SOL     OW18181   5.058   5.998   5.084
 5761SOL    HW118182   5.036   5.958   4.995
 5761SOL    HW218183   4.976   6.040   5.122
 5762SOL     OW18184   4.500   4.370   0.949
 5762SOL    HW118185   4.488   4.279   0.989
 5762SOL    HW218186   4.586   4.409   0.980
 5763SOL     OW18187   5.261   6.603   0.363
 5763SOL    HW118188   5.248   6.520   0.308
 5763SOL    HW218189   5.328   6.663   0.318
 5764SOL     OW18190   4.096   5.125   2.985
 5764SOL    HW118191   4.102   5.149   3.082
 5764SOL    HW218192   4.000   5.117   2.959
 5765SOL     OW18193   6.748   4.086   0.814
 5765SOL    HW118194   6.679   4.109   0.746
 5765SOL    HW218195   6.747   3.988   0.831
 5766SOL     OW18196   2.134   2.059   4.630
 5766SOL    HW118197   2.126   1.959   4.626
 5766SOL    HW218198   2.174   2.085   4.718
 5767SOL     OW18199   2.277   0.251   6.735
 5767SOL    HW118200   2.207   0.197   6.689
 5767SOL    HW218201   2.234   0.315   6.799
 5768SOL     OW18202   6.682   0.028   3.907
 5768SOL    HW118203   6.614   0.079   3.854
 5768SOL    HW218204   6.659   0.032   4.004
 5769SOL     OW18205   2.494   5.278   5.837
 5769SOL    HW118206   2.545   5.210   5.784
 5769SOL    HW218207   2.556   5.353   5.862
 5770SOL     OW18208   0.598   6.421   6.946
 5770SOL    HW118209   0.508   6.439   6.987
 5770SOL    HW218210   0.647   6.506   6.933
 5771SOL     OW18211   1.750   6.949   3.953
 5771SOL    HW118212   1.822   6.911   3.894
 5771SOL    HW218213   1.743   0.025   3.937
 5772SOL     OW18214   4.481   1.435   1.589
 5772SOL    HW118215   4.397   1.449   1.538
 5772SOL    HW218216   4.539   1.516   1.583
 5773SOL     OW18217   4.662   1.511   2.246
 5773SOL    HW118218   4.720   1.449   2.298
 5773SOL    HW218219   4.625   1.464   2.166
 5774SOL     OW18220   1.672   0.729   4.732
 5774SOL    HW118221   1.650   0.651   4.791
 5774SOL    HW218222   1.590   0.786   4.721
 5775SOL     OW18223   1.628   5.920   2.728
 5775SOL    HW118224   1.620   6.014   2.761
 5775SOL    HW218225   1.615   5.917   2.629
 5776SOL     OW18226   1.329   0.436   3.273
 5776SOL    HW118227   1.334   0.534   3.252
 5776SOL    HW218228   1.419   0.405   3.304
 5777SOL     OW18229   1.190   0.603   3.686
 5777SOL    HW118230   1.092   0.625   3.681
 5777SOL    HW218231   1.213   0.538   3.613
 5778SOL     OW18232   1.750   0.831   0.088
 5778SOL    HW118233   1.665   0.778   0.089
 5778SOL    HW218234   1.746   0.901   0.160
 5779SOL     OW18235   4.782   2.500   6.792
 5779SOL    HW118236   4.832   2.576   6.835
 5779SOL    HW218237   4.843   2.448   6.734
 5780SOL     OW18238   5.258   5.579   4.675
 5780SOL    HW118239   5.286   5.631   4.594
 5780SOL    HW218240   5.168   5.611   4.704
 5781SOL     OW18241   6.496   4.244   4.895
 5781SOL    HW118242   6.574   4.233   4.957
 5781SOL    HW218243   6.448   4.157   4.885
 5782SOL     OW18244   1.345   1.387   0.574
 5782SOL    HW118245   1.441   1.404   0.550
 5782SOL    HW218246   1.341   1.336   0.660
 5783SOL     OW18247   1.153   0.961   2.297
 5783SOL    HW118248   1.192   0.869   2.295
 5783SOL    HW218249   1.221   1.025   2.333
 5784SOL     OW18250   0.279   6.178   6.575
 5784SOL    HW118251   0.290   6.086   6.536
 5784SOL    HW218252   0.312   6.178   6.670
 5785SOL     OW18253   1.981   1.950   0.204
 5785SOL    HW118254   1.900   1.992   0.162
 5785SOL    HW218255   1.954   1.897   0.283
 5786SOL     OW18256   0.044   4.468   0.644
 5786SOL    HW118257   0.094   4.383   0.661
 5786SOL    HW218258   6.970   4.449   0.635
 5787SOL     OW18259   2.291   2.150   5.253
 5787SOL    HW118260   2.370   2.188   5.206
 5787SOL    HW218261   2.319   2.072   5.308
 5788SOL     OW18262   2.637   1.589   2.588
 5788SOL    HW118263   2.671   1.594   2.682
 5788SOL    HW218264   2.614   1.681   2.557
 5789SOL     OW18265   3.785   4.518   6.886
 5789SOL    HW118266   3.687   4.497   6.893
 5789SOL    HW218267   3.807   4.595   6.946
 5790SOL     OW18268   1.680   3.795   4.342
 5790SOL    HW118269   1.708   3.890   4.325
 5790SOL    HW218270   1.663   3.749   4.255
 5791SOL     OW18271   4.086   0.131   1.749
 5791SOL    HW118272   4.171   0.176   1.723
 5791SOL    HW218273   4.017   0.148   1.679
 5792SOL     OW18274   6.654   2.561   2.860
 5792SOL    HW118275   6.704   2.475   2.855
 5792SOL    HW218276   6.618   2.573   2.953
 5793SOL     OW18277   5.157   0.916   3.375
 5793SOL    HW118278   5.131   1.003   3.335
 5793SOL    HW218279   5.188   0.854   3.304
 5794SOL     OW18280   4.026   1.803   0.485
 5794SOL    HW118281   3.926   1.795   0.480
 5794SOL    HW218282   4.059   1.753   0.565
 5795SOL     OW18283   6.412   5.024   6.260
 5795SOL    HW118284   6.501   4.983   6.243
 5795SOL    HW218285   6.423   5.123   6.274
 5796SOL     OW18286   4.026   0.667   6.896
 5796SOL    HW118287   3.934   0.628   6.891
 5796SOL    HW218288   4.047   0.693   6.990
 5797SOL     OW18289   4.237   1.894   5.201
 5797SOL    HW118290   4.282   1.940   5.277
 5797SOL    HW218291   4.193   1.962   5.142
 5798SOL     OW18292   0.499   4.366   5.314
 5798SOL    HW118293   0.560   4.402   5.244
 5798SOL    HW218294   0.552   4.328   5.390
 5799SOL     OW18295   5.349   1.411   3.569
 5799SOL    HW118296   5.347   1.446   3.475
 5799SOL    HW218297   5.405   1.470   3.626
 5800SOL     OW18298   5.739   6.046   0.795
 5800SOL    HW118299   5.768   6.030   0.889
 5800SOL    HW218300   5.662   5.986   0.773
 5801SOL     OW18301   1.005   2.559   4.653
 5801SOL    HW118302   0.946   2.640   4.651
 5801SOL    HW218303   1.037   2.540   4.560
 5802SOL     OW18304   0.778   4.474   0.331
 5802SOL    HW118305   0.716   4.545   0.365
 5802SOL    HW218306   0.782   4.478   0.231
 5803SOL     OW18307   1.109   4.402   2.384
 5803SOL    HW118308   1.150   4.462   2.453
 5803SOL    HW218309   1.121   4.443   2.294
 5804SOL     OW18310   6.665   4.625   3.853
 5804SOL    HW118311   6.763   4.628   3.873
 5804SOL    HW218312   6.614   4.647   3.936
 5805SOL     OW18313   3.258   3.679   6.357
 5805SOL    HW118314   3.296   3.741   6.425
 5805SOL    HW218315   3.165   3.652   6.383
 5806SOL     OW18316   6.960   6.179   5.803
 5806SOL    HW118317   6.980   6.121   5.882
 5806SOL    HW218318   6.867   6.216   5.812
 5807SOL     OW18319   1.577   3.656   1.937
 5807SOL    HW118320   1.529   3.597   1.872
 5807SOL    HW218321   1.597   3.744   1.893
 5808SOL     OW18322   5.941   3.918   3.845
 5808SOL    HW118323   5.886   3.960   3.917
 5808SOL    HW218324   5.987   3.989   3.792
 5809SOL     OW18325   0.297   2.327   4.758
 5809SOL    HW118326   0.298   2.425   4.776
 5809SOL    HW218327   0.383   2.286   4.790
 5810SOL     OW18328   3.034   1.104   4.146
 5810SOL    HW118329   3.055   1.062   4.235
 5810SOL    HW218330   3.043   1.203   4.154
 5811SOL     OW18331   2.795   0.136   4.939
 5811SOL    HW118332   2.785   0.040   4.913
 5811SOL    HW218333   2.843   0.143   5.026
 5812SOL     OW18334   5.714   0.552   4.284
 5812SOL    HW118335   5.706   0.644   4.322
 5812SOL    HW218336   5.809   0.535   4.257
 5813SOL     OW18337   1.218   1.279   0.825
 5813SOL    HW118338   1.122   1.251   0.836
 5813SOL    HW218339   1.273   1.238   0.898
 5814SOL     OW18340   6.227   4.691   0.875
 5814SOL    HW118341   6.233   4.778   0.924
 5814SOL    HW218342   6.288   4.693   0.796
 5815SOL     OW18343   4.707   2.710   3.897
 5815SOL    HW118344   4.719   2.799   3.939
 5815SOL    HW218345   4.680   2.643   3.966
 5816SOL     OW18346   4.892   5.541   0.048
 5816SOL    HW118347   4.889   5.510   6.976
 5816SOL    HW218348   4.867   5.466   0.109
 5817SOL     OW18349   5.043   3.563   5.703
 5817SOL    HW118350   4.965   3.510   5.735
 5817SOL    HW218351   5.044   3.565   5.603
 5818SOL     OW18352   6.490   6.299   4.784
 5818SOL    HW118353   6.401   6.342   4.799
 5818SOL    HW218354   6.481   6.226   4.717
 5819SOL     OW18355   4.389   0.345   6.419
 5819SOL    HW118356   4.461   0.277   6.425
 5819SOL    HW218357   4.338   0.348   6.505
 5820SOL     OW18358   4.492   5.995   3.794
 5820SOL    HW118359   4.486   6.023   3.890
 5820SOL    HW218360   4.407   5.950   3.766
 5821SOL     OW18361   0.519   0.476   2.357
 5821SOL    HW118362   0.473   0.507   2.440
 5821SOL    HW218363   0.558   0.555   2.309
 5822SOL     OW18364   0.345   2.607   2.625
 5822SOL    HW118365   0.301   2.625   2.537
 5822SOL    HW218366   0.334   2.511   2.649
 5823SOL     OW18367   0.669   0.767   5.938
 5823SOL    HW118368   0.679   0.750   5.840
 5823SOL    HW218369   0.572   0.769   5.962
 5824SOL     OW18370   6.814   5.795   2.862
 5824SOL    HW118371   6.853   5.884   2.837
 5824SOL    HW218372   6.714   5.801   2.860
 5825SOL     OW18373   2.696   2.059   5.268
 5825SOL    HW118374   2.672   1.990   5.200
 5825SOL    HW218375   2.662   2.148   5.238
 5826SOL     OW18376   6.839   5.095   5.344
 5826SOL    HW118377   6.900   5.147   5.404
 5826SOL    HW218378   6.891   5.057   5.268
 5827SOL     OW18379   2.284   4.837   4.835
 5827SOL    HW118380   2.198   4.809   4.793
 5827SOL    HW218381   2.353   4.852   4.764
 5828SOL     OW18382   6.822   3.048   1.313
 5828SOL    HW118383   6.820   3.083   1.406
 5828SOL    HW218384   6.753   3.095   1.258
 5829SOL     OW18385   2.780   1.840   2.479
 5829SOL    HW118386   2.849   1.872   2.544
 5829SOL    HW218387   2.824   1.815   2.393
 5830SOL     OW18388   4.251   6.892   5.686
 5830SOL    HW118389   4.157   6.885   5.652
 5830SOL    HW218390   4.307   6.941   5.620
 5831SOL     OW18391   6.865   0.445   4.071
 5831SOL    HW118392   6.855   0.447   4.171
 5831SOL    HW218393   6.868   0.350   4.040
 5832SOL     OW18394   3.708   4.574   5.678
 5832SOL    HW118395   3.642   4.522   5.733
 5832SOL    HW218396   3.668   4.663   5.655
 5833SOL     OW18397   4.218   3.343   5.205
 5833SOL    HW118398   4.263   3.432   5.203
 5833SOL    HW218399   4.190   3.318   5.112
 5834SOL     OW18400   5.898   2.575   0.453
 5834SOL    HW118401   5.981   2.520   0.459
 5834SOL    HW218402   5.833   2.546   0.524
 5835SOL     OW18403   4.859   3.181   3.020
 5835SOL    HW118404   4.958   3.186   3.035
 5835SOL    HW218405   4.837   3.220   2.931
 5836SOL     OW18406   3.094   6.559   2.977
 5836SOL    HW118407   2.995   6.575   2.982
 5836SOL    HW218408   3.118   6.530   2.885
 5837SOL     OW18409   4.331   5.078   5.743
 5837SOL    HW118410   4.234   5.091   5.763
 5837SOL    HW218411   4.385   5.097   5.825
 5838SOL     OW18412   2.412   1.445   5.837
 5838SOL    HW118413   2.410   1.405   5.746
 5838SOL    HW218414   2.480   1.519   5.839
 5839SOL     OW18415   0.308   2.134   2.868
 5839SOL    HW118416   0.233   2.124   2.801
 5839SOL    HW218417   0.354   2.221   2.853
 5840SOL     OW18418   1.595   5.049   6.974
 5840SOL    HW118419   1.653   5.120   6.933
 5840SOL    HW218420   1.499   5.075   6.965
 5841SOL     OW18421   5.310   1.793   2.388
 5841SOL    HW118422   5.254   1.875   2.389
 5841SOL    HW218423   5.375   1.798   2.311
 5842SOL     OW18424   4.282   3.144   1.786
 5842SOL    HW118425   4.285   3.180   1.879
 5842SOL    HW218426   4.187   3.144   1.754
 5843SOL     OW18427   2.076   3.675   2.186
 5843SOL    HW118428   2.116   3.592   2.148
 5843SOL    HW218429   2.118   3.755   2.143
 5844SOL     OW18430   0.673   6.860   5.920
 5844SOL    HW118431   0.581   6.860   5.881
 5844SOL    HW218432   0.739   6.833   5.849
 5845SOL     OW18433   0.993   0.387   2.824
 5845SOL    HW118434   0.944   0.453   2.881
 5845SOL    HW218435   0.975   0.407   2.728
 5846SOL     OW18436   6.094   3.164   4.552
 5846SOL    HW118437   6.022   3.099   4.574
 5846SOL    HW218438   6.172   3.115   4.513
 5847SOL     OW18439   2.099   2.029   2.244
 5847SOL    HW118440   2.100   2.108   2.181
 5847SOL    HW218441   2.192   2.003   2.267
 5848SOL     OW18442   2.334   5.144   3.048
 5848SOL    HW118443   2.336   5.118   3.145
 5848SOL    HW218444   2.245   5.121   3.009
 5849SOL     OW18445   6.788   0.298   6.820
 5849SOL    HW118446   6.735   0.358   6.879
 5849SOL    HW218447   6.778   0.203   6.850
 5850SOL     OW18448   0.907   3.910   1.959
 5850SOL    HW118449   0.907   3.997   1.909
 5850SOL    HW218450   0.825   3.903   2.014
 5851SOL     OW18451   4.890   3.142   2.559
 5851SOL    HW118452   4.864   3.173   2.467
 5851SOL    HW218453   4.966   3.077   2.552
 5852SOL     OW18454   4.884   6.847   3.613
 5852SOL    HW118455   4.828   6.919   3.655
 5852SOL    HW218456   4.880   6.856   3.514
 5853SOL     OW18457   3.078   5.506   4.541
 5853SOL    HW118458   3.073   5.412   4.509
 5853SOL    HW218459   3.145   5.512   4.616
 5854SOL     OW18460   6.477   3.920   5.357
 5854SOL    HW118461   6.409   3.952   5.291
 5854SOL    HW218462   6.444   3.838   5.402
 5855SOL     OW18463   0.389   0.393   4.658
 5855SOL    HW118464   0.452   0.421   4.585
 5855SOL    HW218465   0.435   0.326   4.717
 5856SOL     OW18466   2.032   6.347   3.983
 5856SOL    HW118467   2.009   6.309   3.894
 5856SOL    HW218468   2.131   6.347   3.996
 5857SOL     OW18469   6.056   2.956   5.249
 5857SOL    HW118470   5.963   2.921   5.258
 5857SOL    HW218471   6.053   3.056   5.243
 5858SOL     OW18472   2.605   2.378   2.126
 5858SOL    HW118473   2.577   2.282   2.114
 5858SOL    HW218474   2.705   2.383   2.122
 5859SOL     OW18475   5.820   0.109   1.113
 5859SOL    HW118476   5.869   0.045   1.173
 5859SOL    HW218477   5.857   0.201   1.124
 5860SOL     OW18478   2.033   3.783   1.578
 5860SOL    HW118479   2.086   3.739   1.651
 5860SOL    HW218480   1.979   3.714   1.530
 5861SOL     OW18481   5.027   1.723   4.269
 5861SOL    HW118482   4.947   1.685   4.223
 5861SOL    HW218483   5.086   1.648   4.300
 5862SOL     OW18484   5.382   4.948   3.368
 5862SOL    HW118485   5.375   5.026   3.306
 5862SOL    HW218486   5.478   4.930   3.388
 5863SOL     OW18487   2.874   0.886   4.658
 5863SOL    HW118488   2.896   0.858   4.751
 5863SOL    HW218489   2.868   0.804   4.600
 5864SOL     OW18490   3.963   3.558   1.841
 5864SOL    HW118491   3.927   3.472   1.877
 5864SOL    HW218492   4.062   3.559   1.851
 5865SOL     OW18493   5.660   0.160   4.496
 5865SOL    HW118494   5.645   0.259   4.491
 5865SOL    HW218495   5.736   0.140   4.558
 5866SOL     OW18496   4.084   5.816   6.972
 5866SOL    HW118497   4.022   5.752   7.019
 5866SOL    HW218498   4.167   5.767   6.944
 5867SOL     OW18499   0.357   4.084   1.203
 5867SOL    HW118500   0.371   4.135   1.118
 5867SOL    HW218501   0.316   3.995   1.182
 5868SOL     OW18502   0.255   0.634   5.482
 5868SOL    HW118503   0.178   0.654   5.542
 5868SOL    HW218504   0.319   0.711   5.483
 5869SOL     OW18505   2.695   5.466   3.463
 5869SOL    HW118506   2.774   5.528   3.470
 5869SOL    HW218507   2.619   5.513   3.419
 5870SOL     OW18508   4.768   5.876   4.574
 5870SOL    HW118509   4.798   5.945   4.639
 5870SOL    HW218510   4.808   5.788   4.598
 5871SOL     OW18511   4.247   3.548   0.276
 5871SOL    HW118512   4.228   3.482   0.349
 5871SOL    HW218513   4.163   3.594   0.250
 5872SOL     OW18514   3.807   4.871   6.927
 5872SOL    HW118515   3.858   4.947   6.886
 5872SOL    HW218516   3.871   4.810   6.974
 5873SOL     OW18517   2.141   2.549   0.865
 5873SOL    HW118518   2.080   2.471   0.852
 5873SOL    HW218519   2.215   2.545   0.798
 5874SOL     OW18520   3.057   2.971   1.302
 5874SOL    HW118521   3.005   2.887   1.315
 5874SOL    HW218522   3.101   2.970   1.212
 5875SOL     OW18523   3.734   0.794   1.712
 5875SOL    HW118524   3.734   0.696   1.733
 5875SOL    HW218525   3.640   0.828   1.711
 5876SOL     OW18526   2.918   2.910   0.005
 5876SOL    HW118527   2.963   2.966   0.074
 5876SOL    HW218528   2.824   2.893   0.032
 5877SOL     OW18529   6.817   6.909   1.073
 5877SOL    HW118530   6.878   6.903   0.993
 5877SOL    HW218531   6.818   6.822   1.122
 5878SOL     OW18532   5.166   5.190   3.245
 5878SOL    HW118533   5.258   5.207   3.280
 5878SOL    HW218534   5.156   5.234   3.156
 5879SOL     OW18535   2.493   3.467   6.119
 5879SOL    HW118536   2.567   3.505   6.174
 5879SOL    HW218537   2.407   3.475   6.170
 5880SOL     OW18538   4.481   4.423   6.565
 5880SOL    HW118539   4.463   4.510   6.518
 5880SOL    HW218540   4.563   4.381   6.525
 5881SOL     OW18541   1.649   0.224   2.540
 5881SOL    HW118542   1.566   0.191   2.585
 5881SOL    HW218543   1.627   0.305   2.485
 5882SOL     OW18544   0.564   6.299   5.452
 5882SOL    HW118545   0.654   6.268   5.484
 5882SOL    HW218546   0.494   6.267   5.515
 5883SOL     OW18547   0.279   1.661   0.680
 5883SOL    HW118548   0.352   1.593   0.678
 5883SOL    HW218549   0.190   1.615   0.679
 5884SOL     OW18550   6.097   0.971   4.836
 5884SOL    HW118551   6.036   1.050   4.847
 5884SOL    HW218552   6.153   0.984   4.754
 5885SOL     OW18553   0.821   5.551   0.570
 5885SOL    HW118554   0.761   5.579   0.645
 5885SOL    HW218555   0.916   5.568   0.595
 5886SOL     OW18556   0.913   2.983   3.267
 5886SOL    HW118557   0.892   2.909   3.330
 5886SOL    HW218558   0.854   3.062   3.287
 5887SOL     OW18559   3.075   1.836   1.949
 5887SOL    HW118560   3.168   1.837   1.912
 5887SOL    HW218561   3.044   1.930   1.964
 5888SOL     OW18562   2.323   6.664   0.694
 5888SOL    HW118563   2.389   6.721   0.744
 5888SOL    HW218564   2.244   6.720   0.668
 5889SOL     OW18565   6.557   1.344   0.752
 5889SOL    HW118566   6.592   1.297   0.833
 5889SOL    HW218567   6.572   1.287   0.672
 5890SOL     OW18568   1.845   6.527   2.938
 5890SOL    HW118569   1.788   6.558   2.862
 5890SOL    HW218570   1.938   6.563   2.927
 5891SOL     OW18571   2.396   4.018   0.128
 5891SOL    HW118572   2.493   4.000   0.143
 5891SOL    HW218573   2.359   3.951   0.063
 5892SOL     OW18574   0.167   4.667   1.628
 5892SOL    HW118575   0.233   4.729   1.586
 5892SOL    HW218576   0.120   4.613   1.558
 5893SOL     OW18577   1.627   4.747   1.454
 5893SOL    HW118578   1.634   4.648   1.468
 5893SOL    HW218579   1.592   4.765   1.363
 5894SOL     OW18580   0.758   5.675   5.044
 5894SOL    HW118581   0.810   5.655   5.127
 5894SOL    HW218582   0.809   5.740   4.987
 5895SOL     OW18583   6.340   3.423   3.867
 5895SOL    HW118584   6.432   3.406   3.832
 5895SOL    HW218585   6.295   3.336   3.885
 5896SOL     OW18586   5.103   1.120   1.679
 5896SOL    HW118587   5.062   1.080   1.597
 5896SOL    HW218588   5.052   1.089   1.759
 5897SOL     OW18589   3.829   1.549   1.741
 5897SOL    HW118590   3.855   1.645   1.749
 5897SOL    HW218591   3.730   1.540   1.756
 5898SOL     OW18592   2.230   1.068   5.567
 5898SOL    HW118593   2.299   1.097   5.634
 5898SOL    HW218594   2.205   1.146   5.509
 5899SOL     OW18595   6.837   5.637   6.231
 5899SOL    HW118596   6.750   5.601   6.198
 5899SOL    HW218597   6.833   5.737   6.232
 5900SOL     OW18598   6.681   5.242   3.603
 5900SOL    HW118599   6.722   5.195   3.682
 5900SOL    HW218600   6.737   5.322   3.579
 5901SOL     OW18601   1.657   1.254   0.655
 5901SOL    HW118602   1.739   1.299   0.620
 5901SOL    HW218603   1.627   1.300   0.739
 5902SOL     OW18604   5.736   3.490   5.143
 5902SOL    HW118605   5.728   3.590   5.147
 5902SOL    HW218606   5.729   3.461   5.047
 5903SOL     OW18607   5.439   2.772   6.614
 5903SOL    HW118608   5.362   2.709   6.627
 5903SOL    HW218609   5.440   2.838   6.689
 5904SOL     OW18610   1.684   4.451   1.073
 5904SOL    HW118611   1.674   4.544   1.035
 5904SOL    HW218612   1.721   4.391   1.002
 5905SOL     OW18613   5.390   1.134   3.695
 5905SOL    HW118614   5.392   1.228   3.660
 5905SOL    HW218615   5.344   1.074   3.629
 5906SOL     OW18616   5.358   1.542   5.242
 5906SOL    HW118617   5.289   1.525   5.171
 5906SOL    HW218618   5.408   1.458   5.261
 5907SOL     OW18619   1.309   6.763   0.591
 5907SOL    HW118620   1.325   6.838   0.527
 5907SOL    HW218621   1.389   6.703   0.593
 5908SOL     OW18622   5.345   4.006   0.426
 5908SOL    HW118623   5.296   3.979   0.343
 5908SOL    HW218624   5.412   3.935   0.449
 5909SOL     OW18625   0.787   4.420   6.292
 5909SOL    HW118626   0.796   4.512   6.255
 5909SOL    HW218627   0.730   4.364   6.231
 5910SOL     OW18628   1.427   4.495   0.367
 5910SOL    HW118629   1.467   4.505   0.276
 5910SOL    HW218630   1.385   4.404   0.375
 5911SOL     OW18631   0.655   5.765   6.147
 5911SOL    HW118632   0.613   5.755   6.056
 5911SOL    HW218633   0.750   5.794   6.136
 5912SOL     OW18634   6.308   3.332   6.716
 5912SOL    HW118635   6.270   3.419   6.685
 5912SOL    HW218636   6.238   3.280   6.766
 5913SOL     OW18637   1.982   2.992   5.627
 5913SOL    HW118638   1.993   3.062   5.557
 5913SOL    HW218639   2.025   2.907   5.596
 5914SOL     OW18640   2.797   5.872   0.108
 5914SOL    HW118641   2.710   5.830   0.081
 5914SOL    HW218642   2.863   5.861   0.034
 5915SOL     OW18643   5.558   3.267   1.986
 5915SOL    HW118644   5.465   3.302   1.987
 5915SOL    HW218645   5.575   3.221   1.899
 5916SOL     OW18646   4.073   0.327   5.871
 5916SOL    HW118647   4.149   0.269   5.899
 5916SOL    HW218648   4.036   0.295   5.784
 5917SOL     OW18649   3.756   3.491   3.783
 5917SOL    HW118650   3.845   3.446   3.776
 5917SOL    HW218651   3.685   3.421   3.798
 5918SOL     OW18652   2.128   3.646   4.636
 5918SOL    HW118653   2.182   3.697   4.704
 5918SOL    HW218654   2.031   3.652   4.659
 5919SOL     OW18655   3.177   1.627   6.722
 5919SOL    HW118656   3.157   1.613   6.819
 5919SOL    HW218657   3.132   1.555   6.668
 5920SOL     OW18658   3.432   6.868   0.019
 5920SOL    HW118659   3.428   6.847   0.117
 5920SOL    HW218660   3.437   6.783   6.990
 5921SOL     OW18661   3.621   4.965   5.356
 5921SOL    HW118662   3.631   5.059   5.388
 5921SOL    HW218663   3.708   4.931   5.321
 5922SOL     OW18664   6.398   5.218   3.538
 5922SOL    HW118665   6.497   5.221   3.551
 5922SOL    HW218666   6.377   5.205   3.441
 5923SOL     OW18667   6.475   1.458   2.596
 5923SOL    HW118668   6.446   1.461   2.500
 5923SOL    HW218669   6.394   1.463   2.655
 5924SOL     OW18670   5.709   2.652   5.085
 5924SOL    HW118671   5.656   2.736   5.073
 5924SOL    HW218672   5.649   2.578   5.116
 5925SOL     OW18673   4.411   6.647   2.781
 5925SOL    HW118674   4.504   6.669   2.809
 5925SOL    HW218675   4.346   6.688   2.845
 5926SOL     OW18676   3.328   5.070   1.540
 5926SOL    HW118677   3.239   5.027   1.557
 5926SOL    HW218678   3.395   5.036   1.607
 5927SOL     OW18679   2.224   4.397   2.400
 5927SOL    HW118680   2.318   4.401   2.367
 5927SOL    HW218681   2.198   4.301   2.414
 5928SOL     OW18682   2.758   0.186   2.727
 5928SOL    HW118683   2.714   0.097   2.743
 5928SOL    HW218684   2.857   0.173   2.720
 5929SOL     OW18685   0.880   6.167   5.938
 5929SOL    HW118686   0.954   6.182   5.873
 5929SOL    HW218687   0.792   6.177   5.891
 5930SOL     OW18688   5.696   1.452   3.818
 5930SOL    HW118689   5.681   1.389   3.742
 5930SOL    HW218690   5.784   1.497   3.807
 5931SOL     OW18691   5.552   4.915   2.704
 5931SOL    HW118692   5.483   4.900   2.775
 5931SOL    HW218693   5.643   4.917   2.745
 5932SOL     OW18694   2.212   6.480   0.916
 5932SOL    HW118695   2.177   6.391   0.885
 5932SOL    HW218696   2.266   6.521   0.843
 5933SOL     OW18697   6.710   4.839   2.008
 5933SOL    HW118698   6.771   4.858   1.931
 5933SOL    HW218699   6.615   4.844   1.978
 5934SOL     OW18700   3.318   3.800   4.060
 5934SOL    HW118701   3.252   3.750   4.004
 5934SOL    HW218702   3.272   3.873   4.111
 5935SOL     OW18703   3.790   3.483   4.843
 5935SOL    HW118704   3.716   3.524   4.789
 5935SOL    HW218705   3.872   3.474   4.786
 5936SOL     OW18706   4.330   3.437   6.509
 5936SOL    HW118707   4.281   3.352   6.489
 5936SOL    HW218708   4.417   3.415   6.553
 5937SOL     OW18709   0.202   4.078   1.751
 5937SOL    HW118710   0.211   4.094   1.849
 5937SOL    HW218711   0.211   4.165   1.702
 5938SOL     OW18712   1.145   5.070   3.954
 5938SOL    HW118713   1.209   4.996   3.975
 5938SOL    HW218714   1.168   5.151   4.007
 5939SOL     OW18715   3.299   0.266   3.233
 5939SOL    HW118716   3.267   0.299   3.144
 5939SOL    HW218717   3.221   0.240   3.289
 5940SOL     OW18718   4.602   6.539   2.277
 5940SOL    HW118719   4.633   6.620   2.326
 5940SOL    HW218720   4.681   6.490   2.240
 5941SOL     OW18721   6.278   4.704   2.071
 5941SOL    HW118722   6.288   4.640   2.147
 5941SOL    HW218723   6.253   4.655   1.988
 5942SOL     OW18724   4.389   2.953   6.422
 5942SOL    HW118725   4.347   2.951   6.331
 5942SOL    HW218726   4.472   3.007   6.419
 5943SOL     OW18727   3.189   5.938   0.189
 5943SOL    HW118728   3.239   5.938   0.103
 5943SOL    HW218729   3.126   5.860   0.192
 5944SOL     OW18730   6.092   1.569   1.608
 5944SOL    HW118731   6.101   1.665   1.634
 5944SOL    HW218732   6.036   1.521   1.675
 5945SOL     OW18733   0.047   5.004   5.672
 5945SOL    HW118734   0.043   5.055   5.586
 5945SOL    HW218735   7.013   4.922   5.665
 5946SOL     OW18736   3.599   3.870   5.642
 5946SOL    HW118737   3.633   3.855   5.549
 5946SOL    HW218738   3.500   3.881   5.641
 5947SOL     OW18739   3.794   2.978   2.174
 5947SOL    HW118740   3.865   2.990   2.104
 5947SOL    HW218741   3.788   2.881   2.198
 5948SOL     OW18742   3.832   5.162   3.013
 5948SOL    HW118743   3.755   5.219   2.984
 5948SOL    HW218744   3.812   5.067   2.992
 5949SOL     OW18745   3.983   3.611   1.241
 5949SOL    HW118746   3.979   3.540   1.311
 5949SOL    HW218747   3.910   3.596   1.174
 5950SOL     OW18748   5.382   3.179   5.634
 5950SOL    HW118749   5.352   3.261   5.684
 5950SOL    HW218750   5.466   3.200   5.583
 5951SOL     OW18751   0.707   6.304   4.893
 5951SOL    HW118752   0.651   6.374   4.937
 5951SOL    HW218753   0.669   6.213   4.912
 5952SOL     OW18754   5.716   6.394   4.263
 5952SOL    HW118755   5.765   6.433   4.340
 5952SOL    HW218756   5.629   6.443   4.251
 5953SOL     OW18757   0.017   2.759   5.568
 5953SOL    HW118758   0.041   2.852   5.595
 5953SOL    HW218759   0.099   2.708   5.543
 5954SOL     OW18760   7.009   4.500   5.713
 5954SOL    HW118761   6.992   4.437   5.789
 5954SOL    HW218762   0.005   4.448   5.630
 5955SOL     OW18763   6.451   6.191   1.993
 5955SOL    HW118764   6.481   6.224   2.082
 5955SOL    HW218765   6.478   6.256   1.922
 5956SOL     OW18766   3.292   1.805   0.712
 5956SOL    HW118767   3.212   1.747   0.701
 5956SOL    HW218768   3.279   1.890   0.661
 5957SOL     OW18769   4.952   6.911   5.779
 5957SOL    HW118770   5.015   6.902   5.702
 5957SOL    HW218771   4.858   6.894   5.748
 5958SOL     OW18772   5.576   6.349   2.553
 5958SOL    HW118773   5.552   6.420   2.487
 5958SOL    HW218774   5.494   6.301   2.583
 5959SOL     OW18775   3.568   1.910   5.597
 5959SOL    HW118776   3.535   1.989   5.648
 5959SOL    HW218777   3.601   1.939   5.508
 5960SOL     OW18778   3.642   0.003   4.048
 5960SOL    HW118779   3.577   0.031   3.978
 5960SOL    HW218780   3.599   6.956   4.106
 5961SOL     OW18781   4.357   1.335   3.520
 5961SOL    HW118782   4.263   1.363   3.537
 5961SOL    HW218783   4.397   1.302   3.606
 5962SOL     OW18784   5.353   5.782   1.811
 5962SOL    HW118785   5.430   5.737   1.766
 5962SOL    HW218786   5.373   5.795   1.908
 5963SOL     OW18787   3.884   3.060   4.156
 5963SOL    HW118788   3.834   3.145   4.142
 5963SOL    HW218789   3.934   3.064   4.243
 5964SOL     OW18790   0.119   4.987   6.145
 5964SOL    HW118791   0.148   4.951   6.233
 5964SOL    HW218792   0.064   4.919   6.097
 5965SOL     OW18793   1.956   1.809   5.946
 5965SOL    HW118794   1.934   1.900   5.981
 5965SOL    HW218795   2.047   1.782   5.978
 5966SOL     OW18796   2.692   5.390   5.466
 5966SOL    HW118797   2.677   5.489   5.473
 5966SOL    HW218798   2.605   5.343   5.460
 5967SOL     OW18799   4.361   6.151   2.014
 5967SOL    HW118800   4.343   6.091   1.936
 5967SOL    HW218801   4.279   6.204   2.035
 5968SOL     OW18802   5.977   1.593   3.210
 5968SOL    HW118803   5.966   1.682   3.256
 5968SOL    HW218804   6.021   1.529   3.273
 5969SOL     OW18805   6.305   1.835   5.196
 5969SOL    HW118806   6.258   1.897   5.259
 5969SOL    HW218807   6.399   1.865   5.181
 5970SOL     OW18808   0.193   4.858   2.558
 5970SOL    HW118809   0.170   4.768   2.521
 5970SOL    HW218810   0.261   4.902   2.499
 5971SOL     OW18811   2.215   0.183   3.241
 5971SOL    HW118812   2.258   0.273   3.244
 5971SOL    HW218813   2.284   0.112   3.257
 5972SOL     OW18814   4.268   6.122   0.737
 5972SOL    HW118815   4.355   6.073   0.740
 5972SOL    HW218816   4.271   6.200   0.799
 5973SOL     OW18817   2.039   5.376   2.971
 5973SOL    HW118818   1.970   5.389   3.042
 5973SOL    HW218819   2.081   5.286   2.981
 5974SOL     OW18820   5.640   4.069   6.196
 5974SOL    HW118821   5.656   4.144   6.131
 5974SOL    HW218822   5.545   4.073   6.228
 5975SOL     OW18823   4.032   2.011   0.718
 5975SOL    HW118824   4.084   1.977   0.640
 5975SOL    HW218825   4.026   2.111   0.713
 5976SOL     OW18826   2.884   3.618   5.263
 5976SOL    HW118827   2.796   3.580   5.288
 5976SOL    HW218828   2.906   3.696   5.323
 5977SOL     OW18829   1.654   4.934   1.914
 5977SOL    HW118830   1.569   4.929   1.861
 5977SOL    HW218831   1.720   4.992   1.866
 5978SOL     OW18832   5.757   5.003   2.857
 5978SOL    HW118833   5.770   4.986   2.954
 5978SOL    HW218834   5.687   5.074   2.845
 5979SOL     OW18835   6.879   0.796   3.101
 5979SOL    HW118836   6.921   0.707   3.080
 5979SOL    HW218837   6.779   0.784   3.108
 5980SOL     OW18838   3.699   3.981   6.591
 5980SOL    HW118839   3.654   3.943   6.510
 5980SOL    HW218840   3.629   4.011   6.656
 5981SOL     OW18841   6.861   1.880   2.006
 5981SOL    HW118842   6.907   1.801   2.046
 5981SOL    HW218843   6.800   1.920   2.074
 5982SOL     OW18844   6.174   1.974   6.634
 5982SOL    HW118845   6.176   1.887   6.585
 5982SOL    HW218846   6.084   2.016   6.625
 5983SOL     OW18847   2.658   1.624   4.288
 5983SOL    HW118848   2.637   1.578   4.374
 5983SOL    HW218849   2.593   1.594   4.218
 5984SOL     OW18850   0.087   0.150   4.623
 5984SOL    HW118851   0.152   0.114   4.556
 5984SOL    HW218852   0.130   0.223   4.676
 5985SOL     OW18853   5.466   2.765   4.493
 5985SOL    HW118854   5.421   2.846   4.532
 5985SOL    HW218855   5.448   2.686   4.551
 5986SOL     OW18856   3.421   3.115   4.522
 5986SOL    HW118857   3.427   3.049   4.447
 5986SOL    HW218858   3.328   3.117   4.557
 5987SOL     OW18859   4.224   1.200   5.199
 5987SOL    HW118860   4.322   1.186   5.208
 5987SOL    HW218861   4.178   1.166   5.281
 5988SOL     OW18862   4.061   6.050   4.755
 5988SOL    HW118863   4.016   6.084   4.671
 5988SOL    HW218864   4.089   6.128   4.811
 5989SOL     OW18865   2.365   6.212   6.602
 5989SOL    HW118866   2.389   6.303   6.636
 5989SOL    HW218867   2.300   6.220   6.527
 5990SOL     OW18868   3.654   3.980   0.719
 5990SOL    HW118869   3.685   3.947   0.630
 5990SOL    HW218870   3.727   4.031   0.763
 5991SOL     OW18871   4.472   4.762   5.067
 5991SOL    HW118872   4.387   4.813   5.081
 5991SOL    HW218873   4.451   4.676   5.018
 5992SOL     OW18874   3.625   0.706   3.826
 5992SOL    HW118875   3.641   0.622   3.877
 5992SOL    HW218876   3.712   0.752   3.809
 5993SOL     OW18877   3.480   6.962   5.915
 5993SOL    HW118878   3.407   6.983   5.980
 5993SOL    HW218879   3.460   7.003   5.827
 5994SOL     OW18880   6.060   2.307   1.890
 5994SOL    HW118881   5.965   2.314   1.861
 5994SOL    HW218882   6.111   2.387   1.856
 5995SOL     OW18883   6.699   5.505   1.552
 5995SOL    HW118884   6.649   5.499   1.638
 5995SOL    HW218885   6.640   5.543   1.481
 5996SOL     OW18886   0.830   5.582   6.874
 5996SOL    HW118887   0.770   5.619   6.802
 5996SOL    HW218888   0.896   5.651   6.901
 5997SOL     OW18889   0.691   6.498   2.747
 5997SOL    HW118890   0.633   6.556   2.689
 5997SOL    HW218891   0.734   6.428   2.690
 5998SOL     OW18892   5.147   2.493   2.476
 5998SOL    HW118893   5.230   2.545   2.457
 5998SOL    HW218894   5.074   2.523   2.415
 5999SOL     OW18895   1.045   2.463   2.814
 5999SOL    HW118896   1.014   2.497   2.903
 5999SOL    HW218897   1.093   2.376   2.826
 6000SOL     OW18898   4.300   5.733   1.989
 6000SOL    HW118899   4.205   5.764   1.998
 6000SOL    HW218900   4.353   5.766   2.067
 6001SOL     OW18901   0.803   3.914   6.405
 6001SOL    HW118902   0.819   3.980   6.332
 6001SOL    HW218903   0.724   3.857   6.382
 6002SOL     OW18904   0.651   6.568   1.421
 6002SOL    HW118905   0.561   6.608   1.438
 6002SOL    HW218906   0.720   6.640   1.418
 6003SOL     OW18907   6.186   2.570   4.678
 6003SOL    HW118908   6.248   2.500   4.712
 6003SOL    HW218909   6.092   2.544   4.700
 6004SOL     OW18910   0.328   4.204   3.371
 6004SOL    HW118911   0.372   4.116   3.355
 6004SOL    HW218912   0.366   4.272   3.309
 6005SOL     OW18913   4.469   4.914   4.313
 6005SOL    HW118914   4.385   4.967   4.317
 6005SOL    HW218915   4.460   4.833   4.371
 6006SOL     OW18916   3.464   6.629   6.903
 6006SOL    HW118917   3.446   6.576   6.986
 6006SOL    HW218918   3.494   6.567   6.830
 6007SOL     OW18919   4.928   3.146   3.670
 6007SOL    HW118920   4.904   3.235   3.632
 6007SOL    HW218921   5.027   3.142   3.683
 6008SOL     OW18922   2.418   5.480   6.146
 6008SOL    HW118923   2.361   5.401   6.168
 6008SOL    HW218924   2.471   5.506   6.227
 6009SOL     OW18925   2.988   1.347   4.695
 6009SOL    HW118926   3.026   1.429   4.652
 6009SOL    HW218927   3.056   1.306   4.755
 6010SOL     OW18928   2.410   4.445   2.185
 6010SOL    HW118929   2.472   4.524   2.179
 6010SOL    HW218930   2.463   4.361   2.176
 6011SOL     OW18931   5.209   2.562   2.178
 6011SOL    HW118932   5.239   2.635   2.240
 6011SOL    HW218933   5.270   2.560   2.099
 6012SOL     OW18934   6.941   2.167   0.355
 6012SOL    HW118935   6.847   2.196   0.373
 6012SOL    HW218936   6.992   2.162   0.442
 6013SOL     OW18937   5.658   1.231   2.892
 6013SOL    HW118938   5.627   1.270   2.805
 6013SOL    HW218939   5.687   1.305   2.953
 6014SOL     OW18940   4.588   1.176   0.775
 6014SOL    HW118941   4.652   1.193   0.700
 6014SOL    HW218942   4.636   1.130   0.850
 6015SOL     OW18943   6.172   2.527   6.015
 6015SOL    HW118944   6.079   2.523   5.978
 6015SOL    HW218945   6.220   2.605   5.976
 6016SOL     OW18946   0.788   1.314   6.608
 6016SOL    HW118947   0.878   1.272   6.617
 6016SOL    HW218948   0.717   1.247   6.628
 6017SOL     OW18949   6.360   5.188   2.756
 6017SOL    HW118950   6.406   5.198   2.668
 6017SOL    HW218951   6.269   5.228   2.751
 6018SOL     OW18952   3.695   2.735   0.218
 6018SOL    HW118953   3.654   2.713   0.306
 6018SOL    HW218954   3.637   2.801   0.170
 6019SOL     OW18955   5.065   1.973   3.796
 6019SOL    HW118956   5.054   1.919   3.879
 6019SOL    HW218957   4.989   2.037   3.787
 6020SOL     OW18958   2.202   6.487   1.811
 6020SOL    HW118959   2.123   6.515   1.757
 6020SOL    HW218960   2.231   6.562   1.870
 6021SOL     OW18961   4.762   0.077   2.840
 6021SOL    HW118962   4.819   0.025   2.777
 6021SOL    HW218963   4.670   0.086   2.803
 6022SOL     OW18964   4.191   0.882   4.772
 6022SOL    HW118965   4.175   0.921   4.681
 6022SOL    HW218966   4.197   0.956   4.839
 6023SOL     OW18967   6.230   1.423   2.759
 6023SOL    HW118968   6.140   1.395   2.791
 6023SOL    HW218969   6.242   1.521   2.772
 6024SOL     OW18970   0.385   4.408   2.956
 6024SOL    HW118971   0.414   4.497   2.922
 6024SOL    HW218972   0.379   4.411   3.056
 6025SOL     OW18973   4.248   0.294   2.431
 6025SOL    HW118974   4.150   0.312   2.432
 6025SOL    HW218975   4.265   0.197   2.415
 6026SOL     OW18976   0.140   4.267   4.220
 6026SOL    HW118977   0.110   4.190   4.275
 6026SOL    HW218978   0.100   4.260   4.128
 6027SOL     OW18979   1.883   3.998   5.638
 6027SOL    HW118980   1.972   3.995   5.683
 6027SOL    HW218981   1.817   4.044   5.698
 6028SOL     OW18982   0.866   3.992   0.438
 6028SOL    HW118983   0.945   3.932   0.438
 6028SOL    HW218984   0.882   4.068   0.374
 6029SOL     OW18985   2.154   6.518   6.872
 6029SOL    HW118986   2.192   6.536   6.781
 6029SOL    HW218987   2.060   6.486   6.863
 6030SOL     OW18988   2.652   0.270   3.335
 6030SOL    HW118989   2.649   0.175   3.366
 6030SOL    HW218990   2.747   0.298   3.322
 6031SOL     OW18991   4.355   5.312   4.488
 6031SOL    HW118992   4.412   5.349   4.415
 6031SOL    HW218993   4.359   5.212   4.487
 6032SOL     OW18994   1.634   3.425   2.394
 6032SOL    HW118995   1.696   3.396   2.321
 6032SOL    HW218996   1.569   3.352   2.414
 6033SOL     OW18997   2.256   2.715   2.756
 6033SOL    HW118998   2.322   2.679   2.822
 6033SOL    HW218999   2.178   2.652   2.748
 6034SOL     OW19000   1.950   5.258   4.320
 6034SOL    HW119001   2.040   5.218   4.339
 6034SOL    HW219002   1.962   5.352   4.285
 6035SOL     OW19003   6.272   1.397   4.103
 6035SOL    HW119004   6.318   1.477   4.143
 6035SOL    HW219005   6.224   1.347   4.175
 6036SOL     OW19006   0.174   6.737   4.570
 6036SOL    HW119007   0.213   6.762   4.482
 6036SOL    HW219008   0.226   6.780   4.644
 6037SOL     OW19009   4.837   4.921   6.338
 6037SOL    HW119010   4.854   4.864   6.418
 6037SOL    HW219011   4.922   4.934   6.287
 6038SOL     OW19012   0.918   3.160   6.039
 6038SOL    HW119013   0.940   3.252   6.006
 6038SOL    HW219014   1.003   3.110   6.055
 6039SOL     OW19015   3.378   3.268   3.234
 6039SOL    HW119016   3.375   3.324   3.151
 6039SOL    HW219017   3.419   3.179   3.212
 6040SOL     OW19018   0.606   1.964   6.104
 6040SOL    HW119019   0.525   2.010   6.140
 6040SOL    HW219020   0.684   1.982   6.163
 6041SOL     OW19021   1.763   1.692   6.141
 6041SOL    HW119022   1.817   1.747   6.078
 6041SOL    HW219023   1.783   1.719   6.235
 6042SOL     OW19024   5.933   5.151   1.862
 6042SOL    HW119025   5.877   5.087   1.914
 6042SOL    HW219026   6.015   5.105   1.827
 6043SOL     OW19027   1.140   4.980   4.900
 6043SOL    HW119028   1.069   4.961   4.832
 6043SOL    HW219029   1.222   4.926   4.880
 6044SOL     OW19030   0.284   2.115   1.134
 6044SOL    HW119031   0.250   2.036   1.082
 6044SOL    HW219032   0.261   2.104   1.230
 6045SOL     OW19033   5.391   5.575   1.278
 6045SOL    HW119034   5.311   5.553   1.222
 6045SOL    HW219035   5.373   5.655   1.334
 6046SOL     OW19036   2.922   1.925   0.784
 6046SOL    HW119037   2.991   1.991   0.814
 6046SOL    HW219038   2.840   1.936   0.840
 6047SOL     OW19039   6.083   1.458   3.452
 6047SOL    HW119040   6.145   1.383   3.472
 6047SOL    HW219041   5.996   1.443   3.499
 6048SOL     OW19042   4.494   6.898   3.376
 6048SOL    HW119043   4.412   6.856   3.414
 6048SOL    HW219044   4.566   6.899   3.445
 6049SOL     OW19045   5.222   3.626   6.559
 6049SOL    HW119046   5.248   3.646   6.464
 6049SOL    HW219047   5.203   3.712   6.607
 6050SOL     OW19048   3.762   4.233   5.970
 6050SOL    HW119049   3.723   4.291   5.899
 6050SOL    HW219050   3.848   4.193   5.937
 6051SOL     OW19051   2.300   1.802   3.288
 6051SOL    HW119052   2.386   1.817   3.238
 6051SOL    HW219053   2.223   1.832   3.231
 6052SOL     OW19054   6.601   6.897   0.765
 6052SOL    HW119055   6.658   6.975   0.792
 6052SOL    HW219056   6.595   6.893   0.665
 6053SOL     OW19057   3.621   0.297   6.597
 6053SOL    HW119058   3.544   0.360   6.606
 6053SOL    HW219059   3.679   0.305   6.679
 6054SOL     OW19060   2.483   3.423   0.809
 6054SOL    HW119061   2.421   3.413   0.887
 6054SOL    HW219062   2.429   3.437   0.726
 6055SOL     OW19063   5.397   0.846   6.095
 6055SOL    HW119064   5.483   0.877   6.135
 6055SOL    HW219065   5.408   0.755   6.055
 6056SOL     OW19066   4.725   2.144   4.686
 6056SOL    HW119067   4.671   2.060   4.695
 6056SOL    HW219068   4.800   2.129   4.621
 6057SOL     OW19069   4.551   2.002   4.419
 6057SOL    HW119070   4.622   2.027   4.353
 6057SOL    HW219071   4.532   1.904   4.412
 6058SOL     OW19072   5.479   3.027   2.769
 6058SOL    HW119073   5.430   3.036   2.682
 6058SOL    HW219074   5.558   2.967   2.756
 6059SOL     OW19075   4.589   5.484   5.829
 6059SOL    HW119076   4.666   5.468   5.890
 6059SOL    HW219077   4.523   5.409   5.838
 6060SOL     OW19078   3.201   3.887   5.404
 6060SOL    HW119079   3.258   3.862   5.483
 6060SOL    HW219080   3.109   3.851   5.417
 6061SOL     OW19081   3.780   2.527   0.536
 6061SOL    HW119082   3.845   2.536   0.461
 6061SOL    HW219083   3.719   2.607   0.537
 6062SOL     OW19084   2.501   1.603   4.771
 6062SOL    HW119085   2.475   1.507   4.784
 6062SOL    HW219086   2.599   1.613   4.786
 6063SOL     OW19087   4.168   1.438   6.657
 6063SOL    HW119088   4.248   1.378   6.664
 6063SOL    HW219089   4.102   1.414   6.729
 6064SOL     OW19090   2.453   5.398   2.913
 6064SOL    HW119091   2.393   5.457   2.967
 6064SOL    HW219092   2.414   5.306   2.908
 6065SOL     OW19093   6.110   6.719   1.316
 6065SOL    HW119094   6.011   6.708   1.328
 6065SOL    HW219095   6.156   6.635   1.343
 6066SOL     OW19096   4.486   1.435   1.150
 6066SOL    HW119097   4.533   1.495   1.086
 6066SOL    HW219098   4.520   1.342   1.140
 6067SOL     OW19099   6.551   1.666   6.839
 6067SOL    HW119100   6.600   1.684   6.924
 6067SOL    HW219101   6.571   1.739   6.773
 6068SOL     OW19102   5.715   3.768   4.806
 6068SOL    HW119103   5.734   3.861   4.774
 6068SOL    HW219104   5.777   3.704   4.761
 6069SOL     OW19105   0.014   3.715   6.307
 6069SOL    HW119106   6.963   3.648   6.308
 6069SOL    HW219107   0.010   3.768   6.222
 6070SOL     OW19108   2.981   1.577   6.133
 6070SOL    HW119109   3.043   1.650   6.105
 6070SOL    HW219110   2.907   1.570   6.066
 6071SOL     OW19111   4.754   6.236   5.743
 6071SOL    HW119112   4.804   6.163   5.789
 6071SOL    HW219113   4.770   6.322   5.792
 6072SOL     OW19114   0.838   1.362   2.208
 6072SOL    HW119115   0.911   1.317   2.156
 6072SOL    HW219116   0.814   1.306   2.287
 6073SOL     OW19117   6.291   3.537   0.608
 6073SOL    HW119118   6.204   3.509   0.569
 6073SOL    HW219119   6.362   3.535   0.538
 6074SOL     OW19120   1.448   6.604   4.585
 6074SOL    HW119121   1.360   6.593   4.538
 6074SOL    HW219122   1.433   6.648   4.674
 6075SOL     OW19123   6.847   2.387   6.510
 6075SOL    HW119124   6.780   2.314   6.496
 6075SOL    HW219125   6.803   2.476   6.495
 6076SOL     OW19126   2.093   6.871   5.000
 6076SOL    HW119127   2.034   6.868   4.919
 6076SOL    HW219128   2.128   6.963   5.013
 6077SOL     OW19129   4.939   5.408   2.576
 6077SOL    HW119130   4.974   5.346   2.505
 6077SOL    HW219131   4.937   5.360   2.664
 6078SOL     OW19132   3.483   4.903   2.360
 6078SOL    HW119133   3.574   4.862   2.358
 6078SOL    HW219134   3.436   4.884   2.274
 6079SOL     OW19135   3.278   3.381   6.339
 6079SOL    HW119136   3.179   3.391   6.340
 6079SOL    HW219137   3.320   3.459   6.385
 6080SOL     OW19138   0.218   1.791   1.278
 6080SOL    HW119139   0.254   1.754   1.192
 6080SOL    HW219140   0.126   1.826   1.264
 6081SOL     OW19141   6.404   3.515   4.664
 6081SOL    HW119142   6.500   3.488   4.655
 6081SOL    HW219143   6.365   3.473   4.746
 6082SOL     OW19144   3.542   0.978   3.483
 6082SOL    HW119145   3.622   0.978   3.544
 6082SOL    HW219146   3.485   1.057   3.503
 6083SOL     OW19147   0.932   5.653   6.489
 6083SOL    HW119148   0.862   5.652   6.560
 6083SOL    HW219149   0.966   5.746   6.477
 6084SOL     OW19150   0.011   5.757   3.921
 6084SOL    HW119151   6.960   5.793   3.979
 6084SOL    HW219152   0.077   5.830   3.902
 6085SOL     OW19153   6.840   4.071   0.526
 6085SOL    HW119154   6.840   4.056   0.625
 6085SOL    HW219155   6.922   4.031   0.486
 6086SOL     OW19156   3.743   1.439   4.789
 6086SOL    HW119157   3.687   1.503   4.842
 6086SOL    HW219158   3.766   1.480   4.701
 6087SOL     OW19159   4.760   0.024   6.967
 6087SOL    HW119160   4.786   0.058   0.035
 6087SOL    HW219161   4.803   0.080   6.897
 6088SOL     OW19162   0.073   6.288   4.387
 6088SOL    HW119163   0.147   6.221   4.377
 6088SOL    HW219164   0.039   6.287   4.481
 6089SOL     OW19165   0.206   3.964   1.485
 6089SOL    HW119166   0.241   3.995   1.573
 6089SOL    HW219167   0.144   4.033   1.448
 6090SOL     OW19168   0.661   6.109   6.462
 6090SOL    HW119169   0.658   6.089   6.560
 6090SOL    HW219170   0.746   6.073   6.423
 6091SOL     OW19171   0.868   1.593   2.655
 6091SOL    HW119172   0.871   1.693   2.656
 6091SOL    HW219173   0.888   1.560   2.563
 6092SOL     OW19174   2.946   0.396   3.380
 6092SOL    HW119175   2.910   0.352   3.297
 6092SOL    HW219176   3.020   0.459   3.355
 6093SOL     OW19177   1.595   2.652   2.390
 6093SOL    HW119178   1.562   2.743   2.366
 6093SOL    HW219179   1.602   2.645   2.490
 6094SOL     OW19180   2.629   1.292   1.522
 6094SOL    HW119181   2.679   1.373   1.554
 6094SOL    HW219182   2.533   1.316   1.506
 6095SOL     OW19183   4.693   2.954   6.646
 6095SOL    HW119184   4.749   2.901   6.583
 6095SOL    HW219185   4.672   3.042   6.606
 6096SOL     OW19186   5.782   0.789   4.040
 6096SOL    HW119187   5.815   0.741   3.959
 6096SOL    HW219188   5.683   0.782   4.045
 6097SOL     OW19189   2.090   0.462   3.098
 6097SOL    HW119190   2.122   0.375   3.136
 6097SOL    HW219191   2.096   0.533   3.169
 6098SOL     OW19192   1.876   2.364   5.569
 6098SOL    HW119193   1.845   2.276   5.603
 6098SOL    HW219194   1.851   2.373   5.472
 6099SOL     OW19195   5.640   5.754   5.725
 6099SOL    HW119196   5.704   5.830   5.736
 6099SOL    HW219197   5.654   5.711   5.636
 6100SOL     OW19198   5.964   3.297   6.723
 6100SOL    HW119199   5.886   3.241   6.695
 6100SOL    HW219200   6.012   3.252   6.798
 6101SOL     OW19201   6.698   1.750   5.600
 6101SOL    HW119202   6.720   1.686   5.526
 6101SOL    HW219203   6.599   1.758   5.608
 6102SOL     OW19204   3.359   1.005   4.579
 6102SOL    HW119205   3.326   1.096   4.602
 6102SOL    HW219206   3.390   1.003   4.484
 6103SOL     OW19207   6.938   0.857   3.821
 6103SOL    HW119208   6.889   0.943   3.815
 6103SOL    HW219209   6.924   0.816   3.912
 6104SOL     OW19210   6.596   2.272   6.401
 6104SOL    HW119211   6.631   2.178   6.393
 6104SOL    HW219212   6.501   2.270   6.431
 6105SOL     OW19213   3.351   6.497   5.377
 6105SOL    HW119214   3.407   6.511   5.458
 6105SOL    HW219215   3.405   6.520   5.295
 6106SOL     OW19216   2.178   4.687   6.272
 6106SOL    HW119217   2.085   4.667   6.302
 6106SOL    HW219218   2.210   4.771   6.315
 6107SOL     OW19219   2.509   5.420   4.284
 6107SOL    HW119220   2.522   5.513   4.250
 6107SOL    HW219221   2.527   5.355   4.210
 6108SOL     OW19222   0.603   2.088   3.039
 6108SOL    HW119223   0.565   2.161   3.095
 6108SOL    HW219224   0.538   2.012   3.033
 6109SOL     OW19225   5.196   2.600   6.663
 6109SOL    HW119226   5.138   2.678   6.641
 6109SOL    HW219227   5.189   2.531   6.590
 6110SOL     OW19228   2.448   2.650   6.825
 6110SOL    HW119229   2.395   2.723   6.781
 6110SOL    HW219230   2.405   2.562   6.806
 6111SOL     OW19231   1.300   4.852   2.564
 6111SOL    HW119232   1.239   4.809   2.498
 6111SOL    HW219233   1.386   4.875   2.519
 6112SOL     OW19234   2.150   2.446   2.941
 6112SOL    HW119235   2.060   2.407   2.921
 6112SOL    HW219236   2.147   2.495   3.028
 6113SOL     OW19237   0.550   0.988   6.282
 6113SOL    HW119238   0.598   0.987   6.370
 6113SOL    HW219239   0.453   1.001   6.298
 6114SOL     OW19240   5.103   5.195   0.920
 6114SOL    HW119241   5.007   5.221   0.908
 6114SOL    HW219242   5.110   5.134   0.999
 6115SOL     OW19243   5.159   5.504   3.316
 6115SOL    HW119244   5.190   5.431   3.255
 6115SOL    HW219245   5.147   5.467   3.409
 6116SOL     OW19246   3.017   1.027   1.779
 6116SOL    HW119247   2.953   1.063   1.847
 6116SOL    HW219248   2.967   0.980   1.707
 6117SOL     OW19249   6.708   0.202   5.252
 6117SOL    HW119250   6.737   0.250   5.169
 6117SOL    HW219251   6.788   0.181   5.309
 6118SOL     OW19252   0.301   2.398   1.481
 6118SOL    HW119253   0.207   2.379   1.510
 6118SOL    HW219254   0.340   2.469   1.539
 6119SOL     OW19255   0.169   4.671   4.298
 6119SOL    HW119256   0.267   4.652   4.308
 6119SOL    HW219257   0.116   4.598   4.341
 6120SOL     OW19258   3.144   0.037   3.696
 6120SOL    HW119259   3.055   0.014   3.734
 6120SOL    HW219260   3.170   0.129   3.724
 6121SOL     OW19261   6.772   2.769   4.886
 6121SOL    HW119262   6.842   2.831   4.850
 6121SOL    HW219263   6.711   2.819   4.947
 6122SOL     OW19264   3.799   6.627   2.450
 6122SOL    HW119265   3.867   6.577   2.504
 6122SOL    HW219266   3.710   6.581   2.458
 6123SOL     OW19267   0.182   0.897   1.495
 6123SOL    HW119268   0.272   0.935   1.473
 6123SOL    HW219269   0.121   0.970   1.525
 6124SOL     OW19270   3.275   6.505   4.950
 6124SOL    HW119271   3.245   6.451   4.872
 6124SOL    HW219272   3.307   6.594   4.918
 6125SOL     OW19273   2.435   5.676   1.302
 6125SOL    HW119274   2.469   5.767   1.327
 6125SOL    HW219275   2.513   5.614   1.289
 6126SOL     OW19276   5.198   5.785   4.182
 6126SOL    HW119277   5.279   5.749   4.135
 6126SOL    HW219278   5.194   5.885   4.169
 6127SOL     OW19279   2.229   6.864   1.222
 6127SOL    HW119280   2.164   6.838   1.293
 6127SOL    HW219281   2.320   6.830   1.246
 6128SOL     OW19282   6.889   2.893   0.354
 6128SOL    HW119283   6.900   2.979   0.306
 6128SOL    HW219284   6.853   2.824   0.292
 6129SOL     OW19285   6.637   3.818   2.891
 6129SOL    HW119286   6.613   3.845   2.798
 6129SOL    HW219287   6.735   3.796   2.895
 6130SOL     OW19288   6.448   3.200   4.643
 6130SOL    HW119289   6.409   3.260   4.713
 6130SOL    HW219290   6.504   3.254   4.580
 6131SOL     OW19291   0.202   1.497   5.574
 6131SOL    HW119292   0.279   1.550   5.538
 6131SOL    HW219293   0.184   1.420   5.514
 6132SOL     OW19294   3.153   0.750   1.090
 6132SOL    HW119295   3.165   0.849   1.078
 6132SOL    HW219296   3.171   0.726   1.185
 6133SOL     OW19297   0.608   2.992   2.882
 6133SOL    HW119298   0.556   2.940   2.814
 6133SOL    HW219299   0.687   3.034   2.838
 6134SOL     OW19300   4.061   3.174   6.321
 6134SOL    HW119301   3.989   3.243   6.314
 6134SOL    HW219302   4.136   3.197   6.260
 6135SOL     OW19303   6.191   0.095   1.889
 6135SOL    HW119304   6.246   0.013   1.905
 6135SOL    HW219305   6.242   0.175   1.918
 6136SOL     OW19306   0.515   1.214   2.620
 6136SOL    HW119307   0.455   1.135   2.635
 6136SOL    HW219308   0.592   1.209   2.684
 6137SOL     OW19309   3.620   1.181   6.174
 6137SOL    HW119310   3.640   1.270   6.216
 6137SOL    HW219311   3.686   1.164   6.101
 6138SOL     OW19312   3.759   6.887   2.584
 6138SOL    HW119313   3.791   6.794   2.567
 6138SOL    HW219314   3.734   6.897   2.680
 6139SOL     OW19315   2.019   3.338   5.004
 6139SOL    HW119316   2.066   3.426   5.002
 6139SOL    HW219317   2.047   3.283   4.926
 6140SOL     OW19318   0.555   6.782   2.007
 6140SOL    HW119319   0.469   6.742   1.977
 6140SOL    HW219320   0.555   6.790   2.107
 6141SOL     OW19321   6.311   6.407   4.429
 6141SOL    HW119322   6.286   6.332   4.490
 6141SOL    HW219323   6.383   6.462   4.472
 6142SOL     OW19324   0.421   5.483   0.569
 6142SOL    HW119325   0.479   5.518   0.642
 6142SOL    HW219326   0.326   5.511   0.584
 6143SOL     OW19327   5.725   4.583   6.708
 6143SOL    HW119328   5.630   4.592   6.676
 6143SOL    HW219329   5.787   4.604   6.633
 6144SOL     OW19330   6.866   4.508   2.693
 6144SOL    HW119331   6.946   4.448   2.698
 6144SOL    HW219332   6.888   4.597   2.733
 6145SOL     OW19333   4.708   5.864   3.685
 6145SOL    HW119334   4.788   5.874   3.744
 6145SOL    HW219335   4.637   5.929   3.713
 6146SOL     OW19336   4.539   1.054   3.529
 6146SOL    HW119337   4.463   1.060   3.464
 6146SOL    HW219338   4.614   1.114   3.499
 6147SOL     OW19339   1.387   4.583   3.101
 6147SOL    HW119340   1.343   4.527   3.170
 6147SOL    HW219341   1.442   4.526   3.040
 6148SOL     OW19342   6.982   6.678   4.198
 6148SOL    HW119343   6.969   6.759   4.140
 6148SOL    HW219344   6.940   6.695   4.287
 6149SOL     OW19345   3.493   5.063   3.252
 6149SOL    HW119346   3.401   5.027   3.243
 6149SOL    HW219347   3.559   4.990   3.233
 6150SOL     OW19348   4.439   5.039   6.963
 6150SOL    HW119349   4.465   4.947   6.934
 6150SOL    HW219350   4.506   5.105   6.931
 6151SOL     OW19351   5.907   3.584   4.672
 6151SOL    HW119352   5.910   3.489   4.703
 6151SOL    HW219353   5.998   3.614   4.644
 6152SOL     OW19354   5.329   4.658   5.810
 6152SOL    HW119355   5.308   4.719   5.733
 6152SOL    HW219356   5.313   4.707   5.896
 6153SOL     OW19357   4.724   3.993   1.717
 6153SOL    HW119358   4.795   3.927   1.693
 6153SOL    HW219359   4.634   3.952   1.703
 6154SOL     OW19360   5.257   1.295   2.079
 6154SOL    HW119361   5.194   1.319   2.005
 6154SOL    HW219362   5.311   1.376   2.104
 6155SOL     OW19363   1.591   3.013   4.247
 6155SOL    HW119364   1.537   2.932   4.267
 6155SOL    HW219365   1.687   2.988   4.235
 6156SOL     OW19366   4.693   5.491   2.505
 6156SOL    HW119367   4.780   5.474   2.551
 6156SOL    HW219368   4.646   5.568   2.549
 6157SOL     OW19369   1.216   2.255   3.575
 6157SOL    HW119370   1.306   2.264   3.618
 6157SOL    HW219371   1.202   2.330   3.510
 6158SOL     OW19372   4.951   0.890   6.625
 6158SOL    HW119373   5.015   0.953   6.581
 6158SOL    HW219374   4.870   0.879   6.568
 6159SOL     OW19375   5.046   1.551   6.885
 6159SOL    HW119376   5.093   1.574   6.970
 6159SOL    HW219377   4.956   1.511   6.906
 6160SOL     OW19378   5.662   5.871   0.431
 6160SOL    HW119379   5.645   5.816   0.513
 6160SOL    HW219380   5.574   5.895   0.389
 6161SOL     OW19381   6.015   1.934   5.985
 6161SOL    HW119382   6.093   1.996   5.978
 6161SOL    HW219383   5.998   1.911   6.081
 6162SOL     OW19384   0.891   5.164   4.601
 6162SOL    HW119385   0.832   5.227   4.652
 6162SOL    HW219386   0.866   5.166   4.505
 6163SOL     OW19387   5.559   5.371   0.874
 6163SOL    HW119388   5.476   5.342   0.921
 6163SOL    HW219389   5.535   5.413   0.786
 6164SOL     OW19390   2.034   2.634   1.745
 6164SOL    HW119391   1.999   2.545   1.772
 6164SOL    HW219392   1.999   2.657   1.654
 6165SOL     OW19393   4.060   5.936   0.248
 6165SOL    HW119394   4.055   5.839   0.224
 6165SOL    HW219395   4.125   5.982   0.188
 6166SOL     OW19396   3.325   1.220   5.461
 6166SOL    HW119397   3.239   1.231   5.511
 6166SOL    HW219398   3.396   1.274   5.506
 6167SOL     OW19399   0.828   4.796   2.399
 6167SOL    HW119400   0.844   4.866   2.469
 6167SOL    HW219401   0.736   4.760   2.409
 6168SOL     OW19402   0.629   3.801   1.116
 6168SOL    HW119403   0.577   3.779   1.198
 6168SOL    HW219404   0.727   3.798   1.136
 6169SOL     OW19405   1.814   2.948   1.923
 6169SOL    HW119406   1.829   2.935   2.021
 6169SOL    HW219407   1.891   2.999   1.884
 6170SOL     OW19408   0.327   3.362   5.167
 6170SOL    HW119409   0.360   3.268   5.180
 6170SOL    HW219410   0.237   3.371   5.210
 6171SOL     OW19411   0.055   1.480   0.631
 6171SOL    HW119412   0.079   1.467   0.534
 6171SOL    HW219413   6.983   1.511   0.638
 6172SOL     OW19414   0.646   2.534   3.185
 6172SOL    HW119415   0.644   2.615   3.125
 6172SOL    HW219416   0.739   2.497   3.186
 6173SOL     OW19417   6.592   5.434   2.862
 6173SOL    HW119418   6.687   5.462   2.872
 6173SOL    HW219419   6.572   5.361   2.927
 6174SOL     OW19420   4.881   5.181   3.307
 6174SOL    HW119421   4.850   5.265   3.260
 6174SOL    HW219422   4.980   5.171   3.294
 6175SOL     OW19423   3.186   0.723   4.882
 6175SOL    HW119424   3.161   0.641   4.832
 6175SOL    HW219425   3.260   0.770   4.834
 6176SOL     OW19426   4.391   3.539   5.252
 6176SOL    HW119427   4.491   3.532   5.252
 6176SOL    HW219428   4.363   3.622   5.300
 6177SOL     OW19429   5.777   1.962   1.270
 6177SOL    HW119430   5.853   1.898   1.254
 6177SOL    HW219431   5.743   1.951   1.363
 6178SOL     OW19432   4.854   3.561   1.839
 6178SOL    HW119433   4.814   3.614   1.914
 6178SOL    HW219434   4.898   3.480   1.876
 6179SOL     OW19435   6.736   4.861   1.492
 6179SOL    HW119436   6.738   4.930   1.420
 6179SOL    HW219437   6.785   4.779   1.461
 6180SOL     OW19438   3.005   4.735   0.884
 6180SOL    HW119439   2.985   4.643   0.917
 6180SOL    HW219440   3.100   4.741   0.856
 6181SOL     OW19441   5.122   5.680   6.094
 6181SOL    HW119442   5.131   5.634   6.005
 6181SOL    HW219443   5.213   5.700   6.130
 6182SOL     OW19444   3.947   2.844   6.995
 6182SOL    HW119445   3.942   2.868   0.069
 6182SOL    HW219446   4.029   2.789   6.978
 6183SOL     OW19447   1.741   1.992   1.193
 6183SOL    HW119448   1.763   2.028   1.103
 6183SOL    HW219449   1.800   2.035   1.262
 6184SOL     OW19450   3.064   0.678   6.014
 6184SOL    HW119451   3.146   0.636   5.976
 6184SOL    HW219452   2.989   0.673   5.947
 6185SOL     OW19453   2.735   3.394   5.826
 6185SOL    HW119454   2.657   3.357   5.777
 6185SOL    HW219455   2.719   3.491   5.846
 6186SOL     OW19456   0.113   2.146   1.777
 6186SOL    HW119457   0.074   2.155   1.868
 6186SOL    HW219458   0.212   2.135   1.784
 6187SOL     OW19459   4.759   2.458   4.817
 6187SOL    HW119460   4.686   2.442   4.750
 6187SOL    HW219461   4.750   2.394   4.893
 6188SOL     OW19462   1.578   1.692   5.277
 6188SOL    HW119463   1.604   1.761   5.209
 6188SOL    HW219464   1.547   1.610   5.230
 6189SOL     OW19465   4.058   5.276   2.403
 6189SOL    HW119466   4.105   5.364   2.398
 6189SOL    HW219467   3.959   5.291   2.404
 6190SOL     OW19468   6.461   3.366   6.004
 6190SOL    HW119469   6.441   3.279   6.051
 6190SOL    HW219470   6.545   3.356   5.951
 6191SOL     OW19471   2.044   2.946   5.320
 6191SOL    HW119472   2.046   3.026   5.261
 6191SOL    HW219473   2.137   2.911   5.334
 6192SOL     OW19474   2.137   1.483   6.346
 6192SOL    HW119475   2.100   1.546   6.277
 6192SOL    HW219476   2.109   1.514   6.437
 6193SOL     OW19477   5.144   5.189   0.518
 6193SOL    HW119478   5.142   5.216   0.422
 6193SOL    HW219479   5.106   5.263   0.575
 6194SOL     OW19480   6.670   0.810   0.014
 6194SOL    HW119481   6.609   0.856   6.972
 6194SOL    HW219482   6.641   0.832   0.108
 6195SOL     OW19483   5.555   6.971   4.643
 6195SOL    HW119484   5.455   6.982   4.645
 6195SOL    HW219485   5.595   0.016   4.582
 6196SOL     OW19486   5.688   4.660   2.782
 6196SOL    HW119487   5.607   4.704   2.744
 6196SOL    HW219488   5.697   4.683   2.879
 6197SOL     OW19489   2.488   5.406   2.566
 6197SOL    HW119490   2.526   5.484   2.615
 6197SOL    HW219491   2.477   5.329   2.628
 6198SOL     OW19492   5.870   6.135   6.475
 6198SOL    HW119493   5.801   6.150   6.404
 6198SOL    HW219494   5.928   6.216   6.484
 6199SOL     OW19495   0.861   0.681   0.861
 6199SOL    HW119496   0.817   0.764   0.826
 6199SOL    HW219497   0.919   0.641   0.791
 6200SOL     OW19498   1.320   1.135   2.405
 6200SOL    HW119499   1.364   1.111   2.492
 6200SOL    HW219500   1.387   1.126   2.331
 6201SOL     OW19501   0.163   4.796   4.053
 6201SOL    HW119502   0.254   4.795   4.012
 6201SOL    HW219503   0.159   4.732   4.129
 6202SOL     OW19504   6.247   1.626   3.080
 6202SOL    HW119505   6.243   1.641   2.981
 6202SOL    HW219506   6.340   1.642   3.113
 6203SOL     OW19507   6.513   5.541   1.783
 6203SOL    HW119508   6.521   5.546   1.883
 6203SOL    HW219509   6.417   5.540   1.757
 6204SOL     OW19510   0.998   6.127   4.854
 6204SOL    HW119511   0.976   6.163   4.763
 6204SOL    HW219512   1.092   6.093   4.855
 6205SOL     OW19513   4.715   4.979   1.848
 6205SOL    HW119514   4.802   4.962   1.896
 6205SOL    HW219515   4.692   4.898   1.794
 6206SOL     OW19516   4.519   2.010   3.821
 6206SOL    HW119517   4.480   1.919   3.838
 6206SOL    HW219518   4.479   2.049   3.738
 6207SOL     OW19519   1.649   6.112   4.433
 6207SOL    HW119520   1.725   6.075   4.378
 6207SOL    HW219521   1.684   6.185   4.492
 6208SOL     OW19522   3.730   2.329   6.353
 6208SOL    HW119523   3.742   2.294   6.446
 6208SOL    HW219524   3.792   2.405   6.337
 6209SOL     OW19525   3.451   4.106   0.826
 6209SOL    HW119526   3.466   4.171   0.901
 6209SOL    HW219527   3.536   4.059   0.805
 6210SOL     OW19528   4.896   3.600   3.082
 6210SOL    HW119529   4.866   3.695   3.081
 6210SOL    HW219530   4.921   3.572   2.989
 6211SOL     OW19531   4.484   5.604   5.129
 6211SOL    HW119532   4.530   5.683   5.169
 6211SOL    HW219533   4.386   5.624   5.120
 6212SOL     OW19534   2.396   4.931   5.065
 6212SOL    HW119535   2.342   4.910   4.984
 6212SOL    HW219536   2.387   5.028   5.087
 6213SOL     OW19537   4.854   6.357   0.427
 6213SOL    HW119538   4.890   6.428   0.366
 6213SOL    HW219539   4.894   6.366   0.518
 6214SOL     OW19540   5.453   5.359   5.246
 6214SOL    HW119541   5.362   5.321   5.263
 6214SOL    HW219542   5.506   5.293   5.192
 6215SOL     OW19543   4.981   3.172   6.223
 6215SOL    HW119544   4.891   3.142   6.253
 6215SOL    HW219545   4.972   3.242   6.153
 6216SOL     OW19546   5.742   2.933   3.074
 6216SOL    HW119547   5.808   2.859   3.061
 6216SOL    HW219548   5.790   3.021   3.079
 6217SOL     OW19549   0.580   4.593   2.401
 6217SOL    HW119550   0.544   4.662   2.463
 6217SOL    HW219551   0.512   4.522   2.386
 6218SOL     OW19552   4.680   5.649   6.914
 6218SOL    HW119553   4.647   5.558   6.889
 6218SOL    HW219554   4.749   5.641   6.986
 6219SOL     OW19555   1.256   0.756   5.124
 6219SOL    HW119556   1.250   0.854   5.105
 6219SOL    HW219557   1.175   0.710   5.086
 6220SOL     OW19558   3.763   0.589   0.079
 6220SOL    HW119559   3.796   0.521   0.144
 6220SOL    HW219560   3.799   0.679   0.104
 6221SOL     OW19561   6.515   6.118   6.338
 6221SOL    HW119562   6.483   6.046   6.277
 6221SOL    HW219563   6.605   6.093   6.374
 6222SOL     OW19564   5.610   1.521   1.934
 6222SOL    HW119565   5.514   1.541   1.914
 6222SOL    HW219566   5.635   1.434   1.891
 6223SOL     OW19567   0.726   5.400   3.866
 6223SOL    HW119568   0.686   5.310   3.879
 6223SOL    HW219569   0.737   5.445   3.955
 6224SOL     OW19570   4.445   1.100   6.219
 6224SOL    HW119571   4.392   1.073   6.299
 6224SOL    HW219572   4.514   1.029   6.199
 6225SOL     OW19573   4.250   1.010   6.462
 6225SOL    HW119574   4.206   0.922   6.443
 6225SOL    HW219575   4.182   1.072   6.501
 6226SOL     OW19576   1.238   1.598   4.338
 6226SOL    HW119577   1.283   1.612   4.426
 6226SOL    HW219578   1.185   1.679   4.315
 6227SOL     OW19579   3.169   4.646   5.273
 6227SOL    HW119580   3.090   4.596   5.238
 6227SOL    HW219581   3.142   4.737   5.301
 6228SOL     OW19582   2.023   2.365   3.445
 6228SOL    HW119583   1.925   2.345   3.458
 6228SOL    HW219584   2.063   2.392   3.532
 6229SOL     OW19585   6.880   3.331   4.812
 6229SOL    HW119586   6.965   3.385   4.807
 6229SOL    HW219587   6.804   3.385   4.777
 6230SOL     OW19588   0.376   1.486   2.855
 6230SOL    HW119589   0.462   1.500   2.807
 6230SOL    HW219590   0.306   1.456   2.791
 6231SOL     OW19591   5.272   4.397   0.294
 6231SOL    HW119592   5.277   4.362   0.388
 6231SOL    HW219593   5.333   4.475   0.284
 6232SOL     OW19594   5.891   0.397   0.387
 6232SOL    HW119595   5.828   0.466   0.350
 6232SOL    HW219596   5.926   0.340   0.312
 6233SOL     OW19597   0.557   3.599   1.996
 6233SOL    HW119598   0.647   3.568   2.026
 6233SOL    HW219599   0.549   3.589   1.897
 6234SOL     OW19600   0.214   6.770   4.292
 6234SOL    HW119601   0.261   6.682   4.285
 6234SOL    HW219602   0.116   6.756   4.276
 6235SOL     OW19603   6.930   0.532   2.583
 6235SOL    HW119604   6.913   0.446   2.534
 6235SOL    HW219605   6.988   0.591   2.527
 6236SOL     OW19606   0.818   4.354   0.566
 6236SOL    HW119607   0.751   4.284   0.592
 6236SOL    HW219608   0.797   4.388   0.475
 6237SOL     OW19609   3.691   6.968   0.645
 6237SOL    HW119610   3.613   6.925   0.600
 6237SOL    HW219611   3.681   0.044   0.643
 6238SOL     OW19612   3.355   6.561   3.536
 6238SOL    HW119613   3.268   6.604   3.510
 6238SOL    HW219614   3.427   6.630   3.537
 6239SOL     OW19615   4.173   6.724   2.478
 6239SOL    HW119616   4.270   6.715   2.500
 6239SOL    HW219617   4.144   6.819   2.494
 6240SOL     OW19618   2.869   3.369   4.743
 6240SOL    HW119619   2.885   3.426   4.663
 6240SOL    HW219620   2.771   3.369   4.765
 6241SOL     OW19621   3.643   0.039   3.739
 6241SOL    HW119622   3.617   0.069   3.647
 6241SOL    HW219623   3.736   0.070   3.759
 6242SOL     OW19624   2.655   2.204   2.640
 6242SOL    HW119625   2.648   2.283   2.579
 6242SOL    HW219626   2.659   2.235   2.735
 6243SOL     OW19627   6.021   0.511   6.211
 6243SOL    HW119628   5.945   0.568   6.240
 6243SOL    HW219629   6.083   0.565   6.153
 6244SOL     OW19630   4.628   4.530   2.821
 6244SOL    HW119631   4.653   4.517   2.725
 6244SOL    HW219632   4.638   4.627   2.845
 6245SOL     OW19633   0.906   4.535   2.588
 6245SOL    HW119634   0.928   4.513   2.493
 6245SOL    HW219635   0.989   4.562   2.636
 6246SOL     OW19636   1.407   0.012   4.533
 6246SOL    HW119637   1.411   7.001   4.439
 6246SOL    HW219638   1.487   7.002   4.583
 6247SOL     OW19639   0.153   5.354   3.687
 6247SOL    HW119640   0.056   5.378   3.684
 6247SOL    HW219641   0.189   5.375   3.778
 6248SOL     OW19642   4.176   2.984   6.696
 6248SOL    HW119643   4.195   3.081   6.708
 6248SOL    HW219644   4.116   2.972   6.617
 6249SOL     OW19645   6.866   3.389   1.425
 6249SOL    HW119646   6.938   3.383   1.494
 6249SOL    HW219647   6.781   3.352   1.461
 6250SOL     OW19648   0.096   6.964   0.983
 6250SOL    HW119649   0.163   7.016   0.930
 6250SOL    HW219650   0.138   6.880   1.018
 6251SOL     OW19651   3.251   6.786   4.484
 6251SOL    HW119652   3.262   6.687   4.479
 6251SOL    HW219653   3.209   6.820   4.399
 6252SOL     OW19654   2.798   5.371   6.906
 6252SOL    HW119655   2.800   5.292   6.845
 6252SOL    HW219656   2.724   5.360   6.973
 6253SOL     OW19657   3.278   4.881   4.480
 6253SOL    HW119658   3.244   4.903   4.571
 6253SOL    HW219659   3.256   4.785   4.458
 6254SOL     OW19660   0.404   5.612   0.890
 6254SOL    HW119661   0.394   5.533   0.951
 6254SOL    HW219662   0.337   5.682   0.915
 6255SOL     OW19663   2.022   1.858   1.260
 6255SOL    HW119664   2.059   1.830   1.171
 6255SOL    HW219665   2.015   1.957   1.263
 6256SOL     OW19666   5.075   5.795   2.252
 6256SOL    HW119667   4.989   5.762   2.290
 6256SOL    HW219668   5.061   5.884   2.209
 6257SOL     OW19669   4.331   3.682   0.655
 6257SOL    HW119670   4.318   3.633   0.741
 6257SOL    HW219671   4.421   3.726   0.654
 6258SOL     OW19672   4.315   0.055   6.182
 6258SOL    HW119673   4.300   0.126   6.114
 6258SOL    HW219674   4.226   0.022   6.216
 6259SOL     OW19675   1.938   0.086   5.666
 6259SOL    HW119676   1.914   0.169   5.716
 6259SOL    HW219677   1.866   0.018   5.677
 6260SOL     OW19678   1.894   0.553   0.287
 6260SOL    HW119679   1.798   0.529   0.272
 6260SOL    HW219680   1.902   0.603   0.373
 6261SOL     OW19681   4.575   6.941   1.551
 6261SOL    HW119682   4.607   6.980   1.637
 6261SOL    HW219683   4.541   6.848   1.567
 6262SOL     OW19684   6.684   6.366   2.574
 6262SOL    HW119685   6.614   6.431   2.604
 6262SOL    HW219686   6.662   6.275   2.608
 6263SOL     OW19687   0.098   6.426   4.156
 6263SOL    HW119688   0.044   6.510   4.151
 6263SOL    HW219689   0.090   6.386   4.247
 6264SOL     OW19690   0.591   6.968   1.312
 6264SOL    HW119691   0.512   6.918   1.277
 6264SOL    HW219692   0.560   0.016   1.375
 6265SOL     OW19693   3.876   2.830   0.685
 6265SOL    HW119694   3.956   2.773   0.700
 6265SOL    HW219695   3.800   2.796   0.741
 6266SOL     OW19696   3.397   5.858   2.978
 6266SOL    HW119697   3.404   5.779   2.917
 6266SOL    HW219698   3.484   5.871   3.026
 6267SOL     OW19699   1.074   6.037   5.429
 6267SOL    HW119700   1.144   5.970   5.402
 6267SOL    HW219701   1.114   6.128   5.432
 6268SOL     OW19702   3.880   0.385   1.989
 6268SOL    HW119703   3.894   0.422   2.081
 6268SOL    HW219704   3.783   0.382   1.968
 6269SOL     OW19705   5.821   6.544   1.332
 6269SOL    HW119706   5.783   6.554   1.424
 6269SOL    HW219707   5.886   6.469   1.331
 6270SOL     OW19708   1.074   6.203   6.998
 6270SOL    HW119709   1.156   6.157   0.008
 6270SOL    HW219710   1.013   6.222   0.053
 6271SOL     OW19711   6.213   2.925   6.968
 6271SOL    HW119712   6.313   2.920   6.969
 6271SOL    HW219713   6.175   2.841   6.931
 6272SOL     OW19714   6.556   0.319   7.020
 6272SOL    HW119715   6.556   0.384   0.073
 6272SOL    HW219716   6.486   0.346   6.953
 6273SOL     OW19717   0.173   6.859   2.111
 6273SOL    HW119718   0.085   6.870   2.157
 6273SOL    HW219719   0.213   6.949   2.093
 6274SOL     OW19720   3.173   6.321   4.791
 6274SOL    HW119721   3.092   6.296   4.845
 6274SOL    HW219722   3.180   6.260   4.712
 6275SOL     OW19723   2.394   6.374   0.640
 6275SOL    HW119724   2.393   6.463   0.684
 6275SOL    HW219725   2.463   6.316   0.683
 6276SOL     OW19726   3.114   5.645   3.666
 6276SOL    HW119727   3.142   5.552   3.642
 6276SOL    HW219728   3.188   5.708   3.644
 6277SOL     OW19729   5.120   2.212   1.537
 6277SOL    HW119730   5.151   2.220   1.442
 6277SOL    HW219731   5.157   2.287   1.591
 6278SOL     OW19732   3.368   0.197   5.529
 6278SOL    HW119733   3.413   0.114   5.560
 6278SOL    HW219734   3.306   0.231   5.601
 6279SOL     OW19735   3.323   5.652   0.812
 6279SOL    HW119736   3.405   5.598   0.788
 6279SOL    HW219737   3.338   5.747   0.786
 6280SOL     OW19738   6.322   1.434   6.828
 6280SOL    HW119739   6.330   1.381   6.744
 6280SOL    HW219740   6.400   1.495   6.837
 6281SOL     OW19741   6.104   3.727   4.538
 6281SOL    HW119742   6.182   3.668   4.518
 6281SOL    HW219743   6.084   3.784   4.459
 6282SOL     OW19744   0.086   3.859   5.870
 6282SOL    HW119745   0.083   3.769   5.827
 6282SOL    HW219746   0.180   3.894   5.868
 6283SOL     OW19747   1.194   5.823   5.141
 6283SOL    HW119748   1.204   5.809   5.240
 6283SOL    HW219749   1.187   5.734   5.096
 6284SOL     OW19750   2.153   4.269   6.726
 6284SOL    HW119751   2.207   4.262   6.810
 6284SOL    HW219752   2.056   4.274   6.749
 6285SOL     OW19753   1.736   4.151   2.964
 6285SOL    HW119754   1.746   4.118   2.871
 6285SOL    HW219755   1.663   4.101   3.011
 6286SOL     OW19756   0.586   3.413   4.712
 6286SOL    HW119757   0.523   3.343   4.679
 6286SOL    HW219758   0.661   3.423   4.647
 6287SOL     OW19759   4.437   4.704   5.409
 6287SOL    HW119760   4.386   4.788   5.430
 6287SOL    HW219761   4.528   4.710   5.449
 6288SOL     OW19762   3.865   3.504   6.487
 6288SOL    HW119763   3.848   3.433   6.419
 6288SOL    HW219764   3.935   3.473   6.551
 6289SOL     OW19765   2.346   4.266   6.325
 6289SOL    HW119766   2.441   4.238   6.335
 6289SOL    HW219767   2.334   4.316   6.239
 6290SOL     OW19768   6.185   4.922   6.370
 6290SOL    HW119769   6.111   4.885   6.314
 6290SOL    HW219770   6.256   4.960   6.311
 6291SOL     OW19771   3.288   3.443   2.703
 6291SOL    HW119772   3.194   3.420   2.678
 6291SOL    HW219773   3.298   3.543   2.706
 6292SOL     OW19774   1.996   2.905   4.626
 6292SOL    HW119775   2.000   2.857   4.714
 6292SOL    HW219776   2.086   2.945   4.607
 6293SOL     OW19777   5.401   1.090   0.101
 6293SOL    HW119778   5.492   1.132   0.104
 6293SOL    HW219779   5.373   1.080   0.005
 6294SOL     OW19780   3.112   1.087   3.777
 6294SOL    HW119781   3.178   1.127   3.841
 6294SOL    HW219782   3.099   0.990   3.799
 6295SOL     OW19783   5.382   4.640   4.726
 6295SOL    HW119784   5.417   4.696   4.651
 6295SOL    HW219785   5.329   4.563   4.688
 6296SOL     OW19786   0.339   3.306   6.126
 6296SOL    HW119787   0.390   3.378   6.078
 6296SOL    HW219788   0.252   3.290   6.079
 6297SOL     OW19789   6.513   0.450   4.638
 6297SOL    HW119790   6.509   0.545   4.606
 6297SOL    HW219791   6.455   0.440   4.719
 6298SOL     OW19792   5.801   4.508   6.961
 6298SOL    HW119793   5.789   4.539   6.866
 6298SOL    HW219794   5.757   4.573   7.022
 6299SOL     OW19795   5.236   2.284   2.716
 6299SOL    HW119796   5.306   2.288   2.787
 6299SOL    HW219797   5.266   2.338   2.637
 6300SOL     OW19798   4.267   1.440   6.405
 6300SOL    HW119799   4.360   1.413   6.433
 6300SOL    HW219800   4.210   1.452   6.486
 6301SOL     OW19801   3.135   6.463   6.786
 6301SOL    HW119802   3.169   6.408   6.709
 6301SOL    HW219803   3.151   6.414   6.871
 6302SOL     OW19804   2.501   1.200   5.379
 6302SOL    HW119805   2.504   1.122   5.441
 6302SOL    HW219806   2.495   1.284   5.432
 6303SOL     OW19807   1.062   6.633   5.624
 6303SOL    HW119808   1.085   6.622   5.527
 6303SOL    HW219809   1.101   6.556   5.676
 6304SOL     OW19810   4.313   1.071   3.292
 6304SOL    HW119811   4.245   1.141   3.267
 6304SOL    HW219812   4.386   1.070   3.224
 6305SOL     OW19813   6.761   5.788   5.424
 6305SOL    HW119814   6.807   5.870   5.459
 6305SOL    HW219815   6.786   5.709   5.481
 6306SOL     OW19816   0.528   4.304   3.867
 6306SOL    HW119817   0.484   4.392   3.885
 6306SOL    HW219818   0.624   4.308   3.896
 6307SOL     OW19819   4.002   3.881   3.904
 6307SOL    HW119820   4.010   3.822   3.824
 6307SOL    HW219821   4.030   3.830   3.986
 6308SOL     OW19822   0.403   2.369   6.323
 6308SOL    HW119823   0.338   2.431   6.279
 6308SOL    HW219824   0.443   2.308   6.254
 6309SOL     OW19825   1.189   6.570   4.500
 6309SOL    HW119826   1.236   6.498   4.447
 6309SOL    HW219827   1.119   6.528   4.558
 6310SOL     OW19828   1.389   6.655   3.063
 6310SOL    HW119829   1.390   6.745   3.107
 6310SOL    HW219830   1.311   6.649   3.000
 6311SOL     OW19831   5.461   1.105   6.294
 6311SOL    HW119832   5.443   1.025   6.352
 6311SOL    HW219833   5.560   1.114   6.281
 6312SOL     OW19834   2.861   6.489   6.748
 6312SOL    HW119835   2.961   6.488   6.755
 6312SOL    HW219836   2.834   6.464   6.656
 6313SOL     OW19837   4.976   6.281   3.296
 6313SOL    HW119838   5.038   6.211   3.261
 6313SOL    HW219839   4.885   6.242   3.311
 6314SOL     OW19840   2.558   0.421   1.521
 6314SOL    HW119841   2.527   0.326   1.510
 6314SOL    HW219842   2.636   0.423   1.585
 6315SOL     OW19843   1.751   2.652   4.246
 6315SOL    HW119844   1.798   2.583   4.192
 6315SOL    HW219845   1.811   2.684   4.320
 6316SOL     OW19846   5.575   1.959   5.571
 6316SOL    HW119847   5.518   1.878   5.555
 6316SOL    HW219848   5.658   1.933   5.620
 6317SOL     OW19849   5.182   4.469   2.404
 6317SOL    HW119850   5.213   4.374   2.416
 6317SOL    HW219851   5.260   4.530   2.415
 6318SOL     OW19852   6.336   0.198   6.507
 6318SOL    HW119853   6.254   0.248   6.480
 6318SOL    HW219854   6.310   0.108   6.543
 6319SOL     OW19855   5.191   2.685   4.886
 6319SOL    HW119856   5.098   2.665   4.855
 6319SOL    HW219857   5.188   2.717   4.981
 6320SOL     OW19858   0.401   0.728   3.917
 6320SOL    HW119859   0.485   0.743   3.865
 6320SOL    HW219860   0.322   0.753   3.861
 6321SOL     OW19861   5.469   2.326   0.652
 6321SOL    HW119862   5.477   2.321   0.752
 6321SOL    HW219863   5.404   2.257   0.620
 6322SOL     OW19864   2.051   0.940   0.509
 6322SOL    HW119865   2.112   0.901   0.439
 6322SOL    HW219866   2.102   1.005   0.565
 6323SOL     OW19867   2.821   2.526   1.035
 6323SOL    HW119868   2.784   2.438   1.003
 6323SOL    HW219869   2.746   2.592   1.043
 6324SOL     OW19870   4.593   1.185   1.143
 6324SOL    HW119871   4.546   1.103   1.111
 6324SOL    HW219872   4.577   1.197   1.241
 6325SOL     OW19873   1.439   2.466   2.226
 6325SOL    HW119874   1.503   2.534   2.262
 6325SOL    HW219875   1.444   2.383   2.282
 6326SOL     OW19876   4.770   5.049   5.820
 6326SOL    HW119877   4.867   5.070   5.813
 6326SOL    HW219878   4.754   4.992   5.900
 6327SOL     OW19879   0.066   1.873   3.730
 6327SOL    HW119880   0.138   1.836   3.789
 6327SOL    HW219881   7.011   1.810   3.730
 6328SOL     OW19882   4.336   3.170   5.853
 6328SOL    HW119883   4.280   3.165   5.770
 6328SOL    HW219884   4.362   3.078   5.881
 6329SOL     OW19885   1.070   2.687   5.172
 6329SOL    HW119886   1.003   2.632   5.121
 6329SOL    HW219887   1.105   2.759   5.112
 6330SOL     OW19888   6.299   1.144   2.827
 6330SOL    HW119889   6.295   1.133   2.926
 6330SOL    HW219890   6.294   1.242   2.804
 6331SOL     OW19891   6.314   3.007   4.501
 6331SOL    HW119892   6.298   2.925   4.556
 6331SOL    HW219893   6.347   3.081   4.560
 6332SOL     OW19894   1.814   1.754   1.407
 6332SOL    HW119895   1.872   1.790   1.335
 6332SOL    HW219896   1.870   1.724   1.484
 6333SOL     OW19897   4.880   6.766   0.375
 6333SOL    HW119898   4.948   6.694   0.367
 6333SOL    HW219899   4.925   6.855   0.371
 6334SOL     OW19900   2.999   1.577   1.984
 6334SOL    HW119901   3.012   1.676   1.991
 6334SOL    HW219902   3.052   1.532   2.055
 6335SOL     OW19903   5.644   0.551   0.972
 6335SOL    HW119904   5.742   0.564   0.955
 6335SOL    HW219905   5.592   0.616   0.916
 6336SOL     OW19906   0.342   3.959   5.853
 6336SOL    HW119907   0.398   3.985   5.774
 6336SOL    HW219908   0.400   3.914   5.921
 6337SOL     OW19909   4.243   5.862   4.966
 6337SOL    HW119910   4.260   5.795   5.039
 6337SOL    HW219911   4.247   5.954   5.004
 6338SOL     OW19912   3.046   2.190   4.195
 6338SOL    HW119913   2.966   2.231   4.152
 6338SOL    HW219914   3.121   2.187   4.130
 6339SOL     OW19915   0.973   3.895   2.841
 6339SOL    HW119916   0.996   3.915   2.937
 6339SOL    HW219917   0.892   3.947   2.815
 6340SOL     OW19918   2.628   4.020   1.371
 6340SOL    HW119919   2.586   3.930   1.384
 6340SOL    HW219920   2.560   4.091   1.388
 6341SOL     OW19921   1.522   4.377   3.866
 6341SOL    HW119922   1.459   4.430   3.923
 6341SOL    HW219923   1.611   4.423   3.862
 6342SOL     OW19924   1.928   0.814   2.087
 6342SOL    HW119925   1.856   0.834   2.153
 6342SOL    HW219926   1.959   0.899   2.045
 6343SOL     OW19927   3.024   6.387   0.227
 6343SOL    HW119928   3.078   6.456   0.274
 6343SOL    HW219929   3.013   6.308   0.287
 6344SOL     OW19930   5.498   2.746   3.425
 6344SOL    HW119931   5.506   2.669   3.488
 6344SOL    HW219932   5.405   2.750   3.388
 6345SOL     OW19933   5.084   3.377   1.663
 6345SOL    HW119934   5.170   3.328   1.645
 6345SOL    HW219935   5.097   3.441   1.738
 6346SOL     OW19936   0.454   4.402   5.793
 6346SOL    HW119937   0.434   4.461   5.715
 6346SOL    HW219938   0.507   4.454   5.861
 6347SOL     OW19939   2.662   2.379   2.421
 6347SOL    HW119940   2.586   2.435   2.455
 6347SOL    HW219941   2.655   2.371   2.322
 6348SOL     OW19942   0.290   1.764   5.923
 6348SOL    HW119943   0.275   1.781   6.021
 6348SOL    HW219944   0.385   1.737   5.908
 6349SOL     OW19945   1.328   0.358   0.522
 6349SOL    HW119946   1.409   0.349   0.463
 6349SOL    HW219947   1.258   0.294   0.491
 6350SOL     OW19948   1.194   4.980   1.991
 6350SOL    HW119949   1.223   4.975   1.896
 6350SOL    HW219950   1.229   4.900   2.041
 6351SOL     OW19951   6.602   3.902   3.406
 6351SOL    HW119952   6.646   3.890   3.317
 6351SOL    HW219953   6.672   3.923   3.475
 6352SOL     OW19954   2.132   0.702   3.856
 6352SOL    HW119955   2.039   0.674   3.881
 6352SOL    HW219956   2.197   0.631   3.885
 6353SOL     OW19957   2.559   5.742   0.024
 6353SOL    HW119958   2.568   5.674   6.974
 6353SOL    HW219959   2.481   5.802   0.004
 6354SOL     OW19960   5.231   4.685   3.009
 6354SOL    HW119961   5.193   4.595   3.031
 6354SOL    HW219962   5.209   4.749   3.083
 6355SOL     OW19963   2.553   4.833   0.480
 6355SOL    HW119964   2.553   4.740   0.517
 6355SOL    HW219965   2.620   4.889   0.529
 6356SOL     OW19966   5.055   5.031   6.502
 6356SOL    HW119967   5.140   5.011   6.453
 6356SOL    HW219968   5.017   5.117   6.470
 6357SOL     OW19969   5.871   2.216   1.267
 6357SOL    HW119970   5.833   2.124   1.271
 6357SOL    HW219971   5.962   2.213   1.227
 6358SOL     OW19972   1.012   1.854   6.112
 6358SOL    HW119973   1.057   1.899   6.034
 6358SOL    HW219974   0.979   1.764   6.083
 6359SOL     OW19975   5.953   6.716   0.646
 6359SOL    HW119976   5.858   6.743   0.658
 6359SOL    HW219977   5.959   6.619   0.625
 6360SOL     OW19978   6.627   2.566   3.561
 6360SOL    HW119979   6.576   2.492   3.517
 6360SOL    HW219980   6.666   2.533   3.647
 6361SOL     OW19981   0.046   0.764   0.241
 6361SOL    HW119982   0.136   0.794   0.271
 6361SOL    HW219983   0.007   0.831   0.177
 6362SOL     OW19984   1.295   5.772   6.912
 6362SOL    HW119985   1.284   5.743   6.817
 6362SOL    HW219986   1.368   5.718   6.955
 6363SOL     OW19987   2.625   4.774   3.568
 6363SOL    HW119988   2.571   4.826   3.635
 6363SOL    HW219989   2.634   4.828   3.484
 6364SOL     OW19990   2.618   2.372   4.757
 6364SOL    HW119991   2.657   2.316   4.684
 6364SOL    HW219992   2.691   2.398   4.820
 6365SOL     OW19993   6.380   6.034   4.416
 6365SOL    HW119994   6.328   6.087   4.483
 6365SOL    HW219995   6.359   6.068   4.324
 6366SOL     OW19996   6.011   6.433   5.138
 6366SOL    HW119997   6.093   6.383   5.109
 6366SOL    HW219998   5.930   6.380   5.113
 6367SOL     OW19999   3.155   2.163   2.914
 6367SOL    HW120000   3.112   2.174   2.825
 6367SOL    HW220001   3.249   2.132   2.902
 6368SOL     OW20002   4.710   4.194   3.776
 6368SOL    HW120003   4.714   4.184   3.677
 6368SOL    HW220004   4.776   4.133   3.819
 6369SOL     OW20005   3.134   6.016   6.052
 6369SOL    HW120006   3.132   6.105   6.096
 6369SOL    HW220007   3.207   5.960   6.091
 6370SOL     OW20008   4.916   3.878   3.113
 6370SOL    HW120009   4.986   3.936   3.070
 6370SOL    HW220010   4.897   3.912   3.205
 6371SOL     OW20011   5.085   4.348   1.625
 6371SOL    HW120012   5.132   4.338   1.713
 6371SOL    HW220013   4.991   4.377   1.642
 6372SOL     OW20014   0.210   1.274   2.731
 6372SOL    HW120015   0.134   1.299   2.671
 6372SOL    HW220016   0.253   1.190   2.697
 6373SOL     OW20017   5.620   4.206   1.330
 6373SOL    HW120018   5.656   4.296   1.356
 6373SOL    HW220019   5.614   4.148   1.412
 6374SOL     OW20020   4.864   2.651   0.247
 6374SOL    HW120021   4.916   2.566   0.243
 6374SOL    HW220022   4.905   2.718   0.186
 6375SOL     OW20023   0.012   2.633   2.375
 6375SOL    HW120024   6.984   2.659   2.292
 6375SOL    HW220025   0.109   2.653   2.363
 6376SOL     OW20026   4.594   0.767   5.424
 6376SOL    HW120027   4.623   0.821   5.503
 6376SOL    HW220028   4.582   0.827   5.346
 6377SOL     OW20029   6.989   0.516   0.242
 6377SOL    HW120030   0.027   0.464   0.303
 6377SOL    HW220031   7.004   0.614   0.255
 6378SOL     OW20032   5.376   5.793   2.612
 6378SOL    HW120033   5.333   5.716   2.660
 6378SOL    HW220034   5.453   5.759   2.558
 6379SOL     OW20035   2.306   5.897   6.228
 6379SOL    HW120036   2.352   5.837   6.293
 6379SOL    HW220037   2.349   5.988   6.230
 6380SOL     OW20038   0.692   3.453   4.967
 6380SOL    HW120039   0.639   3.478   4.886
 6380SOL    HW220040   0.629   3.427   5.040
 6381SOL     OW20041   4.414   3.220   0.302
 6381SOL    HW120042   4.320   3.207   0.334
 6381SOL    HW220043   4.416   3.219   0.202
 6382SOL     OW20044   2.628   1.691   1.111
 6382SOL    HW120045   2.712   1.643   1.135
 6382SOL    HW220046   2.631   1.784   1.146
 6383SOL     OW20047   1.743   3.043   2.839
 6383SOL    HW120048   1.775   3.044   2.744
 6383SOL    HW220049   1.816   3.010   2.898
 6384SOL     OW20050   5.907   2.371   2.132
 6384SOL    HW120051   5.977   2.319   2.082
 6384SOL    HW220052   5.899   2.462   2.093
 6385SOL     OW20053   0.464   3.426   1.167
 6385SOL    HW120054   0.498   3.413   1.073
 6385SOL    HW220055   0.430   3.519   1.177
 6386SOL     OW20056   2.282   3.415   1.023
 6386SOL    HW120057   2.283   3.389   1.120
 6386SOL    HW220058   2.199   3.468   1.004
 6387SOL     OW20059   6.164   1.078   0.039
 6387SOL    HW120060   6.080   1.029   0.014
 6387SOL    HW220061   6.240   1.046   7.005
 6388SOL     OW20062   6.538   5.118   2.970
 6388SOL    HW120063   6.467   5.143   2.904
 6388SOL    HW220064   6.499   5.056   3.038
 6389SOL     OW20065   1.421   6.967   0.165
 6389SOL    HW120066   1.484   6.898   0.201
 6389SOL    HW220067   1.440   6.982   0.068
 6390SOL     OW20068   5.657   0.545   0.248
 6390SOL    HW120069   5.657   0.642   0.223
 6390SOL    HW220070   5.583   0.528   0.313
 6391SOL     OW20071   0.984   0.919   5.324
 6391SOL    HW120072   1.015   0.985   5.393
 6391SOL    HW220073   1.005   0.955   5.233
 6392SOL     OW20074   3.828   5.721   3.620
 6392SOL    HW120075   3.806   5.624   3.604
 6392SOL    HW220076   3.749   5.768   3.659
 6393SOL     OW20077   5.813   6.853   1.353
 6393SOL    HW120078   5.855   6.943   1.366
 6393SOL    HW220079   5.716   6.857   1.377
 6394SOL     OW20080   0.985   4.526   0.977
 6394SOL    HW120081   0.912   4.561   0.919
 6394SOL    HW220082   1.041   4.602   1.009
 6395SOL     OW20083   0.291   4.130   2.858
 6395SOL    HW120084   0.371   4.152   2.803
 6395SOL    HW220085   0.311   4.052   2.917
 6396SOL     OW20086   6.487   3.473   0.374
 6396SOL    HW120087   6.451   3.379   0.372
 6396SOL    HW220088   6.529   3.494   0.286
 6397SOL     OW20089   5.721   2.231   3.037
 6397SOL    HW120090   5.701   2.172   2.958
 6397SOL    HW220091   5.816   2.218   3.065
 6398SOL     OW20092   0.936   6.236   1.465
 6398SOL    HW120093   0.980   6.323   1.488
 6398SOL    HW220094   0.848   6.255   1.422
 6399SOL     OW20095   2.177   0.127   6.175
 6399SOL    HW120096   2.190   0.180   6.259
 6399SOL    HW220097   2.079   0.122   6.154
 6400SOL     OW20098   1.804   5.789   3.106
 6400SOL    HW120099   1.741   5.759   3.034
 6400SOL    HW220100   1.829   5.885   3.089
 6401SOL     OW20101   4.195   4.796   2.910
 6401SOL    HW120102   4.236   4.882   2.881
 6401SOL    HW220103   4.250   4.756   2.984
 6402SOL     OW20104   1.975   4.715   3.753
 6402SOL    HW120105   1.917   4.729   3.833
 6402SOL    HW220106   2.071   4.724   3.778
 6403SOL     OW20107   5.451   5.959   4.961
 6403SOL    HW120108   5.383   6.025   4.992
 6403SOL    HW220109   5.456   5.960   4.861
 6404SOL     OW20110   3.404   0.967   2.609
 6404SOL    HW120111   3.358   0.884   2.578
 6404SOL    HW220112   3.462   1.002   2.535
 6405SOL     OW20113   5.277   0.995   2.822
 6405SOL    HW120114   5.367   1.018   2.860
 6405SOL    HW220115   5.268   0.896   2.815
 6406SOL     OW20116   1.093   2.686   2.626
 6406SOL    HW120117   1.141   2.619   2.682
 6406SOL    HW220118   1.054   2.641   2.546
 6407SOL     OW20119   2.375   6.442   3.681
 6407SOL    HW120120   2.411   6.442   3.775
 6407SOL    HW220121   2.294   6.500   3.676
 6408SOL     OW20122   6.953   0.645   0.815
 6408SOL    HW120123   6.864   0.634   0.772
 6408SOL    HW220124   6.995   0.730   0.783
 6409SOL     OW20125   6.368   5.057   4.003
 6409SOL    HW120126   6.431   5.058   4.080
 6409SOL    HW220127   6.374   5.144   3.954
 6410SOL     OW20128   2.775   1.337   5.480
 6410SOL    HW120129   2.786   1.424   5.432
 6410SOL    HW220130   2.736   1.354   5.571
 6411SOL     OW20131   0.385   2.950   2.360
 6411SOL    HW120132   0.459   3.016   2.349
 6411SOL    HW220133   0.300   2.990   2.325
 6412SOL     OW20134   3.383   0.764   6.270
 6412SOL    HW120135   3.406   0.811   6.185
 6412SOL    HW220136   3.447   0.688   6.285
 6413SOL     OW20137   4.452   4.685   4.493
 6413SOL    HW120138   4.357   4.716   4.493
 6413SOL    HW220139   4.461   4.605   4.433
 6414SOL     OW20140   0.798   0.220   6.911
 6414SOL    HW120141   0.825   0.152   6.980
 6414SOL    HW220142   0.802   0.179   6.820
 6415SOL     OW20143   1.613   3.602   3.376
 6415SOL    HW120144   1.633   3.692   3.337
 6415SOL    HW220145   1.525   3.606   3.424
 6416SOL     OW20146   3.117   6.995   6.424
 6416SOL    HW120147   3.188   6.941   6.468
 6416SOL    HW220148   3.031   6.985   6.474
 6417SOL     OW20149   4.692   1.548   0.975
 6417SOL    HW120150   4.764   1.488   1.011
 6417SOL    HW220151   4.715   1.643   0.998
 6418SOL     OW20152   4.213   4.796   1.541
 6418SOL    HW120153   4.162   4.716   1.509
 6418SOL    HW220154   4.270   4.770   1.619
 6419SOL     OW20155   0.706   6.540   6.649
 6419SOL    HW120156   0.612   6.510   6.633
 6419SOL    HW220157   0.711   6.590   6.736
 6420SOL     OW20158   1.589   3.479   3.840
 6420SOL    HW120159   1.496   3.483   3.802
 6420SOL    HW220160   1.640   3.406   3.796
 6421SOL     OW20161   5.545   6.941   1.404
 6421SOL    HW120162   5.493   6.907   1.325
 6421SOL    HW220163   5.537   0.018   1.408
 6422SOL     OW20164   7.016   2.633   4.961
 6422SOL    HW120165   6.979   2.573   5.033
 6422SOL    HW220166   6.942   2.689   4.924
 6423SOL     OW20167   2.659   5.469   4.539
 6423SOL    HW120168   2.605   5.435   4.462
 6423SOL    HW220169   2.689   5.392   4.595
 6424SOL     OW20170   0.109   3.173   4.730
 6424SOL    HW120171   0.036   3.137   4.672
 6424SOL    HW220172   0.089   3.267   4.755
 6425SOL     OW20173   6.982   5.579   3.225
 6425SOL    HW120174   0.044   5.536   3.256
 6425SOL    HW220175   6.920   5.509   3.189
 6426SOL     OW20176   4.638   4.513   4.813
 6426SOL    HW120177   4.637   4.592   4.751
 6426SOL    HW220178   4.550   4.505   4.859
 6427SOL     OW20179   3.736   3.685   3.199
 6427SOL    HW120180   3.699   3.684   3.107
 6427SOL    HW220181   3.676   3.740   3.258
 6428SOL     OW20182   4.939   2.365   0.290
 6428SOL    HW120183   4.846   2.377   0.256
 6428SOL    HW220184   4.938   2.300   0.367
 6429SOL     OW20185   1.924   0.679   4.988
 6429SOL    HW120186   1.909   0.666   4.890
 6429SOL    HW220187   1.868   0.613   5.039
 6430SOL     OW20188   0.073   0.996   5.334
 6430SOL    HW120189   0.074   0.911   5.280
 6430SOL    HW220190   7.002   1.014   5.365
 6431SOL     OW20191   4.796   5.502   2.854
 6431SOL    HW120192   4.760   5.421   2.807
 6431SOL    HW220193   4.721   5.552   2.897
 6432SOL     OW20194   3.150   4.035   6.558
 6432SOL    HW120195   3.176   4.065   6.466
 6432SOL    HW220196   3.059   3.993   6.555
 6433SOL     OW20197   2.909   5.607   6.786
 6433SOL    HW120198   2.858   5.539   6.838
 6433SOL    HW220199   2.905   5.585   6.689
 6434SOL     OW20200   2.995   6.050   6.384
 6434SOL    HW120201   3.030   6.137   6.349
 6434SOL    HW220202   3.071   5.984   6.389
 6435SOL     OW20203   5.596   0.102   0.094
 6435SOL    HW120204   5.677   0.063   0.138
 6435SOL    HW220205   5.616   0.194   0.061
 6436SOL     OW20206   0.808   4.287   3.768
 6436SOL    HW120207   0.842   4.193   3.763
 6436SOL    HW220208   0.853   4.335   3.843
 6437SOL     OW20209   0.925   1.354   5.262
 6437SOL    HW120210   0.985   1.434   5.268
 6437SOL    HW220211   0.972   1.282   5.210
 6438SOL     OW20212   0.617   5.346   6.929
 6438SOL    HW120213   0.688   5.342   6.858
 6438SOL    HW220214   0.638   5.281   7.001
 6439SOL     OW20215   6.196   0.916   3.989
 6439SOL    HW120216   6.246   0.830   3.997
 6439SOL    HW220217   6.120   0.917   4.054
 6440SOL     OW20218   2.560   0.521   6.244
 6440SOL    HW120219   2.575   0.462   6.323
 6440SOL    HW220220   2.465   0.514   6.214
 6441SOL     OW20221   0.460   0.124   3.649
 6441SOL    HW120222   0.455   0.214   3.607
 6441SOL    HW220223   0.372   0.100   3.689
 6442SOL     OW20224   2.227   2.074   4.887
 6442SOL    HW120225   2.296   2.010   4.921
 6442SOL    HW220226   2.268   2.165   4.879
 6443SOL     OW20227   4.241   2.120   0.515
 6443SOL    HW120228   4.338   2.122   0.542
 6443SOL    HW220229   4.231   2.075   0.426
 6444SOL     OW20230   0.186   2.291   5.392
 6444SOL    HW120231   0.092   2.323   5.383
 6444SOL    HW220232   0.206   2.226   5.319
 6445SOL     OW20233   3.260   3.780   3.708
 6445SOL    HW120234   3.285   3.689   3.741
 6445SOL    HW220235   3.340   3.825   3.669
 6446SOL     OW20236   1.854   1.898   6.346
 6446SOL    HW120237   1.857   1.998   6.343
 6446SOL    HW220238   1.938   1.862   6.305
 6447SOL     OW20239   6.463   4.372   1.096
 6447SOL    HW120240   6.369   4.402   1.117
 6447SOL    HW220241   6.484   4.290   1.149
 6448SOL     OW20242   4.890   5.507   2.002
 6448SOL    HW120243   4.949   5.573   1.955
 6448SOL    HW220244   4.798   5.546   2.013
 6449SOL     OW20245   2.630   5.597   1.736
 6449SOL    HW120246   2.650   5.682   1.687
 6449SOL    HW220247   2.567   5.617   1.811
 6450SOL     OW20248   0.907   4.244   1.199
 6450SOL    HW120249   0.865   4.228   1.288
 6450SOL    HW220250   0.837   4.267   1.132
 6451SOL     OW20251   3.739   2.263   0.094
 6451SOL    HW120252   3.819   2.214   0.128
 6451SOL    HW220253   3.759   2.361   0.091
 6452SOL     OW20254   5.514   3.225   3.440
 6452SOL    HW120255   5.610   3.236   3.468
 6452SOL    HW220256   5.510   3.200   3.343
 6453SOL     OW20257   3.690   0.253   1.211
 6453SOL    HW120258   3.600   0.213   1.226
 6453SOL    HW220259   3.680   0.349   1.183
 6454SOL     OW20260   6.609   2.278   2.619
 6454SOL    HW120261   6.517   2.304   2.649
 6454SOL    HW220262   6.645   2.207   2.679
 6455SOL     OW20263   6.564   4.455   3.269
 6455SOL    HW120264   6.493   4.501   3.323
 6455SOL    HW220265   6.623   4.403   3.330
 6456SOL     OW20266   0.738   1.108   2.842
 6456SOL    HW120267   0.751   1.097   2.940
 6456SOL    HW220268   0.757   1.203   2.815
 6457SOL     OW20269   5.194   6.752   1.348
 6457SOL    HW120270   5.160   6.679   1.288
 6457SOL    HW220271   5.246   6.711   1.423
 6458SOL     OW20272   1.093   5.090   4.297
 6458SOL    HW120273   1.014   5.078   4.357
 6458SOL    HW220274   1.081   5.171   4.241
 6459SOL     OW20275   5.945   2.830   2.821
 6459SOL    HW120276   5.955   2.798   2.915
 6459SOL    HW220277   5.849   2.819   2.792
 6460SOL     OW20278   6.925   5.773   5.184
 6460SOL    HW120279   6.908   5.733   5.274
 6460SOL    HW220280   6.856   5.740   5.120
 6461SOL     OW20281   3.060   4.449   0.881
 6461SOL    HW120282   3.038   4.372   0.941
 6461SOL    HW220283   3.158   4.453   0.866
 6462SOL     OW20284   1.914   3.918   4.904
 6462SOL    HW120285   1.915   3.981   4.982
 6462SOL    HW220286   1.834   3.859   4.910
 6463SOL     OW20287   5.160   0.687   1.148
 6463SOL    HW120288   5.138   0.773   1.102
 6463SOL    HW220289   5.259   0.672   1.145
 6464SOL     OW20290   0.879   6.136   4.318
 6464SOL    HW120291   0.871   6.039   4.340
 6464SOL    HW220292   0.954   6.150   4.254
 6465SOL     OW20293   5.252   2.801   2.266
 6465SOL    HW120294   5.316   2.866   2.224
 6465SOL    HW220295   5.161   2.816   2.229
 6466SOL     OW20296   6.847   3.541   6.352
 6466SOL    HW120297   6.859   3.510   6.447
 6466SOL    HW220298   6.768   3.602   6.347
 6467SOL     OW20299   3.227   0.881   0.538
 6467SOL    HW120300   3.172   0.950   0.491
 6467SOL    HW220301   3.285   0.834   0.471
 6468SOL     OW20302   3.738   6.612   0.193
 6468SOL    HW120303   3.773   6.704   0.175
 6468SOL    HW220304   3.814   6.550   0.211
 6469SOL     OW20305   2.992   1.909   3.848
 6469SOL    HW120306   3.029   1.982   3.791
 6469SOL    HW220307   3.023   1.820   3.813
 6470SOL     OW20308   6.863   2.691   0.173
 6470SOL    HW120309   6.924   2.622   0.209
 6470SOL    HW220310   6.871   2.694   0.073
 6471SOL     OW20311   0.250   6.337   5.051
 6471SOL    HW120312   0.258   6.255   4.993
 6471SOL    HW220313   0.324   6.401   5.029
 6472SOL     OW20314   0.174   6.652   2.296
 6472SOL    HW120315   0.213   6.743   2.281
 6472SOL    HW220316   0.157   6.637   2.393
 6473SOL     OW20317   1.908   1.395   4.286
 6473SOL    HW120318   1.862   1.310   4.313
 6473SOL    HW220319   1.858   1.437   4.210
 6474SOL     OW20320   4.355   5.088   5.269
 6474SOL    HW120321   4.378   5.182   5.244
 6474SOL    HW220322   4.319   5.040   5.190
 6475SOL     OW20323   5.582   5.671   3.379
 6475SOL    HW120324   5.634   5.755   3.366
 6475SOL    HW220325   5.523   5.656   3.299
 6476SOL     OW20326   3.998   2.046   6.432
 6476SOL    HW120327   3.936   2.111   6.476
 6476SOL    HW220328   3.960   2.017   6.345
 6477SOL     OW20329   0.064   5.959   1.145
 6477SOL    HW120330   7.013   5.909   1.190
 6477SOL    HW220331   0.045   5.967   1.048
 6478SOL     OW20332   2.791   6.165   1.447
 6478SOL    HW120333   2.875   6.137   1.493
 6478SOL    HW220334   2.783   6.116   1.360
 6479SOL     OW20335   3.405   5.759   3.910
 6479SOL    HW120336   3.367   5.850   3.922
 6479SOL    HW220337   3.335   5.691   3.932
 6480SOL     OW20338   2.569   0.951   6.553
 6480SOL    HW120339   2.566   0.906   6.465
 6480SOL    HW220340   2.590   1.048   6.541
 6481SOL     OW20341   3.013   2.244   1.693
 6481SOL    HW120342   2.969   2.293   1.768
 6481SOL    HW220343   3.073   2.307   1.643
 6482SOL     OW20344   6.815   2.819   5.395
 6482SOL    HW120345   6.741   2.802   5.460
 6482SOL    HW220346   6.903   2.808   5.442
 6483SOL     OW20347   1.442   5.719   4.465
 6483SOL    HW120348   1.425   5.792   4.399
 6483SOL    HW220349   1.526   5.670   4.440
 6484SOL     OW20350   2.957   1.247   3.545
 6484SOL    HW120351   3.050   1.215   3.525
 6484SOL    HW220352   2.894   1.210   3.477
 6485SOL     OW20353   2.557   6.571   4.787
 6485SOL    HW120354   2.525   6.525   4.704
 6485SOL    HW220355   2.648   6.537   4.811
 6486SOL     OW20356   1.125   4.844   2.767
 6486SOL    HW120357   1.183   4.838   2.849
 6486SOL    HW220358   1.181   4.833   2.685
 6487SOL     OW20359   1.118   5.360   4.675
 6487SOL    HW120360   1.215   5.378   4.656
 6487SOL    HW220361   1.083   5.292   4.611
 6488SOL     OW20362   4.988   5.333   4.439
 6488SOL    HW120363   5.057   5.324   4.511
 6488SOL    HW220364   4.985   5.428   4.408
 6489SOL     OW20365   3.761   3.128   6.650
 6489SOL    HW120366   3.829   3.075   6.598
 6489SOL    HW220367   3.690   3.161   6.588
 6490SOL     OW20368   1.906   1.567   6.547
 6490SOL    HW120369   1.840   1.641   6.533
 6490SOL    HW220370   1.865   1.497   6.606
 6491SOL     OW20371   2.095   0.612   0.974
 6491SOL    HW120372   2.160   0.570   1.038
 6491SOL    HW220373   2.043   0.540   0.928
 6492SOL     OW20374   3.346   4.048   4.411
 6492SOL    HW120375   3.363   3.950   4.418
 6492SOL    HW220376   3.430   4.098   4.435
 6493SOL     OW20377   1.695   4.610   5.903
 6493SOL    HW120378   1.645   4.526   5.925
 6493SOL    HW220379   1.780   4.586   5.856
 6494SOL     OW20380   5.889   6.488   2.220
 6494SOL    HW120381   5.880   6.422   2.145
 6494SOL    HW220382   5.814   6.553   2.217
 6495SOL     OW20383   6.674   6.886   4.480
 6495SOL    HW120384   6.671   6.830   4.397
 6495SOL    HW220385   6.581   6.900   4.514
 6496SOL     OW20386   4.745   6.508   1.912
 6496SOL    HW120387   4.841   6.536   1.903
 6496SOL    HW220388   4.734   6.416   1.875
 6497SOL     OW20389   0.510   1.460   1.099
 6497SOL    HW120390   0.608   1.459   1.118
 6497SOL    HW220391   0.465   1.387   1.150
 6498SOL     OW20392   0.709   4.751   4.559
 6498SOL    HW120393   0.808   4.756   4.548
 6498SOL    HW220394   0.687   4.699   4.642
 6499SOL     OW20395   5.548   4.226   3.993
 6499SOL    HW120396   5.513   4.309   4.037
 6499SOL    HW220397   5.513   4.220   3.900
 6500SOL     OW20398   0.591   3.980   2.223
 6500SOL    HW120399   0.663   4.038   2.185
 6500SOL    HW220400   0.620   3.884   2.220
 6501SOL     OW20401   6.835   1.842   0.848
 6501SOL    HW120402   6.809   1.767   0.908
 6501SOL    HW220403   6.755   1.875   0.799
 6502SOL     OW20404   6.176   3.805   1.471
 6502SOL    HW120405   6.094   3.806   1.414
 6502SOL    HW220406   6.212   3.712   1.475
 6503SOL     OW20407   6.288   2.748   5.927
 6503SOL    HW120408   6.359   2.773   5.993
 6503SOL    HW220409   6.309   2.789   5.838
 6504SOL     OW20410   4.773   6.845   6.358
 6504SOL    HW120411   4.674   6.859   6.358
 6504SOL    HW220412   4.805   6.837   6.452
 6505SOL     OW20413   5.608   6.315   0.237
 6505SOL    HW120414   5.652   6.355   0.157
 6505SOL    HW220415   5.595   6.386   0.307
 6506SOL     OW20416   7.003   3.615   3.782
 6506SOL    HW120417   0.008   3.524   3.750
 6506SOL    HW220418   6.904   3.616   3.796
 6507SOL     OW20419   3.575   5.844   6.704
 6507SOL    HW120420   3.505   5.911   6.679
 6507SOL    HW220421   3.562   5.816   6.799
 6508SOL     OW20422   1.495   6.836   1.782
 6508SOL    HW120423   1.530   6.899   1.712
 6508SOL    HW220424   1.571   6.783   1.820
 6509SOL     OW20425   3.722   1.457   5.572
 6509SOL    HW120426   3.752   1.362   5.578
 6509SOL    HW220427   3.655   1.475   5.645
 6510SOL     OW20428   4.433   5.820   5.525
 6510SOL    HW120429   4.471   5.822   5.617
 6510SOL    HW220430   4.506   5.798   5.459
 6511SOL     OW20431   4.253   1.083   6.020
 6511SOL    HW120432   4.181   1.131   6.071
 6511SOL    HW220433   4.339   1.089   6.070
 6512SOL     OW20434   2.880   0.251   2.144
 6512SOL    HW120435   2.928   0.207   2.220
 6512SOL    HW220436   2.871   0.349   2.162
 6513SOL     OW20437   2.652   5.300   4.885
 6513SOL    HW120438   2.703   5.249   4.955
 6513SOL    HW220439   2.575   5.348   4.928
 6514SOL     OW20440   5.980   0.439   5.269
 6514SOL    HW120441   6.073   0.456   5.235
 6514SOL    HW220442   5.925   0.521   5.255
 6515SOL     OW20443   2.267   4.983   2.067
 6515SOL    HW120444   2.365   4.970   2.055
 6515SOL    HW220445   2.219   4.897   2.046
 6516SOL     OW20446   6.971   3.301   1.735
 6516SOL    HW120447   7.014   3.327   1.821
 6516SOL    HW220448   6.893   3.361   1.717
 6517SOL     OW20449   6.654   1.964   0.279
 6517SOL    HW120450   6.593   1.932   0.351
 6517SOL    HW220451   6.678   2.060   0.295
 6518SOL     OW20452   0.143   0.980   2.389
 6518SOL    HW120453   0.083   0.936   2.456
 6518SOL    HW220454   0.091   1.002   2.306
 6519SOL     OW20455   0.770   1.177   3.346
 6519SOL    HW120456   0.817   1.187   3.434
 6519SOL    HW220457   0.675   1.205   3.355
 6520SOL     OW20458   6.827   5.884   7.021
 6520SOL    HW120459   6.815   5.788   6.995
 6520SOL    HW220460   6.737   5.925   0.015
 6521SOL     OW20461   1.628   3.238   3.696
 6521SOL    HW120462   1.694   3.219   3.623
 6521SOL    HW220463   1.623   3.161   3.759
 6522SOL     OW20464   3.097   4.245   5.841
 6522SOL    HW120465   3.036   4.241   5.921
 6522SOL    HW220466   3.071   4.174   5.776
 6523SOL     OW20467   5.772   0.030   0.297
 6523SOL    HW120468   5.706   0.069   0.361
 6523SOL    HW220469   5.843   0.097   0.276
 6524SOL     OW20470   2.658   2.402   1.838
 6524SOL    HW120471   2.754   2.430   1.836
 6524SOL    HW220472   2.626   2.403   1.933
 6525SOL     OW20473   1.942   5.387   3.849
 6525SOL    HW120474   1.856   5.350   3.886
 6525SOL    HW220475   1.925   5.432   3.762
 6526SOL     OW20476   6.922   0.172   0.971
 6526SOL    HW120477   6.903   0.182   1.068
 6526SOL    HW220478   6.981   0.093   0.956
 6527SOL     OW20479   0.246   2.711   0.502
 6527SOL    HW120480   0.308   2.732   0.576
 6527SOL    HW220481   0.153   2.699   0.538
 6528SOL     OW20482   6.034   1.291   6.056
 6528SOL    HW120483   6.132   1.271   6.051
 6528SOL    HW220484   6.015   1.345   6.137
 6529SOL     OW20485   0.701   1.806   2.337
 6529SOL    HW120486   0.738   1.778   2.425
 6529SOL    HW220487   0.622   1.750   2.314
 6530SOL     OW20488   0.902   3.007   1.959
 6530SOL    HW120489   0.953   2.977   1.879
 6530SOL    HW220490   0.805   2.984   1.947
 6531SOL     OW20491   3.915   3.340   5.618
 6531SOL    HW120492   3.924   3.430   5.660
 6531SOL    HW220493   4.002   3.291   5.623
 6532SOL     OW20494   1.679   0.821   0.591
 6532SOL    HW120495   1.718   0.821   0.683
 6532SOL    HW220496   1.625   0.904   0.577
 6533SOL     OW20497   4.580   4.838   0.186
 6533SOL    HW120498   4.539   4.827   0.096
 6533SOL    HW220499   4.675   4.806   0.183
 6534SOL     OW20500   5.760   4.855   1.669
 6534SOL    HW120501   5.739   4.863   1.766
 6534SOL    HW220502   5.722   4.933   1.620
 6535SOL     OW20503   5.610   4.190   4.258
 6535SOL    HW120504   5.598   4.197   4.159
 6535SOL    HW220505   5.629   4.281   4.296
 6536SOL     OW20506   0.448   2.375   5.298
 6536SOL    HW120507   0.391   2.395   5.378
 6536SOL    HW220508   0.504   2.295   5.317
 6537SOL     OW20509   5.924   4.386   5.277
 6537SOL    HW120510   5.941   4.289   5.263
 6537SOL    HW220511   5.890   4.428   5.193
 6538SOL     OW20512   1.850   3.884   5.178
 6538SOL    HW120513   1.770   3.862   5.233
 6538SOL    HW220514   1.858   3.984   5.168
 6539SOL     OW20515   5.935   0.915   6.978
 6539SOL    HW120516   5.880   0.964   0.023
 6539SOL    HW220517   5.891   0.828   6.956
 6540SOL     OW20518   3.328   2.557   5.606
 6540SOL    HW120519   3.304   2.655   5.607
 6540SOL    HW220520   3.269   2.510   5.540
 6541SOL     OW20521   5.637   2.441   5.818
 6541SOL    HW120522   5.693   2.501   5.762
 6541SOL    HW220523   5.565   2.399   5.762
 6542SOL     OW20524   1.364   3.804   4.842
 6542SOL    HW120525   1.424   3.822   4.764
 6542SOL    HW220526   1.300   3.880   4.854
 6543SOL     OW20527   3.279   2.092   5.059
 6543SOL    HW120528   3.374   2.111   5.082
 6543SOL    HW220529   3.228   2.178   5.054
 6544SOL     OW20530   0.516   0.240   2.176
 6544SOL    HW120531   0.496   0.316   2.239
 6544SOL    HW220532   0.612   0.247   2.147
 6545SOL     OW20533   4.413   6.598   1.120
 6545SOL    HW120534   4.468   6.630   1.197
 6545SOL    HW220535   4.316   6.606   1.142
 6546SOL     OW20536   4.852   4.706   6.540
 6546SOL    HW120537   4.800   4.688   6.456
 6546SOL    HW220538   4.807   4.660   6.617
 6547SOL     OW20539   5.190   6.810   6.465
 6547SOL    HW120540   5.282   6.823   6.429
 6547SOL    HW220541   5.170   6.713   6.471
 6548SOL     OW20542   0.819   2.397   6.629
 6548SOL    HW120543   0.741   2.387   6.567
 6548SOL    HW220544   0.885   2.462   6.590
 6549SOL     OW20545   4.854   6.848   1.669
 6549SOL    HW120546   4.907   6.931   1.652
 6549SOL    HW220547   4.802   6.823   1.587
 6550SOL     OW20548   6.607   0.420   3.100
 6550SOL    HW120549   6.674   0.450   3.032
 6550SOL    HW220550   6.650   0.416   3.190
 6551SOL     OW20551   2.861   3.408   1.722
 6551SOL    HW120552   2.768   3.444   1.736
 6551SOL    HW220553   2.864   3.355   1.638
 6552SOL     OW20554   1.732   6.695   0.405
 6552SOL    HW120555   1.776   6.769   0.355
 6552SOL    HW220556   1.766   6.695   0.499
 6553SOL     OW20557   0.366   1.350   3.090
 6553SOL    HW120558   0.276   1.321   3.124
 6553SOL    HW220559   0.357   1.383   2.996
 6554SOL     OW20560   2.779   1.203   4.950
 6554SOL    HW120561   2.869   1.182   4.986
 6554SOL    HW220562   2.789   1.250   4.862
 6555SOL     OW20563   6.527   2.022   4.523
 6555SOL    HW120564   6.436   2.035   4.485
 6555SOL    HW220565   6.595   2.022   4.449
 6556SOL     OW20566   6.196   3.515   2.977
 6556SOL    HW120567   6.257   3.516   2.897
 6556SOL    HW220568   6.107   3.479   2.950
 6557SOL     OW20569   1.748   0.277   2.810
 6557SOL    HW120570   1.800   0.361   2.823
 6557SOL    HW220571   1.758   0.245   2.716
 6558SOL     OW20572   5.825   4.975   0.260
 6558SOL    HW120573   5.730   4.959   0.288
 6558SOL    HW220574   5.829   4.991   0.161
 6559SOL     OW20575   7.022   3.410   6.912
 6559SOL    HW120576   7.002   3.350   6.835
 6559SOL    HW220577   0.055   3.361   6.979
 6560SOL     OW20578   3.991   4.671   0.781
 6560SOL    HW120579   4.050   4.715   0.714
 6560SOL    HW220580   3.966   4.580   0.748
 6561SOL     OW20581   4.189   4.844   0.645
 6561SOL    HW120582   4.103   4.890   0.624
 6561SOL    HW220583   4.265   4.894   0.602
 6562SOL     OW20584   5.421   2.997   0.954
 6562SOL    HW120585   5.405   2.955   1.043
 6562SOL    HW220586   5.448   2.927   0.888
 6563SOL     OW20587   4.939   0.437   5.925
 6563SOL    HW120588   4.886   0.514   5.889
 6563SOL    HW220589   4.969   0.459   6.018
 6564SOL     OW20590   6.126   4.130   2.094
 6564SOL    HW120591   6.216   4.139   2.050
 6564SOL    HW220592   6.132   4.067   2.171
 6565SOL     OW20593   5.693   6.581   2.671
 6565SOL    HW120594   5.626   6.513   2.639
 6565SOL    HW220595   5.662   6.621   2.757
 6566SOL     OW20596   3.332   5.514   1.963
 6566SOL    HW120597   3.361   5.479   1.873
 6566SOL    HW220598   3.412   5.547   2.013
 6567SOL     OW20599   4.077   0.509   1.823
 6567SOL    HW120600   4.119   0.580   1.880
 6567SOL    HW220601   4.012   0.457   1.878
 6568SOL     OW20602   4.527   1.110   2.350
 6568SOL    HW120603   4.561   1.096   2.257
 6568SOL    HW220604   4.599   1.154   2.404
 6569SOL     OW20605   0.779   2.704   6.374
 6569SOL    HW120606   0.862   2.684   6.427
 6569SOL    HW220607   0.803   2.763   6.297
 6570SOL     OW20608   4.027   0.870   2.499
 6570SOL    HW120609   4.039   0.777   2.534
 6570SOL    HW220610   4.104   0.926   2.527
 6571SOL     OW20611   2.290   5.196   3.333
 6571SOL    HW120612   2.379   5.209   3.375
 6571SOL    HW220613   2.239   5.282   3.337
 6572SOL     OW20614   0.668   4.366   4.292
 6572SOL    HW120615   0.733   4.417   4.237
 6572SOL    HW220616   0.676   4.268   4.273
 6573SOL     OW20617   1.598   0.839   3.241
 6573SOL    HW120618   1.529   0.901   3.203
 6573SOL    HW220619   1.688   0.862   3.204
 6574SOL     OW20620   2.543   6.518   3.449
 6574SOL    HW120621   2.485   6.471   3.516
 6574SOL    HW220622   2.620   6.562   3.497
 6575SOL     OW20623   0.324   0.010   2.792
 6575SOL    HW120624   0.413   7.007   2.831
 6575SOL    HW220625   0.254   6.969   2.824
 6576SOL     OW20626   3.281   4.684   0.353
 6576SOL    HW120627   3.304   4.781   0.345
 6576SOL    HW220628   3.291   4.654   0.447
 6577SOL     OW20629   1.900   2.750   3.177
 6577SOL    HW120630   1.949   2.730   3.262
 6577SOL    HW220631   1.803   2.730   3.189
 6578SOL     OW20632   1.033   6.058   1.754
 6578SOL    HW120633   1.029   6.002   1.671
 6578SOL    HW220634   1.064   6.001   1.830
 6579SOL     OW20635   0.269   1.835   4.297
 6579SOL    HW120636   0.288   1.931   4.313
 6579SOL    HW220637   0.355   1.784   4.295
 6580SOL     OW20638   0.925   0.467   0.325
 6580SOL    HW120639   0.855   0.398   0.341
 6580SOL    HW220640   0.983   0.440   0.248
 6581SOL     OW20641   1.506   1.076   0.502
 6581SOL    HW120642   1.541   1.133   0.576
 6581SOL    HW220643   1.523   1.121   0.414
 6582SOL     OW20644   0.132   0.540   2.761
 6582SOL    HW120645   0.056   0.542   2.696
 6582SOL    HW220646   0.138   0.449   2.802
 6583SOL     OW20647   4.848   6.546   5.484
 6583SOL    HW120648   4.828   6.484   5.408
 6583SOL    HW220649   4.764   6.573   5.530
 6584SOL     OW20650   3.896   2.406   0.944
 6584SOL    HW120651   3.953   2.324   0.936
 6584SOL    HW220652   3.908   2.463   0.864
 6585SOL     OW20653   6.861   6.551   0.781
 6585SOL    HW120654   6.827   6.497   0.859
 6585SOL    HW220655   6.935   6.611   0.812
 6586SOL     OW20656   6.764   2.067   5.770
 6586SOL    HW120657   6.761   2.043   5.867
 6586SOL    HW220658   6.845   2.028   5.728
 6587SOL     OW20659   1.737   4.224   6.013
 6587SOL    HW120660   1.721   4.208   5.916
 6587SOL    HW220661   1.683   4.303   6.043
 6588SOL     OW20662   0.438   3.188   0.417
 6588SOL    HW120663   0.516   3.250   0.427
 6588SOL    HW220664   0.436   3.151   0.324
 6589SOL     OW20665   5.463   0.687   1.704
 6589SOL    HW120666   5.531   0.653   1.769
 6589SOL    HW220667   5.502   0.684   1.612
 6590SOL     OW20668   0.490   0.251   4.886
 6590SOL    HW120669   0.427   0.254   4.963
 6590SOL    HW220670   0.581   0.280   4.916
 6591SOL     OW20671   5.111   5.356   4.160
 6591SOL    HW120672   5.186   5.421   4.150
 6591SOL    HW220673   5.144   5.275   4.209
 6592SOL     OW20674   5.082   0.372   3.186
 6592SOL    HW120675   4.997   0.425   3.184
 6592SOL    HW220676   5.155   0.423   3.141
 6593SOL     OW20677   2.902   2.235   2.356
 6593SOL    HW120678   2.830   2.256   2.422
 6593SOL    HW220679   2.890   2.291   2.274
 6594SOL     OW20680   3.399   2.052   5.991
 6594SOL    HW120681   3.464   2.057   5.915
 6594SOL    HW220682   3.306   2.043   5.956
 6595SOL     OW20683   1.497   2.767   4.615
 6595SOL    HW120684   1.551   2.820   4.679
 6595SOL    HW220685   1.529   2.672   4.616
 6596SOL     OW20686   4.198   5.892   3.123
 6596SOL    HW120687   4.205   5.910   3.025
 6596SOL    HW220688   4.264   5.820   3.148
 6597SOL     OW20689   1.554   5.297   1.801
 6597SOL    HW120690   1.498   5.285   1.719
 6597SOL    HW220691   1.501   5.270   1.882
 6598SOL     OW20692   1.864   4.267   3.426
 6598SOL    HW120693   1.873   4.249   3.524
 6598SOL    HW220694   1.944   4.231   3.378
 6599SOL     OW20695   5.647   5.608   6.597
 6599SOL    HW120696   5.729   5.586   6.544
 6599SOL    HW220697   5.571   5.623   6.534
 6600SOL     OW20698   4.113   0.055   4.867
 6600SOL    HW120699   4.148   0.067   4.774
 6600SOL    HW220700   4.020   0.020   4.864
 6601SOL     OW20701   0.887   2.846   3.015
 6601SOL    HW120702   0.790   2.841   2.989
 6601SOL    HW220703   0.895   2.880   3.108
 6602SOL     OW20704   2.471   0.186   1.170
 6602SOL    HW120705   2.519   0.114   1.119
 6602SOL    HW220706   2.536   0.256   1.197
 6603SOL     OW20707   0.350   2.969   3.795
 6603SOL    HW120708   0.363   2.988   3.697
 6603SOL    HW220709   0.270   2.909   3.806
 6604SOL     OW20710   2.254   0.514   1.695
 6604SOL    HW120711   2.271   0.568   1.777
 6604SOL    HW220712   2.340   0.475   1.663
 6605SOL     OW20713   6.119   5.493   1.924
 6605SOL    HW120714   6.072   5.456   1.844
 6605SOL    HW220715   6.125   5.423   1.994
 6606SOL     OW20716   0.364   3.907   3.090
 6606SOL    HW120717   0.409   3.941   3.173
 6606SOL    HW220718   0.406   3.822   3.062
 6607SOL     OW20719   6.291   4.809   3.848
 6607SOL    HW120720   6.340   4.895   3.861
 6607SOL    HW220721   6.324   4.742   3.914
 6608SOL     OW20722   6.732   0.552   0.435
 6608SOL    HW120723   6.776   0.475   0.481
 6608SOL    HW220724   6.788   0.634   0.447
 6609SOL     OW20725   5.175   0.921   6.245
 6609SOL    HW120726   5.123   0.978   6.181
 6609SOL    HW220727   5.262   0.895   6.203
 6610SOL     OW20728   2.311   6.103   0.155
 6610SOL    HW120729   2.332   6.181   0.214
 6610SOL    HW220730   2.302   6.021   0.212
 6611SOL     OW20731   5.356   2.924   4.175
 6611SOL    HW120732   5.348   2.990   4.100
 6611SOL    HW220733   5.390   2.971   4.257
 6612SOL     OW20734   6.698   2.049   6.029
 6612SOL    HW120735   6.685   2.144   6.060
 6612SOL    HW220736   6.610   2.001   6.034
 6613SOL     OW20737   5.495   0.054   6.326
 6613SOL    HW120738   5.499   0.057   6.226
 6613SOL    HW220739   5.471   6.985   6.356
 6614SOL     OW20740   4.392   6.333   1.175
 6614SOL    HW120741   4.450   6.272   1.122
 6614SOL    HW220742   4.409   6.428   1.146
 6615SOL     OW20743   2.029   5.579   0.548
 6615SOL    HW120744   2.100   5.593   0.617
 6615SOL    HW220745   1.954   5.643   0.564
 6616SOL     OW20746   3.846   6.712   6.198
 6616SOL    HW120747   3.895   6.678   6.118
 6616SOL    HW220748   3.767   6.767   6.169
 6617SOL     OW20749   4.051   6.988   3.444
 6617SOL    HW120750   4.098   6.943   3.521
 6617SOL    HW220751   4.075   0.062   3.443
 6618SOL     OW20752   0.662   1.404   3.004
 6618SOL    HW120753   0.713   1.415   3.089
 6618SOL    HW220754   0.566   1.385   3.026
 6619SOL     OW20755   4.357   6.856   3.929
 6619SOL    HW120756   4.291   6.846   4.002
 6619SOL    HW220757   4.431   6.790   3.940
 6620SOL     OW20758   1.764   3.708   3.799
 6620SOL    HW120759   1.821   3.664   3.729
 6620SOL    HW220760   1.694   3.644   3.831
 6621SOL     OW20761   3.822   3.193   5.166
 6621SOL    HW120762   3.723   3.199   5.173
 6621SOL    HW220763   3.849   3.200   5.070
 6622SOL     OW20764   5.917   5.825   1.340
 6622SOL    HW120765   5.971   5.745   1.313
 6622SOL    HW220766   5.974   5.886   1.395
 6623SOL     OW20767   3.737   4.178   4.927
 6623SOL    HW120768   3.748   4.165   4.828
 6623SOL    HW220769   3.646   4.148   4.954
 6624SOL     OW20770   0.538   3.182   4.969
 6624SOL    HW120771   0.626   3.172   5.017
 6624SOL    HW220772   0.463   3.163   5.033
 6625SOL     OW20773   6.174   2.867   5.524
 6625SOL    HW120774   6.112   2.900   5.595
 6625SOL    HW220775   6.160   2.919   5.440
 6626SOL     OW20776   3.556   0.251   5.148
 6626SOL    HW120777   3.613   0.265   5.229
 6626SOL    HW220778   3.462   0.280   5.168
 6627SOL     OW20779   1.768   6.263   4.035
 6627SOL    HW120780   1.850   6.309   4.000
 6627SOL    HW220781   1.764   6.170   3.997
 6628SOL     OW20782   5.373   5.468   4.185
 6628SOL    HW120783   5.395   5.434   4.277
 6628SOL    HW220784   5.394   5.397   4.118
 6629SOL     OW20785   4.849   5.089   6.680
 6629SOL    HW120786   4.865   5.181   6.643
 6629SOL    HW220787   4.923   5.028   6.648
 6630SOL     OW20788   3.805   1.748   1.488
 6630SOL    HW120789   3.873   1.777   1.555
 6630SOL    HW220790   3.840   1.670   1.436
 6631SOL     OW20791   2.068   5.412   5.080
 6631SOL    HW120792   2.140   5.431   5.148
 6631SOL    HW220793   1.983   5.455   5.110
 6632SOL     OW20794   1.421   1.134   0.958
 6632SOL    HW120795   1.411   1.041   0.923
 6632SOL    HW220796   1.368   1.144   1.042
 6633SOL     OW20797   3.371   4.965   6.017
 6633SOL    HW120798   3.282   4.929   5.989
 6633SOL    HW220799   3.359   5.025   6.096
 6634SOL     OW20800   5.040   2.114   5.068
 6634SOL    HW120801   5.088   2.070   4.992
 6634SOL    HW220802   4.979   2.047   5.112
 6635SOL     OW20803   4.935   4.211   2.451
 6635SOL    HW120804   4.891   4.149   2.517
 6635SOL    HW220805   4.915   4.180   2.358
 6636SOL     OW20806   3.047   0.727   2.692
 6636SOL    HW120807   3.066   0.727   2.594
 6636SOL    HW220808   2.948   0.727   2.706
 6637SOL     OW20809   2.303   0.256   0.188
 6637SOL    HW120810   2.396   0.270   0.152
 6637SOL    HW220811   2.237   0.292   0.122
 6638SOL     OW20812   2.913   3.383   3.483
 6638SOL    HW120813   2.981   3.310   3.492
 6638SOL    HW220814   2.870   3.400   3.572
 6639SOL     OW20815   3.870   3.359   6.885
 6639SOL    HW120816   3.899   3.264   6.890
 6639SOL    HW220817   3.781   3.364   6.840
 6640SOL     OW20818   6.843   2.328   5.761
 6640SOL    HW120819   6.804   2.237   5.750
 6640SOL    HW220820   6.792   2.393   5.705
 6641SOL     OW20821   3.439   1.700   0.912
 6641SOL    HW120822   3.387   1.741   0.837
 6641SOL    HW220823   3.531   1.676   0.880
 6642SOL     OW20824   1.941   5.254   6.601
 6642SOL    HW120825   2.006   5.218   6.534
 6642SOL    HW220826   1.955   5.208   6.689
 6643SOL     OW20827   6.370   6.665   0.482
 6643SOL    HW120828   6.299   6.674   0.412
 6643SOL    HW220829   6.329   6.636   0.568
 6644SOL     OW20830   1.756   6.314   3.077
 6644SOL    HW120831   1.667   6.271   3.068
 6644SOL    HW220832   1.760   6.396   3.018
 6645SOL     OW20833   5.802   2.964   0.614
 6645SOL    HW120834   5.789   2.939   0.518
 6645SOL    HW220835   5.795   2.882   0.671
 6646SOL     OW20836   3.944   0.954   6.243
 6646SOL    HW120837   3.980   0.861   6.250
 6646SOL    HW220838   3.939   0.980   6.147
 6647SOL     OW20839   4.213   5.981   1.281
 6647SOL    HW120840   4.256   5.902   1.323
 6647SOL    HW220841   4.139   5.951   1.221
 6648SOL     OW20842   3.708   5.748   4.818
 6648SOL    HW120843   3.641   5.716   4.885
 6648SOL    HW220844   3.765   5.672   4.788
 6649SOL     OW20845   5.937   2.793   6.505
 6649SOL    HW120846   5.866   2.793   6.575
 6649SOL    HW220847   6.025   2.771   6.547
 6650SOL     OW20848   3.674   1.270   4.438
 6650SOL    HW120849   3.641   1.303   4.350
 6650SOL    HW220850   3.712   1.178   4.427
 6651SOL     OW20851   1.717   1.809   0.160
 6651SOL    HW120852   1.712   1.905   0.131
 6651SOL    HW220853   1.656   1.794   0.238
 6652SOL     OW20854   0.815   4.540   0.069
 6652SOL    HW120855   0.727   4.587   0.063
 6652SOL    HW220856   0.888   4.603   0.044
 6653SOL     OW20857   4.875   3.116   0.438
 6653SOL    HW120858   4.780   3.092   0.418
 6653SOL    HW220859   4.905   3.068   0.521
 6654SOL     OW20860   0.243   5.120   2.720
 6654SOL    HW120861   0.275   5.182   2.649
 6654SOL    HW220862   0.206   5.037   2.678
 6655SOL     OW20863   0.314   5.992   2.237
 6655SOL    HW120864   0.271   6.005   2.148
 6655SOL    HW220865   0.286   6.066   2.298
 6656SOL     OW20866   4.774   1.569   2.578
 6656SOL    HW120867   4.699   1.635   2.579
 6656SOL    HW220868   4.845   1.597   2.643
 6657SOL     OW20869   5.534   2.262   5.220
 6657SOL    HW120870   5.572   2.177   5.258
 6657SOL    HW220871   5.588   2.291   5.141
 6658SOL     OW20872   6.633   0.352   5.489
 6658SOL    HW120873   6.689   0.434   5.482
 6658SOL    HW220874   6.658   0.288   5.416
 6659SOL     OW20875   1.184   4.366   1.507
 6659SOL    HW120876   1.173   4.316   1.421
 6659SOL    HW220877   1.273   4.344   1.547
 6660SOL     OW20878   1.755   4.920   2.296
 6660SOL    HW120879   1.717   4.873   2.216
 6660SOL    HW220880   1.849   4.889   2.311
 6661SOL     OW20881   2.523   0.261   4.630
 6661SOL    HW120882   2.441   0.216   4.663
 6661SOL    HW220883   2.575   0.296   4.709
 6662SOL     OW20884   2.456   0.739   1.209
 6662SOL    HW120885   2.468   0.734   1.308
 6662SOL    HW220886   2.384   0.674   1.181
 6663SOL     OW20887   1.271   5.845   5.409
 6663SOL    HW120888   1.249   5.749   5.393
 6663SOL    HW220889   1.260   5.866   5.506
 6664SOL     OW20890   2.226   0.848   1.518
 6664SOL    HW120891   2.226   0.846   1.618
 6664SOL    HW220892   2.294   0.784   1.483
 6665SOL     OW20893   2.136   6.289   5.769
 6665SOL    HW120894   2.174   6.240   5.690
 6665SOL    HW220895   2.136   6.387   5.750
 6666SOL     OW20896   6.783   5.669   4.948
 6666SOL    HW120897   6.783   5.585   5.003
 6666SOL    HW220898   6.694   5.713   4.954
 6667SOL     OW20899   6.721   6.578   6.103
 6667SOL    HW120900   6.769   6.515   6.164
 6667SOL    HW220901   6.629   6.594   6.138
 6668SOL     OW20902   6.732   6.058   1.015
 6668SOL    HW120903   6.767   5.993   0.948
 6668SOL    HW220904   6.763   6.151   0.991
 6669SOL     OW20905   3.799   2.063   1.475
 6669SOL    HW120906   3.722   2.113   1.515
 6669SOL    HW220907   3.765   1.986   1.422
 6670SOL     OW20908   3.001   1.226   6.658
 6670SOL    HW120909   2.937   1.150   6.671
 6670SOL    HW220910   3.042   1.218   6.567
 6671SOL     OW20911   5.142   6.791   0.829
 6671SOL    HW120912   5.052   6.834   0.833
 6671SOL    HW220913   5.163   6.767   0.734
 6672SOL     OW20914   1.390   2.463   0.419
 6672SOL    HW120915   1.392   2.563   0.425
 6672SOL    HW220916   1.429   2.424   0.502
 6673SOL     OW20917   5.123   3.952   3.855
 6673SOL    HW120918   5.171   3.888   3.796
 6673SOL    HW220919   5.103   3.908   3.942
 6674SOL     OW20920   0.182   2.950   6.607
 6674SOL    HW120921   0.189   2.914   6.700
 6674SOL    HW220922   0.219   2.884   6.542
 6675SOL     OW20923   4.534   1.946   6.937
 6675SOL    HW120924   4.611   1.888   6.909
 6675SOL    HW220925   4.569   2.033   6.972
 6676SOL     OW20926   1.217   3.749   2.776
 6676SOL    HW120927   1.137   3.807   2.795
 6676SOL    HW220928   1.279   3.797   2.714
 6677SOL     OW20929   1.051   0.511   6.600
 6677SOL    HW120930   0.997   0.489   6.518
 6677SOL    HW220931   1.116   0.584   6.578
 6678SOL     OW20932   1.923   4.066   0.778
 6678SOL    HW120933   1.933   4.108   0.688
 6678SOL    HW220934   1.862   3.987   0.771
 6679SOL     OW20935   3.551   1.051   3.879
 6679SOL    HW120936   3.535   1.013   3.970
 6679SOL    HW220937   3.479   1.020   3.817
 6680SOL     OW20938   4.439   6.037   6.676
 6680SOL    HW120939   4.472   6.106   6.612
 6680SOL    HW220940   4.344   6.057   6.702
 6681SOL     OW20941   5.067   5.659   1.858
 6681SOL    HW120942   5.159   5.698   1.856
 6681SOL    HW220943   4.999   5.732   1.850
 6682SOL     OW20944   2.300   4.725   6.645
 6682SOL    HW120945   2.338   4.656   6.584
 6682SOL    HW220946   2.318   4.700   6.740
 6683SOL     OW20947   5.752   3.425   6.043
 6683SOL    HW120948   5.841   3.439   6.086
 6683SOL    HW220949   5.740   3.491   5.968
 6684SOL     OW20950   3.804   6.777   2.222
 6684SOL    HW120951   3.712   6.810   2.244
 6684SOL    HW220952   3.838   6.721   2.297
 6685SOL     OW20953   4.620   3.112   6.425
 6685SOL    HW120954   4.663   3.071   6.345
 6685SOL    HW220955   4.653   3.206   6.437
 6686SOL     OW20956   6.340   6.060   3.252
 6686SOL    HW120957   6.265   6.122   3.231
 6686SOL    HW220958   6.420   6.112   3.282
 6687SOL     OW20959   0.815   2.636   1.633
 6687SOL    HW120960   0.835   2.708   1.700
 6687SOL    HW220961   0.800   2.549   1.681
 6688SOL     OW20962   3.832   4.059   0.933
 6688SOL    HW120963   3.921   4.013   0.930
 6688SOL    HW220964   3.770   4.007   0.992
 6689SOL     OW20965   4.152   3.915   6.034
 6689SOL    HW120966   4.107   3.858   6.103
 6689SOL    HW220967   4.204   3.988   6.080
 6690SOL     OW20968   1.375   6.633   6.706
 6690SOL    HW120969   1.353   6.630   6.804
 6690SOL    HW220970   1.308   6.690   6.658
 6691SOL     OW20971   1.467   0.522   2.513
 6691SOL    HW120972   1.558   0.546   2.479
 6691SOL    HW220973   1.462   0.541   2.611
 6692SOL     OW20974   4.077   3.984   1.761
 6692SOL    HW120975   4.162   4.030   1.786
 6692SOL    HW220976   4.000   4.026   1.809
 6693SOL     OW20977   4.416   1.699   4.881
 6693SOL    HW120978   4.446   1.623   4.938
 6693SOL    HW220979   4.318   1.690   4.863
 6694SOL     OW20980   4.067   5.383   1.087
 6694SOL    HW120981   3.975   5.419   1.102
 6694SOL    HW220982   4.124   5.455   1.046
 6695SOL     OW20983   2.794   1.923   6.965
 6695SOL    HW120984   2.894   1.926   6.965
 6695SOL    HW220985   2.762   1.855   6.900
 6696SOL     OW20986   3.907   4.030   3.625
 6696SOL    HW120987   3.890   4.094   3.700
 6696SOL    HW220988   3.935   3.941   3.662
 6697SOL     OW20989   5.049   2.586   2.751
 6697SOL    HW120990   5.063   2.516   2.681
 6697SOL    HW220991   4.987   2.551   2.821
 6698SOL     OW20992   3.022   3.524   1.365
 6698SOL    HW120993   2.940   3.569   1.400
 6698SOL    HW220994   3.098   3.539   1.429
 6699SOL     OW20995   2.242   6.074   5.573
 6699SOL    HW120996   2.266   5.978   5.588
 6699SOL    HW220997   2.158   6.079   5.519
 6700SOL     OW20998   5.910   0.629   0.904
 6700SOL    HW120999   5.866   0.648   0.817
 6700SOL    HW221000   5.987   0.567   0.890
 6701SOL     OW21001   5.685   6.654   2.229
 6701SOL    HW121002   5.642   6.731   2.183
 6701SOL    HW221003   5.724   6.685   2.316
 6702SOL     OW21004   2.298   2.543   1.773
 6702SOL    HW121005   2.206   2.576   1.792
 6702SOL    HW221006   2.348   2.532   1.859
 6703SOL     OW21007   1.284   1.140   6.820
 6703SOL    HW121008   1.291   1.238   6.800
 6703SOL    HW221009   1.211   1.124   6.886
 6704SOL     OW21010   4.003   1.343   4.436
 6704SOL    HW121011   4.009   1.436   4.400
 6704SOL    HW221012   4.070   1.331   4.509
 6705SOL     OW21013   5.863   2.739   0.766
 6705SOL    HW121014   5.949   2.732   0.716
 6705SOL    HW221015   5.800   2.667   0.735
 6706SOL     OW21016   1.397   6.128   0.492
 6706SOL    HW121017   1.396   6.172   0.582
 6706SOL    HW221018   1.486   6.086   0.477
 6707SOL     OW21019   5.443   0.036   3.029
 6707SOL    HW121020   5.347   0.020   3.005
 6707SOL    HW221021   5.477   6.981   3.082
 6708SOL     OW21022   5.919   5.385   1.316
 6708SOL    HW121023   5.979   5.327   1.370
 6708SOL    HW221024   5.960   5.401   1.226
 6709SOL     OW21025   0.442   4.654   2.835
 6709SOL    HW121026   0.537   4.681   2.816
 6709SOL    HW221027   0.384   4.686   2.760
 6710SOL     OW21028   4.582   1.224   1.417
 6710SOL    HW121029   4.575   1.148   1.481
 6710SOL    HW221030   4.553   1.309   1.462
 6711SOL     OW21031   4.696   6.835   5.716
 6711SOL    HW121032   4.684   6.927   5.679
 6711SOL    HW221033   4.638   6.771   5.667
 6712SOL     OW21034   6.108   3.324   1.244
 6712SOL    HW121035   6.048   3.246   1.230
 6712SOL    HW221036   6.130   3.333   1.341
 6713SOL     OW21037   1.067   1.432   3.433
 6713SOL    HW121038   1.068   1.351   3.375
 6713SOL    HW221039   1.157   1.445   3.475
 6714SOL     OW21040   5.708   0.994   0.770
 6714SOL    HW121041   5.755   1.063   0.716
 6714SOL    HW221042   5.642   0.946   0.713
 6715SOL     OW21043   1.634   1.162   1.574
 6715SOL    HW121044   1.633   1.178   1.673
 6715SOL    HW221045   1.707   1.098   1.552
 6716SOL     OW21046   6.626   5.995   2.623
 6716SOL    HW121047   6.701   6.038   2.674
 6716SOL    HW221048   6.558   5.960   2.688
 6717SOL     OW21049   2.801   2.302   6.197
 6717SOL    HW121050   2.865   2.227   6.211
 6717SOL    HW221051   2.828   2.355   6.117
 6718SOL     OW21052   3.817   1.252   1.112
 6718SOL    HW121053   3.834   1.251   1.014
 6718SOL    HW221054   3.797   1.158   1.143
 6719SOL     OW21055   1.931   6.581   0.126
 6719SOL    HW121056   2.011   6.612   0.074
 6719SOL    HW221057   1.950   6.491   0.166
 6720SOL     OW21058   2.628   1.414   5.019
 6720SOL    HW121059   2.684   1.331   5.023
 6720SOL    HW221060   2.539   1.396   5.060
 6721SOL     OW21061   6.739   0.123   0.781
 6721SOL    HW121062   6.776   0.095   0.692
 6721SOL    HW221063   6.814   0.141   0.845
 6722SOL     OW21064   0.455   2.281   0.454
 6722SOL    HW121065   0.371   2.326   0.483
 6722SOL    HW221066   0.499   2.335   0.383
 6723SOL     OW21067   1.755   0.025   6.333
 6723SOL    HW121068   1.725   0.120   6.347
 6723SOL    HW221069   1.680   6.985   6.353
 6724SOL     OW21070   2.130   2.442   6.208
 6724SOL    HW121071   2.189   2.496   6.267
 6724SOL    HW221072   2.084   2.502   6.143
 6725SOL     OW21073   6.428   3.023   2.425
 6725SOL    HW121074   6.365   2.994   2.353
 6725SOL    HW221075   6.522   2.997   2.400
 6726SOL     OW21076   0.493   1.897   4.625
 6726SOL    HW121077   0.480   1.988   4.666
 6726SOL    HW221078   0.404   1.851   4.619
 6727SOL     OW21079   0.879   4.159   5.641
 6727SOL    HW121080   0.889   4.203   5.730
 6727SOL    HW221081   0.910   4.063   5.647
 6728SOL     OW21082   3.405   1.346   3.477
 6728SOL    HW121083   3.384   1.436   3.517
 6728SOL    HW221084   3.418   1.356   3.379
 6729SOL     OW21085   6.634   1.759   0.069
 6729SOL    HW121086   6.663   1.688   0.133
 6729SOL    HW221087   6.645   1.849   0.111
 6730SOL     OW21088   1.910   0.736   1.155
 6730SOL    HW121089   1.923   0.835   1.157
 6730SOL    HW221090   1.959   0.698   1.077
 6731SOL     OW21091   1.509   6.771   0.974
 6731SOL    HW121092   1.586   6.783   1.036
 6731SOL    HW221093   1.499   6.851   0.915
 6732SOL     OW21094   5.098   4.307   4.101
 6732SOL    HW121095   5.025   4.375   4.105
 6732SOL    HW221096   5.132   4.300   4.007
 6733SOL     OW21097   3.930   5.290   6.441
 6733SOL    HW121098   3.908   5.272   6.537
 6733SOL    HW221099   4.025   5.263   6.423
 6734SOL     OW21100   5.396   2.376   6.113
 6734SOL    HW121101   5.423   2.438   6.186
 6734SOL    HW221102   5.336   2.423   6.049
 6735SOL     OW21103   5.321   3.797   4.047
 6735SOL    HW121104   5.320   3.820   4.144
 6735SOL    HW221105   5.277   3.870   3.994
 6736SOL     OW21106   3.254   3.612   6.681
 6736SOL    HW121107   3.300   3.692   6.642
 6736SOL    HW221108   3.180   3.584   6.620
 6737SOL     OW21109   1.333   3.207   1.066
 6737SOL    HW121110   1.287   3.278   1.013
 6737SOL    HW221111   1.336   3.234   1.162
 6738SOL     OW21112   1.487   5.975   4.063
 6738SOL    HW121113   1.583   5.954   4.046
 6738SOL    HW221114   1.463   6.061   4.017
 6739SOL     OW21115   6.609   5.776   3.810
 6739SOL    HW121116   6.632   5.686   3.846
 6739SOL    HW221117   6.526   5.769   3.754
 6740SOL     OW21118   6.520   0.263   5.001
 6740SOL    HW121119   6.615   0.250   4.971
 6740SOL    HW221120   6.494   0.189   5.063
 6741SOL     OW21121   4.192   2.027   6.161
 6741SOL    HW121122   4.238   1.955   6.212
 6741SOL    HW221123   4.096   2.004   6.149
 6742SOL     OW21124   5.989   5.619   4.091
 6742SOL    HW121125   6.022   5.557   4.020
 6742SOL    HW221126   6.014   5.713   4.068
 6743SOL     OW21127   3.546   3.913   6.349
 6743SOL    HW121128   3.566   3.989   6.287
 6743SOL    HW221129   3.597   3.832   6.320
 6744SOL     OW21130   0.238   6.640   5.990
 6744SOL    HW121131   0.224   6.705   6.065
 6744SOL    HW221132   0.162   6.646   5.925
 6745SOL     OW21133   6.815   6.215   3.470
 6745SOL    HW121134   6.829   6.156   3.390
 6745SOL    HW221135   6.748   6.173   3.531
 6746SOL     OW21136   1.779   0.895   2.853
 6746SOL    HW121137   1.680   0.912   2.854
 6746SOL    HW221138   1.818   0.923   2.940
 6747SOL     OW21139   6.258   0.160   6.820
 6747SOL    HW121140   6.289   0.255   6.829
 6747SOL    HW221141   6.160   0.159   6.801
 6748SOL     OW21142   2.761   1.978   3.369
 6748SOL    HW121143   2.854   1.946   3.386
 6748SOL    HW221144   2.765   2.067   3.324
 6749SOL     OW21145   3.554   4.303   1.014
 6749SOL    HW121146   3.599   4.229   1.064
 6749SOL    HW221147   3.577   4.391   1.056
 6750SOL     OW21148   3.193   1.918   4.152
 6750SOL    HW121149   3.182   1.952   4.246
 6750SOL    HW221150   3.229   1.992   4.094
 6751SOL     OW21151   4.782   0.435   3.110
 6751SOL    HW121152   4.772   0.530   3.138
 6751SOL    HW221153   4.757   0.374   3.185
 6752SOL     OW21154   1.852   0.366   3.709
 6752SOL    HW121155   1.775   0.313   3.673
 6752SOL    HW221156   1.938   0.324   3.682
 6753SOL     OW21157   3.516   2.130   5.753
 6753SOL    HW121158   3.435   2.187   5.739
 6753SOL    HW221159   3.594   2.169   5.703
 6754SOL     OW21160   6.373   1.263   1.021
 6754SOL    HW121161   6.316   1.280   0.941
 6754SOL    HW221162   6.331   1.304   1.102
 6755SOL     OW21163   3.610   4.001   1.122
 6755SOL    HW121164   3.678   4.037   1.186
 6755SOL    HW221165   3.640   3.911   1.089
 6756SOL     OW21166   3.621   0.606   5.377
 6756SOL    HW121167   3.648   0.511   5.395
 6756SOL    HW221168   3.685   0.668   5.424
 6757SOL     OW21169   3.966   1.838   1.257
 6757SOL    HW121170   3.917   1.906   1.203
 6757SOL    HW221171   3.946   1.851   1.354
 6758SOL     OW21172   5.946   3.108   1.471
 6758SOL    HW121173   6.042   3.083   1.460
 6758SOL    HW221174   5.897   3.034   1.517
 6759SOL     OW21175   0.098   3.130   2.959
 6759SOL    HW121176   0.065   3.216   2.921
 6759SOL    HW221177   0.073   3.055   2.898
 6760SOL     OW21178   6.162   3.888   2.270
 6760SOL    HW121179   6.119   3.815   2.323
 6760SOL    HW221180   6.261   3.873   2.266
 6761SOL     OW21181   5.708   2.911   4.773
 6761SOL    HW121182   5.657   2.826   4.760
 6761SOL    HW221183   5.715   2.930   4.871
 6762SOL     OW21184   0.471   4.825   4.695
 6762SOL    HW121185   0.530   4.778   4.629
 6762SOL    HW221186   0.376   4.821   4.663
 6763SOL     OW21187   4.935   5.181   4.747
 6763SOL    HW121188   4.959   5.269   4.790
 6763SOL    HW221189   5.009   5.116   4.762
 6764SOL     OW21190   2.032   5.394   2.192
 6764SOL    HW121191   2.111   5.377   2.251
 6764SOL    HW221192   2.040   5.338   2.110
 6765SOL     OW21193   6.053   4.503   2.806
 6765SOL    HW121194   6.016   4.499   2.713
 6765SOL    HW221195   6.112   4.583   2.815
 6766SOL     OW21196   5.010   6.495   5.679
 6766SOL    HW121197   4.953   6.478   5.759
 6766SOL    HW221198   4.952   6.513   5.600
 6767SOL     OW21199   3.467   0.061   1.247
 6767SOL    HW121200   3.418   0.118   1.312
 6767SOL    HW221201   3.444   0.088   1.154
 6768SOL     OW21202   1.854   0.538   5.507
 6768SOL    HW121203   1.799   0.455   5.495
 6768SOL    HW221204   1.895   0.564   5.420
 6769SOL     OW21205   3.213   1.446   0.371
 6769SOL    HW121206   3.248   1.403   0.454
 6769SOL    HW221207   3.132   1.499   0.393
 6770SOL     OW21208   6.885   1.483   1.958
 6770SOL    HW121209   6.979   1.472   1.990
 6770SOL    HW221210   6.885   1.539   1.875
 6771SOL     OW21211   4.950   2.512   3.616
 6771SOL    HW121212   4.875   2.578   3.626
 6771SOL    HW221213   5.024   2.536   3.679
 6772SOL     OW21214   3.267   1.105   3.442
 6772SOL    HW121215   3.324   1.186   3.435
 6772SOL    HW221216   3.247   1.070   3.351
 6773SOL     OW21217   0.038   5.153   1.594
 6773SOL    HW121218   0.007   5.248   1.597
 6773SOL    HW221219   0.063   5.123   1.687
 6774SOL     OW21220   0.330   2.288   5.633
 6774SOL    HW121221   0.307   2.204   5.682
 6774SOL    HW221222   0.290   2.286   5.542
 6775SOL     OW21223   2.680   3.116   1.738
 6775SOL    HW121224   2.776   3.089   1.723
 6775SOL    HW221225   2.672   3.215   1.729
 6776SOL     OW21226   4.189   4.529   6.935
 6776SOL    HW121227   4.276   4.566   6.968
 6776SOL    HW221228   4.191   4.522   6.835
 6777SOL     OW21229   4.369   4.210   6.882
 6777SOL    HW121230   4.277   4.203   6.844
 6777SOL    HW221231   4.419   4.125   6.864
 6778SOL     OW21232   6.116   4.785   2.327
 6778SOL    HW121233   6.080   4.736   2.248
 6778SOL    HW221234   6.210   4.815   2.309
 6779SOL     OW21235   0.009   5.052   6.573
 6779SOL    HW121236   0.006   5.006   6.662
 6779SOL    HW221237   6.945   5.039   6.526
 6780SOL     OW21238   1.280   2.378   1.775
 6780SOL    HW121239   1.240   2.468   1.789
 6780SOL    HW221240   1.298   2.335   1.864
 6781SOL     OW21241   6.182   0.227   4.959
 6781SOL    HW121242   6.085   0.218   4.981
 6781SOL    HW221243   6.192   0.283   4.877
 6782SOL     OW21244   6.913   0.035   3.688
 6782SOL    HW121245   6.817   0.028   3.662
 6782SOL    HW221246   6.962   0.092   3.622
 6783SOL     OW21247   6.400   0.809   6.010
 6783SOL    HW121248   6.359   0.857   5.932
 6783SOL    HW221249   6.495   0.836   6.020
 6784SOL     OW21250   2.884   3.289   0.816
 6784SOL    HW121251   2.874   3.388   0.831
 6784SOL    HW221252   2.975   3.271   0.779
 6785SOL     OW21253   5.546   4.837   3.074
 6785SOL    HW121254   5.574   4.910   3.135
 6785SOL    HW221255   5.614   4.764   3.075
 6786SOL     OW21256   1.150   2.297   0.333
 6786SOL    HW121257   1.230   2.356   0.330
 6786SOL    HW221258   1.176   2.207   0.369
 6787SOL     OW21259   1.498   2.964   1.087
 6787SOL    HW121260   1.408   3.008   1.087
 6787SOL    HW221261   1.570   3.033   1.095
 6788SOL     OW21262   2.592   3.332   1.364
 6788SOL    HW121263   2.691   3.347   1.373
 6788SOL    HW221264   2.569   3.242   1.400
 6789SOL     OW21265   6.476   6.286   2.823
 6789SOL    HW121266   6.406   6.276   2.894
 6789SOL    HW221267   6.566   6.274   2.863
 6790SOL     OW21268   1.258   3.846   1.025
 6790SOL    HW121269   1.187   3.913   1.047
 6790SOL    HW221270   1.330   3.850   1.094
 6791SOL     OW21271   4.466   2.701   1.553
 6791SOL    HW121272   4.460   2.622   1.613
 6791SOL    HW221273   4.437   2.783   1.602
 6792SOL     OW21274   6.629   6.076   5.663
 6792SOL    HW121275   6.720   6.052   5.630
 6792SOL    HW221276   6.633   6.162   5.714
 6793SOL     OW21277   0.954   1.603   0.392
 6793SOL    HW121278   0.918   1.681   0.340
 6793SOL    HW221279   0.879   1.557   0.438
 6794SOL     OW21280   5.323   1.586   6.098
 6794SOL    HW121281   5.358   1.679   6.090
 6794SOL    HW221282   5.270   1.577   6.183
 6795SOL     OW21283   2.522   6.433   0.901
 6795SOL    HW121284   2.528   6.428   1.001
 6795SOL    HW221285   2.520   6.340   0.863
 6796SOL     OW21286   6.633   0.932   2.372
 6796SOL    HW121287   6.544   0.967   2.402
 6796SOL    HW221288   6.665   0.986   2.294
 6797SOL     OW21289   5.451   3.543   1.661
 6797SOL    HW121290   5.455   3.451   1.621
 6797SOL    HW221291   5.496   3.542   1.751
 6798SOL     OW21292   5.007   6.538   2.768
 6798SOL    HW121293   5.105   6.538   2.787
 6798SOL    HW221294   4.963   6.466   2.821
 6799SOL     OW21295   6.509   6.416   0.638
 6799SOL    HW121296   6.567   6.440   0.561
 6799SOL    HW221297   6.513   6.489   0.707
 6800SOL     OW21298   2.363   3.995   0.982
 6800SOL    HW121299   2.293   4.025   0.917
 6800SOL    HW221300   2.417   3.921   0.942
 6801SOL     OW21301   0.823   0.509   2.980
 6801SOL    HW121302   0.813   0.607   2.997
 6801SOL    HW221303   0.736   0.473   2.945
 6802SOL     OW21304   3.278   5.857   0.644
 6802SOL    HW121305   3.301   5.914   0.564
 6802SOL    HW221306   3.256   5.917   0.721
 6803SOL     OW21307   5.174   2.738   6.248
 6803SOL    HW121308   5.253   2.769   6.300
 6803SOL    HW221309   5.148   2.809   6.181
 6804SOL     OW21310   3.086   5.201   3.680
 6804SOL    HW121311   2.988   5.215   3.690
 6804SOL    HW221312   3.102   5.118   3.626
 6805SOL     OW21313   6.068   5.443   6.109
 6805SOL    HW121314   6.115   5.445   6.021
 6805SOL    HW221315   6.127   5.399   6.177
 6806SOL     OW21316   6.290   0.639   3.356
 6806SOL    HW121317   6.273   0.623   3.453
 6806SOL    HW221318   6.209   0.614   3.303
 6807SOL     OW21319   3.332   2.524   0.463
 6807SOL    HW121320   3.335   2.470   0.378
 6807SOL    HW221321   3.244   2.570   0.469
 6808SOL     OW21322   0.465   1.923   5.174
 6808SOL    HW121323   0.471   1.823   5.171
 6808SOL    HW221324   0.381   1.953   5.128
 6809SOL     OW21325   1.459   2.969   1.746
 6809SOL    HW121326   1.479   2.935   1.838
 6809SOL    HW221327   1.513   2.918   1.679
 6810SOL     OW21328   2.023   0.432   1.827
 6810SOL    HW121329   2.018   0.501   1.898
 6810SOL    HW221330   2.096   0.456   1.762
 6811SOL     OW21331   4.775   4.180   0.757
 6811SOL    HW121332   4.839   4.236   0.810
 6811SOL    HW221333   4.815   4.160   0.668
 6812SOL     OW21334   3.368   3.384   3.486
 6812SOL    HW121335   3.448   3.367   3.544
 6812SOL    HW221336   3.382   3.339   3.397
 6813SOL     OW21337   4.647   2.217   2.350
 6813SOL    HW121338   4.624   2.129   2.391
 6813SOL    HW221339   4.564   2.268   2.328
 6814SOL     OW21340   3.410   1.931   0.214
 6814SOL    HW121341   3.383   1.870   0.289
 6814SOL    HW221342   3.467   2.005   0.250
 6815SOL     OW21343   2.632   0.164   1.449
 6815SOL    HW121344   2.634   0.080   1.394
 6815SOL    HW221345   2.719   0.173   1.498
 6816SOL     OW21346   0.309   6.942   6.562
 6816SOL    HW121347   0.259   6.892   6.633
 6816SOL    HW221348   0.244   6.996   6.508
 6817SOL     OW21349   1.077   2.095   4.431
 6817SOL    HW121350   1.120   2.183   4.452
 6817SOL    HW221351   1.072   2.082   4.332
 6818SOL     OW21352   2.965   5.113   1.850
 6818SOL    HW121353   2.892   5.166   1.891
 6818SOL    HW221354   2.926   5.035   1.802
 6819SOL     OW21355   5.009   0.821   4.286
 6819SOL    HW121356   4.971   0.901   4.241
 6819SOL    HW221357   4.954   0.798   4.367
 6820SOL     OW21358   1.397   5.546   2.906
 6820SOL    HW121359   1.465   5.498   2.962
 6820SOL    HW221360   1.373   5.489   2.827
 6821SOL     OW21361   3.016   1.202   5.100
 6821SOL    HW121362   3.087   1.144   5.061
 6821SOL    HW221363   3.035   1.298   5.077
 6822SOL     OW21364   5.888   2.224   6.137
 6822SOL    HW121365   5.925   2.131   6.134
 6822SOL    HW221366   5.792   2.223   6.108
 6823SOL     OW21367   3.512   3.238   4.213
 6823SOL    HW121368   3.596   3.291   4.202
 6823SOL    HW221369   3.529   3.142   4.192
 6824SOL     OW21370   1.175   2.592   6.311
 6824SOL    HW121371   1.261   2.540   6.310
 6824SOL    HW221372   1.099   2.532   6.287
 6825SOL     OW21373   5.082   6.406   2.462
 6825SOL    HW121374   4.987   6.430   2.440
 6825SOL    HW221375   5.084   6.344   2.541
 6826SOL     OW21376   2.141   4.146   2.448
 6826SOL    HW121377   2.186   4.147   2.538
 6826SOL    HW221378   2.043   4.161   2.460
 6827SOL     OW21379   4.550   5.390   6.875
 6827SOL    HW121380   4.480   5.354   6.813
 6827SOL    HW221381   4.606   5.314   6.910
 6828SOL     OW21382   2.635   1.935   1.914
 6828SOL    HW121383   2.659   1.838   1.909
 6828SOL    HW221384   2.698   1.987   1.856
 6829SOL     OW21385   4.730   6.474   4.324
 6829SOL    HW121386   4.660   6.482   4.394
 6829SOL    HW221387   4.743   6.562   4.279
 6830SOL     OW21388   5.174   1.406   4.000
 6830SOL    HW121389   5.179   1.502   4.027
 6830SOL    HW221390   5.188   1.399   3.901
 6831SOL     OW21391   1.149   0.301   6.756
 6831SOL    HW121392   1.101   0.365   6.695
 6831SOL    HW221393   1.247   0.318   6.751
 6832SOL     OW21394   2.496   3.717   0.944
 6832SOL    HW121395   2.499   3.690   1.041
 6832SOL    HW221396   2.467   3.639   0.889
 6833SOL     OW21397   4.459   4.482   6.230
 6833SOL    HW121398   4.375   4.451   6.184
 6833SOL    HW221399   4.438   4.562   6.287
 6834SOL     OW21400   5.504   6.731   1.126
 6834SOL    HW121401   5.573   6.748   1.056
 6834SOL    HW221402   5.424   6.789   1.108
 6835SOL     OW21403   3.552   0.454   4.731
 6835SOL    HW121404   3.556   0.532   4.794
 6835SOL    HW221405   3.573   0.484   4.639
 6836SOL     OW21406   2.806   5.517   0.308
 6836SOL    HW121407   2.712   5.549   0.294
 6836SOL    HW221408   2.804   5.434   0.365
 6837SOL     OW21409   1.731   1.999   2.267
 6837SOL    HW121410   1.760   1.903   2.265
 6837SOL    HW221411   1.778   2.049   2.194
 6838SOL     OW21412   2.809   6.244   0.788
 6838SOL    HW121413   2.816   6.317   0.720
 6838SOL    HW221414   2.716   6.209   0.790
 6839SOL     OW21415   5.273   0.728   6.966
 6839SOL    HW121416   5.346   0.672   7.006
 6839SOL    HW221417   5.246   0.690   6.877
 6840SOL     OW21418   2.788   1.616   4.739
 6840SOL    HW121419   2.839   1.657   4.664
 6840SOL    HW221420   2.840   1.539   4.777
 6841SOL     OW21421   5.147   4.080   6.477
 6841SOL    HW121422   5.085   4.066   6.400
 6841SOL    HW221423   5.235   4.113   6.444
 6842SOL     OW21424   2.822   4.356   1.345
 6842SOL    HW121425   2.811   4.268   1.299
 6842SOL    HW221426   2.846   4.341   1.441
 6843SOL     OW21427   5.569   6.274   0.687
 6843SOL    HW121428   5.647   6.214   0.706
 6843SOL    HW221429   5.542   6.321   0.772
 6844SOL     OW21430   5.768   0.956   4.546
 6844SOL    HW121431   5.750   0.881   4.482
 6844SOL    HW221432   5.774   0.920   4.639
 6845SOL     OW21433   6.462   3.534   3.287
 6845SOL    HW121434   6.405   3.539   3.369
 6845SOL    HW221435   6.422   3.591   3.215
 6846SOL     OW21436   3.772   3.869   0.267
 6846SOL    HW121437   3.780   3.946   0.330
 6846SOL    HW221438   3.822   3.791   0.305
 6847SOL     OW21439   0.175   3.816   5.345
 6847SOL    HW121440   0.138   3.748   5.281
 6847SOL    HW221441   0.195   3.771   5.433
 6848SOL     OW21442   5.103   4.518   3.323
 6848SOL    HW121443   5.090   4.477   3.233
 6848SOL    HW221444   5.110   4.617   3.314
 6849SOL     OW21445   4.424   4.134   5.648
 6849SOL    HW121446   4.350   4.190   5.610
 6849SOL    HW221447   4.427   4.046   5.601
 6850SOL     OW21448   5.167   2.829   2.817
 6850SOL    HW121449   5.155   2.842   2.915
 6850SOL    HW221450   5.131   2.739   2.790
 6851SOL     OW21451   0.439   2.340   2.658
 6851SOL    HW121452   0.498   2.299   2.588
 6851SOL    HW221453   0.496   2.384   2.727
 6852SOL     OW21454   2.833   4.578   1.172
 6852SOL    HW121455   2.803   4.491   1.211
 6852SOL    HW221456   2.772   4.651   1.205
 6853SOL     OW21457   5.425   4.074   6.398
 6853SOL    HW121458   5.459   3.981   6.407
 6853SOL    HW221459   5.431   4.121   6.486
 6854SOL     OW21460   5.589   0.364   5.585
 6854SOL    HW121461   5.519   0.387   5.652
 6854SOL    HW221462   5.586   0.266   5.566
 6855SOL     OW21463   4.174   5.178   3.501
 6855SOL    HW121464   4.107   5.128   3.446
 6855SOL    HW221465   4.127   5.225   3.576
 6856SOL     OW21466   0.552   2.458   4.992
 6856SOL    HW121467   0.588   2.459   4.899
 6856SOL    HW221468   0.590   2.380   5.041
 6857SOL     OW21469   1.123   3.148   6.709
 6857SOL    HW121470   1.036   3.186   6.743
 6857SOL    HW221471   1.198   3.187   6.762
 6858SOL     OW21472   3.823   4.082   1.830
 6858SOL    HW121473   3.779   4.151   1.772
 6858SOL    HW221474   3.768   4.068   1.913
 6859SOL     OW21475   0.833   1.032   1.288
 6859SOL    HW121476   0.792   1.004   1.201
 6859SOL    HW221477   0.850   0.951   1.345
 6860SOL     OW21478   6.850   4.557   1.300
 6860SOL    HW121479   6.789   4.546   1.222
 6860SOL    HW221480   6.917   4.628   1.280
 6861SOL     OW21481   5.296   3.709   6.323
 6861SOL    HW121482   5.386   3.734   6.287
 6861SOL    HW221483   5.225   3.765   6.280
 6862SOL     OW21484   6.871   5.411   5.876
 6862SOL    HW121485   6.903   5.317   5.872
 6862SOL    HW221486   6.949   5.472   5.888
 6863SOL     OW21487   6.712   6.318   5.811
 6863SOL    HW121488   6.700   6.409   5.771
 6863SOL    HW221489   6.705   6.324   5.911
 6864SOL     OW21490   1.752   4.770   4.996
 6864SOL    HW121491   1.714   4.855   4.960
 6864SOL    HW221492   1.851   4.780   5.006
 6865SOL     OW21493   0.926   7.000   5.020
 6865SOL    HW121494   0.945   7.011   5.117
 6865SOL    HW221495   0.835   6.961   5.008
 6866SOL     OW21496   5.658   4.630   2.453
 6866SOL    HW121497   5.702   4.546   2.421
 6866SOL    HW221498   5.680   4.645   2.549
 6867SOL     OW21499   2.045   3.445   1.777
 6867SOL    HW121500   2.098   3.432   1.861
 6867SOL    HW221501   2.064   3.536   1.740
 6868SOL     OW21502   2.195   6.632   5.069
 6868SOL    HW121503   2.148   6.717   5.046
 6868SOL    HW221504   2.290   6.638   5.041
 6869SOL     OW21505   5.009   0.917   5.902
 6869SOL    HW121506   5.008   0.983   5.978
 6869SOL    HW221507   4.921   0.920   5.855
 6870SOL     OW21508   0.281   4.337   1.348
 6870SOL    HW121509   0.318   4.251   1.314
 6870SOL    HW221510   0.347   4.410   1.332
 6871SOL     OW21511   6.522   4.009   2.671
 6871SOL    HW121512   6.428   4.028   2.644
 6871SOL    HW221513   6.556   4.083   2.730
 6872SOL     OW21514   0.620   3.091   1.827
 6872SOL    HW121515   0.648   3.186   1.817
 6872SOL    HW221516   0.640   3.041   1.742
 6873SOL     OW21517   1.089   3.780   4.008
 6873SOL    HW121518   1.050   3.868   4.038
 6873SOL    HW221519   1.065   3.709   4.074
 6874SOL     OW21520   6.259   5.502   3.738
 6874SOL    HW121521   6.272   5.584   3.794
 6874SOL    HW221522   6.299   5.516   3.648
 6875SOL     OW21523   2.498   1.712   2.365
 6875SOL    HW121524   2.588   1.701   2.324
 6875SOL    HW221525   2.440   1.766   2.304
 6876SOL     OW21526   3.534   0.213   3.501
 6876SOL    HW121527   3.624   0.257   3.497
 6876SOL    HW221528   3.464   0.282   3.519
 6877SOL     OW21529   3.515   4.035   1.738
 6877SOL    HW121530   3.518   4.003   1.832
 6877SOL    HW221531   3.563   4.123   1.731
 6878SOL     OW21532   2.662   1.724   3.451
 6878SOL    HW121533   2.663   1.686   3.359
 6878SOL    HW221534   2.709   1.812   3.451
 6879SOL     OW21535   2.153   2.383   0.204
 6879SOL    HW121536   2.079   2.385   0.137
 6879SOL    HW221537   2.240   2.365   0.157
 6880SOL     OW21538   1.073   6.254   5.709
 6880SOL    HW121539   1.095   6.346   5.740
 6880SOL    HW221540   1.156   6.198   5.711
 6881SOL     OW21541   1.812   3.103   1.404
 6881SOL    HW121542   1.780   3.008   1.398
 6881SOL    HW221543   1.890   3.108   1.465
 6882SOL     OW21544   2.885   0.683   0.272
 6882SOL    HW121545   2.818   0.619   0.235
 6882SOL    HW221546   2.911   0.655   0.364
 6883SOL     OW21547   5.227   1.743   6.600
 6883SOL    HW121548   5.281   1.817   6.639
 6883SOL    HW221549   5.131   1.770   6.595
 6884SOL     OW21550   0.898   4.229   3.104
 6884SOL    HW121551   0.915   4.220   3.006
 6884SOL    HW221552   0.910   4.325   3.131
 6885SOL     OW21553   4.832   5.126   3.608
 6885SOL    HW121554   4.903   5.156   3.671
 6885SOL    HW221555   4.849   5.164   3.517
 6886SOL     OW21556   0.100   1.410   4.756
 6886SOL    HW121557   0.038   1.339   4.723
 6886SOL    HW221558   0.187   1.403   4.708
 6887SOL     OW21559   4.402   5.870   6.959
 6887SOL    HW121560   4.482   5.846   7.015
 6887SOL    HW221561   4.432   5.920   6.878
 6888SOL     OW21562   5.656   4.813   6.437
 6888SOL    HW121563   5.706   4.859   6.364
 6888SOL    HW221564   5.694   4.840   6.526
 6889SOL     OW21565   1.487   2.708   5.887
 6889SOL    HW121566   1.420   2.699   5.960
 6889SOL    HW221567   1.519   2.617   5.860
 6890SOL     OW21568   3.847   5.730   2.622
 6890SOL    HW121569   3.757   5.719   2.580
 6890SOL    HW221570   3.913   5.670   2.575
 6891SOL     OW21571   2.185   3.364   1.540
 6891SOL    HW121572   2.092   3.390   1.567
 6891SOL    HW221573   2.209   3.277   1.582
 6892SOL     OW21574   3.373   1.530   3.951
 6892SOL    HW121575   3.464   1.537   3.993
 6892SOL    HW221576   3.348   1.618   3.911
 6893SOL     OW21577   5.209   3.915   0.207
 6893SOL    HW121578   5.250   3.866   0.130
 6893SOL    HW221579   5.125   3.960   0.177
 6894SOL     OW21580   6.136   5.211   1.218
 6894SOL    HW121581   6.159   5.173   1.307
 6894SOL    HW221582   6.206   5.184   1.151
 6895SOL     OW21583   2.028   5.098   1.158
 6895SOL    HW121584   2.040   5.170   1.226
 6895SOL    HW221585   1.932   5.069   1.156
 6896SOL     OW21586   2.642   2.075   3.658
 6896SOL    HW121587   2.675   2.066   3.564
 6896SOL    HW221588   2.647   1.987   3.704
 6897SOL     OW21589   5.078   3.634   5.040
 6897SOL    HW121590   4.982   3.607   5.050
 6897SOL    HW221591   5.086   3.732   5.055
 6898SOL     OW21592   3.570   1.445   1.741
 6898SOL    HW121593   3.552   1.363   1.688
 6898SOL    HW221594   3.523   1.523   1.700
 6899SOL     OW21595   4.695   6.126   2.497
 6899SOL    HW121596   4.626   6.122   2.425
 6899SOL    HW221597   4.687   6.213   2.546
 6900SOL     OW21598   0.052   4.223   5.165
 6900SOL    HW121599   0.031   4.290   5.236
 6900SOL    HW221600   0.151   4.207   5.162
 6901SOL     OW21601   5.416   5.744   6.162
 6901SOL    HW121602   5.397   5.804   6.085
 6901SOL    HW221603   5.488   5.785   6.218
 6902SOL     OW21604   6.796   5.543   5.555
 6902SOL    HW121605   6.867   5.582   5.613
 6902SOL    HW221606   6.785   5.446   5.575
 6903SOL     OW21607   3.143   4.895   5.098
 6903SOL    HW121608   3.188   4.811   5.068
 6903SOL    HW221609   3.048   4.874   5.124
 6904SOL     OW21610   6.382   6.819   6.026
 6904SOL    HW121611   6.447   6.846   5.955
 6904SOL    HW221612   6.305   6.771   5.985
 6905SOL     OW21613   5.302   5.240   6.739
 6905SOL    HW121614   5.391   5.198   6.725
 6905SOL    HW221615   5.261   5.205   6.823
 6906SOL     OW21616   3.309   0.831   3.558
 6906SOL    HW121617   3.263   0.919   3.543
 6906SOL    HW221618   3.405   0.839   3.530
 6907SOL     OW21619   6.390   2.558   1.772
 6907SOL    HW121620   6.398   2.645   1.821
 6907SOL    HW221621   6.481   2.521   1.756
 6908SOL     OW21622   1.865   4.676   6.820
 6908SOL    HW121623   1.871   4.639   6.727
 6908SOL    HW221624   1.944   4.735   6.837
 6909SOL     OW21625   5.222   4.575   1.173
 6909SOL    HW121626   5.205   4.526   1.087
 6909SOL    HW221627   5.221   4.510   1.249
 6910SOL     OW21628   1.246   2.908   2.915
 6910SOL    HW121629   1.259   2.911   2.816
 6910SOL    HW221630   1.220   2.999   2.947
 6911SOL     OW21631   4.292   0.144   4.387
 6911SOL    HW121632   4.327   0.071   4.329
 6911SOL    HW221633   4.368   0.193   4.428
 6912SOL     OW21634   2.787   3.170   6.376
 6912SOL    HW121635   2.735   3.255   6.391
 6912SOL    HW221636   2.729   3.092   6.398
 6913SOL     OW21637   5.199   6.321   5.271
 6913SOL    HW121638   5.154   6.261   5.338
 6913SOL    HW221639   5.152   6.410   5.270
 6914SOL     OW21640   5.796   4.466   3.709
 6914SOL    HW121641   5.776   4.370   3.727
 6914SOL    HW221642   5.718   4.522   3.736
 6915SOL     OW21643   0.621   2.526   2.502
 6915SOL    HW121644   0.559   2.555   2.575
 6915SOL    HW221645   0.715   2.549   2.527
 6916SOL     OW21646   5.578   0.428   6.291
 6916SOL    HW121647   5.497   0.480   6.264
 6916SOL    HW221648   5.632   0.406   6.210
 6917SOL     OW21649   3.932   5.979   1.925
 6917SOL    HW121650   3.988   6.062   1.923
 6917SOL    HW221651   3.986   5.903   1.962
 6918SOL     OW21652   6.667   2.786   3.916
 6918SOL    HW121653   6.667   2.831   3.826
 6918SOL    HW221654   6.708   2.696   3.909
 6919SOL     OW21655   6.631   6.111   3.649
 6919SOL    HW121656   6.681   6.025   3.662
 6919SOL    HW221657   6.534   6.095   3.663
 6920SOL     OW21658   4.407   0.156   5.529
 6920SOL    HW121659   4.442   0.245   5.500
 6920SOL    HW221660   4.330   0.169   5.591
 6921SOL     OW21661   4.522   6.717   3.685
 6921SOL    HW121662   4.549   6.808   3.655
 6921SOL    HW221663   4.423   6.715   3.699
 6922SOL     OW21664   1.392   6.317   5.072
 6922SOL    HW121665   1.365   6.247   5.006
 6922SOL    HW221666   1.322   6.326   5.142
 6923SOL     OW21667   5.710   6.114   2.615
 6923SOL    HW121668   5.701   6.103   2.714
 6923SOL    HW221669   5.669   6.201   2.587
 6924SOL     OW21670   3.009   4.617   0.308
 6924SOL    HW121671   3.020   4.530   0.357
 6924SOL    HW221672   3.098   4.662   0.299
 6925SOL     OW21673   4.515   5.809   4.822
 6925SOL    HW121674   4.532   5.712   4.802
 6925SOL    HW221675   4.479   5.854   4.741
 6926SOL     OW21676   1.895   1.580   0.619
 6926SOL    HW121677   1.892   1.504   0.555
 6926SOL    HW221678   1.933   1.549   0.706
 6927SOL     OW21679   3.963   1.751   6.521
 6927SOL    HW121680   3.926   1.663   6.551
 6927SOL    HW221681   4.011   1.795   6.597
 6928SOL     OW21682   5.318   5.922   0.865
 6928SOL    HW121683   5.374   5.853   0.819
 6928SOL    HW221684   5.221   5.902   0.850
 6929SOL     OW21685   5.380   5.837   2.083
 6929SOL    HW121686   5.386   5.760   2.147
 6929SOL    HW221687   5.304   5.896   2.110
 6930SOL     OW21688   1.091   0.708   1.523
 6930SOL    HW121689   1.116   0.781   1.586
 6930SOL    HW221690   1.173   0.674   1.476
 6931SOL     OW21691   1.707   2.017   1.924
 6931SOL    HW121692   1.626   2.068   1.896
 6931SOL    HW221693   1.772   2.079   1.969
 6932SOL     OW21694   4.326   6.030   1.019
 6932SOL    HW121695   4.315   5.943   0.971
 6932SOL    HW221696   4.274   6.028   1.104
 6933SOL     OW21697   3.468   6.967   5.633
 6933SOL    HW121698   3.557   6.925   5.613
 6933SOL    HW221699   3.395   6.908   5.599
 6934SOL     OW21700   4.432   3.563   5.861
 6934SOL    HW121701   4.434   3.549   5.960
 6934SOL    HW221702   4.418   3.660   5.842
 6935SOL     OW21703   4.134   5.665   2.884
 6935SOL    HW121704   4.150   5.763   2.872
 6935SOL    HW221705   4.054   5.652   2.942
 6936SOL     OW21706   6.985   2.486   4.368
 6936SOL    HW121707   6.999   2.581   4.341
 6936SOL    HW221708   6.945   2.483   4.460
 6937SOL     OW21709   6.019   6.264   0.446
 6937SOL    HW121710   6.083   6.281   0.520
 6937SOL    HW221711   5.972   6.177   0.462
 6938SOL     OW21712   0.463   2.759   4.458
 6938SOL    HW121713   0.393   2.793   4.394
 6938SOL    HW221714   0.428   2.764   4.551
 6939SOL     OW21715   6.868   5.305   2.378
 6939SOL    HW121716   6.939   5.234   2.379
 6939SOL    HW221717   6.800   5.286   2.449
 6940SOL     OW21718   4.092   6.803   0.340
 6940SOL    HW121719   4.180   6.848   0.323
 6940SOL    HW221720   4.018   6.870   0.335
 6941SOL     OW21721   3.046   3.767   2.043
 6941SOL    HW121722   3.016   3.714   1.964
 6941SOL    HW221723   3.037   3.712   2.125
 6942SOL     OW21724   5.278   6.976   2.182
 6942SOL    HW121725   5.227   6.924   2.113
 6942SOL    HW221726   5.214   0.000   2.242
 6943SOL     OW21727   3.541   5.254   0.495
 6943SOL    HW121728   3.524   5.281   0.590
 6943SOL    HW221729   3.474   5.297   0.435
 6944SOL     OW21730   1.343   4.831   6.099
 6944SOL    HW121731   1.386   4.921   6.101
 6944SOL    HW221732   1.332   4.797   6.193
 6945SOL     OW21733   0.004   2.484   1.178
 6945SOL    HW121734   7.019   2.545   1.099
 6945SOL    HW221735   0.100   2.475   1.203
 6946SOL     OW21736   3.996   6.280   1.561
 6946SOL    HW121737   4.071   6.215   1.548
 6946SOL    HW221738   4.034   6.369   1.586
 6947SOL     OW21739   4.444   5.028   6.142
 6947SOL    HW121740   4.484   5.043   6.232
 6947SOL    HW221741   4.352   4.990   6.152
 6948SOL     OW21742   0.565   5.750   1.069
 6948SOL    HW121743   0.499   5.723   0.998
 6948SOL    HW221744   0.629   5.675   1.084
 6949SOL     OW21745   2.186   1.644   3.472
 6949SOL    HW121746   2.180   1.567   3.408
 6949SOL    HW221747   2.242   1.716   3.433
 6950SOL     OW21748   1.229   0.422   4.420
 6950SOL    HW121749   1.246   0.516   4.447
 6950SOL    HW221750   1.185   0.373   4.495
 6951SOL     OW21751   0.311   5.922   6.467
 6951SOL    HW121752   0.310   5.825   6.489
 6951SOL    HW221753   0.375   5.939   6.392
 6952SOL     OW21754   1.824   5.171   3.287
 6952SOL    HW121755   1.899   5.186   3.352
 6952SOL    HW221756   1.837   5.083   3.241
 6953SOL     OW21757   5.366   7.012   0.204
 6953SOL    HW121758   5.443   0.031   0.156
 6953SOL    HW221759   5.301   0.061   0.230
 6954SOL     OW21760   0.486   4.497   1.326
 6954SOL    HW121761   0.549   4.501   1.403
 6954SOL    HW221762   0.478   4.588   1.284
 6955SOL     OW21763   4.938   0.909   2.603
 6955SOL    HW121764   4.955   0.880   2.508
 6955SOL    HW221765   4.892   0.836   2.652
 6956SOL     OW21766   5.040   5.975   3.186
 6956SOL    HW121767   5.023   5.880   3.162
 6956SOL    HW221768   5.039   5.986   3.285
 6957SOL     OW21769   5.949   5.612   0.030
 6957SOL    HW121770   5.945   5.703   7.012
 6957SOL    HW221771   5.868   5.597   0.087
 6958SOL     OW21772   4.084   3.302   4.964
 6958SOL    HW121773   4.080   3.398   4.938
 6958SOL    HW221774   4.001   3.255   4.932
 6959SOL     OW21775   1.559   4.254   3.347
 6959SOL    HW121776   1.501   4.290   3.420
 6959SOL    HW221777   1.649   4.297   3.352
 6960SOL     OW21778   2.093   3.692   0.757
 6960SOL    HW121779   2.069   3.645   0.672
 6960SOL    HW221780   2.166   3.758   0.739
 6961SOL     OW21781   5.568   1.151   4.562
 6961SOL    HW121782   5.550   1.178   4.468
 6961SOL    HW221783   5.590   1.053   4.565
 6962SOL     OW21784   4.443   5.748   0.843
 6962SOL    HW121785   4.506   5.762   0.919
 6962SOL    HW221786   4.495   5.745   0.757
 6963SOL     OW21787   5.313   4.999   0.864
 6963SOL    HW121788   5.262   5.081   0.889
 6963SOL    HW221789   5.394   4.991   0.922
 6964SOL     OW21790   3.470   0.359   6.093
 6964SOL    HW121791   3.378   0.320   6.083
 6964SOL    HW221792   3.494   0.410   6.010
 6965SOL     OW21793   2.084   1.571   6.863
 6965SOL    HW121794   2.059   1.475   6.874
 6965SOL    HW221795   2.007   1.629   6.892
 6966SOL     OW21796   0.581   0.900   2.732
 6966SOL    HW121797   0.547   0.851   2.811
 6966SOL    HW221798   0.637   0.977   2.762
 6967SOL     OW21799   3.368   1.303   5.916
 6967SOL    HW121800   3.304   1.376   5.891
 6967SOL    HW221801   3.362   1.286   6.014
 6968SOL     OW21802   2.252   0.994   3.494
 6968SOL    HW121803   2.284   1.088   3.481
 6968SOL    HW221804   2.162   0.995   3.537
 6969SOL     OW21805   3.131   1.731   1.484
 6969SOL    HW121806   3.132   1.818   1.532
 6969SOL    HW221807   3.097   1.744   1.390
 6970SOL     OW21808   4.312   3.851   5.302
 6970SOL    HW121809   4.255   3.829   5.223
 6970SOL    HW221810   4.256   3.848   5.385
 6971SOL     OW21811   5.808   5.238   0.891
 6971SOL    HW121812   5.808   5.188   0.805
 6971SOL    HW221813   5.718   5.280   0.905
 6972SOL     OW21814   5.439   4.147   1.984
 6972SOL    HW121815   5.454   4.088   2.063
 6972SOL    HW221816   5.493   4.114   1.907
 6973SOL     OW21817   0.510   2.258   3.757
 6973SOL    HW121818   0.543   2.164   3.765
 6973SOL    HW221819   0.483   2.277   3.663
 6974SOL     OW21820   3.090   4.029   2.968
 6974SOL    HW121821   3.123   4.044   3.061
 6974SOL    HW221822   2.992   4.006   2.969
 6975SOL     OW21823   1.770   6.822   4.680
 6975SOL    HW121824   1.866   6.794   4.689
 6975SOL    HW221825   1.763   6.922   4.689
 6976SOL     OW21826   6.615   4.157   6.104
 6976SOL    HW121827   6.554   4.099   6.050
 6976SOL    HW221828   6.610   4.129   6.200
 6977SOL     OW21829   3.501   3.086   1.135
 6977SOL    HW121830   3.585   3.036   1.116
 6977SOL    HW221831   3.423   3.038   1.094
 6978SOL     OW21832   5.535   2.329   1.454
 6978SOL    HW121833   5.613   2.342   1.515
 6978SOL    HW221834   5.556   2.367   1.364
 6979SOL     OW21835   1.193   3.421   0.984
 6979SOL    HW121836   1.182   3.460   0.892
 6979SOL    HW221837   1.160   3.486   1.052
 6980SOL     OW21838   1.499   1.543   3.736
 6980SOL    HW121839   1.524   1.551   3.833
 6980SOL    HW221840   1.553   1.471   3.693
 6981SOL     OW21841   3.666   3.153   5.775
 6981SOL    HW121842   3.694   3.058   5.791
 6981SOL    HW221843   3.745   3.206   5.744
 6982SOL     OW21844   0.603   0.965   3.921
 6982SOL    HW121845   0.679   0.937   3.979
 6982SOL    HW221846   0.637   1.023   3.847
 6983SOL     OW21847   5.123   1.212   5.005
 6983SOL    HW121848   5.071   1.150   5.064
 6983SOL    HW221849   5.109   1.186   4.909
 6984SOL     OW21850   1.740   1.650   2.582
 6984SOL    HW121851   1.687   1.608   2.656
 6984SOL    HW221852   1.692   1.637   2.495
 6985SOL     OW21853   6.758   5.421   0.670
 6985SOL    HW121854   6.827   5.369   0.721
 6985SOL    HW221855   6.679   5.363   0.651
 6986SOL     OW21856   3.352   6.392   6.334
 6986SOL    HW121857   3.444   6.371   6.301
 6986SOL    HW221858   3.345   6.490   6.355
 6987SOL     OW21859   6.841   1.479   6.283
 6987SOL    HW121860   6.798   1.484   6.193
 6987SOL    HW221861   6.811   1.557   6.339
 6988SOL     OW21862   1.914   6.725   6.272
 6988SOL    HW121863   1.893   6.638   6.229
 6988SOL    HW221864   1.988   6.770   6.222
 6989SOL     OW21865   0.152   4.677   3.282
 6989SOL    HW121866   0.217   4.710   3.213
 6989SOL    HW221867   0.192   4.691   3.373
 6990SOL     OW21868   4.153   2.530   1.265
 6990SOL    HW121869   4.061   2.491   1.261
 6990SOL    HW221870   4.185   2.530   1.360
 6991SOL     OW21871   5.611   4.378   3.493
 6991SOL    HW121872   5.685   4.417   3.549
 6991SOL    HW221873   5.649   4.306   3.435
 6992SOL     OW21874   6.365   6.173   6.833
 6992SOL    HW121875   6.452   6.223   6.838
 6992SOL    HW221876   6.330   6.158   6.925
 6993SOL     OW21877   6.375   0.508   1.636
 6993SOL    HW121878   6.378   0.464   1.547
 6993SOL    HW221879   6.290   0.561   1.644
 6994SOL     OW21880   1.051   1.180   4.341
 6994SOL    HW121881   1.034   1.149   4.248
 6994SOL    HW221882   1.003   1.267   4.356
 6995SOL     OW21883   0.095   3.866   6.997
 6995SOL    HW121884   0.072   3.922   0.054
 6995SOL    HW221885   0.170   3.804   7.021
 6996SOL     OW21886   1.599   0.511   0.229
 6996SOL    HW121887   1.558   0.446   0.293
 6996SOL    HW221888   1.581   0.604   0.259
 6997SOL     OW21889   6.899   4.728   4.942
 6997SOL    HW121890   6.804   4.735   4.911
 6997SOL    HW221891   6.961   4.749   4.866
 6998SOL     OW21892   1.236   1.913   1.620
 6998SOL    HW121893   1.197   2.002   1.597
 6998SOL    HW221894   1.198   1.843   1.559
 6999SOL     OW21895   1.874   2.179   6.402
 6999SOL    HW121896   1.913   2.139   6.484
 6999SOL    HW221897   1.787   2.223   6.424
 7000SOL     OW21898   5.917   0.373   2.190
 7000SOL    HW121899   6.016   0.359   2.196
 7000SOL    HW221900   5.891   0.396   2.097
 7001SOL     OW21901   0.905   2.507   5.000
 7001SOL    HW121902   0.883   2.518   4.903
 7001SOL    HW221903   0.888   2.413   5.028
 7002SOL     OW21904   1.799   4.918   4.243
 7002SOL    HW121905   1.896   4.943   4.246
 7002SOL    HW221906   1.750   4.981   4.182
 7003SOL     OW21907   4.570   5.700   1.572
 7003SOL    HW121908   4.662   5.739   1.575
 7003SOL    HW221909   4.503   5.774   1.565
 7004SOL     OW21910   0.644   6.074   0.290
 7004SOL    HW121911   0.638   6.092   0.388
 7004SOL    HW221912   0.653   5.975   0.275
 7005SOL     OW21913   0.920   0.533   0.624
 7005SOL    HW121914   0.847   0.465   0.626
 7005SOL    HW221915   0.936   0.562   0.530
 7006SOL     OW21916   5.664   6.620   3.426
 7006SOL    HW121917   5.687   6.553   3.497
 7006SOL    HW221918   5.567   6.641   3.430
 7007SOL     OW21919   3.842   0.723   4.572
 7007SOL    HW121920   3.751   0.681   4.579
 7007SOL    HW221921   3.893   0.707   4.656
 7008SOL     OW21922   0.428   4.602   4.313
 7008SOL    HW121923   0.494   4.677   4.308
 7008SOL    HW221924   0.476   4.515   4.302
 7009SOL     OW21925   4.404   6.569   2.063
 7009SOL    HW121926   4.337   6.617   2.120
 7009SOL    HW221927   4.474   6.528   2.121
 7010SOL     OW21928   5.856   4.786   3.727
 7010SOL    HW121929   5.884   4.758   3.636
 7010SOL    HW221930   5.756   4.782   3.735
 7011SOL     OW21931   3.866   6.788   1.042
 7011SOL    HW121932   3.861   6.805   0.944
 7011SOL    HW221933   3.877   6.875   1.090
 7012SOL     OW21934   0.892   2.046   1.214
 7012SOL    HW121935   0.895   2.136   1.258
 7012SOL    HW221936   0.884   2.058   1.115
 7013SOL     OW21937   1.797   6.732   6.515
 7013SOL    HW121938   1.822   6.704   6.423
 7013SOL    HW221939   1.771   6.652   6.569
 7014SOL     OW21940   5.494   3.571   0.574
 7014SOL    HW121941   5.398   3.591   0.595
 7014SOL    HW221942   5.507   3.472   0.570
 7015SOL     OW21943   5.662   4.823   2.273
 7015SOL    HW121944   5.674   4.754   2.345
 7015SOL    HW221945   5.578   4.803   2.222
 7016SOL     OW21946   4.039   5.049   1.477
 7016SOL    HW121947   3.975   5.089   1.412
 7016SOL    HW221948   4.128   5.037   1.432
 7017SOL     OW21949   2.614   5.149   2.925
 7017SOL    HW121950   2.608   5.055   2.891
 7017SOL    HW221951   2.528   5.174   2.968
 7018SOL     OW21952   5.131   4.034   4.142
 7018SOL    HW121953   5.094   4.125   4.161
 7018SOL    HW221954   5.204   4.014   4.206
 7019SOL     OW21955   4.181   5.184   2.094
 7019SOL    HW121956   4.111   5.165   2.024
 7019SOL    HW221957   4.194   5.283   2.102
 7020SOL     OW21958   0.583   3.737   6.408
 7020SOL    HW121959   0.497   3.765   6.453
 7020SOL    HW221960   0.563   3.665   6.341
 7021SOL     OW21961   1.870   2.962   4.302
 7021SOL    HW121962   1.883   2.894   4.375
 7021SOL    HW221963   1.922   2.934   4.221
 7022SOL     OW21964   4.571   6.911   0.080
 7022SOL    HW121965   4.610   6.951   7.020
 7022SOL    HW221966   4.596   6.967   0.159
 7023SOL     OW21967   0.576   2.711   1.438
 7023SOL    HW121968   0.590   2.772   1.360
 7023SOL    HW221969   0.653   2.648   1.446
 7024SOL     OW21970   3.485   3.593   4.234
 7024SOL    HW121971   3.514   3.682   4.198
 7024SOL    HW221972   3.394   3.571   4.197
 7025SOL     OW21973   3.517   0.605   0.537
 7025SOL    HW121974   3.461   0.661   0.477
 7025SOL    HW221975   3.475   0.600   0.628
 7026SOL     OW21976   3.980   2.155   2.080
 7026SOL    HW121977   3.899   2.205   2.048
 7026SOL    HW221978   3.967   2.131   2.176
 7027SOL     OW21979   2.686   6.210   3.916
 7027SOL    HW121980   2.653   6.117   3.897
 7027SOL    HW221981   2.637   6.248   3.994
 7028SOL     OW21982   2.922   0.325   3.997
 7028SOL    HW121983   2.958   0.390   3.931
 7028SOL    HW221984   2.860   0.371   4.061
 7029SOL     OW21985   4.009   4.152   5.912
 7029SOL    HW121986   4.057   4.064   5.912
 7029SOL    HW221987   4.074   4.226   5.895
 7030SOL     OW21988   0.727   1.311   4.587
 7030SOL    HW121989   0.689   1.361   4.665
 7030SOL    HW221990   0.666   1.235   4.563
 7031SOL     OW21991   3.888   6.195   0.294
 7031SOL    HW121992   3.957   6.262   0.324
 7031SOL    HW221993   3.933   6.119   0.248
 7032SOL     OW21994   4.077   1.225   3.225
 7032SOL    HW121995   3.989   1.268   3.245
 7032SOL    HW221996   4.112   1.259   3.138
 7033SOL     OW21997   1.503   2.616   3.842
 7033SOL    HW121998   1.451   2.657   3.918
 7033SOL    HW221999   1.500   2.678   3.763
 7034SOL     OW22000   6.251   2.560   3.018
 7034SOL    HW122001   6.249   2.637   3.082
 7034SOL    HW222002   6.206   2.587   2.932
 7035SOL     OW22003   2.020   0.212   1.258
 7035SOL    HW122004   2.060   0.303   1.246
 7035SOL    HW222005   2.091   0.147   1.283
 7036SOL     OW22006   0.062   2.215   2.379
 7036SOL    HW122007   0.128   2.163   2.432
 7036SOL    HW222008   0.109   2.268   2.309
 7037SOL     OW22009   0.735   1.087   5.839
 7037SOL    HW122010   0.776   1.025   5.905
 7037SOL    HW222011   0.639   1.061   5.824
 7038SOL     OW22012   2.117   4.475   4.843
 7038SOL    HW122013   2.112   4.493   4.942
 7038SOL    HW222014   2.042   4.414   4.817
 7039SOL     OW22015   0.357   6.355   3.673
 7039SOL    HW122016   0.394   6.433   3.624
 7039SOL    HW222017   0.279   6.317   3.623
 7040SOL     OW22018   5.259   2.491   5.568
 7040SOL    HW122019   5.319   2.415   5.589
 7040SOL    HW222020   5.304   2.577   5.590
 7041SOL     OW22021   0.606   1.739   3.565
 7041SOL    HW122022   0.574   1.822   3.520
 7041SOL    HW222023   0.706   1.740   3.571
 7042SOL     OW22024   4.532   5.779   4.392
 7042SOL    HW122025   4.567   5.753   4.303
 7042SOL    HW222026   4.604   5.826   4.444
 7043SOL     OW22027   2.845   4.779   3.241
 7043SOL    HW122028   2.796   4.692   3.253
 7043SOL    HW222029   2.780   4.853   3.226
 7044SOL     OW22030   4.737   6.955   4.935
 7044SOL    HW122031   4.662   7.012   4.901
 7044SOL    HW222032   4.716   6.922   5.026
 7045SOL     OW22033   5.739   5.609   2.000
 7045SOL    HW122034   5.690   5.540   1.947
 7045SOL    HW222035   5.792   5.564   2.072
 7046SOL     OW22036   2.745   1.847   3.977
 7046SOL    HW122037   2.824   1.872   3.921
 7046SOL    HW222038   2.771   1.846   4.074
 7047SOL     OW22039   0.039   1.105   1.602
 7047SOL    HW122040   7.019   1.102   1.692
 7047SOL    HW222041   0.056   1.200   1.576
 7048SOL     OW22042   6.011   6.291   4.889
 7048SOL    HW122043   6.012   6.191   4.886
 7048SOL    HW222044   5.921   6.324   4.862
 7049SOL     OW22045   3.412   1.368   2.168
 7049SOL    HW122046   3.426   1.441   2.101
 7049SOL    HW222047   3.393   1.282   2.120
 7050SOL     OW22048   3.930   4.409   1.159
 7050SOL    HW122049   3.968   4.390   1.069
 7050SOL    HW222050   3.997   4.384   1.230
 7051SOL     OW22051   6.700   6.365   0.934
 7051SOL    HW122052   6.660   6.455   0.950
 7051SOL    HW222053   6.701   6.346   0.836
 7052SOL     OW22054   5.681   0.595   3.281
 7052SOL    HW122055   5.690   0.648   3.365
 7052SOL    HW222056   5.642   0.505   3.302
 7053SOL     OW22057   2.235   4.082   4.259
 7053SOL    HW122058   2.296   4.124   4.325
 7053SOL    HW222059   2.268   4.100   4.166
 7054SOL     OW22060   0.153   0.064   1.470
 7054SOL    HW122061   0.097   0.135   1.428
 7054SOL    HW222062   0.249   0.092   1.467
 7055SOL     OW22063   3.105   0.300   0.366
 7055SOL    HW122064   3.007   0.309   0.349
 7055SOL    HW222065   3.156   0.364   0.309
 7056SOL     OW22066   6.870   5.811   1.243
 7056SOL    HW122067   6.783   5.861   1.248
 7056SOL    HW222068   6.860   5.735   1.179
 7057SOL     OW22069   3.186   5.839   4.309
 7057SOL    HW122070   3.214   5.834   4.405
 7057SOL    HW222071   3.128   5.919   4.295
 7058SOL     OW22072   5.449   1.818   6.090
 7058SOL    HW122073   5.507   1.872   6.150
 7058SOL    HW222074   5.395   1.880   6.031
 7059SOL     OW22075   1.484   0.975   4.459
 7059SOL    HW122076   1.482   1.022   4.371
 7059SOL    HW222077   1.577   0.979   4.497
 7060SOL     OW22078   3.700   6.256   1.547
 7060SOL    HW122079   3.797   6.258   1.522
 7060SOL    HW222080   3.660   6.170   1.514
 7061SOL     OW22081   0.236   2.468   3.027
 7061SOL    HW122082   0.242   2.565   3.052
 7061SOL    HW222083   0.177   2.458   2.947
 7062SOL     OW22084   3.849   2.172   4.693
 7062SOL    HW122085   3.816   2.199   4.602
 7062SOL    HW222086   3.949   2.180   4.696
 7063SOL     OW22087   0.792   0.033   1.724
 7063SOL    HW122088   0.711   7.008   1.758
 7063SOL    HW222089   0.764   0.104   1.659
 7064SOL     OW22090   4.874   1.690   6.124
 7064SOL    HW122091   4.804   1.652   6.186
 7064SOL    HW222092   4.849   1.784   6.101
 7065SOL     OW22093   3.430   4.562   5.330
 7065SOL    HW122094   3.463   4.469   5.313
 7065SOL    HW222095   3.342   4.575   5.284
 7066SOL     OW22096   4.521   0.303   5.885
 7066SOL    HW122097   4.598   0.270   5.830
 7066SOL    HW222098   4.514   0.402   5.876
 7067SOL     OW22099   1.263   3.468   6.550
 7067SOL    HW122100   1.281   3.401   6.477
 7067SOL    HW222101   1.283   3.560   6.516
 7068SOL     OW22102   5.804   4.053   4.367
 7068SOL    HW122103   5.718   4.094   4.334
 7068SOL    HW222104   5.881   4.099   4.324
 7069SOL     OW22105   6.055   2.264   5.477
 7069SOL    HW122106   6.069   2.307   5.566
 7069SOL    HW222107   6.026   2.334   5.411
 7070SOL     OW22108   1.093   6.559   4.180
 7070SOL    HW122109   1.077   6.650   4.219
 7070SOL    HW222110   1.182   6.558   4.134
 7071SOL     OW22111   4.677   6.012   6.534
 7071SOL    HW122112   4.759   5.965   6.564
 7071SOL    HW222113   4.597   5.974   6.581
 7072SOL     OW22114   2.001   4.921   0.094
 7072SOL    HW122115   1.971   4.867   0.016
 7072SOL    HW222116   1.922   4.942   0.152
 7073SOL     OW22117   3.899   6.779   3.078
 7073SOL    HW122118   3.973   6.737   3.130
 7073SOL    HW222119   3.937   6.830   3.000
 7074SOL     OW22120   6.302   3.499   3.528
 7074SOL    HW122121   6.230   3.566   3.507
 7074SOL    HW222122   6.330   3.510   3.624
 7075SOL     OW22123   2.874   4.985   4.806
 7075SOL    HW122124   2.795   4.947   4.853
 7075SOL    HW222125   2.951   4.990   4.870
 7076SOL     OW22126   5.845   2.664   1.352
 7076SOL    HW122127   5.928   2.644   1.299
 7076SOL    HW222128   5.778   2.708   1.292
 7077SOL     OW22129   2.434   4.399   2.579
 7077SOL    HW122130   2.341   4.422   2.550
 7077SOL    HW222131   2.497   4.468   2.545
 7078SOL     OW22132   5.860   6.043   0.527
 7078SOL    HW122133   5.836   6.074   0.619
 7078SOL    HW222134   5.783   5.992   0.488
 7079SOL     OW22135   0.921   0.233   4.248
 7079SOL    HW122136   1.002   0.257   4.194
 7079SOL    HW222137   0.944   0.159   4.311
 7080SOL     OW22138   3.783   2.132   4.041
 7080SOL    HW122139   3.881   2.143   4.051
 7080SOL    HW222140   3.738   2.150   4.128
 7081SOL     OW22141   1.642   6.320   0.135
 7081SOL    HW122142   1.614   6.371   0.054
 7081SOL    HW222143   1.734   6.283   0.121
 7082SOL     OW22144   6.740   3.735   1.562
 7082SOL    HW122145   6.744   3.659   1.627
 7082SOL    HW222146   6.833   3.768   1.545
 7083SOL     OW22147   6.930   1.599   2.662
 7083SOL    HW122148   6.999   1.631   2.597
 7083SOL    HW222149   6.839   1.607   2.620
 7084SOL     OW22150   0.510   5.960   5.463
 7084SOL    HW122151   0.451   5.880   5.472
 7084SOL    HW222152   0.472   6.022   5.395
 7085SOL     OW22153   6.454   2.639   2.675
 7085SOL    HW122154   6.528   2.623   2.739
 7085SOL    HW222155   6.447   2.737   2.655
 7086SOL     OW22156   5.968   0.370   6.696
 7086SOL    HW122157   5.880   0.413   6.672
 7086SOL    HW222158   5.955   0.271   6.706
 7087SOL     OW22159   5.149   3.382   2.335
 7087SOL    HW122160   5.159   3.465   2.280
 7087SOL    HW222161   5.239   3.340   2.347
 7088SOL     OW22162   5.297   2.156   5.812
 7088SOL    HW122163   5.219   2.139   5.752
 7088SOL    HW222164   5.273   2.134   5.906
 7089SOL     OW22165   2.608   4.870   2.344
 7089SOL    HW122166   2.589   4.966   2.326
 7089SOL    HW222167   2.705   4.858   2.366
 7090SOL     OW22168   2.274   1.419   0.674
 7090SOL    HW122169   2.222   1.500   0.647
 7090SOL    HW222170   2.365   1.423   0.633
 7091SOL     OW22171   0.704   1.380   1.549
 7091SOL    HW122172   0.795   1.363   1.585
 7091SOL    HW222173   0.689   1.479   1.540
 7092SOL     OW22174   3.761   2.878   6.092
 7092SOL    HW122175   3.838   2.941   6.107
 7092SOL    HW222176   3.783   2.789   6.130
 7093SOL     OW22177   3.504   3.431   1.427
 7093SOL    HW122178   3.438   3.439   1.353
 7093SOL    HW222179   3.463   3.463   1.512
 7094SOL     OW22180   1.207   0.071   5.709
 7094SOL    HW122181   1.234   7.012   5.760
 7094SOL    HW222182   1.114   0.097   5.735
 7095SOL     OW22183   3.655   5.246   5.961
 7095SOL    HW122184   3.610   5.175   5.907
 7095SOL    HW222185   3.652   5.220   6.058
 7096SOL     OW22186   6.801   0.412   2.230
 7096SOL    HW122187   6.886   0.442   2.188
 7096SOL    HW222188   6.729   0.479   2.211
 7097SOL     OW22189   4.773   0.781   2.194
 7097SOL    HW122190   4.741   0.875   2.182
 7097SOL    HW222191   4.754   0.728   2.111
 7098SOL     OW22192   1.689   5.984   5.707
 7098SOL    HW122193   1.719   6.007   5.615
 7098SOL    HW222194   1.747   6.032   5.774
 7099SOL     OW22195   3.640   2.120   4.277
 7099SOL    HW122196   3.592   2.058   4.340
 7099SOL    HW222197   3.715   2.165   4.326
 7100SOL     OW22198   6.928   3.616   0.592
 7100SOL    HW122199   7.019   3.586   0.621
 7100SOL    HW222200   6.936   3.689   0.525
 7101SOL     OW22201   2.227   0.106   5.082
 7101SOL    HW122202   2.319   0.103   5.045
 7101SOL    HW222203   2.187   0.196   5.068
 7102SOL     OW22204   5.274   0.378   1.449
 7102SOL    HW122205   5.245   0.472   1.466
 7102SOL    HW222206   5.342   0.351   1.518
 7103SOL     OW22207   5.372   5.234   2.047
 7103SOL    HW122208   5.396   5.138   2.034
 7103SOL    HW222209   5.449   5.282   2.090
 7104SOL     OW22210   5.203   3.230   2.870
 7104SOL    HW122211   5.228   3.162   2.801
 7104SOL    HW222212   5.276   3.299   2.877
 7105SOL     OW22213   3.979   3.983   4.655
 7105SOL    HW122214   4.070   3.962   4.689
 7105SOL    HW222215   3.932   3.899   4.630
 7106SOL     OW22216   3.017   2.751   0.979
 7106SOL    HW122217   2.957   2.677   1.010
 7106SOL    HW222218   3.109   2.715   0.964
 7107SOL     OW22219   3.793   0.145   0.089
 7107SOL    HW122220   3.875   0.183   0.047
 7107SOL    HW222221   3.730   0.114   0.018
 7108SOL     OW22222   2.824   6.450   2.318
 7108SOL    HW122223   2.736   6.494   2.337
 7108SOL    HW222224   2.811   6.351   2.311
 7109SOL     OW22225   1.539   0.803   6.841
 7109SOL    HW122226   1.505   0.726   6.788
 7109SOL    HW222227   1.547   0.776   6.937
 7110SOL     OW22228   3.523   6.505   4.296
 7110SOL    HW122229   3.592   6.556   4.346
 7110SOL    HW222230   3.567   6.447   4.228
 7111SOL     OW22231   1.581   1.819   3.707
 7111SOL    HW122232   1.504   1.881   3.719
 7111SOL    HW222233   1.550   1.725   3.718
 7112SOL     OW22234   2.229   4.200   4.709
 7112SOL    HW122235   2.303   4.186   4.775
 7112SOL    HW222236   2.154   4.250   4.754
 7113SOL     OW22237   3.362   5.042   5.267
 7113SOL    HW122238   3.288   4.977   5.251
 7113SOL    HW222239   3.448   4.992   5.280
 7114SOL     OW22240   4.107   5.458   1.729
 7114SOL    HW122241   4.198   5.500   1.735
 7114SOL    HW222242   4.113   5.362   1.755
 7115SOL     OW22243   5.683   4.116   6.937
 7115SOL    HW122244   5.614   4.052   6.903
 7115SOL    HW222245   5.737   4.072   7.009
 7116SOL     OW22246   5.687   4.126   3.344
 7116SOL    HW122247   5.672   4.050   3.280
 7116SOL    HW222248   5.753   4.098   3.414
 7117SOL     OW22249   6.159   0.098   3.901
 7117SOL    HW122250   6.191   0.012   3.862
 7117SOL    HW222251   6.082   0.081   3.962
 7118SOL     OW22252   4.010   4.579   5.504
 7118SOL    HW122253   4.054   4.527   5.430
 7118SOL    HW222254   3.924   4.535   5.528
 7119SOL     OW22255   5.120   1.030   4.768
 7119SOL    HW122256   5.139   1.045   4.671
 7119SOL    HW222257   5.160   0.943   4.796
 7120SOL     OW22258   5.585   1.575   1.181
 7120SOL    HW122259   5.628   1.575   1.271
 7120SOL    HW222260   5.593   1.665   1.140
 7121SOL     OW22261   0.541   6.125   3.161
 7121SOL    HW122262   0.516   6.186   3.236
 7121SOL    HW222263   0.583   6.178   3.087
 7122SOL     OW22264   2.208   0.008   5.778
 7122SOL    HW122265   2.121   7.006   5.735
 7122SOL    HW222266   2.192   0.032   5.874
 7123SOL     OW22267   6.536   5.012   4.278
 7123SOL    HW122268   6.584   5.096   4.302
 7123SOL    HW222269   6.596   4.953   4.224
 7124SOL     OW22270   1.000   2.155   1.579
 7124SOL    HW122271   1.024   2.213   1.501
 7124SOL    HW222272   1.016   2.205   1.664
 7125SOL     OW22273   1.454   0.711   1.625
 7125SOL    HW122274   1.424   0.616   1.633
 7125SOL    HW222275   1.478   0.730   1.529
 7126SOL     OW22276   3.754   5.930   0.709
 7126SOL    HW122277   3.829   5.898   0.652
 7126SOL    HW222278   3.706   6.004   0.663
 7127SOL     OW22279   2.974   6.280   5.718
 7127SOL    HW122280   2.923   6.357   5.678
 7127SOL    HW222281   3.069   6.283   5.685
 7128SOL     OW22282   4.015   4.351   0.086
 7128SOL    HW122283   3.952   4.299   0.029
 7128SOL    HW222284   4.098   4.371   0.034
 7129SOL     OW22285   0.672   1.642   1.321
 7129SOL    HW122286   0.578   1.611   1.315
 7129SOL    HW222287   0.730   1.586   1.262
 7130SOL     OW22288   3.603   0.271   4.425
 7130SOL    HW122289   3.636   0.176   4.430
 7130SOL    HW222290   3.537   0.279   4.350
 7131SOL     OW22291   3.287   0.746   2.472
 7131SOL    HW122292   3.278   0.809   2.395
 7131SOL    HW222293   3.226   0.667   2.457
 7132SOL     OW22294   5.213   4.188   6.995
 7132SOL    HW122295   5.146   4.220   0.039
 7132SOL    HW222296   5.303   4.181   0.015
 7133SOL     OW22297   4.502   4.953   3.978
 7133SOL    HW122298   4.437   4.906   4.038
 7133SOL    HW222299   4.467   4.954   3.885
 7134SOL     OW22300   5.359   6.040   1.758
 7134SOL    HW122301   5.442   6.060   1.707
 7134SOL    HW222302   5.345   5.941   1.764
 7135SOL     OW22303   2.032   2.883   2.316
 7135SOL    HW122304   2.067   2.903   2.224
 7135SOL    HW222305   1.951   2.939   2.334
 7136SOL     OW22306   2.125   1.568   1.231
 7136SOL    HW122307   2.088   1.656   1.259
 7136SOL    HW222308   2.221   1.562   1.260
 7137SOL     OW22309   2.866   1.266   0.702
 7137SOL    HW122310   2.841   1.346   0.756
 7137SOL    HW222311   2.785   1.212   0.681
 7138SOL     OW22312   2.520   0.998   1.377
 7138SOL    HW122313   2.512   1.009   1.476
 7138SOL    HW222314   2.435   1.027   1.333
 7139SOL     OW22315   5.079   5.202   1.897
 7139SOL    HW122316   5.024   5.135   1.946
 7139SOL    HW222317   5.134   5.156   1.827
 7140SOL     OW22318   6.195   4.478   1.046
 7140SOL    HW122319   6.145   4.498   1.130
 7140SOL    HW222320   6.217   4.563   0.999
 7141SOL     OW22321   4.084   6.529   1.326
 7141SOL    HW122322   3.986   6.547   1.330
 7141SOL    HW222323   4.099   6.435   1.293
 7142SOL     OW22324   3.193   0.479   4.134
 7142SOL    HW122325   3.158   0.562   4.091
 7142SOL    HW222326   3.120   0.436   4.187
 7143SOL     OW22327   1.942   4.251   6.901
 7143SOL    HW122328   1.952   4.152   6.910
 7143SOL    HW222329   1.848   4.277   6.926
 7144SOL     OW22330   0.297   1.081   4.353
 7144SOL    HW122331   0.346   1.101   4.268
 7144SOL    HW222332   0.320   0.988   4.383
 7145SOL     OW22333   4.448   1.003   6.759
 7145SOL    HW122334   4.389   0.962   6.829
 7145SOL    HW222335   4.533   1.035   6.802
 7146SOL     OW22336   2.212   1.393   5.360
 7146SOL    HW122337   2.274   1.345   5.298
 7146SOL    HW222338   2.128   1.341   5.371
 7147SOL     OW22339   5.978   5.680   3.151
 7147SOL    HW122340   6.015   5.646   3.064
 7147SOL    HW222341   6.053   5.692   3.216
 7148SOL     OW22342   6.491   5.922   1.103
 7148SOL    HW122343   6.412   5.974   1.134
 7148SOL    HW222344   6.555   5.983   1.056
 7149SOL     OW22345   6.697   4.770   3.598
 7149SOL    HW122346   6.788   4.735   3.578
 7149SOL    HW222347   6.666   4.736   3.686
 7150SOL     OW22348   4.731   3.293   7.007
 7150SOL    HW122349   4.634   3.274   0.001
 7150SOL    HW222350   4.780   3.291   0.071
 7151SOL     OW22351   3.267   6.825   0.747
 7151SOL    HW122352   3.184   6.770   0.736
 7151SOL    HW222353   3.256   6.887   0.824
 7152SOL     OW22354   6.594   0.676   6.493
 7152SOL    HW122355   6.575   0.603   6.558
 7152SOL    HW222356   6.521   0.680   6.425
 7153SOL     OW22357   3.850   5.512   1.794
 7153SOL    HW122358   3.815   5.514   1.700
 7153SOL    HW222359   3.948   5.531   1.794
 7154SOL     OW22360   4.220   1.326   2.711
 7154SOL    HW122361   4.288   1.271   2.662
 7154SOL    HW222362   4.209   1.290   2.804
 7155SOL     OW22363   2.737   1.960   1.289
 7155SOL    HW122364   2.698   1.937   1.379
 7155SOL    HW222365   2.725   2.057   1.271
 7156SOL     OW22366   5.209   3.586   2.166
 7156SOL    HW122367   5.294   3.628   2.135
 7156SOL    HW222368   5.134   3.651   2.159
 7157SOL     OW22369   6.130   4.295   0.841
 7157SOL    HW122370   6.051   4.244   0.876
 7157SOL    HW222371   6.154   4.367   0.905
 7158SOL     OW22372   6.327   0.581   3.605
 7158SOL    HW122373   6.355   0.667   3.647
 7158SOL    HW222374   6.395   0.510   3.626
 7159SOL     OW22375   0.598   4.847   4.311
 7159SOL    HW122376   0.571   4.943   4.311
 7159SOL    HW222377   0.628   4.820   4.402
 7160SOL     OW22378   5.995   6.249   2.733
 7160SOL    HW122379   5.922   6.284   2.792
 7160SOL    HW222380   5.967   6.258   2.637
 7161SOL     OW22381   3.560   3.693   2.992
 7161SOL    HW122382   3.550   3.683   2.893
 7161SOL    HW222383   3.471   3.716   3.032
 7162SOL     OW22384   0.246   4.661   0.596
 7162SOL    HW122385   0.175   4.592   0.613
 7162SOL    HW222386   0.301   4.633   0.517
 7163SOL     OW22387   1.705   1.265   2.904
 7163SOL    HW122388   1.650   1.314   2.972
 7163SOL    HW222389   1.798   1.252   2.938
 7164SOL     OW22390   1.846   1.347   5.528
 7164SOL    HW122391   1.895   1.273   5.481
 7164SOL    HW222392   1.880   1.356   5.621
 7165SOL     OW22393   6.013   6.727   0.921
 7165SOL    HW122394   5.979   6.710   0.828
 7165SOL    HW222395   6.037   6.823   0.930
 7166SOL     OW22396   5.375   0.587   6.052
 7166SOL    HW122397   5.290   0.594   6.104
 7166SOL    HW222398   5.389   0.492   6.024
 7167SOL     OW22399   6.103   2.404   5.713
 7167SOL    HW122400   6.038   2.453   5.770
 7167SOL    HW222401   6.193   2.449   5.719
 7168SOL     OW22402   3.201   0.883   2.901
 7168SOL    HW122403   3.167   0.821   2.830
 7168SOL    HW222404   3.294   0.855   2.926
 7169SOL     OW22405   1.364   4.003   5.258
 7169SOL    HW122406   1.351   3.904   5.253
 7169SOL    HW222407   1.453   4.023   5.300
 7170SOL     OW22408   4.668   0.009   2.497
 7170SOL    HW122409   4.718   0.066   2.563
 7170SOL    HW222410   4.678   0.047   2.405
 7171SOL     OW22411   5.923   4.587   0.741
 7171SOL    HW122412   5.978   4.580   0.824
 7171SOL    HW222413   5.934   4.504   0.686
 7172SOL     OW22414   1.926   1.678   5.043
 7172SOL    HW122415   1.932   1.759   5.102
 7172SOL    HW222416   2.008   1.621   5.057
 7173SOL     OW22417   6.092   5.356   6.563
 7173SOL    HW122418   6.191   5.350   6.576
 7173SOL    HW222419   6.051   5.396   6.645
 7174SOL     OW22420   6.690   4.552   1.073
 7174SOL    HW122421   6.628   4.475   1.088
 7174SOL    HW222422   6.641   4.638   1.086
 7175SOL     OW22423   6.731   4.069   5.369
 7175SOL    HW122424   6.676   3.987   5.387
 7175SOL    HW222425   6.827   4.044   5.365
 7176SOL     OW22426   0.484   1.088   4.152
 7176SOL    HW122427   0.495   1.038   4.066
 7176SOL    HW222428   0.497   1.186   4.135
 7177SOL     OW22429   1.955   5.652   5.531
 7177SOL    HW122430   2.039   5.651   5.586
 7177SOL    HW222431   1.927   5.558   5.512
 7178SOL     OW22432   0.529   0.484   5.716
 7178SOL    HW122433   0.555   0.396   5.677
 7178SOL    HW222434   0.577   0.558   5.668
 7179SOL     OW22435   2.139   4.490   5.103
 7179SOL    HW122436   2.068   4.465   5.170
 7179SOL    HW222437   2.201   4.557   5.144
 7180SOL     OW22438   2.482   4.589   0.616
 7180SOL    HW122439   2.489   4.502   0.568
 7180SOL    HW222440   2.531   4.583   0.703
 7181SOL     OW22441   2.280   1.266   6.282
 7181SOL    HW122442   2.204   1.330   6.293
 7181SOL    HW222443   2.265   1.186   6.341
 7182SOL     OW22444   1.117   3.763   3.718
 7182SOL    HW122445   1.079   3.741   3.808
 7182SOL    HW222446   1.217   3.759   3.723
 7183SOL     OW22447   1.860   5.925   1.766
 7183SOL    HW122448   1.785   5.956   1.707
 7183SOL    HW222449   1.938   5.986   1.756
 7184SOL     OW22450   5.791   1.189   3.301
 7184SOL    HW122451   5.782   1.089   3.294
 7184SOL    HW222452   5.702   1.231   3.286
 7185SOL     OW22453   5.369   0.903   5.046
 7185SOL    HW122454   5.362   1.003   5.054
 7185SOL    HW222455   5.309   0.860   5.113
 7186SOL     OW22456   0.251   0.739   1.064
 7186SOL    HW122457   0.351   0.751   1.066
 7186SOL    HW222458   0.213   0.788   0.986
 7187SOL     OW22459   3.079   3.717   5.091
 7187SOL    HW122460   3.134   3.787   5.137
 7187SOL    HW222461   2.984   3.722   5.122
 7188SOL     OW22462   4.954   3.939   0.059
 7188SOL    HW122463   4.921   4.005   7.014
 7188SOL    HW222464   4.921   3.848   0.036
 7189SOL     OW22465   5.867   3.522   5.496
 7189SOL    HW122466   5.804   3.484   5.427
 7189SOL    HW222467   5.920   3.447   5.536
 7190SOL     OW22468   6.028   5.775   0.960
 7190SOL    HW122469   5.959   5.846   0.974
 7190SOL    HW222470   6.118   5.817   0.947
 7191SOL     OW22471   0.485   3.992   3.340
 7191SOL    HW122472   0.502   3.919   3.406
 7191SOL    HW222473   0.568   4.048   3.331
 7192SOL     OW22474   2.007   3.886   5.949
 7192SOL    HW122475   2.049   3.963   5.902
 7192SOL    HW222476   1.907   3.895   5.946
 7193SOL     OW22477   2.601   1.936   2.752
 7193SOL    HW122478   2.687   1.889   2.773
 7193SOL    HW222479   2.621   2.028   2.716
 7194SOL     OW22480   2.184   1.972   0.000
 7194SOL    HW122481   2.243   1.893   0.018
 7194SOL    HW222482   2.117   1.981   0.074
 7195SOL     OW22483   6.750   4.200   6.753
 7195SOL    HW122484   6.803   4.199   6.838
 7195SOL    HW222485   6.681   4.272   6.759
 7196SOL     OW22486   3.178   3.846   2.512
 7196SOL    HW122487   3.125   3.798   2.443
 7196SOL    HW222488   3.197   3.939   2.481
 7197SOL     OW22489   0.999   3.720   5.332
 7197SOL    HW122490   1.013   3.755   5.239
 7197SOL    HW222491   1.086   3.716   5.380
 7198SOL     OW22492   0.338   0.735   0.681
 7198SOL    HW122493   0.330   0.806   0.611
 7198SOL    HW222494   0.428   0.740   0.724
 7199SOL     OW22495   0.762   0.216   2.497
 7199SOL    HW122496   0.762   0.186   2.592
 7199SOL    HW222497   0.777   0.314   2.492
 7200SOL     OW22498   1.888   2.966   1.051
 7200SOL    HW122499   1.983   2.957   1.081
 7200SOL    HW222500   1.851   2.875   1.030
 7201SOL     OW22501   0.235   5.766   4.427
 7201SOL    HW122502   0.241   5.793   4.523
 7201SOL    HW222503   0.172   5.828   4.380
 7202SOL     OW22504   4.879   0.613   5.724
 7202SOL    HW122505   4.941   0.534   5.723
 7202SOL    HW222506   4.904   0.675   5.650
 7203SOL     OW22507   0.544   1.036   1.696
 7203SOL    HW122508   0.634   1.002   1.727
 7203SOL    HW222509   0.556   1.094   1.616
 7204SOL     OW22510   6.291   1.273   0.478
 7204SOL    HW122511   6.357   1.343   0.451
 7204SOL    HW222512   6.233   1.250   0.400
 7205SOL     OW22513   0.837   3.359   4.634
 7205SOL    HW122514   0.900   3.318   4.568
 7205SOL    HW222515   0.816   3.293   4.706
 7206SOL     OW22516   1.522   1.550   1.092
 7206SOL    HW122517   1.500   1.496   1.173
 7206SOL    HW222518   1.456   1.529   1.019
 7207SOL     OW22519   2.750   1.554   3.669
 7207SOL    HW122520   2.712   1.462   3.677
 7207SOL    HW222521   2.716   1.598   3.586
 7208SOL     OW22522   4.694   0.596   3.978
 7208SOL    HW122523   4.708   0.692   4.003
 7208SOL    HW222524   4.625   0.556   4.037
 7209SOL     OW22525   2.130   2.467   2.315
 7209SOL    HW122526   2.128   2.401   2.390
 7209SOL    HW222527   2.039   2.507   2.303
 7210SOL     OW22528   3.541   1.826   3.126
 7210SOL    HW122529   3.519   1.916   3.164
 7210SOL    HW222530   3.629   1.831   3.078
 7211SOL     OW22531   2.871   6.238   5.432
 7211SOL    HW122532   2.916   6.314   5.478
 7211SOL    HW222533   2.849   6.167   5.498
 7212SOL     OW22534   6.358   6.535   6.593
 7212SOL    HW122535   6.290   6.485   6.646
 7212SOL    HW222536   6.398   6.608   6.648
 7213SOL     OW22537   3.486   6.440   6.706
 7213SOL    HW122538   3.404   6.384   6.696
 7213SOL    HW222539   3.557   6.406   6.643
 7214SOL     OW22540   0.197   0.748   5.793
 7214SOL    HW122541   0.102   0.738   5.825
 7214SOL    HW222542   0.204   0.829   5.734
 7215SOL     OW22543   6.432   2.750   4.009
 7215SOL    HW122544   6.446   2.667   4.062
 7215SOL    HW222545   6.518   2.776   3.965
 7216SOL     OW22546   3.238   6.297   2.300
 7216SOL    HW122547   3.220   6.392   2.273
 7216SOL    HW222548   3.151   6.247   2.307
 7217SOL     OW22549   1.924   4.147   3.654
 7217SOL    HW122550   1.996   4.078   3.667
 7217SOL    HW222551   1.954   4.233   3.696
 7218SOL     OW22552   0.060   3.373   3.707
 7218SOL    HW122553   0.132   3.389   3.640
 7218SOL    HW222554   0.040   3.275   3.711
 7219SOL     OW22555   3.021   0.036   1.343
 7219SOL    HW122556   2.952   0.048   1.272
 7219SOL    HW222557   3.087   6.990   1.313
 7220SOL     OW22558   6.574   4.042   4.700
 7220SOL    HW122559   6.652   4.050   4.638
 7220SOL    HW222560   6.513   4.121   4.687
 7221SOL     OW22561   3.354   5.933   4.789
 7221SOL    HW122562   3.381   5.866   4.858
 7221SOL    HW222563   3.348   6.023   4.832
 7222SOL     OW22564   5.411   0.290   2.927
 7222SOL    HW122565   5.384   0.202   2.965
 7222SOL    HW222566   5.331   0.337   2.891
 7223SOL     OW22567   2.826   1.086   0.465
 7223SOL    HW122568   2.769   1.154   0.512
 7223SOL    HW222569   2.768   1.025   0.411
 7224SOL     OW22570   4.358   2.449   4.236
 7224SOL    HW122571   4.280   2.501   4.268
 7224SOL    HW222572   4.378   2.375   4.300
 7225SOL     OW22573   1.601   6.345   1.239
 7225SOL    HW122574   1.519   6.323   1.292
 7225SOL    HW222575   1.682   6.337   1.297
 7226SOL     OW22576   6.170   0.498   1.346
 7226SOL    HW122577   6.194   0.569   1.280
 7226SOL    HW222578   6.208   0.410   1.316
 7227SOL     OW22579   2.877   1.184   1.943
 7227SOL    HW122580   2.805   1.125   1.980
 7227SOL    HW222581   2.837   1.269   1.911
 7228SOL     OW22582   0.857   1.404   3.204
 7228SOL    HW122583   0.862   1.304   3.203
 7228SOL    HW222584   0.859   1.436   3.299
 7229SOL     OW22585   6.931   6.733   4.546
 7229SOL    HW122586   0.005   6.754   4.543
 7229SOL    HW222587   6.883   6.801   4.602
 7230SOL     OW22588   2.581   5.221   3.399
 7230SOL    HW122589   2.604   5.173   3.484
 7230SOL    HW222590   2.622   5.312   3.400
 7231SOL     OW22591   4.093   0.378   0.976
 7231SOL    HW122592   4.009   0.335   0.943
 7231SOL    HW222593   4.091   0.476   0.953
 7232SOL     OW22594   4.652   6.600   2.630
 7232SOL    HW122595   4.666   6.656   2.549
 7232SOL    HW222596   4.637   6.660   2.709
 7233SOL     OW22597   0.641   1.269   5.307
 7233SOL    HW122598   0.737   1.273   5.333
 7233SOL    HW222599   0.632   1.225   5.218
 7234SOL     OW22600   4.932   3.291   2.778
 7234SOL    HW122601   5.020   3.262   2.814
 7234SOL    HW222602   4.917   3.249   2.688
 7235SOL     OW22603   6.446   5.201   1.594
 7235SOL    HW122604   6.517   5.172   1.530
 7235SOL    HW222605   6.479   5.188   1.688
 7236SOL     OW22606   1.729   2.622   2.908
 7236SOL    HW122607   1.745   2.706   2.959
 7236SOL    HW222608   1.652   2.572   2.949
 7237SOL     OW22609   4.331   6.677   6.679
 7237SOL    HW122610   4.371   6.762   6.715
 7237SOL    HW222611   4.398   6.603   6.687
 7238SOL     OW22612   4.454   2.678   6.481
 7238SOL    HW122613   4.453   2.654   6.384
 7238SOL    HW222614   4.433   2.775   6.491
 7239SOL     OW22615   1.042   2.888   2.266
 7239SOL    HW122616   0.991   2.878   2.181
 7239SOL    HW222617   1.140   2.891   2.247
 7240SOL     OW22618   6.925   1.372   0.400
 7240SOL    HW122619   6.978   1.309   0.343
 7240SOL    HW222620   6.952   1.362   0.495
 7241SOL     OW22621   2.336   6.998   0.556
 7241SOL    HW122622   2.325   0.074   0.545
 7241SOL    HW222623   2.400   6.964   0.486
 7242SOL     OW22624   6.937   5.453   5.325
 7242SOL    HW122625   6.879   5.448   5.243
 7242SOL    HW222626   6.883   5.490   5.401
 7243SOL     OW22627   0.068   4.353   6.324
 7243SOL    HW122628   7.008   4.358   6.380
 7243SOL    HW222629   0.068   4.268   6.272
 7244SOL     OW22630   0.516   0.699   1.104
 7244SOL    HW122631   0.534   0.649   1.020
 7244SOL    HW222632   0.503   0.635   1.180
 7245SOL     OW22633   1.484   2.402   5.593
 7245SOL    HW122634   1.469   2.488   5.544
 7245SOL    HW222635   1.529   2.420   5.680
 7246SOL     OW22636   1.702   0.880   3.968
 7246SOL    HW122637   1.680   0.833   4.054
 7246SOL    HW222638   1.700   0.814   3.893
 7247SOL     OW22639   2.989   2.157   5.686
 7247SOL    HW122640   2.944   2.095   5.621
 7247SOL    HW222641   2.944   2.246   5.684
 7248SOL     OW22642   3.324   0.463   3.523
 7248SOL    HW122643   3.408   0.515   3.511
 7248SOL    HW222644   3.247   0.527   3.532
 7249SOL     OW22645   4.457   4.998   1.746
 7249SOL    HW122646   4.468   4.989   1.647
 7249SOL    HW222647   4.385   4.935   1.777
 7250SOL     OW22648   5.031   5.059   5.585
 7250SOL    HW122649   5.055   5.082   5.680
 7250SOL    HW222650   4.995   5.139   5.539
 7251SOL     OW22651   0.958   0.657   5.440
 7251SOL    HW122652   1.004   0.617   5.361
 7251SOL    HW222653   0.966   0.757   5.436
 7252SOL     OW22654   3.011   3.647   1.799
 7252SOL    HW122655   3.097   3.615   1.760
 7252SOL    HW222656   2.938   3.582   1.775
 7253SOL     OW22657   2.090   6.316   6.623
 7253SOL    HW122658   2.003   6.362   6.643
 7253SOL    HW222659   2.090   6.226   6.666
 7254SOL     OW22660   5.707   5.599   4.652
 7254SOL    HW122661   5.707   5.500   4.642
 7254SOL    HW222662   5.623   5.628   4.699
 7255SOL     OW22663   4.322   3.815   7.008
 7255SOL    HW122664   4.382   3.869   0.045
 7255SOL    HW222665   4.228   3.848   7.018
 7256SOL     OW22666   4.226   6.347   5.650
 7256SOL    HW122667   4.185   6.275   5.595
 7256SOL    HW222668   4.326   6.345   5.639
 7257SOL     OW22669   0.823   2.179   4.064
 7257SOL    HW122670   0.760   2.112   4.025
 7257SOL    HW222671   0.814   2.180   4.164
 7258SOL     OW22672   5.778   1.792   2.905
 7258SOL    HW122673   5.756   1.750   2.816
 7258SOL    HW222674   5.752   1.888   2.904
 7259SOL     OW22675   1.426   3.240   2.386
 7259SOL    HW122676   1.390   3.257   2.477
 7259SOL    HW222677   1.470   3.150   2.384
 7260SOL     OW22678   5.389   1.750   1.637
 7260SOL    HW122679   5.341   1.716   1.556
 7260SOL    HW222680   5.426   1.841   1.619
 7261SOL     OW22681   0.787   4.707   1.141
 7261SOL    HW122682   0.694   4.743   1.130
 7261SOL    HW222683   0.793   4.617   1.098
 7262SOL     OW22684   5.413   1.499   7.022
 7262SOL    HW122685   5.512   1.501   7.005
 7262SOL    HW222686   5.364   1.498   6.935
 7263SOL     OW22687   0.564   5.961   6.721
 7263SOL    HW122688   0.499   5.942   6.648
 7263SOL    HW222689   0.515   5.997   6.800
 7264SOL     OW22690   5.505   0.725   0.820
 7264SOL    HW122691   5.441   0.703   0.746
 7264SOL    HW222692   5.567   0.798   0.789
 7265SOL     OW22693   5.760   4.767   5.407
 7265SOL    HW122694   5.836   4.702   5.400
 7265SOL    HW222695   5.796   4.859   5.418
 7266SOL     OW22696   6.452   1.039   3.317
 7266SOL    HW122697   6.541   1.072   3.285
 7266SOL    HW222698   6.429   1.084   3.403
 7267SOL     OW22699   6.386   6.780   4.593
 7267SOL    HW122700   6.366   6.877   4.578
 7267SOL    HW222701   6.431   6.768   4.681
 7268SOL     OW22702   6.944   6.243   4.028
 7268SOL    HW122703   0.010   6.274   4.064
 7268SOL    HW222704   6.937   6.144   4.037
 7269SOL     OW22705   1.793   6.262   6.032
 7269SOL    HW122706   1.852   6.217   5.964
 7269SOL    HW222707   1.699   6.266   5.997
 7270SOL     OW22708   0.122   2.821   4.556
 7270SOL    HW122709   0.167   2.820   4.645
 7270SOL    HW222710   0.190   2.843   4.485
 7271SOL     OW22711   1.252   4.885   4.313
 7271SOL    HW122712   1.194   4.967   4.316
 7271SOL    HW222713   1.279   4.868   4.218
 7272SOL     OW22714   6.214   5.871   2.145
 7272SOL    HW122715   6.213   5.852   2.243
 7272SOL    HW222716   6.174   5.961   2.128
 7273SOL     OW22717   5.917   3.741   0.617
 7273SOL    HW122718   5.928   3.691   0.531
 7273SOL    HW222719   5.821   3.768   0.628
 7274SOL     OW22720   0.269   4.881   6.645
 7274SOL    HW122721   0.176   4.851   6.666
 7274SOL    HW222722   0.332   4.804   6.657
 7275SOL     OW22723   0.305   6.007   2.558
 7275SOL    HW122724   0.374   6.065   2.515
 7275SOL    HW222725   0.295   6.032   2.655
 7276SOL     OW22726   5.301   0.827   3.164
 7276SOL    HW122727   5.366   0.897   3.193
 7276SOL    HW222728   5.318   0.804   3.068
 7277SOL     OW22729   5.329   0.400   4.332
 7277SOL    HW122730   5.278   0.429   4.251
 7277SOL    HW222731   5.304   0.306   4.355
 7278SOL     OW22732   3.828   2.959   1.482
 7278SOL    HW122733   3.903   2.996   1.427
 7278SOL    HW222734   3.751   2.938   1.423
 7279SOL     OW22735   4.605   5.080   6.362
 7279SOL    HW122736   4.587   5.074   6.460
 7279SOL    HW222737   4.699   5.049   6.344
 7280SOL     OW22738   0.394   0.799   3.579
 7280SOL    HW122739   0.414   0.851   3.496
 7280SOL    HW222740   0.311   0.836   3.622
 7281SOL     OW22741   3.095   1.799   0.183
 7281SOL    HW122742   3.074   1.895   0.201
 7281SOL    HW222743   3.166   1.768   0.247
 7282SOL     OW22744   5.978   4.864   2.731
 7282SOL    HW122745   5.898   4.902   2.777
 7282SOL    HW222746   6.054   4.860   2.795
 7283SOL     OW22747   3.453   1.378   3.213
 7283SOL    HW122748   3.441   1.458   3.154
 7283SOL    HW222749   3.448   1.295   3.158
 7284SOL     OW22750   0.932   3.101   6.479
 7284SOL    HW122751   0.907   3.176   6.540
 7284SOL    HW222752   1.019   3.061   6.508
 7285SOL     OW22753   5.140   3.610   2.689
 7285SOL    HW122754   5.197   3.541   2.646
 7285SOL    HW222755   5.137   3.692   2.631
 7286SOL     OW22756   2.726   0.911   0.225
 7286SOL    HW122757   2.747   0.946   0.134
 7286SOL    HW222758   2.795   0.843   0.251
 7287SOL     OW22759   6.918   2.429   6.171
 7287SOL    HW122760   6.974   2.377   6.106
 7287SOL    HW222761   6.938   2.527   6.161
 7288SOL     OW22762   2.737   0.480   0.162
 7288SOL    HW122763   2.717   0.421   0.240
 7288SOL    HW222764   2.773   0.425   0.087
 7289SOL     OW22765   5.262   1.910   4.391
 7289SOL    HW122766   5.301   1.905   4.299
 7289SOL    HW222767   5.165   1.886   4.387
 7290SOL     OW22768   3.373   0.493   5.595
 7290SOL    HW122769   3.423   0.406   5.590
 7290SOL    HW222770   3.418   0.562   5.539
 7291SOL     OW22771   1.452   6.931   0.753
 7291SOL    HW122772   1.379   6.879   0.710
 7291SOL    HW222773   1.458   7.022   0.712
 7292SOL     OW22774   3.061   1.535   3.490
 7292SOL    HW122775   3.042   1.575   3.580
 7292SOL    HW222776   3.046   1.436   3.494
 7293SOL     OW22777   1.763   2.282   5.310
 7293SOL    HW122778   1.721   2.217   5.374
 7293SOL    HW222779   1.843   2.241   5.267
 7294SOL     OW22780   1.983   5.274   7.012
 7294SOL    HW122781   1.979   5.248   0.086
 7294SOL    HW222782   2.077   5.267   6.980
 7295SOL     OW22783   0.968   2.258   0.570
 7295SOL    HW122784   1.064   2.276   0.592
 7295SOL    HW222785   0.935   2.179   0.622
 7296SOL     OW22786   2.610   5.114   1.233
 7296SOL    HW122787   2.694   5.111   1.286
 7296SOL    HW222788   2.532   5.095   1.293
 7297SOL     OW22789   3.419   6.114   0.988
 7297SOL    HW122790   3.493   6.078   1.045
 7297SOL    HW222791   3.455   6.182   0.924
 7298SOL     OW22792   4.701   4.120   5.575
 7298SOL    HW122793   4.719   4.050   5.505
 7298SOL    HW222794   4.603   4.138   5.580
 7299SOL     OW22795   0.188   1.479   0.395
 7299SOL    HW122796   0.146   1.543   0.331
 7299SOL    HW222797   0.277   1.450   0.360
 7300SOL     OW22798   6.528   6.127   2.379
 7300SOL    HW122799   6.429   6.130   2.397
 7300SOL    HW222800   6.576   6.093   2.460
 7301SOL     OW22801   6.156   1.303   4.757
 7301SOL    HW122802   6.094   1.378   4.735
 7301SOL    HW222803   6.207   1.326   4.839
 7302SOL     OW22804   0.682   1.995   5.858
 7302SOL    HW122805   0.623   1.974   5.936
 7302SOL    HW222806   0.758   1.929   5.855
 7303SOL     OW22807   4.652   0.415   0.010
 7303SOL    HW122808   4.576   0.354   7.008
 7303SOL    HW222809   4.667   0.481   6.959
 7304SOL     OW22810   4.131   4.610   0.405
 7304SOL    HW122811   4.061   4.539   0.407
 7304SOL    HW222812   4.137   4.654   0.495
 7305SOL     OW22813   5.054   0.655   0.113
 7305SOL    HW122814   5.122   0.689   0.048
 7305SOL    HW222815   5.093   0.578   0.164
 7306SOL     OW22816   5.251   2.456   1.650
 7306SOL    HW122817   5.294   2.512   1.580
 7306SOL    HW222818   5.191   2.514   1.707
 7307SOL     OW22819   2.132   0.102   2.681
 7307SOL    HW122820   2.139   0.139   2.773
 7307SOL    HW222821   2.223   0.093   2.641
 7308SOL     OW22822   6.492   4.020   5.928
 7308SOL    HW122823   6.397   4.050   5.940
 7308SOL    HW222824   6.494   3.942   5.865
 7309SOL     OW22825   4.654   5.762   1.055
 7309SOL    HW122826   4.690   5.690   1.115
 7309SOL    HW222827   4.686   5.851   1.088
 7310SOL     OW22828   2.504   3.761   1.368
 7310SOL    HW122829   2.412   3.797   1.354
 7310SOL    HW222830   2.500   3.684   1.432
 7311SOL     OW22831   3.653   1.947   1.984
 7311SOL    HW122832   3.701   2.035   1.987
 7311SOL    HW222833   3.684   1.890   2.060
 7312SOL     OW22834   0.409   3.677   5.797
 7312SOL    HW122835   0.502   3.714   5.795
 7312SOL    HW222836   0.374   3.680   5.890
 7313SOL     OW22837   3.168   1.676   6.397
 7313SOL    HW122838   3.243   1.725   6.352
 7313SOL    HW222839   3.181   1.578   6.385
 7314SOL     OW22840   6.937   4.775   5.646
 7314SOL    HW122841   6.851   4.793   5.598
 7314SOL    HW222842   6.943   4.678   5.670
 7315SOL     OW22843   6.832   0.542   2.859
 7315SOL    HW122844   6.845   0.465   2.796
 7315SOL    HW222845   6.745   0.587   2.839
 7316SOL     OW22846   3.463   4.606   6.427
 7316SOL    HW122847   3.526   4.615   6.503
 7316SOL    HW222848   3.513   4.614   6.340
 7317SOL     OW22849   4.744   1.222   2.430
 7317SOL    HW122850   4.821   1.277   2.400
 7317SOL    HW222851   4.705   1.262   2.513
 7318SOL     OW22852   1.457   0.854   0.849
 7318SOL    HW122853   1.453   0.815   0.941
 7318SOL    HW222854   1.541   0.824   0.803
 7319SOL     OW22855   6.841   4.292   6.497
 7319SOL    HW122856   6.821   4.216   6.436
 7319SOL    HW222857   6.818   4.266   6.591
 7320SOL     OW22858   6.437   3.962   1.756
 7320SOL    HW122859   6.522   3.956   1.810
 7320SOL    HW222860   6.460   3.976   1.660
 7321SOL     OW22861   2.498   6.885   5.118
 7321SOL    HW122862   2.473   6.794   5.085
 7321SOL    HW222863   2.446   6.954   5.068
 7322SOL     OW22864   6.090   2.267   3.662
 7322SOL    HW122865   5.992   2.282   3.670
 7322SOL    HW222866   6.108   2.190   3.600
 7323SOL     OW22867   2.178   1.931   1.840
 7323SOL    HW122868   2.111   1.919   1.913
 7323SOL    HW222869   2.240   1.853   1.838
 7324SOL     OW22870   5.103   6.068   2.123
 7324SOL    HW122871   5.154   6.123   2.189
 7324SOL    HW222872   5.006   6.092   2.128
 7325SOL     OW22873   3.730   6.457   0.435
 7325SOL    HW122874   3.649   6.403   0.457
 7325SOL    HW222875   3.713   6.510   0.352
 7326SOL     OW22876   3.227   6.328   5.600
 7326SOL    HW122877   3.268   6.387   5.669
 7326SOL    HW222878   3.224   6.376   5.512
 7327SOL     OW22879   6.055   2.118   6.343
 7327SOL    HW122880   6.121   2.060   6.296
 7327SOL    HW222881   6.006   2.174   6.276
 7328SOL     OW22882   3.474   0.149   6.299
 7328SOL    HW122883   3.498   0.214   6.226
 7328SOL    HW222884   3.441   0.200   6.378
 7329SOL     OW22885   5.674   4.447   1.421
 7329SOL    HW122886   5.622   4.503   1.486
 7329SOL    HW222887   5.671   4.489   1.331
 7330SOL     OW22888   2.678   2.123   6.827
 7330SOL    HW122889   2.722   2.051   6.882
 7330SOL    HW222890   2.578   2.113   6.833
 7331SOL     OW22891   5.526   6.846   2.122
 7331SOL    HW122892   5.439   6.884   2.154
 7331SOL    HW222893   5.602   6.903   2.156
 7332SOL     OW22894   2.220   5.969   0.775
 7332SOL    HW122895   2.133   5.944   0.818
 7332SOL    HW222896   2.252   5.893   0.718
 7333SOL     OW22897   0.605   2.869   2.610
 7333SOL    HW122898   0.518   2.871   2.560
 7333SOL    HW222899   0.678   2.836   2.549
 7334SOL     OW22900   3.290   5.997   6.938
 7334SOL    HW122901   3.259   5.909   6.903
 7334SOL    HW222902   3.331   6.050   6.864
 7335SOL     OW22903   1.559   2.888   2.973
 7335SOL    HW122904   1.635   2.940   2.933
 7335SOL    HW222905   1.474   2.938   2.961
 7336SOL     OW22906   1.353   6.430   3.217
 7336SOL    HW122907   1.382   6.506   3.158
 7336SOL    HW222908   1.269   6.456   3.265
 7337SOL     OW22909   0.410   3.433   1.594
 7337SOL    HW122910   0.479   3.377   1.549
 7337SOL    HW222911   0.383   3.390   1.680
 7338SOL     OW22912   6.617   2.487   1.027
 7338SOL    HW122913   6.627   2.554   1.101
 7338SOL    HW222914   6.589   2.534   0.943
 7339SOL     OW22915   5.005   6.195   3.779
 7339SOL    HW122916   4.909   6.208   3.802
 7339SOL    HW222917   5.036   6.270   3.722
 7340SOL     OW22918   2.452   0.885   0.962
 7340SOL    HW122919   2.541   0.885   0.917
 7340SOL    HW222920   2.463   0.855   1.057
 7341SOL     OW22921   6.382   2.926   6.576
 7341SOL    HW122922   6.404   3.020   6.601
 7341SOL    HW222923   6.306   2.925   6.511
 7342SOL     OW22924   6.906   1.190   1.831
 7342SOL    HW122925   6.946   1.281   1.844
 7342SOL    HW222926   6.811   1.200   1.799
 7343SOL     OW22927   5.356   3.355   0.011
 7343SOL    HW122928   5.261   3.366   7.004
 7343SOL    HW222929   5.391   3.441   0.046
 7344SOL     OW22930   0.545   0.811   6.865
 7344SOL    HW122931   0.596   0.726   6.849
 7344SOL    HW222932   0.451   0.800   6.833
 7345SOL     OW22933   4.451   3.851   5.571
 7345SOL    HW122934   4.535   3.797   5.570
 7345SOL    HW222935   4.378   3.800   5.526
 7346SOL     OW22936   4.157   5.883   2.325
 7346SOL    HW122937   4.249   5.881   2.366
 7346SOL    HW222938   4.117   5.973   2.339
 7347SOL     OW22939   1.170   1.736   0.918
 7347SOL    HW122940   1.098   1.729   0.848
 7347SOL    HW222941   1.185   1.832   0.940
 7348SOL     OW22942   1.261   4.382   3.245
 7348SOL    HW122943   1.256   4.289   3.282
 7348SOL    HW222944   1.238   4.379   3.148
 7349SOL     OW22945   4.160   0.333   2.072
 7349SOL    HW122946   4.092   0.352   2.000
 7349SOL    HW222947   4.113   0.320   2.159
 7350SOL     OW22948   2.891   2.501   5.515
 7350SOL    HW122949   2.812   2.529   5.461
 7350SOL    HW222950   2.862   2.444   5.591
 7351SOL     OW22951   5.978   5.773   3.847
 7351SOL    HW122952   5.902   5.838   3.852
 7351SOL    HW222953   5.948   5.691   3.798
 7352SOL     OW22954   1.129   1.738   2.376
 7352SOL    HW122955   1.124   1.824   2.427
 7352SOL    HW222956   1.053   1.678   2.403
 7353SOL     OW22957   6.847   0.038   6.865
 7353SOL    HW122958   6.941   0.072   6.865
 7353SOL    HW222959   6.845   6.967   6.830
 7354SOL     OW22960   1.296   2.192   5.406
 7354SOL    HW122961   1.361   2.161   5.336
 7354SOL    HW222962   1.328   2.161   5.496
 7355SOL     OW22963   1.399   1.036   0.152
 7355SOL    HW122964   1.416   1.132   0.175
 7355SOL    HW222965   1.422   0.979   0.232
 7356SOL     OW22966   3.828   3.319   6.233
 7356SOL    HW122967   3.772   3.251   6.279
 7356SOL    HW222968   3.803   3.324   6.137
 7357SOL     OW22969   3.116   5.754   2.298
 7357SOL    HW122970   3.215   5.741   2.311
 7357SOL    HW222971   3.096   5.852   2.292
 7358SOL     OW22972   5.974   3.436   2.129
 7358SOL    HW122973   5.898   3.473   2.182
 7358SOL    HW222974   6.016   3.510   2.076
 7359SOL     OW22975   4.316   2.268   5.318
 7359SOL    HW122976   4.348   2.194   5.378
 7359SOL    HW222977   4.217   2.265   5.312
 7360SOL     OW22978   2.575   3.030   5.630
 7360SOL    HW122979   2.673   3.046   5.636
 7360SOL    HW222980   2.550   3.014   5.534
 7361SOL     OW22981   5.769   0.800   2.327
 7361SOL    HW122982   5.790   0.829   2.234
 7361SOL    HW222983   5.854   0.776   2.374
 7362SOL     OW22984   2.055   5.929   6.336
 7362SOL    HW122985   2.053   5.877   6.421
 7362SOL    HW222986   2.133   5.899   6.281
 7363SOL     OW22987   4.918   1.510   1.422
 7363SOL    HW122988   4.823   1.536   1.400
 7363SOL    HW222989   4.919   1.463   1.510
 7364SOL     OW22990   4.139   0.741   2.280
 7364SOL    HW122991   4.238   0.739   2.292
 7364SOL    HW222992   4.096   0.773   2.365
 7365SOL     OW22993   0.709   6.241   1.767
 7365SOL    HW122994   0.682   6.190   1.849
 7365SOL    HW222995   0.797   6.284   1.782
 7366SOL     OW22996   2.381   6.751   5.397
 7366SOL    HW122997   2.402   6.847   5.412
 7366SOL    HW222998   2.285   6.742   5.367
 7367SOL     OW22999   4.361   2.610   0.222
 7367SOL    HW123000   4.381   2.652   0.134
 7367SOL    HW223001   4.410   2.659   0.294
 7368SOL     OW23002   3.695   2.933   2.517
 7368SOL    HW123003   3.692   2.982   2.430
 7368SOL    HW223004   3.604   2.898   2.539
 7369SOL     OW23005   3.239   2.431   0.954
 7369SOL    HW123006   3.283   2.407   0.868
 7369SOL    HW223007   3.173   2.360   0.978
 7370SOL     OW23008   2.625   1.399   6.319
 7370SOL    HW123009   2.589   1.456   6.393
 7370SOL    HW223010   2.558   1.392   6.246
 7371SOL     OW23011   3.091   6.469   3.459
 7371SOL    HW123012   3.150   6.487   3.380
 7371SOL    HW223013   3.086   6.371   3.476
 7372SOL     OW23014   4.475   6.806   4.629
 7372SOL    HW123015   4.563   6.828   4.589
 7372SOL    HW223016   4.462   6.860   4.713
 7373SOL     OW23017   6.250   2.134   5.031
 7373SOL    HW123018   6.277   2.046   5.069
 7373SOL    HW223019   6.255   2.131   4.931
 7374SOL     OW23020   2.378   2.126   4.465
 7374SOL    HW123021   2.309   2.130   4.538
 7374SOL    HW223022   2.433   2.043   4.476
 7375SOL     OW23023   2.424   2.580   2.039
 7375SOL    HW123024   2.484   2.505   2.068
 7375SOL    HW223025   2.391   2.629   2.120
 7376SOL     OW23026   1.090   2.273   1.354
 7376SOL    HW123027   1.047   2.356   1.318
 7376SOL    HW223028   1.141   2.228   1.281
 7377SOL     OW23029   4.959   4.919   0.485
 7377SOL    HW123030   5.054   4.903   0.458
 7377SOL    HW223031   4.958   4.982   0.563
 7378SOL     OW23032   1.375   0.626   4.573
 7378SOL    HW123033   1.436   0.698   4.538
 7378SOL    HW223034   1.281   0.659   4.571
 7379SOL     OW23035   3.073   0.593   2.409
 7379SOL    HW123036   3.108   0.517   2.354
 7379SOL    HW223037   2.975   0.603   2.394
 7380SOL     OW23038   0.202   4.488   4.071
 7380SOL    HW123039   0.140   4.416   4.040
 7380SOL    HW223040   0.205   4.488   4.171
 7381SOL     OW23041   3.726   3.226   0.621
 7381SOL    HW123042   3.656   3.272   0.566
 7381SOL    HW223043   3.792   3.181   0.560
 7382SOL     OW23044   6.520   1.375   5.753
 7382SOL    HW123045   6.541   1.382   5.850
 7382SOL    HW223046   6.427   1.407   5.737
 7383SOL     OW23047   2.698   5.995   1.216
 7383SOL    HW123048   2.689   5.940   1.133
 7383SOL    HW223049   2.626   5.970   1.281
 7384SOL     OW23050   6.425   6.867   2.246
 7384SOL    HW123051   6.368   6.874   2.328
 7384SOL    HW223052   6.505   6.926   2.256
 7385SOL     OW23053   2.755   5.307   2.447
 7385SOL    HW123054   2.809   5.236   2.492
 7385SOL    HW223055   2.706   5.361   2.516
 7386SOL     OW23056   6.810   2.933   6.343
 7386SOL    HW123057   6.769   2.965   6.429
 7386SOL    HW223058   6.758   2.969   6.266
 7387SOL     OW23059   6.495   5.104   4.939
 7387SOL    HW123060   6.557   5.087   5.016
 7387SOL    HW223061   6.549   5.133   4.860
 7388SOL     OW23062   1.421   5.187   2.044
 7388SOL    HW123063   1.484   5.132   2.100
 7388SOL    HW223064   1.351   5.128   2.005
 7389SOL     OW23065   6.836   3.503   6.625
 7389SOL    HW123066   6.848   3.409   6.659
 7389SOL    HW223067   6.894   3.565   6.677
 7390SOL     OW23068   2.564   2.018   2.451
 7390SOL    HW123069   2.595   2.100   2.499
 7390SOL    HW223070   2.634   1.948   2.456
 7391SOL     OW23071   3.460   2.890   3.187
 7391SOL    HW123072   3.523   2.968   3.187
 7391SOL    HW223073   3.395   2.900   3.112
 7392SOL     OW23074   3.635   5.677   6.450
 7392SOL    HW123075   3.620   5.733   6.531
 7392SOL    HW223076   3.731   5.649   6.446
 7393SOL     OW23077   6.567   4.586   3.036
 7393SOL    HW123078   6.585   4.678   3.072
 7393SOL    HW223079   6.557   4.522   3.112
 7394SOL     OW23080   1.321   2.586   6.070
 7394SOL    HW123081   1.228   2.596   6.037
 7394SOL    HW223082   1.335   2.646   6.149
 7395SOL     OW23083   2.261   3.245   1.284
 7395SOL    HW123084   2.202   3.299   1.344
 7395SOL    HW223085   2.349   3.231   1.329
 7396SOL     OW23086   1.917   6.851   1.122
 7396SOL    HW123087   1.974   6.801   1.056
 7396SOL    HW223088   1.825   6.863   1.084
 7397SOL     OW23089   5.854   4.928   4.405
 7397SOL    HW123090   5.923   4.938   4.477
 7397SOL    HW223091   5.829   4.831   4.397
 7398SOL     OW23092   1.027   5.844   3.052
 7398SOL    HW123093   0.959   5.784   3.094
 7398SOL    HW223094   0.985   5.932   3.032
 7399SOL     OW23095   6.810   3.132   4.602
 7399SOL    HW123096   6.748   3.133   4.523
 7399SOL    HW223097   6.807   3.220   4.648
 7400SOL     OW23098   4.206   2.573   5.939
 7400SOL    HW123099   4.240   2.590   5.846
 7400SOL    HW223100   4.175   2.478   5.946
 7401SOL     OW23101   1.191   3.158   3.032
 7401SOL    HW123102   1.124   3.229   3.054
 7401SOL    HW223103   1.283   3.197   3.037
 7402SOL     OW23104   3.336   4.366   5.943
 7402SOL    HW123105   3.282   4.322   5.871
 7402SOL    HW223106   3.295   4.345   6.032
 7403SOL     OW23107   1.411   3.310   3.036
 7403SOL    HW123108   1.363   3.398   3.033
 7403SOL    HW223109   1.481   3.313   3.108
 7404SOL     OW23110   2.606   4.452   1.743
 7404SOL    HW123111   2.686   4.487   1.792
 7404SOL    HW223112   2.625   4.361   1.708
 7405SOL     OW23113   3.156   5.186   4.328
 7405SOL    HW123114   3.122   5.132   4.251
 7405SOL    HW223115   3.236   5.238   4.300
 7406SOL     OW23116   1.004   1.278   4.902
 7406SOL    HW123117   1.061   1.345   4.854
 7406SOL    HW223118   0.910   1.312   4.906
 7407SOL     OW23119   1.452   6.263   5.515
 7407SOL    HW123120   1.389   6.232   5.444
 7407SOL    HW223121   1.433   6.214   5.601
 7408SOL     OW23122   3.856   4.345   5.614
 7408SOL    HW123123   3.832   4.265   5.559
 7408SOL    HW223124   3.772   4.394   5.639
 7409SOL     OW23125   5.364   4.321   0.794
 7409SOL    HW123126   5.327   4.264   0.867
 7409SOL    HW223127   5.462   4.304   0.784
 7410SOL     OW23128   0.669   0.856   0.723
 7410SOL    HW123129   0.691   0.894   0.633
 7410SOL    HW223130   0.673   0.929   0.791
 7411SOL     OW23131   1.674   0.219   6.809
 7411SOL    HW123132   1.750   0.171   6.766
 7411SOL    HW223133   1.706   0.305   6.847
 7412SOL     OW23134   3.820   6.458   1.045
 7412SOL    HW123135   3.813   6.531   0.977
 7412SOL    HW223136   3.832   6.499   1.135
 7413SOL     OW23137   4.948   4.748   3.837
 7413SOL    HW123138   4.858   4.732   3.878
 7413SOL    HW223139   5.018   4.704   3.892
 7414SOL     OW23140   2.166   1.402   3.380
 7414SOL    HW123141   2.159   1.303   3.369
 7414SOL    HW223142   2.254   1.434   3.345
 7415SOL     OW23143   2.024   4.848   5.066
 7415SOL    HW123144   2.109   4.811   5.103
 7415SOL    HW223145   2.045   4.919   4.998
 7416SOL     OW23146   2.116   0.999   2.565
 7416SOL    HW123147   2.068   0.959   2.487
 7416SOL    HW223148   2.212   1.013   2.542
 7417SOL     OW23149   1.859   2.187   2.088
 7417SOL    HW123150   1.954   2.219   2.091
 7417SOL    HW223151   1.801   2.250   2.140
 7418SOL     OW23152   1.794   4.959   6.613
 7418SOL    HW123153   1.836   5.029   6.671
 7418SOL    HW223154   1.814   4.869   6.652
 7419SOL     OW23155   6.283   4.062   4.083
 7419SOL    HW123156   6.314   4.061   3.988
 7419SOL    HW223157   6.262   3.968   4.112
 7420SOL     OW23158   0.400   6.380   1.299
 7420SOL    HW123159   0.368   6.466   1.339
 7420SOL    HW223160   0.389   6.307   1.366
 7421SOL     OW23161   3.918   3.427   1.441
 7421SOL    HW123162   3.882   3.498   1.501
 7421SOL    HW223163   3.846   3.362   1.419
 7422SOL     OW23164   6.357   4.145   1.968
 7422SOL    HW123165   6.389   4.106   1.881
 7422SOL    HW223166   6.422   4.214   1.999
 7423SOL     OW23167   6.125   3.109   5.918
 7423SOL    HW123168   6.070   3.084   5.998
 7423SOL    HW223169   6.123   3.208   5.907
 7424SOL     OW23170   6.798   1.598   5.399
 7424SOL    HW123171   6.882   1.620   5.351
 7424SOL    HW223172   6.729   1.565   5.333
 7425SOL     OW23173   4.961   0.009   0.383
 7425SOL    HW123174   5.045   0.062   0.370
 7425SOL    HW223175   4.918   0.036   0.469
 7426SOL     OW23176   3.419   1.955   5.316
 7426SOL    HW123177   3.411   2.053   5.336
 7426SOL    HW223178   3.327   1.917   5.301
 7427SOL     OW23179   4.840   1.076   4.169
 7427SOL    HW123180   4.918   1.106   4.113
 7427SOL    HW223181   4.773   1.151   4.175
 7428SOL     OW23182   3.947   0.390   5.367
 7428SOL    HW123183   3.996   0.478   5.373
 7428SOL    HW223184   3.939   0.363   5.272
 7429SOL     OW23185   0.923   6.415   3.482
 7429SOL    HW123186   0.933   6.330   3.534
 7429SOL    HW223187   0.855   6.402   3.409
 7430SOL     OW23188   6.844   3.767   1.078
 7430SOL    HW123189   6.908   3.729   1.144
 7430SOL    HW223190   6.840   3.708   0.997
 7431SOL     OW23191   0.842   2.164   3.384
 7431SOL    HW123192   0.937   2.136   3.396
 7431SOL    HW223193   0.839   2.258   3.349
 7432SOL     OW23194   2.013   1.009   3.636
 7432SOL    HW123195   1.915   1.026   3.646
 7432SOL    HW223196   2.058   1.019   3.725
 7433SOL     OW23197   4.146   6.005   6.718
 7433SOL    HW123198   4.110   5.927   6.770
 7433SOL    HW223199   4.088   6.085   6.734
 7434SOL     OW23200   5.515   5.011   5.519
 7434SOL    HW123201   5.613   5.026   5.528
 7434SOL    HW223202   5.491   5.000   5.423
 7435SOL     OW23203   4.506   6.330   1.666
 7435SOL    HW123204   4.512   6.362   1.571
 7435SOL    HW223205   4.574   6.257   1.680
 7436SOL     OW23206   4.646   4.634   5.971
 7436SOL    HW123207   4.716   4.621   5.900
 7436SOL    HW223208   4.595   4.549   5.982
 7437SOL     OW23209   3.016   5.714   0.569
 7437SOL    HW123210   3.094   5.767   0.603
 7437SOL    HW223211   3.048   5.625   0.537
 7438SOL     OW23212   1.731   6.983   6.976
 7438SOL    HW123213   1.739   6.951   6.881
 7438SOL    HW223214   1.723   6.905   0.014
 7439SOL     OW23215   1.677   6.263   5.278
 7439SOL    HW123216   1.638   6.256   5.370
 7439SOL    HW223217   1.640   6.190   5.221
 7440SOL     OW23218   6.231   3.163   3.866
 7440SOL    HW123219   6.169   3.205   3.932
 7440SOL    HW223220   6.272   3.081   3.907
 7441SOL     OW23221   5.499   6.901   3.590
 7441SOL    HW123222   5.535   6.993   3.575
 7441SOL    HW223223   5.473   6.891   3.686
 7442SOL     OW23224   5.895   1.355   0.103
 7442SOL    HW123225   5.955   1.353   0.023
 7442SOL    HW223226   5.948   1.334   0.185
 7443SOL     OW23227   6.687   5.766   2.110
 7443SOL    HW123228   6.593   5.734   2.111
 7443SOL    HW223229   6.739   5.718   2.180
 7444SOL     OW23230   5.959   0.814   6.316
 7444SOL    HW123231   5.934   0.890   6.255
 7444SOL    HW223232   6.057   0.796   6.309
 7445SOL     OW23233   3.287   0.453   1.312
 7445SOL    HW123234   3.204   0.401   1.293
 7445SOL    HW223235   3.265   0.551   1.314
 7446SOL     OW23236   4.931   2.166   0.506
 7446SOL    HW123237   4.846   2.174   0.558
 7446SOL    HW223238   4.970   2.075   0.517
 7447SOL     OW23239   6.909   4.512   6.054
 7447SOL    HW123240   6.944   4.427   6.016
 7447SOL    HW223241   6.822   4.495   6.100
 7448SOL     OW23242   5.702   6.861   5.065
 7448SOL    HW123243   5.792   6.881   5.026
 7448SOL    HW223244   5.703   6.771   5.109
 7449SOL     OW23245   0.820   5.771   0.386
 7449SOL    HW123246   0.813   5.689   0.443
 7449SOL    HW223247   0.762   5.762   0.306
 7450SOL     OW23248   5.008   2.612   5.497
 7450SOL    HW123249   5.096   2.574   5.524
 7450SOL    HW223250   4.979   2.572   5.410
 7451SOL     OW23251   5.946   5.635   2.367
 7451SOL    HW123252   5.981   5.646   2.274
 7451SOL    HW223253   5.890   5.715   2.391
 7452SOL     OW23254   6.510   5.440   4.434
 7452SOL    HW123255   6.573   5.403   4.502
 7452SOL    HW223256   6.542   5.531   4.406
 7453SOL     OW23257   4.451   5.336   5.209
 7453SOL    HW123258   4.523   5.300   5.268
 7453SOL    HW223259   4.475   5.429   5.180
 7454SOL     OW23260   2.626   1.148   0.711
 7454SOL    HW123261   2.637   1.176   0.806
 7454SOL    HW223262   2.619   1.048   0.707
 7455SOL     OW23263   6.571   3.590   1.858
 7455SOL    HW123264   6.474   3.565   1.865
 7455SOL    HW223265   6.584   3.681   1.897
 7456SOL     OW23266   2.503   1.106   4.904
 7456SOL    HW123267   2.480   1.052   4.985
 7456SOL    HW223268   2.596   1.142   4.914
 7457SOL     OW23269   3.250   0.106   4.145
 7457SOL    HW123270   3.310   0.163   4.202
 7457SOL    HW223271   3.269   0.123   4.048
 7458SOL     OW23272   1.402   0.261   5.677
 7458SOL    HW123273   1.338   0.184   5.674
 7458SOL    HW223274   1.384   0.322   5.599
 7459SOL     OW23275   6.137   1.337   2.298
 7459SOL    HW123276   6.056   1.373   2.251
 7459SOL    HW223277   6.108   1.287   2.379
 7460SOL     OW23278   1.542   6.052   6.553
 7460SOL    HW123279   1.562   6.147   6.530
 7460SOL    HW223280   1.613   6.016   6.613
 7461SOL     OW23281   6.105   5.980   5.700
 7461SOL    HW123282   6.088   6.064   5.647
 7461SOL    HW223283   6.184   5.994   5.760
 7462SOL     OW23284   2.188   4.682   2.015
 7462SOL    HW123285   2.095   4.649   2.033
 7462SOL    HW223286   2.236   4.691   2.102
 7463SOL     OW23287   3.354   3.790   0.399
 7463SOL    HW123288   3.323   3.724   0.468
 7463SOL    HW223289   3.447   3.765   0.369
 7464SOL     OW23290   6.181   6.649   5.247
 7464SOL    HW123291   6.167   6.684   5.339
 7464SOL    HW223292   6.110   6.583   5.225
 7465SOL     OW23293   2.552   5.301   0.002
 7465SOL    HW123294   2.509   5.270   6.941
 7465SOL    HW223295   2.617   5.233   0.035
 7466SOL     OW23296   0.412   0.687   6.151
 7466SOL    HW123297   0.407   0.728   6.242
 7466SOL    HW223298   0.430   0.758   6.083
 7467SOL     OW23299   0.699   2.492   5.926
 7467SOL    HW123300   0.785   2.442   5.921
 7467SOL    HW223301   0.715   2.582   5.968
 7468SOL     OW23302   4.939   3.001   4.620
 7468SOL    HW123303   4.869   2.937   4.653
 7468SOL    HW223304   4.979   2.966   4.536
 7469SOL     OW23305   6.508   1.429   0.454
 7469SOL    HW123306   6.495   1.523   0.420
 7469SOL    HW223307   6.577   1.384   0.398
 7470SOL     OW23308   5.352   4.474   3.543
 7470SOL    HW123309   5.447   4.463   3.515
 7470SOL    HW223310   5.320   4.566   3.521
 7471SOL     OW23311   5.243   6.006   5.808
 7471SOL    HW123312   5.204   6.095   5.782
 7471SOL    HW223313   5.189   5.968   5.883
 7472SOL     OW23314   6.476   0.887   5.488
 7472SOL    HW123315   6.506   0.834   5.408
 7472SOL    HW223316   6.406   0.837   5.537
 7473SOL     OW23317   5.451   6.277   3.988
 7473SOL    HW123318   5.378   6.213   3.964
 7473SOL    HW223319   5.411   6.365   4.014
 7474SOL     OW23320   6.644   2.572   6.407
 7474SOL    HW123321   6.552   2.549   6.437
 7474SOL    HW223322   6.650   2.564   6.308
 7475SOL     OW23323   4.453   2.373   2.249
 7475SOL    HW123324   4.441   2.430   2.330
 7475SOL    HW223325   4.373   2.315   2.237
 7476SOL     OW23326   2.199   1.941   3.038
 7476SOL    HW123327   2.229   1.895   2.955
 7476SOL    HW223328   2.274   1.997   3.074
 7477SOL     OW23329   0.036   2.871   5.241
 7477SOL    HW123330   0.032   2.917   5.152
 7477SOL    HW223331   6.984   2.806   5.248
 7478SOL     OW23332   6.146   3.730   5.384
 7478SOL    HW123333   6.171   3.684   5.469
 7478SOL    HW223334   6.141   3.829   5.400
 7479SOL     OW23335   5.169   2.626   1.005
 7479SOL    HW123336   5.111   2.549   1.028
 7479SOL    HW223337   5.263   2.595   0.991
 7480SOL     OW23338   2.019   4.817   2.342
 7480SOL    HW123339   2.055   4.875   2.415
 7480SOL    HW223340   2.095   4.766   2.300
 7481SOL     OW23341   6.543   4.728   0.144
 7481SOL    HW123342   6.593   4.803   0.186
 7481SOL    HW223343   6.537   4.652   0.208
 7482SOL     OW23344   4.257   1.976   2.318
 7482SOL    HW123345   4.272   1.921   2.236
 7482SOL    HW223346   4.260   1.916   2.399
 7483SOL     OW23347   4.983   2.564   4.743
 7483SOL    HW123348   4.897   2.523   4.774
 7483SOL    HW223349   4.972   2.597   4.649
 7484SOL     OW23350   1.831   5.260   4.570
 7484SOL    HW123351   1.918   5.243   4.522
 7484SOL    HW223352   1.759   5.206   4.527
 7485SOL     OW23353   2.391   0.255   4.207
 7485SOL    HW123354   2.430   0.316   4.276
 7485SOL    HW223355   2.460   0.235   4.138
 7486SOL     OW23356   0.791   6.278   0.149
 7486SOL    HW123357   0.732   6.205   0.184
 7486SOL    HW223358   0.757   6.308   0.060
 7487SOL     OW23359   3.675   0.418   3.721
 7487SOL    HW123360   3.706   0.431   3.815
 7487SOL    HW223361   3.746   0.371   3.668
 7488SOL     OW23362   2.198   6.072   4.778
 7488SOL    HW123363   2.297   6.077   4.771
 7488SOL    HW223364   2.160   6.032   4.695
 7489SOL     OW23365   6.137   3.190   6.896
 7489SOL    HW123366   6.197   3.112   6.877
 7489SOL    HW223367   6.133   3.206   6.994
 7490SOL     OW23368   1.683   1.150   2.620
 7490SOL    HW123369   1.733   1.150   2.707
 7490SOL    HW223370   1.747   1.160   2.544
 7491SOL     OW23371   4.958   2.680   6.881
 7491SOL    HW123372   5.001   2.757   6.833
 7491SOL    HW223373   5.001   2.670   6.971
 7492SOL     OW23374   2.140   1.191   4.232
 7492SOL    HW123375   2.123   1.289   4.238
 7492SOL    HW223376   2.057   1.145   4.200
 7493SOL     OW23377   6.879   3.087   5.973
 7493SOL    HW123378   6.905   3.182   5.957
 7493SOL    HW223379   6.961   3.031   5.983
 7494SOL     OW23380   5.940   1.391   4.294
 7494SOL    HW123381   5.873   1.324   4.327
 7494SOL    HW223382   5.911   1.427   4.206
 7495SOL     OW23383   1.237   3.058   5.187
 7495SOL    HW123384   1.151   3.091   5.146
 7495SOL    HW223385   1.310   3.062   5.119
 7496SOL     OW23386   5.217   3.652   4.497
 7496SOL    HW123387   5.118   3.637   4.486
 7496SOL    HW223388   5.260   3.568   4.530
 7497SOL     OW23389   1.603   5.640   1.545
 7497SOL    HW123390   1.699   5.634   1.571
 7497SOL    HW223391   1.567   5.548   1.529
 7498SOL     OW23392   2.403   1.091   3.978
 7498SOL    HW123393   2.422   1.039   4.061
 7498SOL    HW223394   2.473   1.161   3.965
 7499SOL     OW23395   4.538   2.127   3.561
 7499SOL    HW123396   4.454   2.170   3.530
 7499SOL    HW223397   4.566   2.056   3.496
 7500SOL     OW23398   3.433   5.643   2.831
 7500SOL    HW123399   3.373   5.607   2.903
 7500SOL    HW223400   3.523   5.601   2.838
 7501SOL     OW23401   5.478   4.107   3.741
 7501SOL    HW123402   5.471   4.015   3.703
 7501SOL    HW223403   5.388   4.151   3.740
 7502SOL     OW23404   3.496   6.813   4.154
 7502SOL    HW123405   3.560   6.765   4.215
 7502SOL    HW223406   3.403   6.802   4.189
 7503SOL     OW23407   2.379   6.067   0.969
 7503SOL    HW123408   2.316   6.025   0.904
 7503SOL    HW223409   2.338   6.149   1.008
 7504SOL     OW23410   0.408   6.307   2.744
 7504SOL    HW123411   0.452   6.377   2.801
 7504SOL    HW223412   0.358   6.244   2.803
 7505SOL     OW23413   1.660   1.780   6.807
 7505SOL    HW123414   1.671   1.749   6.713
 7505SOL    HW223415   1.625   1.874   6.808
 7506SOL     OW23416   4.263   2.283   3.548
 7506SOL    HW123417   4.279   2.348   3.622
 7506SOL    HW223418   4.243   2.332   3.463
 7507SOL     OW23419   6.189   2.873   3.609
 7507SOL    HW123420   6.153   2.916   3.692
 7507SOL    HW223421   6.236   2.788   3.634
 7508SOL     OW23422   1.968   5.338   0.773
 7508SOL    HW123423   2.065   5.326   0.751
 7508SOL    HW223424   1.916   5.263   0.732
 7509SOL     OW23425   6.074   3.198   0.370
 7509SOL    HW123426   5.989   3.214   0.419
 7509SOL    HW223427   6.063   3.117   0.311
 7510SOL     OW23428   3.980   3.630   4.387
 7510SOL    HW123429   4.034   3.557   4.430
 7510SOL    HW223430   3.883   3.607   4.393
 7511SOL     OW23431   3.021   6.182   3.345
 7511SOL    HW123432   2.991   6.208   3.253
 7511SOL    HW223433   3.112   6.142   3.340
 7512SOL     OW23434   2.676   0.791   6.804
 7512SOL    HW123435   2.664   0.776   6.706
 7512SOL    HW223436   2.590   0.777   6.851
 7513SOL     OW23437   2.327   2.259   3.104
 7513SOL    HW123438   2.356   2.242   3.010
 7513SOL    HW223439   2.278   2.347   3.108
 7514SOL     OW23440   2.127   5.397   3.355
 7514SOL    HW123441   2.084   5.408   3.265
 7514SOL    HW223442   2.113   5.480   3.409
 7515SOL     OW23443   6.912   4.447   4.921
 7515SOL    HW123444   6.929   4.544   4.934
 7515SOL    HW223445   6.834   4.419   4.977
 7516SOL     OW23446   0.795   5.309   6.193
 7516SOL    HW123447   0.848   5.225   6.207
 7516SOL    HW223448   0.853   5.378   6.149
 7517SOL     OW23449   1.351   2.103   6.978
 7517SOL    HW123450   1.354   2.064   0.048
 7517SOL    HW223451   1.437   2.083   6.931
 7518SOL     OW23452   5.059   3.421   3.195
 7518SOL    HW123453   5.096   3.476   3.270
 7518SOL    HW223454   5.000   3.478   3.138
 7519SOL     OW23455   5.764   6.811   4.735
 7519SOL    HW123456   5.806   6.742   4.676
 7519SOL    HW223457   5.668   6.822   4.710
 7520SOL     OW23458   1.511   0.821   2.433
 7520SOL    HW123459   1.561   0.741   2.465
 7520SOL    HW223460   1.495   0.883   2.509
 7521SOL     OW23461   5.368   2.101   4.974
 7521SOL    HW123462   5.366   2.097   5.074
 7521SOL    HW223463   5.444   2.158   4.944
 7522SOL     OW23464   1.427   0.161   5.368
 7522SOL    HW123465   1.373   0.097   5.424
 7522SOL    HW223466   1.523   0.134   5.369
 7523SOL     OW23467   4.870   0.696   6.039
 7523SOL    HW123468   4.926   0.772   6.007
 7523SOL    HW223469   4.779   0.701   5.997
 7524SOL     OW23470   0.068   2.950   4.986
 7524SOL    HW123471   0.162   2.914   4.988
 7524SOL    HW223472   0.038   2.960   4.891
 7525SOL     OW23473   4.263   6.352   6.704
 7525SOL    HW123474   4.165   6.357   6.721
 7525SOL    HW223475   4.313   6.397   6.778
 7526SOL     OW23476   2.837   2.795   1.368
 7526SOL    HW123477   2.774   2.845   1.308
 7526SOL    HW223478   2.784   2.744   1.436
 7527SOL     OW23479   3.352   5.773   3.609
 7527SOL    HW123480   3.385   5.730   3.693
 7527SOL    HW223481   3.379   5.717   3.531
 7528SOL     OW23482   5.720   2.227   6.852
 7528SOL    HW123483   5.734   2.165   6.930
 7528SOL    HW223484   5.622   2.241   6.838
 7529SOL     OW23485   5.351   1.904   4.103
 7529SOL    HW123486   5.354   1.804   4.089
 7529SOL    HW223487   5.408   1.948   4.034
 7530SOL     OW23488   5.857   1.999   1.754
 7530SOL    HW123489   5.828   2.091   1.778
 7530SOL    HW223490   5.933   1.972   1.814
 7531SOL     OW23491   4.805   2.910   3.034
 7531SOL    HW123492   4.824   2.862   2.949
 7531SOL    HW223493   4.838   3.004   3.027
 7532SOL     OW23494   5.077   6.134   6.777
 7532SOL    HW123495   5.132   6.204   6.821
 7532SOL    HW223496   5.003   6.178   6.725
 7533SOL     OW23497   4.420   2.172   1.705
 7533SOL    HW123498   4.352   2.230   1.750
 7533SOL    HW223499   4.483   2.136   1.774
 7534SOL     OW23500   4.651   5.620   4.176
 7534SOL    HW123501   4.735   5.566   4.170
 7534SOL    HW223502   4.629   5.660   4.087
 7535SOL     OW23503   1.589   6.393   4.550
 7535SOL    HW123504   1.532   6.475   4.558
 7535SOL    HW223505   1.601   6.352   4.640
 7536SOL     OW23506   5.367   5.737   4.463
 7536SOL    HW123507   5.414   5.780   4.540
 7536SOL    HW223508   5.432   5.722   4.389
 7537SOL     OW23509   1.942   4.607   2.065
 7537SOL    HW123510   1.876   4.681   2.056
 7537SOL    HW223511   1.915   4.546   2.140
 7538SOL     OW23512   1.685   2.817   1.724
 7538SOL    HW123513   1.711   2.723   1.746
 7538SOL    HW223514   1.711   2.877   1.800
 7539SOL     OW23515   0.629   4.985   3.529
 7539SOL    HW123516   0.569   4.980   3.450
 7539SOL    HW223517   0.624   4.899   3.580
 7540SOL     OW23518   4.323   6.330   4.559
 7540SOL    HW123519   4.275   6.251   4.519
 7540SOL    HW223520   4.351   6.392   4.486
 7541SOL     OW23521   1.000   4.130   6.121
 7541SOL    HW123522   1.088   4.086   6.137
 7541SOL    HW223523   0.969   4.110   6.028
 7542SOL     OW23524   6.611   5.735   6.097
 7542SOL    HW123525   6.686   5.730   6.031
 7542SOL    HW223526   6.569   5.645   6.107
 7543SOL     OW23527   2.522   0.789   4.891
 7543SOL    HW123528   2.526   0.691   4.911
 7543SOL    HW223529   2.567   0.840   4.965
 7544SOL     OW23530   7.015   2.743   4.258
 7544SOL    HW123531   0.074   2.791   4.289
 7544SOL    HW223532   6.934   2.797   4.282
 7545SOL     OW23533   0.475   6.499   6.033
 7545SOL    HW123534   0.390   6.547   6.015
 7545SOL    HW223535   0.457   6.401   6.043
 7546SOL     OW23536   4.828   2.388   1.286
 7546SOL    HW123537   4.857   2.318   1.351
 7546SOL    HW223538   4.728   2.386   1.278
 7547SOL     OW23539   4.778   0.815   0.865
 7547SOL    HW123540   4.786   0.737   0.926
 7547SOL    HW223541   4.719   0.885   0.906
 7548SOL     OW23542   4.448   2.630   6.969
 7548SOL    HW123543   4.536   2.664   6.935
 7548SOL    HW223544   4.374   2.673   6.917
 7549SOL     OW23545   3.691   2.800   6.885
 7549SOL    HW123546   3.766   2.818   6.948
 7549SOL    HW223547   3.706   2.712   6.839
 7550SOL     OW23548   1.937   4.570   3.521
 7550SOL    HW123549   1.947   4.633   3.598
 7550SOL    HW223550   1.848   4.524   3.526
 7551SOL     OW23551   5.451   3.337   5.289
 7551SOL    HW123552   5.405   3.421   5.262
 7551SOL    HW223553   5.498   3.351   5.377
 7552SOL     OW23554   1.170   6.036   4.397
 7552SOL    HW123555   1.255   5.995   4.363
 7552SOL    HW223556   1.143   6.110   4.337
 7553SOL     OW23557   5.595   6.514   5.914
 7553SOL    HW123558   5.586   6.593   5.854
 7553SOL    HW223559   5.684   6.472   5.901
 7554SOL     OW23560   4.621   0.533   0.346
 7554SOL    HW123561   4.616   0.611   0.409
 7554SOL    HW223562   4.717   0.506   0.335
 7555SOL     OW23563   3.543   5.690   6.179
 7555SOL    HW123564   3.604   5.629   6.128
 7555SOL    HW223565   3.575   5.698   6.273
 7556SOL     OW23566   2.044   1.371   0.238
 7556SOL    HW123567   2.094   1.393   0.153
 7556SOL    HW223568   2.099   1.307   0.292
 7557SOL     OW23569   4.875   0.186   6.771
 7557SOL    HW123570   4.814   0.215   6.698
 7557SOL    HW223571   4.945   0.125   6.734
 7558SOL     OW23572   2.111   3.007   3.622
 7558SOL    HW123573   2.161   2.947   3.559
 7558SOL    HW223574   2.014   2.983   3.620
 7559SOL     OW23575   4.029   2.119   5.501
 7559SOL    HW123576   4.095   2.101   5.574
 7559SOL    HW223577   4.072   2.176   5.431
 7560SOL     OW23578   6.720   0.129   0.081
 7560SOL    HW123579   6.654   0.191   0.039
 7560SOL    HW223580   6.759   0.070   0.010
 7561SOL     OW23581   5.768   3.347   5.748
 7561SOL    HW123582   5.679   3.379   5.781
 7561SOL    HW223583   5.840   3.411   5.776
 7562SOL     OW23584   0.258   4.974   5.010
 7562SOL    HW123585   0.214   5.058   5.042
 7562SOL    HW223586   0.287   4.986   4.915
 7563SOL     OW23587   2.867   6.173   2.387
 7563SOL    HW123588   2.897   6.154   2.293
 7563SOL    HW223589   2.928   6.128   2.452
 7564SOL     OW23590   3.863   0.328   5.099
 7564SOL    HW123591   3.936   0.366   5.043
 7564SOL    HW223592   3.775   0.348   5.057
 7565SOL     OW23593   5.622   4.166   5.732
 7565SOL    HW123594   5.561   4.196   5.805
 7565SOL    HW223595   5.693   4.235   5.717
 7566SOL     OW23596   5.893   5.441   2.170
 7566SOL    HW123597   5.957   5.511   2.140
 7566SOL    HW223598   5.906   5.423   2.267
 7567SOL     OW23599   0.875   0.832   4.887
 7567SOL    HW123600   0.932   0.756   4.857
 7567SOL    HW223601   0.833   0.876   4.807
 7568SOL     OW23602   5.329   5.035   1.526
 7568SOL    HW123603   5.264   5.109   1.507
 7568SOL    HW223604   5.422   5.066   1.504
 7569SOL     OW23605   4.276   4.147   6.115
 7569SOL    HW123606   4.232   4.228   6.152
 7569SOL    HW223607   4.335   4.172   6.038
 7570SOL     OW23608   6.429   3.765   4.278
 7570SOL    HW123609   6.366   3.825   4.326
 7570SOL    HW223610   6.388   3.735   4.192
 7571SOL     OW23611   5.247   3.816   3.212
 7571SOL    HW123612   5.164   3.801   3.265
 7571SOL    HW223613   5.287   3.727   3.187
 7572SOL     OW23614   5.085   0.225   2.917
 7572SOL    HW123615   5.071   0.303   2.857
 7572SOL    HW223616   5.067   0.252   3.012
 7573SOL     OW23617   6.571   0.762   5.243
 7573SOL    HW123618   6.543   0.705   5.165
 7573SOL    HW223619   6.635   0.711   5.301
 7574SOL     OW23620   6.179   1.407   4.414
 7574SOL    HW123621   6.103   1.413   4.350
 7574SOL    HW223622   6.144   1.382   4.505
 7575SOL     OW23623   6.216   6.311   0.664
 7575SOL    HW123624   6.213   6.247   0.741
 7575SOL    HW223625   6.307   6.308   0.622
 7576SOL     OW23626   5.125   2.205   0.170
 7576SOL    HW123627   5.095   2.115   0.201
 7576SOL    HW223628   5.068   2.275   0.213
 7577SOL     OW23629   0.252   6.354   0.225
 7577SOL    HW123630   0.306   6.417   0.281
 7577SOL    HW223631   0.161   6.343   0.266
 7578SOL     OW23632   1.511   5.218   2.513
 7578SOL    HW123633   1.535   5.211   2.417
 7578SOL    HW223634   1.412   5.221   2.523
 7579SOL     OW23635   0.187   1.966   1.571
 7579SOL    HW123636   0.251   1.993   1.500
 7579SOL    HW223637   0.176   2.041   1.636
 7580SOL     OW23638   1.031   4.637   2.918
 7580SOL    HW123639   1.117   4.686   2.934
 7580SOL    HW223640   0.961   4.701   2.887
 7581SOL     OW23641   0.249   1.310   1.618
 7581SOL    HW123642   0.285   1.232   1.566
 7581SOL    HW223643   0.280   1.395   1.576
 7582SOL     OW23644   4.134   1.669   3.604
 7582SOL    HW123645   4.081   1.713   3.676
 7582SOL    HW223646   4.230   1.694   3.614
 7583SOL     OW23647   5.424   3.393   2.894
 7583SOL    HW123648   5.452   3.481   2.855
 7583SOL    HW223649   5.492   3.323   2.871
 7584SOL     OW23650   1.398   0.161   2.641
 7584SOL    HW123651   1.345   0.077   2.654
 7584SOL    HW223652   1.361   0.234   2.699
 7585SOL     OW23653   1.270   1.959   6.474
 7585SOL    HW123654   1.199   1.898   6.438
 7585SOL    HW223655   1.235   2.008   6.554
 7586SOL     OW23656   1.984   6.872   3.240
 7586SOL    HW123657   1.896   6.830   3.261
 7586SOL    HW223658   1.995   6.880   3.141
 7587SOL     OW23659   2.693   1.313   0.077
 7587SOL    HW123660   2.680   1.240   0.010
 7587SOL    HW223661   2.606   1.333   0.122
 7588SOL     OW23662   1.167   3.080   3.982
 7588SOL    HW123663   1.258   3.110   4.008
 7588SOL    HW223664   1.152   2.986   4.013
 7589SOL     OW23665   6.834   1.044   2.934
 7589SOL    HW123666   6.836   1.026   2.836
 7589SOL    HW223667   6.851   0.959   2.984
 7590SOL     OW23668   6.173   0.892   6.664
 7590SOL    HW123669   6.138   0.985   6.657
 7590SOL    HW223670   6.235   0.885   6.742
 7591SOL     OW23671   5.084   3.420   6.462
 7591SOL    HW123672   5.140   3.502   6.478
 7591SOL    HW223673   5.063   3.377   6.550
 7592SOL     OW23674   6.301   4.877   4.741
 7592SOL    HW123675   6.305   4.968   4.783
 7592SOL    HW223676   6.342   4.881   4.650
 7593SOL     OW23677   0.070   2.558   6.504
 7593SOL    HW123678   7.010   2.502   6.507
 7593SOL    HW223679   0.148   2.503   6.533
 7594SOL     OW23680   0.884   4.775   1.390
 7594SOL    HW123681   0.879   4.694   1.449
 7594SOL    HW223682   0.852   4.751   1.298
 7595SOL     OW23683   6.526   3.199   6.597
 7595SOL    HW123684   6.453   3.262   6.624
 7595SOL    HW223685   6.543   3.209   6.499
 7596SOL     OW23686   3.013   6.648   4.749
 7596SOL    HW123687   3.105   6.672   4.782
 7596SOL    HW223688   3.021   6.587   4.670
 7597SOL     OW23689   1.693   6.767   3.214
 7597SOL    HW123690   1.685   6.865   3.199
 7597SOL    HW223691   1.681   6.719   3.127
 7598SOL     OW23692   5.993   0.307   2.604
 7598SOL    HW123693   5.935   0.340   2.529
 7598SOL    HW223694   6.056   0.379   2.632
 7599SOL     OW23695   5.542   3.329   1.148
 7599SOL    HW123696   5.620   3.387   1.130
 7599SOL    HW223697   5.486   3.321   1.066
 7600SOL     OW23698   1.185   0.886   3.210
 7600SOL    HW123699   1.180   0.786   3.218
 7600SOL    HW223700   1.156   0.928   3.296
 7601SOL     OW23701   2.588   5.138   2.279
 7601SOL    HW123702   2.632   5.211   2.332
 7601SOL    HW223703   2.645   5.117   2.199
 7602SOL     OW23704   0.913   3.105   0.201
 7602SOL    HW123705   0.831   3.112   0.257
 7602SOL    HW223706   0.993   3.091   0.259
 7603SOL     OW23707   1.780   6.587   5.675
 7603SOL    HW123708   1.850   6.619   5.739
 7603SOL    HW223709   1.824   6.542   5.598
 7604SOL     OW23710   1.505   2.076   5.198
 7604SOL    HW123711   1.551   2.165   5.196
 7604SOL    HW223712   1.570   2.004   5.173
 7605SOL     OW23713   1.044   0.760   1.079
 7605SOL    HW123714   1.085   0.794   0.995
 7605SOL    HW223715   0.965   0.703   1.056
 7606SOL     OW23716   5.514   2.865   5.055
 7606SOL    HW123717   5.525   2.958   5.090
 7606SOL    HW223718   5.429   2.858   5.004
 7607SOL     OW23719   3.564   5.071   0.259
 7607SOL    HW123720   3.599   5.151   0.307
 7607SOL    HW223721   3.641   5.019   0.221
 7608SOL     OW23722   4.992   2.399   6.678
 7608SOL    HW123723   5.004   2.302   6.702
 7608SOL    HW223724   5.064   2.453   6.721
 7609SOL     OW23725   0.920   4.041   3.775
 7609SOL    HW123726   1.006   4.063   3.729
 7609SOL    HW223727   0.894   3.947   3.754
 7610SOL     OW23728   4.079   5.152   5.815
 7610SOL    HW123729   4.040   5.191   5.898
 7610SOL    HW223730   4.063   5.213   5.738
 7611SOL     OW23731   5.346   3.851   1.228
 7611SOL    HW123732   5.409   3.777   1.249
 7611SOL    HW223733   5.318   3.845   1.132
 7612SOL     OW23734   4.482   2.382   3.017
 7612SOL    HW123735   4.521   2.473   3.004
 7612SOL    HW223736   4.504   2.325   2.938
 7613SOL     OW23737   1.099   2.053   2.176
 7613SOL    HW123738   1.155   1.988   2.125
 7613SOL    HW223739   1.016   2.073   2.125
 7614SOL     OW23740   5.630   3.612   1.459
 7614SOL    HW123741   5.562   3.612   1.533
 7614SOL    HW223742   5.722   3.613   1.498
 7615SOL     OW23743   4.966   4.119   5.694
 7615SOL    HW123744   4.877   4.140   5.653
 7615SOL    HW223745   5.003   4.035   5.655
 7616SOL     OW23746   6.684   0.256   3.544
 7616SOL    HW123747   6.698   0.176   3.486
 7616SOL    HW223748   6.622   0.233   3.619
 7617SOL     OW23749   5.395   5.656   3.170
 7617SOL    HW123750   5.398   5.585   3.099
 7617SOL    HW223751   5.325   5.632   3.237
 7618SOL     OW23752   1.290   2.385   7.010
 7618SOL    HW123753   1.295   2.287   6.996
 7618SOL    HW223754   1.205   2.420   6.968
 7619SOL     OW23755   6.866   2.429   4.620
 7619SOL    HW123756   6.931   2.376   4.674
 7619SOL    HW223757   6.778   2.433   4.668
 7620SOL     OW23758   3.764   4.818   0.866
 7620SOL    HW123759   3.857   4.790   0.841
 7620SOL    HW223760   3.769   4.898   0.926
 7621SOL     OW23761   0.979   0.181   0.945
 7621SOL    HW123762   0.990   0.232   0.860
 7621SOL    HW223763   0.884   0.189   0.977
 7622SOL     OW23764   4.440   4.708   6.402
 7622SOL    HW123765   4.343   4.706   6.425
 7622SOL    HW223766   4.494   4.721   6.486
 7623SOL     OW23767   4.030   4.303   0.918
 7623SOL    HW123768   4.112   4.251   0.945
 7623SOL    HW223769   3.955   4.240   0.900
 7624SOL     OW23770   6.635   3.021   3.389
 7624SOL    HW123771   6.561   3.082   3.361
 7624SOL    HW223772   6.598   2.929   3.405
 7625SOL     OW23773   5.857   2.293   0.113
 7625SOL    HW123774   5.904   2.293   0.025
 7625SOL    HW223775   5.920   2.263   0.185
 7626SOL     OW23776   6.569   1.229   6.007
 7626SOL    HW123777   6.617   1.150   5.968
 7626SOL    HW223778   6.633   1.286   6.058
 7627SOL     OW23779   2.853   1.705   0.620
 7627SOL    HW123780   2.757   1.703   0.645
 7627SOL    HW223781   2.902   1.769   0.679
 7628SOL     OW23782   4.223   2.896   1.514
 7628SOL    HW123783   4.150   2.827   1.519
 7628SOL    HW223784   4.291   2.878   1.585
 7629SOL     OW23785   6.631   4.098   3.836
 7629SOL    HW123786   6.685   4.169   3.792
 7629SOL    HW223787   6.685   4.056   3.909
 7630SOL     OW23788   0.894   0.658   6.169
 7630SOL    HW123789   0.921   0.638   6.075
 7630SOL    HW223790   0.875   0.572   6.217
 7631SOL     OW23791   1.320   1.221   5.552
 7631SOL    HW123792   1.270   1.168   5.484
 7631SOL    HW223793   1.335   1.314   5.519
 7632SOL     OW23794   3.920   5.084   0.936
 7632SOL    HW123795   3.942   5.103   1.032
 7632SOL    HW223796   4.003   5.092   0.880
 7633SOL     OW23797   5.272   0.469   1.771
 7633SOL    HW123798   5.358   0.519   1.779
 7633SOL    HW223799   5.204   0.511   1.831
 7634SOL     OW23800   1.172   1.506   1.655
 7634SOL    HW123801   1.253   1.487   1.712
 7634SOL    HW223802   1.189   1.474   1.562
 7635SOL     OW23803   2.860   5.290   4.315
 7635SOL    HW123804   2.853   5.191   4.308
 7635SOL    HW223805   2.911   5.313   4.398
 7636SOL     OW23806   1.275   4.057   4.058
 7636SOL    HW123807   1.312   4.036   4.148
 7636SOL    HW223808   1.327   4.008   3.988
 7637SOL     OW23809   1.185   6.989   2.621
 7637SOL    HW123810   1.208   6.901   2.580
 7637SOL    HW223811   1.093   7.016   2.592
 7638SOL     OW23812   1.251   5.535   2.145
 7638SOL    HW123813   1.231   5.605   2.076
 7638SOL    HW223814   1.347   5.543   2.173
 7639SOL     OW23815   0.415   1.150   0.530
 7639SOL    HW123816   0.328   1.115   0.495
 7639SOL    HW223817   0.490   1.096   0.492
 7640SOL     OW23818   2.984   2.264   6.637
 7640SOL    HW123819   2.886   2.285   6.644
 7640SOL    HW223820   2.996   2.180   6.584
 7641SOL     OW23821   0.167   4.423   2.641
 7641SOL    HW123822   0.139   4.342   2.589
 7641SOL    HW223823   0.222   4.395   2.719
 7642SOL     OW23824   5.838   0.850   2.629
 7642SOL    HW123825   5.873   0.878   2.718
 7642SOL    HW223826   5.903   0.787   2.585
 7643SOL     OW23827   5.377   1.521   2.200
 7643SOL    HW123828   5.427   1.597   2.159
 7643SOL    HW223829   5.281   1.546   2.211
 7644SOL     OW23830   4.763   2.780   2.224
 7644SOL    HW123831   4.717   2.705   2.178
 7644SOL    HW223832   4.770   2.858   2.162
 7645SOL     OW23833   4.152   3.213   5.617
 7645SOL    HW123834   4.107   3.159   5.546
 7645SOL    HW223835   4.238   3.251   5.581
 7646SOL     OW23836   0.595   2.890   3.317
 7646SOL    HW123837   0.516   2.855   3.367
 7646SOL    HW223838   0.679   2.848   3.353
 7647SOL     OW23839   0.565   3.074   4.246
 7647SOL    HW123840   0.635   3.143   4.230
 7647SOL    HW223841   0.555   3.058   4.345
 7648SOL     OW23842   2.301   1.368   2.077
 7648SOL    HW123843   2.293   1.295   2.009
 7648SOL    HW223844   2.376   1.347   2.140
 7649SOL     OW23845   1.222   1.320   4.587
 7649SOL    HW123846   1.318   1.294   4.581
 7649SOL    HW223847   1.182   1.322   4.495
 7650SOL     OW23848   5.316   0.944   1.301
 7650SOL    HW123849   5.298   0.846   1.310
 7650SOL    HW223850   5.369   0.976   1.380
 7651SOL     OW23851   2.714   5.729   4.583
 7651SOL    HW123852   2.628   5.778   4.592
 7651SOL    HW223853   2.696   5.632   4.564
 7652SOL     OW23854   5.795   2.854   5.278
 7652SOL    HW123855   5.770   2.763   5.244
 7652SOL    HW223856   5.738   2.876   5.357
 7653SOL     OW23857   1.168   1.318   0.080
 7653SOL    HW123858   1.158   1.221   0.057
 7653SOL    HW223859   1.258   1.350   0.049
 7654SOL     OW23860   5.337   3.567   5.232
 7654SOL    HW123861   5.253   3.567   5.178
 7654SOL    HW223862   5.349   3.656   5.276
 7655SOL     OW23863   3.940   0.132   3.721
 7655SOL    HW123864   4.009   0.074   3.679
 7655SOL    HW223865   3.974   0.166   3.809
 7656SOL     OW23866   5.663   3.180   6.212
 7656SOL    HW123867   5.620   3.108   6.158
 7656SOL    HW223868   5.693   3.254   6.151
 7657SOL     OW23869   1.949   2.998   4.044
 7657SOL    HW123870   2.034   3.021   3.997
 7657SOL    HW223871   1.899   3.082   4.065
 7658SOL     OW23872   3.144   0.264   0.909
 7658SOL    HW123873   3.122   0.271   0.812
 7658SOL    HW223874   3.168   0.355   0.944
 7659SOL     OW23875   4.538   3.952   0.064
 7659SOL    HW123876   4.586   4.017   0.122
 7659SOL    HW223877   4.548   3.978   6.991
 7660SOL     OW23878   6.197   5.374   4.680
 7660SOL    HW123879   6.111   5.380   4.731
 7660SOL    HW223880   6.249   5.294   4.712
 7661SOL     OW23881   4.761   1.925   5.673
 7661SOL    HW123882   4.759   1.938   5.772
 7661SOL    HW223883   4.737   2.011   5.628
 7662SOL     OW23884   0.440   2.598   3.392
 7662SOL    HW123885   0.488   2.594   3.480
 7662SOL    HW223886   0.507   2.601   3.318
 7663SOL     OW23887   4.747   5.424   6.596
 7663SOL    HW123888   4.654   5.391   6.614
 7663SOL    HW223889   4.744   5.492   6.523
 7664SOL     OW23890   3.722   1.209   3.177
 7664SOL    HW123891   3.626   1.198   3.202
 7664SOL    HW223892   3.735   1.299   3.135
 7665SOL     OW23893   5.611   1.551   4.439
 7665SOL    HW123894   5.666   1.586   4.363
 7665SOL    HW223895   5.544   1.619   4.466
 7666SOL     OW23896   6.938   5.346   4.385
 7666SOL    HW123897   6.951   5.310   4.292
 7666SOL    HW223898   6.967   5.441   4.387
 7667SOL     OW23899   4.340   0.679   2.913
 7667SOL    HW123900   4.259   0.716   2.868
 7667SOL    HW223901   4.421   0.698   2.858
 7668SOL     OW23902   2.715   4.960   0.645
 7668SOL    HW123903   2.791   5.021   0.669
 7668SOL    HW223904   2.751   4.869   0.624
 7669SOL     OW23905   4.088   0.991   5.414
 7669SOL    HW123906   4.166   0.928   5.418
 7669SOL    HW223907   4.056   1.010   5.507
 7670SOL     OW23908   0.699   6.104   0.996
 7670SOL    HW123909   0.716   6.194   1.035
 7670SOL    HW223910   0.623   6.061   1.044
 7671SOL     OW23911   5.011   6.754   2.608
 7671SOL    HW123912   5.110   6.742   2.603
 7671SOL    HW223913   4.969   6.669   2.639
 7672SOL     OW23914   6.489   4.930   3.468
 7672SOL    HW123915   6.558   4.867   3.501
 7672SOL    HW223916   6.530   5.020   3.453
 7673SOL     OW23917   1.822   5.691   2.443
 7673SOL    HW123918   1.783   5.781   2.423
 7673SOL    HW223919   1.888   5.667   2.372
 7674SOL     OW23920   4.488   0.530   4.146
 7674SOL    HW123921   4.407   0.546   4.090
 7674SOL    HW223922   4.464   0.542   4.243
 7675SOL     OW23923   4.248   6.741   3.482
 7675SOL    HW123924   4.189   6.757   3.403
 7675SOL    HW223925   4.200   6.685   3.549
 7676SOL     OW23926   3.025   2.115   6.070
 7676SOL    HW123927   3.090   2.192   6.072
 7676SOL    HW223928   2.988   2.105   5.978
 7677SOL     OW23929   0.786   4.554   0.771
 7677SOL    HW123930   0.789   4.468   0.721
 7677SOL    HW223931   0.698   4.598   0.756
 7678SOL     OW23932   1.708   2.859   5.099
 7678SOL    HW123933   1.796   2.862   5.052
 7678SOL    HW223934   1.638   2.825   5.036
 7679SOL     OW23935   2.138   5.304   5.466
 7679SOL    HW123936   2.207   5.357   5.417
 7679SOL    HW223937   2.051   5.354   5.466
 7680SOL     OW23938   1.415   0.287   5.971
 7680SOL    HW123939   1.401   0.302   5.874
 7680SOL    HW223940   1.499   0.235   5.985
 7681SOL     OW23941   2.485   1.849   6.747
 7681SOL    HW123942   2.491   1.941   6.784
 7681SOL    HW223943   2.546   1.840   6.669
 7682SOL     OW23944   4.187   1.703   2.463
 7682SOL    HW123945   4.106   1.758   2.443
 7682SOL    HW223946   4.199   1.633   2.393
 7683SOL     OW23947   0.738   1.379   4.936
 7683SOL    HW123948   0.719   1.444   5.010
 7683SOL    HW223949   0.677   1.397   4.860
 7684SOL     OW23950   4.155   2.269   1.865
 7684SOL    HW123951   4.108   2.229   1.943
 7684SOL    HW223952   4.247   2.295   1.891
 7685SOL     OW23953   3.567   1.796   6.821
 7685SOL    HW123954   3.534   1.751   6.739
 7685SOL    HW223955   3.563   1.733   6.898
 7686SOL     OW23956   5.457   6.462   4.570
 7686SOL    HW123957   5.495   6.537   4.516
 7686SOL    HW223958   5.360   6.477   4.586
 7687SOL     OW23959   5.035   5.146   5.094
 7687SOL    HW123960   4.987   5.059   5.086
 7687SOL    HW223961   5.036   5.192   5.005
 7688SOL     OW23962   7.008   6.056   6.057
 7688SOL    HW123963   0.059   6.113   6.092
 7688SOL    HW223964   0.017   5.962   6.049
 7689SOL     OW23965   4.695   0.352   2.354
 7689SOL    HW123966   4.743   0.327   2.270
 7689SOL    HW223967   4.751   0.329   2.433
 7690SOL     OW23968   5.370   5.091   0.619
 7690SOL    HW123969   5.349   5.058   0.711
 7690SOL    HW223970   5.285   5.123   0.575
 7691SOL     OW23971   4.728   4.722   1.750
 7691SOL    HW123972   4.640   4.690   1.716
 7691SOL    HW223973   4.740   4.695   1.845
 7692SOL     OW23974   0.436   6.217   1.684
 7692SOL    HW123975   0.528   6.224   1.723
 7692SOL    HW223976   0.386   6.301   1.702
 7693SOL     OW23977   3.416   0.322   1.804
 7693SOL    HW123978   3.351   0.259   1.762
 7693SOL    HW223979   3.419   0.407   1.751
 7694SOL     OW23980   5.623   2.289   4.543
 7694SOL    HW123981   5.548   2.279   4.476
 7694SOL    HW223982   5.681   2.366   4.516
 7695SOL     OW23983   5.731   0.683   1.767
 7695SOL    HW123984   5.753   0.611   1.833
 7695SOL    HW223985   5.724   0.643   1.676
 7696SOL     OW23986   0.558   1.201   6.081
 7696SOL    HW123987   0.641   1.235   6.037
 7696SOL    HW223988   0.581   1.126   6.143
 7697SOL     OW23989   3.169   0.481   2.759
 7697SOL    HW123990   3.260   0.514   2.734
 7697SOL    HW223991   3.101   0.554   2.743
 7698SOL     OW23992   6.720   1.908   5.384
 7698SOL    HW123993   6.818   1.928   5.385
 7698SOL    HW223994   6.695   1.857   5.467
 7699SOL     OW23995   2.480   5.170   6.795
 7699SOL    HW123996   2.386   5.167   6.760
 7699SOL    HW223997   2.539   5.217   6.730
 7700SOL     OW23998   4.176   6.273   2.974
 7700SOL    HW123999   4.146   6.231   3.059
 7700SOL    HW224000   4.110   6.253   2.901
 7701SOL     OW24001   0.040   1.798   6.366
 7701SOL    HW124002   7.007   1.862   6.313
 7701SOL    HW224003   7.010   1.764   6.443
 7702SOL     OW24004   4.320   6.055   5.152
 7702SOL    HW124005   4.292   6.010   5.237
 7702SOL    HW224006   4.322   6.154   5.167
 7703SOL     OW24007   6.347   6.892   5.280
 7703SOL    HW124008   6.310   6.955   5.348
 7703SOL    HW224009   6.281   6.819   5.263
 7704SOL     OW24010   6.331   2.090   4.357
 7704SOL    HW124011   6.372   2.179   4.340
 7704SOL    HW224012   6.235   2.102   4.383
 7705SOL     OW24013   2.508   5.095   0.738
 7705SOL    HW124014   2.581   5.030   0.719
 7705SOL    HW224015   2.501   5.160   0.663
 7706SOL     OW24016   3.237   2.970   3.416
 7706SOL    HW124017   3.334   2.951   3.426
 7706SOL    HW224018   3.197   2.910   3.347
 7707SOL     OW24019   0.218   4.879   6.374
 7707SOL    HW124020   0.246   4.795   6.328
 7707SOL    HW224021   0.232   4.870   6.472
 7708SOL     OW24022   1.286   6.919   3.855
 7708SOL    HW124023   1.375   6.880   3.875
 7708SOL    HW224024   1.242   6.867   3.782
 7709SOL     OW24025   6.749   4.998   1.251
 7709SOL    HW124026   6.705   5.066   1.193
 7709SOL    HW224027   6.841   5.029   1.275
 7710SOL     OW24028   2.415   2.281   0.931
 7710SOL    HW124029   2.325   2.279   0.975
 7710SOL    HW224030   2.427   2.200   0.874
 7711SOL     OW24031   6.517   5.754   5.732
 7711SOL    HW124032   6.606   5.714   5.752
 7711SOL    HW224033   6.526   5.853   5.725
 7712SOL     OW24034   6.051   4.598   6.897
 7712SOL    HW124035   6.088   4.646   6.977
 7712SOL    HW224036   5.956   4.572   6.915
 7713SOL     OW24037   1.946   4.165   1.028
 7713SOL    HW124038   1.953   4.113   0.942
 7713SOL    HW224039   1.849   4.173   1.054
 7714SOL     OW24040   0.193   6.789   5.174
 7714SOL    HW124041   0.280   6.783   5.125
 7714SOL    HW224042   0.141   6.705   5.159
 7715SOL     OW24043   2.507   1.983   6.435
 7715SOL    HW124044   2.435   1.944   6.378
 7715SOL    HW224045   2.506   2.082   6.428
 7716SOL     OW24046   6.620   5.177   7.015
 7716SOL    HW124047   6.609   5.096   6.958
 7716SOL    HW224048   6.554   5.174   0.067
 7717SOL     OW24049   1.272   1.765   5.278
 7717SOL    HW124050   1.281   1.762   5.178
 7717SOL    HW224051   1.362   1.759   5.319
 7718SOL     OW24052   6.915   4.660   3.164
 7718SOL    HW124053   6.822   4.697   3.162
 7718SOL    HW224054   6.972   4.715   3.225
 7719SOL     OW24055   0.912   4.442   4.859
 7719SOL    HW124056   0.850   4.513   4.891
 7719SOL    HW224057   1.007   4.468   4.880
 7720SOL     OW24058   6.338   1.974   5.949
 7720SOL    HW124059   6.304   1.975   6.043
 7720SOL    HW224060   6.339   2.067   5.913
 7721SOL     OW24061   0.859   0.454   2.258
 7721SOL    HW124062   0.863   0.533   2.320
 7721SOL    HW224063   0.903   0.478   2.171
 7722SOL     OW24064   2.100   5.562   3.986
 7722SOL    HW124065   2.184   5.600   3.947
 7722SOL    HW224066   2.060   5.497   3.921
 7723SOL     OW24067   4.798   3.841   6.619
 7723SOL    HW124068   4.772   3.906   6.547
 7723SOL    HW224069   4.792   3.748   6.584
 7724SOL     OW24070   3.330   4.054   0.516
 7724SOL    HW124071   3.394   4.049   0.592
 7724SOL    HW224072   3.316   3.963   0.478
 7725SOL     OW24073   5.857   2.628   2.584
 7725SOL    HW124074   5.869   2.571   2.666
 7725SOL    HW224075   5.895   2.581   2.505
 7726SOL     OW24076   0.777   2.746   6.039
 7726SOL    HW124077   0.780   2.756   5.940
 7726SOL    HW224078   0.710   2.811   6.077
 7727SOL     OW24079   6.291   2.913   1.695
 7727SOL    HW124080   6.193   2.893   1.690
 7727SOL    HW224081   6.335   2.849   1.758
 7728SOL     OW24082   2.137   3.151   5.161
 7728SOL    HW124083   2.101   3.209   5.088
 7728SOL    HW224084   2.214   3.098   5.126
 7729SOL     OW24085   5.935   1.704   1.836
 7729SOL    HW124086   5.861   1.637   1.838
 7729SOL    HW224087   5.998   1.685   1.911
 7730SOL     OW24088   5.996   4.457   4.892
 7730SOL    HW124089   5.918   4.490   4.945
 7730SOL    HW224090   6.054   4.399   4.951
 7731SOL     OW24091   6.355   0.064   0.628
 7731SOL    HW124092   6.305   0.037   0.546
 7731SOL    HW224093   6.325   0.008   0.706
 7732SOL     OW24094   4.015   0.270   0.008
 7732SOL    HW124095   4.070   0.353   0.008
 7732SOL    HW224096   4.074   0.190   0.022
 7733SOL     OW24097   6.282   5.719   2.625
 7733SOL    HW124098   6.333   5.704   2.709
 7733SOL    HW224099   6.204   5.657   2.621
 7734SOL     OW24100   2.476   4.864   4.642
 7734SOL    HW124101   2.484   4.868   4.543
 7734SOL    HW224102   2.456   4.955   4.678
 7735SOL     OW24103   6.369   5.886   0.123
 7735SOL    HW124104   6.405   5.793   0.126
 7735SOL    HW224105   6.292   5.890   0.059
 7736SOL     OW24106   2.404   3.011   0.425
 7736SOL    HW124107   2.328   2.946   0.415
 7736SOL    HW224108   2.405   3.049   0.517
 7737SOL     OW24109   3.375   5.342   1.749
 7737SOL    HW124110   3.418   5.272   1.806
 7737SOL    HW224111   3.283   5.313   1.724
 7738SOL     OW24112   2.504   6.125   6.838
 7738SOL    HW124113   2.450   6.186   6.779
 7738SOL    HW224114   2.486   6.148   6.934
 7739SOL     OW24115   1.200   1.959   1.899
 7739SOL    HW124116   1.213   1.935   1.803
 7739SOL    HW224117   1.200   1.876   1.954
 7740SOL     OW24118   2.107   1.356   2.673
 7740SOL    HW124119   2.080   1.265   2.642
 7740SOL    HW224120   2.116   1.417   2.595
 7741SOL     OW24121   1.177   3.997   4.939
 7741SOL    HW124122   1.097   4.049   4.908
 7741SOL    HW224123   1.235   4.056   4.995
 7742SOL     OW24124   3.918   1.596   3.976
 7742SOL    HW124125   3.829   1.551   3.970
 7742SOL    HW224126   3.978   1.545   4.037
 7743SOL     OW24127   4.939   0.934   6.921
 7743SOL    HW124128   4.998   0.868   6.968
 7743SOL    HW224129   4.925   0.904   6.827
 7744SOL     OW24130   0.550   6.302   3.380
 7744SOL    HW124131   0.632   6.345   3.341
 7744SOL    HW224132   0.509   6.364   3.446
 7745SOL     OW24133   2.292   6.604   0.265
 7745SOL    HW124134   2.381   6.647   0.282
 7745SOL    HW224135   2.228   6.635   0.335
 7746SOL     OW24136   0.989   0.113   0.654
 7746SOL    HW124137   0.895   0.091   0.627
 7746SOL    HW224138   1.026   0.038   0.708
 7747SOL     OW24139   0.481   6.011   1.146
 7747SOL    HW124140   0.461   5.915   1.127
 7747SOL    HW224141   0.509   6.021   1.242
 7748SOL     OW24142   3.248   3.528   4.976
 7748SOL    HW124143   3.224   3.434   5.001
 7748SOL    HW224144   3.197   3.592   5.033
 7749SOL     OW24145   3.093   3.893   3.446
 7749SOL    HW124146   3.005   3.864   3.484
 7749SOL    HW224147   3.151   3.813   3.433
 7750SOL     OW24148   5.801   5.405   5.636
 7750SOL    HW124149   5.754   5.386   5.722
 7750SOL    HW224150   5.734   5.422   5.564
 7751SOL     OW24151   0.738   1.707   3.255
 7751SOL    HW124152   0.661   1.642   3.252
 7751SOL    HW224153   0.782   1.701   3.345
 7752SOL     OW24154   5.434   5.575   5.799
 7752SOL    HW124155   5.505   5.645   5.800
 7752SOL    HW224156   5.427   5.537   5.706
 7753SOL     OW24157   2.041   0.671   4.161
 7753SOL    HW124158   2.110   0.626   4.217
 7753SOL    HW224159   2.071   0.764   4.138
 7754SOL     OW24160   5.395   0.236   1.675
 7754SOL    HW124161   5.330   0.299   1.718
 7754SOL    HW224162   5.394   0.149   1.725
 7755SOL     OW24163   0.587   0.259   5.585
 7755SOL    HW124164   0.562   0.162   5.578
 7755SOL    HW224165   0.686   0.268   5.578
 7756SOL     OW24166   2.382   5.961   2.364
 7756SOL    HW124167   2.448   5.921   2.300
 7756SOL    HW224168   2.328   5.888   2.405
 7757SOL     OW24169   5.007   6.464   4.825
 7757SOL    HW124170   5.020   6.557   4.858
 7757SOL    HW224171   5.094   6.415   4.827
 7758SOL     OW24172   1.820   2.067   6.874
 7758SOL    HW124173   1.893   2.008   6.839
 7758SOL    HW224174   1.823   2.155   6.827
 7759SOL     OW24175   1.823   1.154   4.914
 7759SOL    HW124176   1.843   1.064   4.874
 7759SOL    HW224177   1.724   1.165   4.922
 7760SOL     OW24178   5.759   3.601   2.251
 7760SOL    HW124179   5.704   3.637   2.326
 7760SOL    HW224180   5.769   3.671   2.180
 7761SOL     OW24181   2.829   0.236   6.263
 7761SOL    HW124182   2.819   0.274   6.172
 7761SOL    HW224183   2.927   0.222   6.283
 7762SOL     OW24184   3.797   0.774   5.480
 7762SOL    HW124185   3.765   0.866   5.504
 7762SOL    HW224186   3.858   0.779   5.401
 7763SOL     OW24187   1.547   1.699   1.332
 7763SOL    HW124188   1.534   1.681   1.234
 7763SOL    HW224189   1.645   1.706   1.351
 7764SOL     OW24190   3.907   2.988   2.695
 7764SOL    HW124191   3.942   3.069   2.648
 7764SOL    HW224192   3.868   2.924   2.628
 7765SOL     OW24193   6.056   3.277   4.028
 7765SOL    HW124194   5.989   3.206   4.051
 7765SOL    HW224195   6.105   3.305   4.110
 7766SOL     OW24196   5.296   1.865   6.936
 7766SOL    HW124197   5.322   1.862   6.839
 7766SOL    HW224198   5.198   1.846   6.945
 7767SOL     OW24199   4.045   6.666   4.231
 7767SOL    HW124200   3.961   6.686   4.180
 7767SOL    HW224201   4.021   6.617   4.315
 7768SOL     OW24202   4.259   4.993   2.600
 7768SOL    HW124203   4.304   4.905   2.593
 7768SOL    HW224204   4.220   5.017   2.511
 7769SOL     OW24205   5.314   1.364   1.625
 7769SOL    HW124206   5.327   1.269   1.652
 7769SOL    HW224207   5.402   1.402   1.595
 7770SOL     OW24208   1.936   4.097   1.935
 7770SOL    HW124209   1.853   4.042   1.945
 7770SOL    HW224210   1.990   4.092   2.018
 7771SOL     OW24211   2.757   2.581   5.258
 7771SOL    HW124212   2.806   2.650   5.311
 7771SOL    HW224213   2.670   2.618   5.227
 7772SOL     OW24214   5.064   1.103   3.635
 7772SOL    HW124215   5.007   1.179   3.665
 7772SOL    HW224216   5.007   1.033   3.591
 7773SOL     OW24217   2.648   4.879   5.472
 7773SOL    HW124218   2.593   4.842   5.547
 7773SOL    HW224219   2.698   4.804   5.428
 7774SOL     OW24220   5.853   1.899   6.231
 7774SOL    HW124221   5.760   1.936   6.224
 7774SOL    HW224222   5.861   1.846   6.315
 7775SOL     OW24223   3.636   6.788   3.024
 7775SOL    HW124224   3.620   6.856   2.951
 7775SOL    HW224225   3.728   6.799   3.060
 7776SOL     OW24226   2.889   2.817   6.585
 7776SOL    HW124227   2.912   2.837   6.490
 7776SOL    HW224228   2.970   2.786   6.634
 7777SOL     OW24229   2.564   1.752   5.568
 7777SOL    HW124230   2.497   1.823   5.550
 7777SOL    HW224231   2.655   1.783   5.539
 7778SOL     OW24232   4.882   6.525   6.833
 7778SOL    HW124233   4.865   6.475   6.919
 7778SOL    HW224234   4.948   6.598   6.850
 7779SOL     OW24235   3.920   3.047   0.502
 7779SOL    HW124236   3.845   3.045   0.435
 7779SOL    HW224237   3.920   2.962   0.554
 7780SOL     OW24238   1.763   5.285   4.827
 7780SOL    HW124239   1.736   5.381   4.815
 7780SOL    HW224240   1.807   5.252   4.744
 7781SOL     OW24241   1.482   3.642   6.179
 7781SOL    HW124242   1.542   3.722   6.190
 7781SOL    HW224243   1.510   3.590   6.098
 7782SOL     OW24244   1.707   3.352   5.642
 7782SOL    HW124245   1.628   3.300   5.674
 7782SOL    HW224246   1.743   3.312   5.559
 7783SOL     OW24247   3.105   6.626   5.992
 7783SOL    HW124248   3.179   6.666   6.046
 7783SOL    HW224249   3.018   6.667   6.019
 7784SOL     OW24250   2.195   2.141   0.347
 7784SOL    HW124251   2.141   2.064   0.315
 7784SOL    HW224252   2.169   2.224   0.297
 7785SOL     OW24253   1.524   6.780   3.932
 7785SOL    HW124254   1.538   6.754   3.837
 7785SOL    HW224255   1.579   6.861   3.953
 7786SOL     OW24256   3.456   5.418   6.469
 7786SOL    HW124257   3.518   5.369   6.530
 7786SOL    HW224258   3.505   5.496   6.429
 7787SOL     OW24259   1.784   3.203   5.434
 7787SOL    HW124260   1.770   3.110   5.468
 7787SOL    HW224261   1.777   3.203   5.334
 7788SOL     OW24262   1.239   0.865   1.717
 7788SOL    HW124263   1.325   0.821   1.692
 7788SOL    HW224264   1.217   0.842   1.812
 7789SOL     OW24265   3.254   0.029   0.344
 7789SOL    HW124266   3.343   0.042   0.300
 7789SOL    HW224267   3.206   0.117   0.348
 7790SOL     OW24268   6.028   4.992   2.497
 7790SOL    HW124269   5.982   4.950   2.575
 7790SOL    HW224270   6.041   4.924   2.425
 7791SOL     OW24271   3.152   6.783   3.977
 7791SOL    HW124272   3.188   6.820   3.891
 7791SOL    HW224273   3.195   6.695   3.996
 7792SOL     OW24274   1.205   5.611   6.070
 7792SOL    HW124275   1.269   5.573   6.137
 7792SOL    HW224276   1.250   5.684   6.019
 7793SOL     OW24277   1.801   0.762   5.938
 7793SOL    HW124278   1.777   0.685   5.997
 7793SOL    HW224279   1.891   0.797   5.964
 7794SOL     OW24280   5.411   5.327   3.918
 7794SOL    HW124281   5.346   5.251   3.913
 7794SOL    HW224282   5.504   5.293   3.910
 7795SOL     OW24283   2.040   4.123   5.064
 7795SOL    HW124284   2.021   4.202   5.123
 7795SOL    HW224285   2.131   4.088   5.083
 7796SOL     OW24286   3.021   3.956   4.138
 7796SOL    HW124287   3.088   4.020   4.177
 7796SOL    HW224288   3.052   3.925   4.049
 7797SOL     OW24289   0.814   5.859   2.428
 7797SOL    HW124290   0.843   5.766   2.452
 7797SOL    HW224291   0.724   5.857   2.386
 7798SOL     OW24292   1.339   4.717   6.383
 7798SOL    HW124293   1.247   4.685   6.404
 7798SOL    HW224294   1.388   4.734   6.468
 7799SOL     OW24295   6.912   6.374   2.006
 7799SOL    HW124296   6.901   6.412   2.098
 7799SOL    HW224297   6.958   6.441   1.948
 7800SOL     OW24298   1.096   4.774   1.065
 7800SOL    HW124299   1.010   4.780   1.115
 7800SOL    HW224300   1.100   4.846   0.995
 7801SOL     OW24301   2.475   1.655   1.676
 7801SOL    HW124302   2.470   1.704   1.589
 7801SOL    HW224303   2.400   1.588   1.682
 7802SOL     OW24304   5.436   2.511   1.210
 7802SOL    HW124305   5.525   2.556   1.210
 7802SOL    HW224306   5.387   2.535   1.126
 7803SOL     OW24307   4.211   3.509   5.712
 7803SOL    HW124308   4.241   3.444   5.642
 7803SOL    HW224309   4.284   3.523   5.778
 7804SOL     OW24310   6.101   1.067   3.723
 7804SOL    HW124311   6.116   1.004   3.800
 7804SOL    HW224312   6.022   1.126   3.743
 7805SOL     OW24313   5.435   1.024   1.528
 7805SOL    HW124314   5.395   0.999   1.616
 7805SOL    HW224315   5.532   0.999   1.527
 7806SOL     OW24316   5.544   2.844   5.750
 7806SOL    HW124317   5.619   2.797   5.797
 7806SOL    HW224318   5.460   2.791   5.760
 7807SOL     OW24319   0.462   5.049   6.303
 7807SOL    HW124320   0.373   5.003   6.306
 7807SOL    HW224321   0.448   5.148   6.303
 7808SOL     OW24322   0.040   3.434   4.379
 7808SOL    HW124323   6.973   3.465   4.410
 7808SOL    HW224324   0.045   3.439   4.279
 7809SOL     OW24325   2.964   5.750   5.055
 7809SOL    HW124326   2.932   5.664   5.016
 7809SOL    HW224327   3.002   5.807   4.982
 7810SOL     OW24328   3.732   0.061   5.526
 7810SOL    HW124329   3.790   0.042   5.605
 7810SOL    HW224330   3.764   0.007   5.447
 7811SOL     OW24331   0.002   4.468   4.312
 7811SOL    HW124332   0.071   4.399   4.289
 7811SOL    HW224333   6.944   4.455   4.253
 7812SOL     OW24334   1.070   2.071   4.138
 7812SOL    HW124335   1.141   2.069   4.068
 7812SOL    HW224336   0.981   2.087   4.095
 7813SOL     OW24337   4.594   2.149   5.934
 7813SOL    HW124338   4.530   2.159   5.858
 7813SOL    HW224339   4.674   2.207   5.918
 7814SOL     OW24340   6.795   3.145   3.775
 7814SOL    HW124341   6.783   3.159   3.677
 7814SOL    HW224342   6.889   3.118   3.794
 7815SOL     OW24343   5.303   0.995   6.880
 7815SOL    HW124344   5.283   0.898   6.893
 7815SOL    HW224345   5.218   1.048   6.889
 7816SOL     OW24346   1.659   2.322   6.470
 7816SOL    HW124347   1.655   2.422   6.467
 7816SOL    HW224348   1.591   2.284   6.407
 7817SOL     OW24349   6.096   3.836   4.076
 7817SOL    HW124350   6.036   3.861   3.999
 7817SOL    HW224351   6.051   3.858   4.162
 7818SOL     OW24352   4.367   0.985   2.860
 7818SOL    HW124353   4.422   0.906   2.831
 7818SOL    HW224354   4.377   1.059   2.793
 7819SOL     OW24355   6.870   3.084   1.593
 7819SOL    HW124356   6.772   3.072   1.606
 7819SOL    HW224357   6.902   3.159   1.651
 7820SOL     OW24358   1.574   2.301   4.827
 7820SOL    HW124359   1.575   2.384   4.882
 7820SOL    HW224360   1.549   2.324   4.733
 7821SOL     OW24361   4.812   6.072   0.878
 7821SOL    HW124362   4.825   6.032   0.787
 7821SOL    HW224363   4.865   6.019   0.944
 7822SOL     OW24364   0.055   0.784   5.145
 7822SOL    HW124365   0.009   0.697   5.162
 7822SOL    HW224366   0.137   0.767   5.089
 7823SOL     OW24367   2.104   3.764   5.131
 7823SOL    HW124368   2.015   3.801   5.158
 7823SOL    HW224369   2.133   3.807   5.046
 7824SOL     OW24370   6.261   2.084   5.349
 7824SOL    HW124371   6.350   2.130   5.357
 7824SOL    HW224372   6.192   2.150   5.319
 7825SOL     OW24373   1.814   3.067   0.380
 7825SOL    HW124374   1.892   3.100   0.434
 7825SOL    HW224375   1.733   3.121   0.403
 7826SOL     OW24376   6.113   1.174   1.250
 7826SOL    HW124377   6.119   1.163   1.151
 7826SOL    HW224378   6.190   1.230   1.282
 7827SOL     OW24379   1.788   5.867   1.123
 7827SOL    HW124380   1.851   5.791   1.140
 7827SOL    HW224381   1.792   5.931   1.200
 7828SOL     OW24382   6.051   4.581   0.387
 7828SOL    HW124383   6.103   4.536   0.314
 7828SOL    HW224384   6.050   4.523   0.468
 7829SOL     OW24385   3.096   3.291   1.023
 7829SOL    HW124386   3.151   3.357   1.075
 7829SOL    HW224387   3.005   3.285   1.062
 7830SOL     OW24388   3.145   4.962   5.698
 7830SOL    HW124389   3.171   5.017   5.619
 7830SOL    HW224390   3.045   4.963   5.708
 7831SOL     OW24391   2.179   0.413   2.251
 7831SOL    HW124392   2.220   0.363   2.175
 7831SOL    HW224393   2.134   0.349   2.313
 7832SOL     OW24394   6.159   0.376   4.690
 7832SOL    HW124395   6.219   0.427   4.750
 7832SOL    HW224396   6.070   0.422   4.684
 7833SOL     OW24397   1.140   0.976   4.835
 7833SOL    HW124398   1.063   0.955   4.895
 7833SOL    HW224399   1.109   1.032   4.758
 7834SOL     OW24400   0.072   1.630   3.376
 7834SOL    HW124401   0.001   1.643   3.445
 7834SOL    HW224402   0.030   1.622   3.285
 7835SOL     OW24403   4.332   1.624   5.234
 7835SOL    HW124404   4.359   1.598   5.327
 7835SOL    HW224405   4.302   1.720   5.234
 7836SOL     OW24406   3.205   4.349   5.456
 7836SOL    HW124407   3.127   4.360   5.395
 7836SOL    HW224408   3.221   4.435   5.505
 7837SOL     OW24409   5.124   5.734   0.034
 7837SOL    HW124410   5.035   5.692   0.055
 7837SOL    HW224411   5.117   5.784   6.970
 7838SOL     OW24412   4.157   6.279   1.251
 7838SOL    HW124413   4.168   6.182   1.271
 7838SOL    HW224414   4.247   6.318   1.227
 7839SOL     OW24415   6.066   3.808   5.100
 7839SOL    HW124416   6.051   3.716   5.137
 7839SOL    HW224417   6.146   3.849   5.143
 7840SOL     OW24418   0.146   3.639   4.523
 7840SOL    HW124419   0.237   3.665   4.491
 7840SOL    HW224420   0.112   3.562   4.470
 7841SOL     OW24421   4.577   1.427   6.674
 7841SOL    HW124422   4.600   1.524   6.670
 7841SOL    HW224423   4.570   1.391   6.581
 7842SOL     OW24424   2.101   1.221   2.348
 7842SOL    HW124425   2.106   1.298   2.284
 7842SOL    HW224426   2.186   1.215   2.400
 7843SOL     OW24427   0.239   6.694   3.716
 7843SOL    HW124428   0.154   6.742   3.741
 7843SOL    HW224429   0.290   6.749   3.649
 7844SOL     OW24430   3.750   0.648   2.269
 7844SOL    HW124431   3.772   0.725   2.330
 7844SOL    HW224432   3.834   0.603   2.240
 7845SOL     OW24433   5.504   1.822   2.163
 7845SOL    HW124434   5.474   1.913   2.132
 7845SOL    HW224435   5.585   1.795   2.111
 7846SOL     OW24436   1.246   2.619   1.067
 7846SOL    HW124437   1.336   2.579   1.083
 7846SOL    HW224438   1.225   2.684   1.140
 7847SOL     OW24439   6.345   1.205   3.753
 7847SOL    HW124440   6.260   1.164   3.722
 7847SOL    HW224441   6.364   1.177   3.847
 7848SOL     OW24442   2.999   4.172   1.056
 7848SOL    HW124443   2.925   4.147   0.994
 7848SOL    HW224444   2.977   4.141   1.149
 7849SOL     OW24445   5.869   4.057   4.893
 7849SOL    HW124446   5.841   4.107   4.811
 7849SOL    HW224447   5.919   3.975   4.867
 7850SOL     OW24448   0.250   1.827   3.909
 7850SOL    HW124449   0.344   1.800   3.886
 7850SOL    HW224450   0.215   1.767   3.980
 7851SOL     OW24451   1.070   2.709   1.521
 7851SOL    HW124452   1.092   2.729   1.426
 7851SOL    HW224453   0.971   2.709   1.533
 7852SOL     OW24454   3.142   0.714   0.169
 7852SOL    HW124455   3.051   0.704   0.208
 7852SOL    HW224456   3.146   0.796   0.113
 7853SOL     OW24457   4.603   3.019   1.469
 7853SOL    HW124458   4.683   2.967   1.439
 7853SOL    HW224459   4.543   2.960   1.524
 7854SOL     OW24460   3.534   2.512   6.121
 7854SOL    HW124461   3.494   2.484   6.208
 7854SOL    HW224462   3.502   2.449   6.049
 7855SOL     OW24463   4.416   6.127   4.886
 7855SOL    HW124464   4.397   6.035   4.850
 7855SOL    HW224465   4.336   6.185   4.874
 7856SOL     OW24466   0.263   5.172   5.399
 7856SOL    HW124467   0.324   5.204   5.326
 7856SOL    HW224468   0.235   5.078   5.381
 7857SOL     OW24469   4.924   3.574   0.535
 7857SOL    HW124470   4.869   3.596   0.454
 7857SOL    HW224471   4.896   3.631   0.611
 7858SOL     OW24472   6.824   6.487   4.554
 7858SOL    HW124473   6.890   6.422   4.592
 7858SOL    HW224474   6.870   6.574   4.536
 7859SOL     OW24475   4.538   3.740   6.825
 7859SOL    HW124476   4.609   3.694   6.877
 7859SOL    HW224477   4.466   3.771   6.887
 7860SOL     OW24478   4.301   1.052   4.527
 7860SOL    HW124479   4.242   0.971   4.521
 7860SOL    HW224480   4.255   1.122   4.581
 7861SOL     OW24481   2.670   5.243   1.609
 7861SOL    HW124482   2.713   5.280   1.691
 7861SOL    HW224483   2.615   5.163   1.633
 7862SOL     OW24484   2.078   6.031   2.408
 7862SOL    HW124485   2.167   6.071   2.428
 7862SOL    HW224486   2.070   6.014   2.310
 7863SOL     OW24487   1.032   4.812   3.760
 7863SOL    HW124488   1.051   4.904   3.727
 7863SOL    HW224489   1.084   4.746   3.706
 7864SOL     OW24490   1.519   5.510   6.280
 7864SOL    HW124491   1.602   5.501   6.336
 7864SOL    HW224492   1.489   5.605   6.282
 7865SOL     OW24493   6.144   5.303   4.440
 7865SOL    HW124494   6.160   5.357   4.523
 7865SOL    HW224495   6.202   5.222   4.441
 7866SOL     OW24496   1.406   0.699   5.641
 7866SOL    HW124497   1.380   0.669   5.549
 7866SOL    HW224498   1.502   0.677   5.658
 7867SOL     OW24499   5.400   6.722   3.420
 7867SOL    HW124500   5.301   6.713   3.428
 7867SOL    HW224501   5.431   6.801   3.473
 7868SOL     OW24502   3.919   5.539   0.477
 7868SOL    HW124503   3.820   5.549   0.469
 7868SOL    HW224504   3.940   5.481   0.556
 7869SOL     OW24505   5.215   4.835   5.616
 7869SOL    HW124506   5.130   4.888   5.620
 7869SOL    HW224507   5.290   4.888   5.656
 7870SOL     OW24508   5.139   6.919   4.917
 7870SOL    HW124509   5.054   6.881   4.880
 7870SOL    HW224510   5.200   6.844   4.943
 7871SOL     OW24511   5.396   2.229   1.758
 7871SOL    HW124512   5.348   2.288   1.692
 7871SOL    HW224513   5.329   2.169   1.802
 7872SOL     OW24514   1.642   4.593   2.406
 7872SOL    HW124515   1.579   4.530   2.361
 7872SOL    HW224516   1.736   4.564   2.390
 7873SOL     OW24517   6.442   0.296   0.321
 7873SOL    HW124518   6.491   0.358   0.261
 7873SOL    HW224519   6.502   0.265   0.394
 7874SOL     OW24520   4.585   2.375   1.131
 7874SOL    HW124521   4.543   2.458   1.094
 7874SOL    HW224522   4.518   2.326   1.186
 7875SOL     OW24523   3.736   3.216   0.166
 7875SOL    HW124524   3.729   3.148   0.239
 7875SOL    HW224525   3.680   3.188   0.088
 7876SOL     OW24526   1.139   6.541   3.369
 7876SOL    HW124527   1.059   6.495   3.406
 7876SOL    HW224528   1.189   6.587   3.443
 7877SOL     OW24529   6.973   1.632   2.920
 7877SOL    HW124530   6.914   1.704   2.957
 7877SOL    HW224531   6.943   1.610   2.827
 7878SOL     OW24532   4.771   4.183   3.493
 7878SOL    HW124533   4.732   4.157   3.405
 7878SOL    HW224534   4.855   4.132   3.510
 7879SOL     OW24535   3.592   4.872   2.701
 7879SOL    HW124536   3.531   4.809   2.653
 7879SOL    HW224537   3.616   4.948   2.641
 7880SOL     OW24538   2.645   3.214   0.874
 7880SOL    HW124539   2.743   3.232   0.884
 7880SOL    HW224540   2.599   3.298   0.845
 7881SOL     OW24541   4.769   4.010   4.194
 7881SOL    HW124542   4.770   4.109   4.182
 7881SOL    HW224543   4.756   3.988   4.291
 7882SOL     OW24544   2.263   3.194   1.775
 7882SOL    HW124545   2.343   3.145   1.742
 7882SOL    HW224546   2.284   3.292   1.781
 7883SOL     OW24547   0.975   0.234   5.995
 7883SOL    HW124548   1.056   0.284   6.026
 7883SOL    HW224549   0.899   0.298   5.981
 7884SOL     OW24550   0.973   4.130   4.389
 7884SOL    HW124551   1.066   4.096   4.406
 7884SOL    HW224552   0.967   4.226   4.417
 7885SOL     OW24553   6.674   5.886   0.685
 7885SOL    HW124554   6.585   5.912   0.724
 7885SOL    HW224555   6.738   5.962   0.696
 7886SOL     OW24556   4.361   5.674   0.230
 7886SOL    HW124557   4.412   5.602   0.181
 7886SOL    HW224558   4.340   5.643   0.322
 7887SOL     OW24559   3.541   2.266   6.917
 7887SOL    HW124560   3.470   2.204   6.949
 7887SOL    HW224561   3.612   2.273   6.987
 7888SOL     OW24562   5.677   0.396   3.800
 7888SOL    HW124563   5.606   0.394   3.731
 7888SOL    HW224564   5.681   0.308   3.848
 7889SOL     OW24565   1.520   4.922   1.654
 7889SOL    HW124566   1.564   4.997   1.604
 7889SOL    HW224567   1.528   4.838   1.600
 7890SOL     OW24568   1.983   3.905   2.634
 7890SOL    HW124569   1.962   3.814   2.600
 7890SOL    HW224570   2.079   3.909   2.663
 7891SOL     OW24571   2.189   4.507   2.783
 7891SOL    HW124572   2.133   4.497   2.865
 7891SOL    HW224573   2.132   4.497   2.701
 7892SOL     OW24574   1.968   2.735   4.416
 7892SOL    HW124575   2.050   2.688   4.384
 7892SOL    HW224576   1.990   2.788   4.498
 7893SOL     OW24577   6.173   6.764   2.202
 7893SOL    HW124578   6.268   6.797   2.207
 7893SOL    HW224579   6.165   6.699   2.126
 7894SOL     OW24580   3.066   6.302   1.941
 7894SOL    HW124581   3.119   6.241   1.883
 7894SOL    HW224582   2.977   6.319   1.898
 7895SOL     OW24583   5.881   1.336   5.824
 7895SOL    HW124584   5.949   1.327   5.897
 7895SOL    HW224585   5.882   1.430   5.789
 7896SOL     OW24586   4.729   4.330   6.480
 7896SOL    HW124587   4.731   4.302   6.384
 7896SOL    HW224588   4.821   4.356   6.509
 7897SOL     OW24589   2.690   3.747   6.215
 7897SOL    HW124590   2.776   3.711   6.180
 7897SOL    HW224591   2.647   3.805   6.146
 7898SOL     OW24592   5.173   2.577   3.798
 7898SOL    HW124593   5.239   2.520   3.750
 7898SOL    HW224594   5.142   2.530   3.881
 7899SOL     OW24595   6.803   1.873   1.737
 7899SOL    HW124596   6.778   1.961   1.695
 7899SOL    HW224597   6.853   1.890   1.822
 7900SOL     OW24598   1.563   5.075   1.040
 7900SOL    HW124599   1.546   5.031   0.952
 7900SOL    HW224600   1.557   5.174   1.029
 7901SOL     OW24601   4.633   0.674   5.915
 7901SOL    HW124602   4.662   0.629   5.831
 7901SOL    HW224603   4.535   0.695   5.910
 7902SOL     OW24604   4.850   5.427   1.657
 7902SOL    HW124605   4.869   5.479   1.740
 7902SOL    HW224606   4.751   5.428   1.639
 7903SOL     OW24607   6.101   2.419   0.625
 7903SOL    HW124608   6.109   2.475   0.707
 7903SOL    HW224609   6.050   2.335   0.647
 7904SOL     OW24610   6.164   0.491   2.701
 7904SOL    HW124611   6.164   0.474   2.799
 7904SOL    HW224612   6.225   0.567   2.680
 7905SOL     OW24613   4.686   1.736   0.173
 7905SOL    HW124614   4.779   1.740   0.210
 7905SOL    HW224615   4.623   1.708   0.245
 7906SOL     OW24616   0.424   5.738   6.810
 7906SOL    HW124617   0.472   5.815   6.852
 7906SOL    HW224618   0.437   5.656   6.865
 7907SOL     OW24619   6.257   2.489   4.402
 7907SOL    HW124620   6.271   2.539   4.488
 7907SOL    HW224621   6.212   2.402   4.421
 7908SOL     OW24622   1.280   1.340   4.203
 7908SOL    HW124623   1.272   1.436   4.232
 7908SOL    HW224624   1.223   1.325   4.123
 7909SOL     OW24625   4.890   3.831   4.738
 7909SOL    HW124626   4.989   3.827   4.724
 7909SOL    HW224627   4.854   3.738   4.747
 7910SOL     OW24628   3.298   3.219   5.313
 7910SOL    HW124629   3.322   3.243   5.407
 7910SOL    HW224630   3.382   3.205   5.260
 7911SOL     OW24631   0.320   4.241   6.831
 7911SOL    HW124632   0.383   4.189   6.888
 7911SOL    HW224633   0.370   4.283   6.755
 7912SOL     OW24634   0.193   5.377   0.096
 7912SOL    HW124635   0.270   5.409   0.041
 7912SOL    HW224636   0.108   5.418   0.062
 7913SOL     OW24637   0.690   5.088   6.685
 7913SOL    HW124638   0.662   5.064   6.778
 7913SOL    HW224639   0.788   5.109   6.685
 7914SOL     OW24640   0.400   4.999   6.959
 7914SOL    HW124641   0.325   5.063   6.978
 7914SOL    HW224642   0.363   4.913   6.925
 7915SOL     OW24643   4.746   2.262   2.599
 7915SOL    HW124644   4.709   2.255   2.507
 7915SOL    HW224645   4.705   2.340   2.646
 7916SOL     OW24646   5.537   3.879   5.161
 7916SOL    HW124647   5.630   3.841   5.162
 7916SOL    HW224648   5.542   3.978   5.173
 7917SOL     OW24649   3.970   3.320   3.818
 7917SOL    HW124650   4.015   3.369   3.893
 7917SOL    HW224651   3.946   3.228   3.848
 7918SOL     OW24652   6.719   1.698   1.291
 7918SOL    HW124653   6.763   1.662   1.209
 7918SOL    HW224654   6.787   1.738   1.351
 7919SOL     OW24655   0.018   4.217   3.537
 7919SOL    HW124656   0.007   4.313   3.511
 7919SOL    HW224657   0.114   4.199   3.560
 7920SOL     OW24658   6.990   5.115   1.329
 7920SOL    HW124659   7.009   5.101   1.426
 7920SOL    HW224660   0.018   5.048   1.275
 7921SOL     OW24661   3.628   6.199   0.343
 7921SOL    HW124662   3.726   6.206   0.320
 7921SOL    HW224663   3.574   6.204   0.259
 7922SOL     OW24664   6.604   6.023   0.044
 7922SOL    HW124665   6.516   5.980   0.064
 7922SOL    HW224666   6.595   6.122   0.051
 7923SOL     OW24667   1.878   0.985   3.131
 7923SOL    HW124668   1.857   1.004   3.227
 7923SOL    HW224669   1.977   0.983   3.119
 7924SOL     OW24670   3.695   6.355   3.269
 7924SOL    HW124671   3.662   6.341   3.362
 7924SOL    HW224672   3.655   6.438   3.232
 7925SOL     OW24673   0.489   1.675   6.386
 7925SOL    HW124674   0.485   1.587   6.339
 7925SOL    HW224675   0.398   1.696   6.424
 7926SOL     OW24676   4.226   1.061   3.898
 7926SOL    HW124677   4.289   0.993   3.860
 7926SOL    HW224678   4.254   1.152   3.868
 7927SOL     OW24679   3.971   5.796   5.000
 7927SOL    HW124680   4.065   5.828   4.996
 7927SOL    HW224681   3.909   5.873   4.983
 7928SOL     OW24682   1.173   4.376   3.708
 7928SOL    HW124683   1.156   4.278   3.707
 7928SOL    HW224684   1.115   4.421   3.641
 7929SOL     OW24685   4.122   3.747   5.119
 7929SOL    HW124686   4.054   3.675   5.130
 7929SOL    HW224687   4.090   3.814   5.053
 7930SOL     OW24688   4.801   5.755   3.465
 7930SOL    HW124689   4.854   5.671   3.479
 7930SOL    HW224690   4.754   5.779   3.550
 7931SOL     OW24691   2.136   2.207   6.863
 7931SOL    HW124692   2.141   2.123   6.917
 7931SOL    HW224693   2.055   2.259   6.891
 7932SOL     OW24694   2.574   0.023   6.833
 7932SOL    HW124695   2.572   6.986   6.914
 7932SOL    HW224696   2.608   0.113   6.860
 7933SOL     OW24697   0.065   0.225   0.656
 7933SOL    HW124698   0.021   0.143   0.621
 7933SOL    HW224699   0.144   0.200   0.712
 7934SOL     OW24700   2.397   3.699   0.276
 7934SOL    HW124701   2.480   3.749   0.250
 7934SOL    HW224702   2.366   3.644   0.198
 7935SOL     OW24703   5.414   5.336   0.119
 7935SOL    HW124704   5.498   5.347   0.065
 7935SOL    HW224705   5.336   5.372   0.068
 7936SOL     OW24706   3.399   5.530   2.594
 7936SOL    HW124707   3.321   5.484   2.636
 7936SOL    HW224708   3.440   5.593   2.659
 7937SOL     OW24709   5.265   6.741   4.459
 7937SOL    HW124710   5.319   6.714   4.379
 7937SOL    HW224711   5.170   6.713   4.446
 7938SOL     OW24712   5.170   5.007   4.694
 7938SOL    HW124713   5.173   4.925   4.750
 7938SOL    HW224714   5.216   4.990   4.606
 7939SOL     OW24715   1.130   1.469   6.254
 7939SOL    HW124716   1.158   1.388   6.305
 7939SOL    HW224717   1.053   1.513   6.300
 7940SOL     OW24718   2.438   5.233   1.903
 7940SOL    HW124719   2.424   5.139   1.933
 7940SOL    HW224720   2.535   5.255   1.904
 7941SOL     OW24721   6.921   6.778   1.776
 7941SOL    HW124722   6.961   6.864   1.807
 7941SOL    HW224723   6.935   6.768   1.677
 7942SOL     OW24724   6.943   6.389   2.999
 7942SOL    HW124725   6.996   6.449   2.939
 7942SOL    HW224726   6.995   6.373   3.084
 7943SOL     OW24727   5.721   2.093   0.887
 7943SOL    HW124728   5.678   2.023   0.830
 7943SOL    HW224729   5.817   2.070   0.902
 7944SOL     OW24730   6.917   3.201   0.933
 7944SOL    HW124731   6.883   3.239   1.019
 7944SOL    HW224732   6.980   3.266   0.891
 7945SOL     OW24733   5.278   6.720   2.589
 7945SOL    HW124734   5.352   6.778   2.621
 7945SOL    HW224735   5.267   6.642   2.650
 7946SOL     OW24736   1.389   2.892   5.688
 7946SOL    HW124737   1.290   2.894   5.679
 7946SOL    HW224738   1.416   2.820   5.752
 7947SOL     OW24739   3.902   3.097   6.862
 7947SOL    HW124740   3.934   3.004   6.876
 7947SOL    HW224741   3.863   3.105   6.770
 7948SOL     OW24742   7.007   6.626   1.531
 7948SOL    HW124743   0.037   6.666   1.456
 7948SOL    HW224744   6.983   6.532   1.508
 7949SOL     OW24745   5.279   5.054   3.924
 7949SOL    HW124746   5.282   5.068   3.825
 7949SOL    HW224747   5.192   5.087   3.960
 7950SOL     OW24748   5.071   5.318   3.637
 7950SOL    HW124749   5.112   5.381   3.703
 7950SOL    HW224750   5.135   5.242   3.619
 7951SOL     OW24751   3.196   3.501   1.159
 7951SOL    HW124752   3.174   3.586   1.113
 7951SOL    HW224753   3.144   3.494   1.244
 7952SOL     OW24754   0.359   2.724   6.603
 7952SOL    HW124755   0.303   2.653   6.561
 7952SOL    HW224756   0.339   2.728   6.701
 7953SOL     OW24757   1.944   2.983   3.037
 7953SOL    HW124758   1.917   3.077   3.059
 7953SOL    HW224759   1.896   2.920   3.098
 7954SOL     OW24760   4.674   5.306   4.651
 7954SOL    HW124761   4.767   5.270   4.663
 7954SOL    HW224762   4.617   5.238   4.606
 7955SOL     OW24763   0.111   6.623   6.361
 7955SOL    HW124764   0.121   6.550   6.428
 7955SOL    HW224765   0.186   6.688   6.370
 7956SOL     OW24766   0.698   5.360   2.757
 7956SOL    HW124767   0.796   5.372   2.769
 7956SOL    HW224768   0.651   5.373   2.844
 7957SOL     OW24769   2.147   1.644   0.549
 7957SOL    HW124770   2.155   1.738   0.518
 7957SOL    HW224771   2.050   1.618   0.553
 7958SOL     OW24772   3.583   5.500   4.091
 7958SOL    HW124773   3.615   5.567   4.025
 7958SOL    HW224774   3.641   5.418   4.086
 7959SOL     OW24775   4.164   5.220   0.531
 7959SOL    HW124776   4.133   5.305   0.574
 7959SOL    HW224777   4.104   5.145   0.559
 7960SOL     OW24778   3.611   1.930   1.006
 7960SOL    HW124779   3.535   1.928   1.072
 7960SOL    HW224780   3.593   1.865   0.932
 7961SOL     OW24781   2.231   6.189   6.369
 7961SOL    HW124782   2.317   6.163   6.324
 7961SOL    HW224783   2.159   6.124   6.344
 7962SOL     OW24784   2.218   0.592   0.444
 7962SOL    HW124785   2.175   0.523   0.501
 7962SOL    HW224786   2.174   0.593   0.354
 7963SOL     OW24787   6.833   1.448   4.417
 7963SOL    HW124788   6.868   1.358   4.391
 7963SOL    HW224789   6.909   1.509   4.437
 7964SOL     OW24790   6.034   5.359   3.744
 7964SOL    HW124791   6.064   5.272   3.783
 7964SOL    HW224792   6.103   5.429   3.762
 7965SOL     OW24793   4.107   3.241   0.093
 7965SOL    HW124794   4.012   3.232   0.065
 7965SOL    HW224795   4.122   3.191   0.179
 7966SOL     OW24796   1.010   3.563   4.694
 7966SOL    HW124797   0.952   3.485   4.672
 7966SOL    HW224798   1.011   3.577   4.793
 7967SOL     OW24799   3.331   6.565   4.121
 7967SOL    HW124800   3.265   6.492   4.100
 7967SOL    HW224801   3.367   6.552   4.213
 7968SOL     OW24802   2.258   2.993   3.320
 7968SOL    HW124803   2.188   3.059   3.346
 7968SOL    HW224804   2.247   2.909   3.374
 7969SOL     OW24805   4.339   0.126   2.117
 7969SOL    HW124806   4.304   0.220   2.117
 7969SOL    HW224807   4.291   0.073   2.047
 7970SOL     OW24808   0.238   4.044   2.567
 7970SOL    HW124809   0.282   4.100   2.637
 7970SOL    HW224810   0.307   3.987   2.522
 7971SOL     OW24811   3.183   1.231   1.706
 7971SOL    HW124812   3.118   1.170   1.751
 7971SOL    HW224813   3.154   1.326   1.718
 7972SOL     OW24814   6.792   4.045   1.152
 7972SOL    HW124815   6.875   4.099   1.144
 7972SOL    HW224816   6.790   3.975   1.080
 7973SOL     OW24817   5.143   3.168   3.126
 7973SOL    HW124818   5.094   3.242   3.170
 7973SOL    HW224819   5.167   3.195   3.032
 7974SOL     OW24820   5.992   0.397   4.368
 7974SOL    HW124821   6.019   0.468   4.303
 7974SOL    HW224822   5.945   0.439   4.446
 7975SOL     OW24823   5.423   0.339   3.987
 7975SOL    HW124824   5.354   0.403   4.022
 7975SOL    HW224825   5.473   0.382   3.912
 7976SOL     OW24826   0.258   6.783   5.650
 7976SOL    HW124827   0.278   6.765   5.553
 7976SOL    HW224828   0.159   6.788   5.664
 7977SOL     OW24829   4.411   5.918   2.450
 7977SOL    HW124830   4.458   5.858   2.515
 7977SOL    HW224831   4.378   5.999   2.498
 7978SOL     OW24832   6.106   4.422   6.008
 7978SOL    HW124833   6.186   4.470   6.044
 7978SOL    HW224834   6.086   4.342   6.066
 7979SOL     OW24835   2.670   0.365   4.839
 7979SOL    HW124836   2.720   0.300   4.896
 7979SOL    HW224837   2.733   0.433   4.803
 7980SOL     OW24838   3.940   5.291   0.160
 7980SOL    HW124839   3.983   5.211   0.201
 7980SOL    HW224840   4.005   5.367   0.159
 7981SOL     OW24841   1.029   5.751   1.777
 7981SOL    HW124842   1.045   5.706   1.689
 7981SOL    HW224843   0.936   5.787   1.779
 7982SOL     OW24844   6.608   1.901   0.715
 7982SOL    HW124845   6.519   1.938   0.742
 7982SOL    HW224846   6.598   1.804   0.693
 7983SOL     OW24847   5.161   1.812   3.155
 7983SOL    HW124848   5.110   1.738   3.199
 7983SOL    HW224849   5.211   1.864   3.224
 7984SOL     OW24850   1.554   1.656   1.598
 7984SOL    HW124851   1.518   1.735   1.649
 7984SOL    HW224852   1.538   1.670   1.500
 7985SOL     OW24853   1.998   6.920   2.969
 7985SOL    HW124854   2.072   6.987   2.962
 7985SOL    HW224855   1.915   6.958   2.927
 7986SOL     OW24856   3.337   1.432   6.966
 7986SOL    HW124857   3.270   1.501   6.994
 7986SOL    HW224858   3.289   1.351   6.934
 7987SOL     OW24859   0.491   3.516   6.307
 7987SOL    HW124860   0.520   3.510   6.212
 7987SOL    HW224861   0.391   3.529   6.311
 7988SOL     OW24862   2.487   2.600   4.648
 7988SOL    HW124863   2.536   2.528   4.698
 7988SOL    HW224864   2.467   2.568   4.555
 7989SOL     OW24865   3.526   2.764   5.294
 7989SOL    HW124866   3.575   2.683   5.328
 7989SOL    HW224867   3.428   2.753   5.310
 7990SOL     OW24868   0.365   3.619   2.993
 7990SOL    HW124869   0.333   3.547   3.055
 7990SOL    HW224870   0.312   3.616   2.909
 7991SOL     OW24871   6.554   2.255   5.445
 7991SOL    HW124872   6.552   2.177   5.507
 7991SOL    HW224873   6.615   2.326   5.481
 7992SOL     OW24874   1.291   6.623   0.835
 7992SOL    HW124875   1.366   6.672   0.880
 7992SOL    HW224876   1.269   6.669   0.749
 7993SOL     OW24877   2.005   5.936   6.612
 7993SOL    HW124878   1.987   6.014   6.553
 7993SOL    HW224879   1.921   5.910   6.660
 7994SOL     OW24880   4.636   0.435   3.753
 7994SOL    HW124881   4.639   0.487   3.667
 7994SOL    HW224882   4.668   0.494   3.828
 7995SOL     OW24883   3.976   5.056   3.340
 7995SOL    HW124884   3.985   5.010   3.252
 7995SOL    HW224885   3.912   5.005   3.397
 7996SOL     OW24886   3.325   6.227   4.431
 7996SOL    HW124887   3.318   6.216   4.332
 7996SOL    HW224888   3.394   6.296   4.452
 7997SOL     OW24889   6.585   1.914   1.385
 7997SOL    HW124890   6.636   1.987   1.339
 7997SOL    HW224891   6.613   1.825   1.349
 7998SOL     OW24892   4.397   5.287   0.687
 7998SOL    HW124893   4.347   5.286   0.600
 7998SOL    HW224894   4.470   5.355   0.684
 7999SOL     OW24895   1.182   0.386   6.050
 7999SOL    HW124896   1.273   0.355   6.021
 7999SOL    HW224897   1.168   0.481   6.020
 8000SOL     OW24898   5.731   0.084   6.440
 8000SOL    HW124899   5.809   0.077   6.377
 8000SOL    HW224900   5.648   0.056   6.392
 8001SOL     OW24901   3.021   5.880   2.018
 8001SOL    HW124902   2.980   5.867   1.928
 8001SOL    HW224903   2.978   5.819   2.084
 8002SOL     OW24904   0.770   3.026   5.802
 8002SOL    HW124905   0.817   3.079   5.872
 8002SOL    HW224906   0.819   2.940   5.786
 8003SOL     OW24907   2.824   4.719   2.519
 8003SOL    HW124908   2.890   4.783   2.480
 8003SOL    HW224909   2.844   4.706   2.617
 8004SOL     OW24910   1.628   4.696   3.256
 8004SOL    HW124911   1.683   4.614   3.271
 8004SOL    HW224912   1.535   4.670   3.230
 8005SOL     OW24913   3.475   1.620   2.339
 8005SOL    HW124914   3.458   1.525   2.314
 8005SOL    HW224915   3.437   1.638   2.430
 8006SOL     OW24916   2.529   6.189   0.797
 8006SOL    HW124917   2.543   6.125   0.721
 8006SOL    HW224918   2.485   6.140   0.873
 8007SOL     OW24919   0.489   0.294   3.970
 8007SOL    HW124920   0.449   0.202   3.962
 8007SOL    HW224921   0.585   0.286   3.995
 8008SOL     OW24922   4.448   6.503   6.017
 8008SOL    HW124923   4.402   6.527   6.102
 8008SOL    HW224924   4.479   6.586   5.970
 8009SOL     OW24925   6.125   0.108   2.774
 8009SOL    HW124926   6.193   0.039   2.751
 8009SOL    HW224927   6.091   0.151   2.690
 8010SOL     OW24928   2.275   1.550   0.022
 8010SOL    HW124929   2.331   1.632   0.034
 8010SOL    HW224930   2.192   1.574   6.995
 8011SOL     OW24931   1.958   2.633   1.487
 8011SOL    HW124932   1.991   2.544   1.518
 8011SOL    HW224933   2.014   2.664   1.411
 8012SOL     OW24934   1.415   5.942   1.519
 8012SOL    HW124935   1.394   5.847   1.544
 8012SOL    HW224936   1.404   5.954   1.421
 8013SOL     OW24937   0.390   5.345   4.512
 8013SOL    HW124938   0.395   5.369   4.609
 8013SOL    HW224939   0.307   5.292   4.495
 8014SOL     OW24940   1.499   6.522   5.399
 8014SOL    HW124941   1.586   6.521   5.352
 8014SOL    HW224942   1.494   6.444   5.463
 8015SOL     OW24943   3.004   1.482   0.561
 8015SOL    HW124944   2.941   1.559   0.570
 8015SOL    HW224945   2.976   1.409   0.623
 8016SOL     OW24946   4.299   0.036   6.742
 8016SOL    HW124947   4.315   6.992   6.814
 8016SOL    HW224948   4.288   7.012   6.654
 8017SOL     OW24949   0.170   4.688   5.810
 8017SOL    HW124950   0.228   4.703   5.730
 8017SOL    HW224951   0.090   4.634   5.784
 8018SOL     OW24952   5.075   2.282   5.966
 8018SOL    HW124953   5.128   2.363   5.939
 8018SOL    HW224954   4.981   2.308   5.984
 8019SOL     OW24955   2.042   3.750   0.014
 8019SOL    HW124956   1.992   3.753   0.100
 8019SOL    HW224957   2.052   3.654   7.008
 8020SOL     OW24958   5.655   6.826   0.370
 8020SOL    HW124959   5.654   6.804   0.468
 8020SOL    HW224960   5.687   6.920   0.358
 8021SOL     OW24961   1.551   1.764   1.972
 8021SOL    HW124962   1.528   1.799   1.881
 8021SOL    HW224963   1.635   1.807   2.005
 8022SOL     OW24964   4.109   1.190   2.910
 8022SOL    HW124965   4.166   1.108   2.909
 8022SOL    HW224966   4.014   1.164   2.927
 8023SOL     OW24967   5.992   6.287   3.556
 8023SOL    HW124968   5.961   6.231   3.633
 8023SOL    HW224969   5.947   6.257   3.472
 8024SOL     OW24970   3.090   4.986   0.323
 8024SOL    HW124971   3.166   4.999   0.260
 8024SOL    HW224972   3.126   4.972   0.416
 8025SOL     OW24973   3.600   6.265   5.788
 8025SOL    HW124974   3.613   6.287   5.691
 8025SOL    HW224975   3.572   6.170   5.798
 8026SOL     OW24976   0.577   3.752   6.729
 8026SOL    HW124977   0.530   3.752   6.641
 8026SOL    HW224978   0.676   3.749   6.714
 8027SOL     OW24979   4.641   2.026   5.330
 8027SOL    HW124980   4.575   2.039   5.256
 8027SOL    HW224981   4.732   2.054   5.300
 8028SOL     OW24982   3.899   4.635   5.877
 8028SOL    HW124983   3.816   4.591   5.842
 8028SOL    HW224984   3.959   4.658   5.801
 8029SOL     OW24985   5.574   3.845   6.529
 8029SOL    HW124986   5.652   3.875   6.475
 8029SOL    HW224987   5.548   3.752   6.501
 8030SOL     OW24988   5.819   3.961   5.798
 8030SOL    HW124989   5.740   4.020   5.781
 8030SOL    HW224990   5.854   3.927   5.711
 8031SOL     OW24991   5.234   5.961   2.461
 8031SOL    HW124992   5.285   5.918   2.536
 8031SOL    HW224993   5.212   5.892   2.392
 8032SOL     OW24994   6.003   4.132   5.235
 8032SOL    HW124995   6.080   4.190   5.208
 8032SOL    HW224996   6.008   4.045   5.186
 8033SOL     OW24997   5.162   3.194   6.909
 8033SOL    HW124998   5.070   3.172   6.876
 8033SOL    HW224999   5.181   3.141   6.991
 8034SOL     OW25000   6.347   1.181   5.093
 8034SOL    HW125001   6.411   1.200   5.168
 8034SOL    HW225002   6.346   1.259   5.030
 8035SOL     OW25003   4.873   0.025   5.186
 8035SOL    HW125004   4.793   6.994   5.213
 8035SOL    HW225005   4.866   0.047   5.089
 8036SOL     OW25006   1.418   3.500   1.750
 8036SOL    HW125007   1.321   3.501   1.772
 8036SOL    HW225008   1.442   3.411   1.710
 8037SOL     OW25009   1.519   3.242   1.705
 8037SOL    HW125010   1.497   3.148   1.732
 8037SOL    HW225011   1.617   3.257   1.714
 8038SOL     OW25012   5.115   1.918   2.826
 8038SOL    HW125013   5.203   1.875   2.809
 8038SOL    HW225014   5.102   1.930   2.924
 8039SOL     OW25015   1.651   0.034   3.456
 8039SOL    HW125016   1.736   0.065   3.501
 8039SOL    HW225017   1.665   0.033   3.357
 8040SOL     OW25018   1.042   5.711   0.741
 8040SOL    HW125019   1.064   5.781   0.673
 8040SOL    HW225020   1.081   5.737   0.830
 8041SOL     OW25021   3.682   1.811   2.285
 8041SOL    HW125022   3.662   1.907   2.268
 8041SOL    HW225023   3.597   1.761   2.301
 8042SOL     OW25024   3.416   2.803   2.002
 8042SOL    HW125025   3.368   2.819   2.089
 8042SOL    HW225026   3.470   2.884   1.979
 8043SOL     OW25027   3.071   6.961   0.500
 8043SOL    HW125028   3.112   6.898   0.565
 8043SOL    HW225029   3.141   6.997   0.439
 8044SOL     OW25030   3.269   3.105   1.387
 8044SOL    HW125031   3.319   3.136   1.307
 8044SOL    HW225032   3.198   3.040   1.359
 8045SOL     OW25033   5.365   1.552   1.838
 8045SOL    HW125034   5.361   1.623   1.767
 8045SOL    HW225035   5.329   1.467   1.801
 8046SOL     OW25036   6.115   4.420   6.409
 8046SOL    HW125037   6.054   4.391   6.482
 8046SOL    HW225038   6.081   4.504   6.367
 8047SOL     OW25039   3.397   5.017   4.937
 8047SOL    HW125040   3.491   4.989   4.957
 8047SOL    HW225041   3.356   5.058   5.018
 8048SOL     OW25042   5.565   1.378   5.030
 8048SOL    HW125043   5.537   1.421   4.944
 8048SOL    HW225044   5.664   1.377   5.036
 8049SOL     OW25045   1.232   6.823   1.734
 8049SOL    HW125046   1.169   6.823   1.812
 8049SOL    HW225047   1.326   6.819   1.768
 8050SOL     OW25048   1.084   4.057   1.098
 8050SOL    HW125049   1.061   4.132   1.036
 8050SOL    HW225050   1.059   4.082   1.191
 8051SOL     OW25051   5.119   0.350   3.631
 8051SOL    HW125052   5.025   0.384   3.618
 8051SOL    HW225053   5.122   0.296   3.715
 8052SOL     OW25054   3.212   1.573   2.221
 8052SOL    HW125055   3.262   1.497   2.179
 8052SOL    HW225056   3.273   1.623   2.283
 8053SOL     OW25057   3.702   3.405   2.988
 8053SOL    HW125058   3.756   3.402   3.073
 8053SOL    HW225059   3.665   3.496   2.975
 8054SOL     OW25060   5.132   6.426   4.526
 8054SOL    HW125061   5.083   6.497   4.477
 8054SOL    HW225062   5.120   6.438   4.625
 8055SOL     OW25063   0.968   0.617   5.823
 8055SOL    HW125064   1.051   0.581   5.780
 8055SOL    HW225065   0.941   0.702   5.777
 8056SOL     OW25066   4.775   0.999   3.322
 8056SOL    HW125067   4.774   1.096   3.349
 8056SOL    HW225068   4.844   0.951   3.375
 8057SOL     OW25069   2.592   1.038   2.571
 8057SOL    HW125070   2.688   1.064   2.585
 8057SOL    HW225071   2.539   1.060   2.653
 8058SOL     OW25072   3.639   0.191   3.039
 8058SOL    HW125073   3.610   0.151   3.126
 8058SOL    HW225074   3.583   0.273   3.021
 8059SOL     OW25075   3.660   2.061   4.888
 8059SOL    HW125076   3.727   2.102   4.826
 8059SOL    HW225077   3.688   1.968   4.910
 8060SOL     OW25078   0.326   1.223   4.570
 8060SOL    HW125079   0.320   1.164   4.490
 8060SOL    HW225080   0.351   1.316   4.543
 8061SOL     OW25081   6.700   6.047   2.164
 8061SOL    HW125082   6.702   5.947   2.162
 8061SOL    HW225083   6.636   6.078   2.235
 8062SOL     OW25084   2.347   4.441   3.740
 8062SOL    HW125085   2.419   4.453   3.671
 8062SOL    HW225086   2.331   4.344   3.755
 8063SOL     OW25087   1.935   3.780   0.280
 8063SOL    HW125088   1.960   3.834   0.361
 8063SOL    HW225089   1.848   3.814   0.243
 8064SOL     OW25090   0.486   5.029   0.388
 8064SOL    HW125091   0.434   5.015   0.472
 8064SOL    HW225092   0.451   4.968   0.317
 8065SOL     OW25093   4.109   6.614   3.676
 8065SOL    HW125094   4.051   6.543   3.637
 8065SOL    HW225095   4.113   6.604   3.775
 8066SOL     OW25096   1.201   1.274   6.478
 8066SOL    HW125097   1.288   1.236   6.447
 8066SOL    HW225098   1.132   1.201   6.480
 8067SOL     OW25099   4.267   3.366   1.325
 8067SOL    HW125100   4.179   3.374   1.373
 8067SOL    HW225101   4.266   3.284   1.268
 8068SOL     OW25102   6.267   5.594   5.464
 8068SOL    HW125103   6.189   5.651   5.488
 8068SOL    HW225104   6.345   5.651   5.439
 8069SOL     OW25105   2.304   6.177   1.528
 8069SOL    HW125106   2.214   6.187   1.484
 8069SOL    HW225107   2.369   6.140   1.462
 8070SOL     OW25108   2.825   4.448   0.753
 8070SOL    HW125109   2.840   4.366   0.699
 8070SOL    HW225110   2.904   4.465   0.811
 8071SOL     OW25111   3.915   6.359   5.246
 8071SOL    HW125112   3.854   6.428   5.285
 8071SOL    HW225113   4.010   6.385   5.263
 8072SOL     OW25114   3.424   1.432   0.208
 8072SOL    HW125115   3.340   1.447   0.260
 8072SOL    HW225116   3.405   1.440   0.110
 8073SOL     OW25117   5.074   0.038   6.678
 8073SOL    HW125118   5.097   0.076   6.588
 8073SOL    HW225119   5.159   0.015   6.726
 8074SOL     OW25120   3.318   2.747   0.041
 8074SOL    HW125121   3.409   2.788   0.052
 8074SOL    HW225122   3.288   2.756   6.969
 8075SOL     OW25123   6.587   1.487   1.615
 8075SOL    HW125124   6.532   1.542   1.553
 8075SOL    HW225125   6.587   1.528   1.706
 8076SOL     OW25126   4.533   2.589   5.875
 8076SOL    HW125127   4.485   2.672   5.904
 8076SOL    HW225128   4.483   2.509   5.907
 8077SOL     OW25129   0.559   0.054   1.950
 8077SOL    HW125130   0.581   0.092   2.040
 8077SOL    HW225131   0.575   6.978   1.951
 8078SOL     OW25132   6.117   1.952   0.617
 8078SOL    HW125133   6.022   1.972   0.593
 8078SOL    HW225134   6.142   1.863   0.580
 8079SOL     OW25135   5.520   1.852   3.377
 8079SOL    HW125136   5.442   1.909   3.349
 8079SOL    HW225137   5.580   1.904   3.438
 8080SOL     OW25138   1.794   3.704   0.558
 8080SOL    HW125139   1.855   3.642   0.510
 8080SOL    HW225140   1.721   3.733   0.496
 8081SOL     OW25141   5.783   0.702   5.298
 8081SOL    HW125142   5.840   0.783   5.311
 8081SOL    HW225143   5.781   0.678   5.201
 8082SOL     OW25144   5.604   2.042   2.878
 8082SOL    HW125145   5.590   2.020   2.782
 8082SOL    HW225146   5.517   2.070   2.919
 8083SOL     OW25147   5.069   2.879   2.036
 8083SOL    HW125148   4.981   2.901   2.077
 8083SOL    HW225149   5.113   2.963   2.004
 8084SOL     OW25150   6.011   6.322   1.332
 8084SOL    HW125151   6.036   6.249   1.396
 8084SOL    HW225152   6.093   6.353   1.283
 8085SOL     OW25153   5.617   0.197   1.946
 8085SOL    HW125154   5.650   0.119   1.893
 8085SOL    HW225155   5.677   0.276   1.931
 8086SOL     OW25156   3.971   0.397   4.100
 8086SOL    HW125157   3.991   0.304   4.070
 8086SOL    HW225158   4.023   0.462   4.044
 8087SOL     OW25159   2.202   1.568   0.944
 8087SOL    HW125160   2.172   1.566   1.040
 8087SOL    HW225161   2.144   1.506   0.890
 8088SOL     OW25162   6.462   1.782   2.014
 8088SOL    HW125163   6.381   1.840   2.006
 8088SOL    HW225164   6.525   1.822   2.080
 8089SOL     OW25165   5.108   2.165   6.750
 8089SOL    HW125166   5.180   2.106   6.713
 8089SOL    HW225167   5.020   2.118   6.745
 8090SOL     OW25168   4.959   2.207   6.224
 8090SOL    HW125169   5.016   2.218   6.142
 8090SOL    HW225170   4.933   2.297   6.258
 8091SOL     OW25171   3.207   3.831   6.871
 8091SOL    HW125172   3.193   3.754   6.809
 8091SOL    HW225173   3.118   3.866   6.901
 8092SOL     OW25174   1.524   1.416   4.787
 8092SOL    HW125175   1.573   1.490   4.831
 8092SOL    HW225176   1.488   1.447   4.698
 8093SOL     OW25177   6.232   6.304   1.175
 8093SOL    HW125178   6.181   6.377   1.129
 8093SOL    HW225179   6.330   6.318   1.161
 8094SOL     OW25180   1.925   4.438   5.296
 8094SOL    HW125181   1.846   4.494   5.269
 8094SOL    HW225182   1.989   4.493   5.349
 8095SOL     OW25183   6.029   3.538   3.871
 8095SOL    HW125184   6.083   3.470   3.921
 8095SOL    HW225185   5.936   3.540   3.908
 8096SOL     OW25186   2.578   5.846   3.394
 8096SOL    HW125187   2.601   5.898   3.476
 8096SOL    HW225188   2.588   5.903   3.313
 8097SOL     OW25189   5.180   0.984   3.847
 8097SOL    HW125190   5.150   1.035   3.766
 8097SOL    HW225191   5.270   0.943   3.828
 8098SOL     OW25192   2.566   6.522   4.485
 8098SOL    HW125193   2.535   6.617   4.482
 8098SOL    HW225194   2.651   6.513   4.433
 8099SOL     OW25195   6.308   0.595   3.998
 8099SOL    HW125196   6.270   0.637   3.916
 8099SOL    HW225197   6.296   0.496   3.993
 8100SOL     OW25198   0.282   7.020   0.347
 8100SOL    HW125199   0.286   6.923   0.370
 8100SOL    HW225200   0.189   0.020   0.317
 8101SOL     OW25201   1.704   0.111   4.542
 8101SOL    HW125202   1.766   0.185   4.568
 8101SOL    HW225203   1.730   0.076   4.451
 8102SOL     OW25204   1.618   5.322   6.924
 8102SOL    HW125205   1.711   5.358   6.921
 8102SOL    HW225206   1.565   5.363   6.849
 8103SOL     OW25207   4.063   1.292   1.470
 8103SOL    HW125208   4.079   1.236   1.389
 8103SOL    HW225209   3.975   1.268   1.511
 8104SOL     OW25210   3.391   6.657   6.422
 8104SOL    HW125211   3.357   6.738   6.469
 8104SOL    HW225212   3.487   6.641   6.448
 8105SOL     OW25213   2.435   2.278   3.377
 8105SOL    HW125214   2.391   2.211   3.437
 8105SOL    HW225215   2.396   2.271   3.285
 8106SOL     OW25216   1.513   5.490   3.346
 8106SOL    HW125217   1.547   5.583   3.363
 8106SOL    HW225218   1.453   5.462   3.421
 8107SOL     OW25219   1.884   6.203   5.588
 8107SOL    HW125220   1.929   6.168   5.506
 8107SOL    HW225221   1.874   6.303   5.580
 8108SOL     OW25222   6.585   2.961   4.723
 8108SOL    HW125223   6.585   2.941   4.821
 8108SOL    HW225224   6.554   3.054   4.707
 8109SOL     OW25225   1.963   4.234   4.799
 8109SOL    HW125226   1.935   4.208   4.891
 8109SOL    HW225227   1.984   4.152   4.746
 8110SOL     OW25228   3.447   6.554   0.480
 8110SOL    HW125229   3.450   6.527   0.384
 8110SOL    HW225230   3.407   6.479   0.534
 8111SOL     OW25231   2.840   0.140   5.525
 8111SOL    HW125232   2.741   0.135   5.528
 8111SOL    HW225233   2.872   0.215   5.584
 8112SOL     OW25234   2.444   1.009   5.154
 8112SOL    HW125235   2.421   0.916   5.185
 8112SOL    HW225236   2.490   1.058   5.228
 8113SOL     OW25237   3.095   2.661   0.204
 8113SOL    HW125238   3.159   2.708   0.144
 8113SOL    HW225239   3.032   2.606   0.149
 8114SOL     OW25240   2.272   2.704   2.246
 8114SOL    HW125241   2.240   2.798   2.229
 8114SOL    HW225242   2.196   2.648   2.279
 8115SOL     OW25243   3.594   1.210   1.525
 8115SOL    HW125244   3.549   1.161   1.600
 8115SOL    HW225245   3.527   1.226   1.452
 8116SOL     OW25246   5.110   0.158   4.983
 8116SOL    HW125247   5.210   0.161   4.984
 8116SOL    HW225248   5.080   0.065   4.963
 8117SOL     OW25249   1.731   2.013   3.520
 8117SOL    HW125250   1.731   2.082   3.591
 8117SOL    HW225251   1.656   1.948   3.536
 8118SOL     OW25252   0.649   3.837   5.740
 8118SOL    HW125253   0.703   3.781   5.677
 8118SOL    HW225254   0.612   3.916   5.691
 8119SOL     OW25255   0.362   5.978   4.199
 8119SOL    HW125256   0.352   6.046   4.126
 8119SOL    HW225257   0.353   5.886   4.160
 8120SOL     OW25258   3.908   3.939   6.819
 8120SOL    HW125259   3.821   3.913   6.777
 8120SOL    HW225260   3.951   4.011   6.764
 8121SOL     OW25261   0.022   6.267   3.243
 8121SOL    HW125262   0.013   6.178   3.196
 8121SOL    HW225263   0.002   6.256   3.340
 8122SOL     OW25264   0.068   5.065   2.392
 8122SOL    HW125265   0.039   5.010   2.470
 8122SOL    HW225266   0.052   5.014   2.307
 8123SOL     OW25267   0.597   0.336   6.612
 8123SOL    HW125268   0.565   0.252   6.569
 8123SOL    HW225269   0.577   0.414   6.553
 8124SOL     OW25270   0.967   6.718   1.646
 8124SOL    HW125271   1.036   6.788   1.627
 8124SOL    HW225272   0.901   6.753   1.712
 8125SOL     OW25273   6.369   5.178   3.251
 8125SOL    HW125274   6.336   5.084   3.249
 8125SOL    HW225275   6.323   5.231   3.179
 8126SOL     OW25276   6.194   4.978   2.046
 8126SOL    HW125277   6.206   4.880   2.061
 8126SOL    HW225278   6.208   5.026   2.133
 8127SOL     OW25279   2.387   5.577   0.665
 8127SOL    HW125280   2.482   5.581   0.698
 8127SOL    HW225281   2.369   5.658   0.608
 8128SOL     OW25282   3.476   2.470   6.743
 8128SOL    HW125283   3.381   2.497   6.761
 8128SOL    HW225284   3.505   2.404   6.813
 8129SOL     OW25285   5.134   1.045   6.494
 8129SOL    HW125286   5.107   1.033   6.398
 8129SOL    HW225287   5.220   0.996   6.511
 8130SOL     OW25288   0.934   5.470   6.040
 8130SOL    HW125289   1.017   5.525   6.056
 8130SOL    HW225290   0.931   5.443   5.944
 8131SOL     OW25291   3.010   1.184   0.109
 8131SOL    HW125292   3.059   1.266   0.081
 8131SOL    HW225293   2.911   1.202   0.108
 8132SOL     OW25294   5.448   5.874   5.919
 8132SOL    HW125295   5.388   5.917   5.851
 8132SOL    HW225296   5.530   5.840   5.873
 8133SOL     OW25297   3.275   4.943   3.108
 8133SOL    HW125298   3.248   5.039   3.113
 8133SOL    HW225299   3.358   4.935   3.051
 8134SOL     OW25300   2.153   1.628   4.152
 8134SOL    HW125301   2.148   1.717   4.105
 8134SOL    HW225302   2.155   1.555   4.084
 8135SOL     OW25303   3.187   4.984   1.936
 8135SOL    HW125304   3.206   4.896   1.891
 8135SOL    HW225305   3.121   5.035   1.881
 8136SOL     OW25306   4.336   5.033   2.890
 8136SOL    HW125307   4.250   5.068   2.927
 8136SOL    HW225308   4.358   5.081   2.805
 8137SOL     OW25309   2.236   2.984   4.213
 8137SOL    HW125310   2.224   2.920   4.137
 8137SOL    HW225311   2.252   3.076   4.177
 8138SOL     OW25312   5.958   1.949   2.016
 8138SOL    HW125313   5.990   1.858   2.043
 8138SOL    HW225314   5.879   1.974   2.072
 8139SOL     OW25315   0.876   2.964   3.627
 8139SOL    HW125316   0.965   2.974   3.673
 8139SOL    HW225317   0.803   2.984   3.692
 8140SOL     OW25318   3.902   7.017   0.296
 8140SOL    HW125319   3.879   0.019   0.202
 8140SOL    HW225320   3.846   0.048   0.360
 8141SOL     OW25321   5.020   0.510   5.196
 8141SOL    HW125322   4.960   0.531   5.273
 8141SOL    HW225323   5.082   0.436   5.220
 8142SOL     OW25324   2.131   5.883   0.319
 8142SOL    HW125325   2.165   5.919   0.406
 8142SOL    HW225326   2.208   5.849   0.265
 8143SOL     OW25327   5.121   5.246   1.573
 8143SOL    HW125328   5.174   5.303   1.636
 8143SOL    HW225329   5.064   5.305   1.515
 8144SOL     OW25330   0.143   5.945   5.583
 8144SOL    HW125331   0.221   5.885   5.563
 8144SOL    HW225332   0.165   6.002   5.661
 8145SOL     OW25333   4.831   5.402   0.282
 8145SOL    HW125334   4.796   5.450   0.362
 8145SOL    HW225335   4.786   5.312   0.274
 8146SOL     OW25336   6.196   0.608   5.127
 8146SOL    HW125337   6.259   0.549   5.179
 8146SOL    HW225338   6.194   0.578   5.032
 8147SOL     OW25339   0.417   0.404   0.371
 8147SOL    HW125340   0.411   0.376   0.275
 8147SOL    HW225341   0.489   0.352   0.416
 8148SOL     OW25342   4.109   4.221   6.753
 8148SOL    HW125343   4.019   4.242   6.791
 8148SOL    HW225344   4.098   4.173   6.665
 8149SOL     OW25345   1.840   6.543   4.578
 8149SOL    HW125346   1.771   6.612   4.601
 8149SOL    HW225347   1.810   6.491   4.498
 8150SOL     OW25348   0.699   3.185   0.833
 8150SOL    HW125349   0.645   3.101   0.828
 8150SOL    HW225350   0.796   3.162   0.828
 8151SOL     OW25351   6.255   5.769   3.833
 8151SOL    HW125352   6.160   5.799   3.832
 8151SOL    HW225353   6.313   5.841   3.795
 8152SOL     OW25354   4.557   2.194   2.830
 8152SOL    HW125355   4.626   2.164   2.896
 8152SOL    HW225356   4.593   2.185   2.737
 8153SOL     OW25357   0.877   0.909   3.422
 8153SOL    HW125358   0.821   0.853   3.481
 8153SOL    HW225359   0.822   0.985   3.386
 8154SOL     OW25360   2.997   1.756   3.083
 8154SOL    HW125361   3.091   1.791   3.084
 8154SOL    HW225362   2.974   1.718   3.173
 8155SOL     OW25363   1.305   3.776   2.482
 8155SOL    HW125364   1.225   3.718   2.470
 8155SOL    HW225365   1.318   3.832   2.400
 8156SOL     OW25366   5.766   6.192   1.304
 8156SOL    HW125367   5.703   6.268   1.314
 8156SOL    HW225368   5.801   6.190   1.210
 8157SOL     OW25369   5.940   3.514   6.259
 8157SOL    HW125370   5.870   3.530   6.329
 8157SOL    HW225371   5.967   3.601   6.218
 8158SOL     OW25372   5.716   4.858   6.163
 8158SOL    HW125373   5.780   4.800   6.112
 8158SOL    HW225374   5.686   4.933   6.105
 8159SOL     OW25375   3.748   6.555   5.794
 8159SOL    HW125376   3.675   6.535   5.858
 8159SOL    HW225377   3.780   6.471   5.750
 8160SOL     OW25378   4.942   0.887   3.523
 8160SOL    HW125379   4.922   0.814   3.588
 8160SOL    HW225380   5.037   0.881   3.493
 8161SOL     OW25381   5.557   3.801   0.138
 8161SOL    HW125382   5.558   3.729   0.207
 8161SOL    HW225383   5.480   3.786   0.076
 8162SOL     OW25384   0.656   5.028   6.995
 8162SOL    HW125385   0.557   5.020   6.979
 8162SOL    HW225386   0.672   5.092   0.047
 8163SOL     OW25387   3.919   5.198   5.376
 8163SOL    HW125388   3.965   5.234   5.457
 8163SOL    HW225389   3.921   5.267   5.303
 8164SOL     OW25390   4.266   0.534   6.847
 8164SOL    HW125391   4.183   0.588   6.861
 8164SOL    HW225392   4.262   0.452   6.904
 8165SOL     OW25393   6.469   3.748   6.346
 8165SOL    HW125394   6.507   3.716   6.259
 8165SOL    HW225395   6.513   3.700   6.422
 8166SOL     OW25396   1.916   2.087   4.010
 8166SOL    HW125397   2.013   2.060   4.015
 8166SOL    HW225398   1.872   2.036   3.936
 8167SOL     OW25399   6.654   1.202   3.521
 8167SOL    HW125400   6.673   1.207   3.423
 8167SOL    HW225401   6.595   1.279   3.548
 8168SOL     OW25402   2.663   0.416   1.202
 8168SOL    HW125403   2.672   0.509   1.165
 8168SOL    HW225404   2.671   0.419   1.302
 8169SOL     OW25405   4.224   1.635   0.636
 8169SOL    HW125406   4.241   1.650   0.734
 8169SOL    HW225407   4.293   1.683   0.582
 8170SOL     OW25408   6.488   4.535   1.766
 8170SOL    HW125409   6.487   4.438   1.739
 8170SOL    HW225410   6.506   4.542   1.864
 8171SOL     OW25411   1.629   0.926   6.529
 8171SOL    HW125412   1.667   0.926   6.622
 8171SOL    HW225413   1.612   0.832   6.500
 8172SOL     OW25414   0.247   2.324   2.167
 8172SOL    HW125415   0.231   2.336   2.069
 8172SOL    HW225416   0.344   2.336   2.187
 8173SOL     OW25417   5.582   2.370   2.780
 8173SOL    HW125418   5.546   2.401   2.692
 8173SOL    HW225419   5.507   2.362   2.846
 8174SOL     OW25420   1.173   6.476   2.446
 8174SOL    HW125421   1.094   6.526   2.480
 8174SOL    HW225422   1.246   6.477   2.515
 8175SOL     OW25423   0.298   2.807   4.078
 8175SOL    HW125424   0.382   2.835   4.030
 8175SOL    HW225425   0.246   2.744   4.019
 8176SOL     OW25426   1.760   4.453   1.468
 8176SOL    HW125427   1.673   4.451   1.420
 8176SOL    HW225428   1.835   4.463   1.402
 8177SOL     OW25429   3.420   0.618   2.702
 8177SOL    HW125430   3.423   0.647   2.606
 8177SOL    HW225431   3.508   0.635   2.745
 8178SOL     OW25432   3.062   6.417   1.210
 8178SOL    HW125433   3.116   6.472   1.146
 8178SOL    HW225434   3.070   6.320   1.186
 8179SOL     OW25435   6.215   0.737   4.214
 8179SOL    HW125436   6.276   0.809   4.247
 8179SOL    HW225437   6.267   0.672   4.159
 8180SOL     OW25438   6.346   0.432   6.896
 8180SOL    HW125439   6.289   0.498   6.944
 8180SOL    HW225440   6.368   0.466   6.805
 8181SOL     OW25441   0.726   1.179   0.971
 8181SOL    HW125442   0.649   1.208   0.914
 8181SOL    HW225443   0.701   1.095   1.020
 8182SOL     OW25444   3.830   3.621   5.073
 8182SOL    HW125445   3.815   3.598   4.977
 8182SOL    HW225446   3.767   3.695   5.100
 8183SOL     OW25447   6.662   1.443   5.211
 8183SOL    HW125448   6.633   1.493   5.129
 8183SOL    HW225449   6.590   1.379   5.238
 8184SOL     OW25450   0.902   0.106   0.169
 8184SOL    HW125451   0.846   0.157   0.234
 8184SOL    HW225452   0.888   0.008   0.181
 8185SOL     OW25453   2.108   0.365   0.529
 8185SOL    HW125454   2.038   0.322   0.472
 8185SOL    HW225455   2.181   0.298   0.547
 8186SOL     OW25456   2.488   4.104   5.629
 8186SOL    HW125457   2.479   4.125   5.532
 8186SOL    HW225458   2.463   4.009   5.645
 8187SOL     OW25459   2.657   1.870   5.074
 8187SOL    HW125460   2.712   1.910   5.001
 8187SOL    HW225461   2.564   1.853   5.041
 8188SOL     OW25462   4.411   1.756   3.871
 8188SOL    HW125463   4.379   1.799   3.955
 8188SOL    HW225464   4.419   1.657   3.885
 8189SOL     OW25465   5.650   5.535   2.811
 8189SOL    HW125466   5.683   5.549   2.904
 8189SOL    HW225467   5.655   5.622   2.761
 8190SOL     OW25468   5.247   4.098   3.541
 8190SOL    HW125469   5.165   4.047   3.566
 8190SOL    HW225470   5.315   4.036   3.501
 8191SOL     OW25471   4.364   5.460   2.315
 8191SOL    HW125472   4.342   5.512   2.398
 8191SOL    HW225473   4.289   5.469   2.250
 8192SOL     OW25474   2.033   5.190   1.933
 8192SOL    HW125475   2.061   5.109   1.985
 8192SOL    HW225476   1.975   5.163   1.857
 8193SOL     OW25477   6.706   5.634   4.349
 8193SOL    HW125478   6.769   5.637   4.272
 8193SOL    HW225479   6.672   5.727   4.368
 8194SOL     OW25480   4.272   0.671   1.049
 8194SOL    HW125481   4.367   0.655   1.077
 8194SOL    HW225482   4.258   0.633   0.958
 8195SOL     OW25483   5.937   0.061   4.039
 8195SOL    HW125484   5.900   6.995   4.066
 8195SOL    HW225485   5.918   0.129   4.110
 8196SOL     OW25486   5.426   0.456   6.931
 8196SOL    HW125487   5.370   0.410   6.862
 8196SOL    HW225488   5.522   0.452   6.903
 8197SOL     OW25489   4.604   1.885   1.433
 8197SOL    HW125490   4.562   1.911   1.346
 8197SOL    HW225491   4.652   1.965   1.471
 8198SOL     OW25492   2.644   0.205   2.356
 8198SOL    HW125493   2.690   0.291   2.377
 8198SOL    HW225494   2.711   0.133   2.343
 8199SOL     OW25495   4.849   3.391   5.740
 8199SOL    HW125496   4.876   3.301   5.704
 8199SOL    HW225497   4.764   3.420   5.696
 8200SOL     OW25498   5.961   4.367   2.153
 8200SOL    HW125499   5.945   4.371   2.252
 8200SOL    HW225500   5.992   4.275   2.128
 8201SOL     OW25501   0.042   1.273   5.063
 8201SOL    HW125502   0.108   1.198   5.060
 8201SOL    HW225503   0.079   1.348   5.118
 8202SOL     OW25504   6.913   5.993   2.709
 8202SOL    HW125505   6.954   5.952   2.627
 8202SOL    HW225506   6.962   6.077   2.733
 8203SOL     OW25507   1.761   2.092   0.110
 8203SOL    HW125508   1.721   2.180   0.135
 8203SOL    HW225509   1.776   2.089   0.011
 8204SOL     OW25510   3.970   3.868   0.597
 8204SOL    HW125511   3.936   3.956   0.564
 8204SOL    HW225512   4.062   3.880   0.635
 8205SOL     OW25513   0.122   3.170   0.115
 8205SOL    HW125514   0.121   3.118   0.030
 8205SOL    HW225515   0.066   3.123   0.184
 8206SOL     OW25516   4.990   1.010   0.221
 8206SOL    HW125517   4.918   1.070   0.185
 8206SOL    HW225518   4.949   0.940   0.280
 8207SOL     OW25519   3.573   3.819   4.431
 8207SOL    HW125520   3.612   3.776   4.350
 8207SOL    HW225521   3.483   3.779   4.450
 8208SOL     OW25522   1.117   0.942   0.841
 8208SOL    HW125523   1.085   1.005   0.912
 8208SOL    HW225524   1.045   0.929   0.773
 8209SOL     OW25525   6.962   0.847   4.910
 8209SOL    HW125526   6.994   0.831   5.004
 8209SOL    HW225527   6.891   0.917   4.910
 8210SOL     OW25528   1.912   2.633   0.513
 8210SOL    HW125529   1.874   2.541   0.518
 8210SOL    HW225530   2.004   2.629   0.475
 8211SOL     OW25531   3.596   3.799   1.350
 8211SOL    HW125532   3.667   3.763   1.290
 8211SOL    HW225533   3.630   3.801   1.444
 8212SOL     OW25534   1.448   2.673   3.102
 8212SOL    HW125535   1.466   2.586   3.057
 8212SOL    HW225536   1.473   2.748   3.040
 8213SOL     OW25537   6.942   5.370   1.227
 8213SOL    HW125538   6.957   5.271   1.223
 8213SOL    HW225539   6.954   5.402   1.321
 8214SOL     OW25540   6.170   4.404   3.919
 8214SOL    HW125541   6.091   4.350   3.947
 8214SOL    HW225542   6.248   4.382   3.976
 8215SOL     OW25543   3.214   5.980   5.255
 8215SOL    HW125544   3.148   6.039   5.208
 8215SOL    HW225545   3.219   6.006   5.352
 8216SOL     OW25546   5.805   5.968   4.117
 8216SOL    HW125547   5.747   5.934   4.191
 8216SOL    HW225548   5.767   5.940   4.029
 8217SOL     OW25549   2.237   4.722   7.019
 8217SOL    HW125550   2.325   4.674   7.013
 8217SOL    HW225551   2.241   4.790   0.070
 8218SOL     OW25552   0.556   1.203   6.910
 8218SOL    HW125553   0.607   1.128   6.952
 8218SOL    HW225554   0.607   1.288   6.921
 8219SOL     OW25555   5.083   1.336   0.087
 8219SOL    HW125556   5.023   1.290   0.153
 8219SOL    HW225557   5.101   1.429   0.117
 8220SOL     OW25558   3.803   3.389   3.284
 8220SOL    HW125559   3.744   3.462   3.317
 8220SOL    HW225560   3.863   3.359   3.358
 8221SOL     OW25561   4.545   6.102   4.632
 8221SOL    HW125562   4.585   6.095   4.541
 8221SOL    HW225563   4.448   6.075   4.628
 8222SOL     OW25564   5.103   1.591   2.190
 8222SOL    HW125565   5.044   1.564   2.113
 8222SOL    HW225566   5.060   1.666   2.239
 8223SOL     OW25567   1.592   3.458   6.020
 8223SOL    HW125568   1.590   3.510   5.934
 8223SOL    HW225569   1.566   3.363   6.002
 8224SOL     OW25570   0.582   2.459   2.852
 8224SOL    HW125571   0.564   2.504   2.940
 8224SOL    HW225572   0.668   2.493   2.814
 8225SOL     OW25573   3.381   0.747   6.895
 8225SOL    HW125574   3.399   0.692   6.977
 8225SOL    HW225575   3.372   0.843   6.921
 8226SOL     OW25576   4.519   0.159   2.757
 8226SOL    HW125577   4.435   0.149   2.703
 8226SOL    HW225578   4.505   0.229   2.827
 8227SOL     OW25579   6.940   2.727   3.602
 8227SOL    HW125580   6.849   2.754   3.635
 8227SOL    HW225581   6.933   2.639   3.555
 8228SOL     OW25582   0.262   2.589   5.495
 8228SOL    HW125583   0.350   2.612   5.538
 8228SOL    HW225584   0.231   2.500   5.527
 8229SOL     OW25585   3.622   4.240   0.520
 8229SOL    HW125586   3.586   4.288   0.600
 8229SOL    HW225587   3.557   4.246   0.445
 8230SOL     OW25588   4.437   6.956   5.320
 8230SOL    HW125589   4.339   6.954   5.301
 8230SOL    HW225590   4.459   0.015   5.372
 8231SOL     OW25591   3.881   5.488   0.794
 8231SOL    HW125592   3.805   5.540   0.755
 8231SOL    HW225593   3.859   5.461   0.888
 8232SOL     OW25594   4.916   1.430   0.511
 8232SOL    HW125595   5.000   1.375   0.505
 8232SOL    HW225596   4.902   1.459   0.606
 8233SOL     OW25597   0.439   6.252   6.125
 8233SOL    HW125598   0.480   6.162   6.113
 8233SOL    HW225599   0.475   6.294   6.209
 8234SOL     OW25600   2.946   3.845   6.984
 8234SOL    HW125601   2.928   3.812   0.054
 8234SOL    HW225602   2.860   3.850   6.934
 8235SOL     OW25603   1.628   3.612   0.340
 8235SOL    HW125604   1.628   3.687   0.274
 8235SOL    HW225605   1.660   3.529   0.295
 8236SOL     OW25606   0.010   4.061   0.168
 8236SOL    HW125607   0.056   4.115   0.239
 8236SOL    HW225608   6.967   3.999   0.210
 8237SOL     OW25609   5.125   5.914   4.463
 8237SOL    HW125610   5.111   5.953   4.372
 8237SOL    HW225611   5.190   5.838   4.457
 8238SOL     OW25612   1.655   5.131   0.498
 8238SOL    HW125613   1.572   5.145   0.553
 8238SOL    HW225614   1.734   5.127   0.558
 8239SOL     OW25615   6.514   1.252   5.337
 8239SOL    HW125616   6.450   1.227   5.410
 8239SOL    HW225617   6.580   1.178   5.324
 8240SOL     OW25618   3.320   3.873   2.949
 8240SOL    HW125619   3.389   3.938   2.981
 8240SOL    HW225620   3.232   3.920   2.940
 8241SOL     OW25621   3.723   6.874   0.109
 8241SOL    HW125622   3.686   6.914   0.025
 8241SOL    HW225623   3.686   6.923   0.188
 8242SOL     OW25624   1.302   4.437   5.909
 8242SOL    HW125625   1.250   4.440   5.995
 8242SOL    HW225626   1.255   4.491   5.839
 8243SOL     OW25627   1.077   3.090   0.407
 8243SOL    HW125628   1.157   3.044   0.368
 8243SOL    HW225629   1.086   3.189   0.395
 8244SOL     OW25630   1.018   0.068   3.632
 8244SOL    HW125631   1.106   0.115   3.644
 8244SOL    HW225632   0.951   0.108   3.695
 8245SOL     OW25633   3.774   1.454   3.067
 8245SOL    HW125634   3.779   1.534   3.126
 8245SOL    HW225635   3.715   1.473   2.988
 8246SOL     OW25636   0.087   3.145   5.452
 8246SOL    HW125637   0.126   3.061   5.416
 8246SOL    HW225638   0.136   3.172   5.535
 8247SOL     OW25639   1.108   0.280   2.309
 8247SOL    HW125640   1.084   0.200   2.255
 8247SOL    HW225641   1.026   0.319   2.350
 8248SOL     OW25642   5.807   5.524   3.708
 8248SOL    HW125643   5.814   5.539   3.609
 8248SOL    HW225644   5.882   5.466   3.738
 8249SOL     OW25645   2.305   3.116   5.665
 8249SOL    HW125646   2.404   3.119   5.676
 8249SOL    HW225647   2.282   3.105   5.568
 8250SOL     OW25648   3.284   4.093   2.451
 8250SOL    HW125649   3.303   4.103   2.549
 8250SOL    HW225650   3.371   4.092   2.401
 8251SOL     OW25651   5.883   3.018   4.298
 8251SOL    HW125652   5.814   2.991   4.231
 8251SOL    HW225653   5.857   2.983   4.388
 8252SOL     OW25654   3.264   2.825   6.315
 8252SOL    HW125655   3.292   2.767   6.239
 8252SOL    HW225656   3.259   2.920   6.284
 8253SOL     OW25657   4.083   4.398   5.326
 8253SOL    HW125658   4.164   4.412   5.269
 8253SOL    HW225659   4.018   4.339   5.277
 8254SOL     OW25660   4.697   4.731   4.651
 8254SOL    HW125661   4.764   4.802   4.670
 8254SOL    HW225662   4.616   4.772   4.609
 8255SOL     OW25663   3.028   6.202   5.182
 8255SOL    HW125664   2.975   6.193   5.266
 8255SOL    HW225665   3.065   6.295   5.176
 8256SOL     OW25666   6.458   1.000   2.002
 8256SOL    HW125667   6.379   0.995   2.063
 8256SOL    HW225668   6.440   0.947   1.920
 8257SOL     OW25669   6.380   4.014   3.838
 8257SOL    HW125670   6.462   4.071   3.828
 8257SOL    HW225671   6.333   4.007   3.751
 8258SOL     OW25672   5.298   0.965   0.600
 8258SOL    HW125673   5.211   0.974   0.648
 8258SOL    HW225674   5.293   1.016   0.514
 8259SOL     OW25675   4.616   1.848   3.436
 8259SOL    HW125676   4.704   1.874   3.475
 8259SOL    HW225677   4.630   1.776   3.367
 8260SOL     OW25678   2.682   0.064   2.086
 8260SOL    HW125679   2.741   0.136   2.126
 8260SOL    HW225680   2.700   7.000   2.133
 8261SOL     OW25681   6.763   1.316   2.245
 8261SOL    HW125682   6.712   1.353   2.168
 8261SOL    HW225683   6.836   1.379   2.271
 8262SOL     OW25684   0.777   2.995   0.487
 8262SOL    HW125685   0.697   2.936   0.476
 8262SOL    HW225686   0.859   2.943   0.462
 8263SOL     OW25687   1.089   2.594   0.468
 8263SOL    HW125688   1.162   2.579   0.402
 8263SOL    HW225689   1.006   2.547   0.438
 8264SOL     OW25690   2.409   6.215   2.426
 8264SOL    HW125691   2.321   6.262   2.421
 8264SOL    HW225692   2.403   6.129   2.376
 8265SOL     OW25693   0.837   0.004   1.201
 8265SOL    HW125694   0.859   0.089   1.152
 8265SOL    HW225695   0.743   0.010   1.236
 8266SOL     OW25696   2.046   1.257   3.853
 8266SOL    HW125697   2.087   1.165   3.857
 8266SOL    HW225698   2.104   1.321   3.903
 8267SOL     OW25699   1.699   3.144   1.142
 8267SOL    HW125700   1.707   3.155   1.241
 8267SOL    HW225701   1.780   3.096   1.107
 8268SOL     OW25702   2.448   6.282   5.639
 8268SOL    HW125703   2.389   6.343   5.691
 8268SOL    HW225704   2.405   6.192   5.632
 8269SOL     OW25705   5.206   1.574   1.485
 8269SOL    HW125706   5.239   1.491   1.531
 8269SOL    HW225707   5.117   1.557   1.444
 8270SOL     OW25708   2.956   6.658   5.103
 8270SOL    HW125709   2.898   6.650   5.021
 8270SOL    HW225710   3.008   6.574   5.116
 8271SOL     OW25711   0.080   0.809   2.706
 8271SOL    HW125712   0.056   0.720   2.746
 8271SOL    HW225713   7.019   0.860   2.687
 8272SOL     OW25714   4.999   1.759   1.380
 8272SOL    HW125715   5.045   1.809   1.453
 8272SOL    HW225716   4.973   1.668   1.411
 8273SOL     OW25717   2.035   6.260   0.877
 8273SOL    HW125718   2.018   6.162   0.874
 8273SOL    HW225719   1.949   6.310   0.869
 8274SOL     OW25720   4.812   4.601   3.146
 8274SOL    HW125721   4.832   4.530   3.213
 8274SOL    HW225722   4.721   4.640   3.165
 8275SOL     OW25723   4.984   1.771   5.635
 8275SOL    HW125724   5.031   1.749   5.721
 8275SOL    HW225725   4.897   1.817   5.655
 8276SOL     OW25726   1.383   2.765   3.610
 8276SOL    HW125727   1.290   2.768   3.646
 8276SOL    HW225728   1.399   2.844   3.551
 8277SOL     OW25729   6.621   0.796   0.292
 8277SOL    HW125730   6.580   0.827   0.378
 8277SOL    HW225731   6.719   0.781   0.305
 8278SOL     OW25732   2.855   2.040   5.480
 8278SOL    HW125733   2.878   1.947   5.509
 8278SOL    HW225734   2.819   2.038   5.387
 8279SOL     OW25735   1.539   0.392   4.063
 8279SOL    HW125736   1.469   0.445   4.110
 8279SOL    HW225737   1.626   0.401   4.111
 8280SOL     OW25738   2.307   2.525   0.570
 8280SOL    HW125739   2.393   2.569   0.545
 8280SOL    HW225740   2.246   2.524   0.491
 8281SOL     OW25741   2.194   4.881   1.373
 8281SOL    HW125742   2.161   4.845   1.460
 8281SOL    HW225743   2.263   4.820   1.334
 8282SOL     OW25744   5.097   3.816   0.478
 8282SOL    HW125745   5.020   3.869   0.443
 8282SOL    HW225746   5.159   3.792   0.403
 8283SOL     OW25747   2.258   5.276   0.214
 8283SOL    HW125748   2.273   5.306   0.120
 8283SOL    HW225749   2.294   5.345   0.277
 8284SOL     OW25750   1.036   3.759   0.471
 8284SOL    HW125751   1.001   3.686   0.529
 8284SOL    HW225752   1.100   3.720   0.403
 8285SOL     OW25753   3.389   2.954   4.802
 8285SOL    HW125754   3.459   2.966   4.731
 8285SOL    HW225755   3.432   2.955   4.892
 8286SOL     OW25756   5.504   3.225   6.583
 8286SOL    HW125757   5.518   3.316   6.544
 8286SOL    HW225758   5.412   3.193   6.559
 8287SOL     OW25759   1.981   5.509   4.226
 8287SOL    HW125760   1.905   5.574   4.222
 8287SOL    HW225761   2.033   5.514   4.141
 8288SOL     OW25762   2.880   1.427   1.605
 8288SOL    HW125763   2.953   1.452   1.669
 8288SOL    HW225764   2.904   1.457   1.513
 8289SOL     OW25765   0.729   5.987   1.533
 8289SOL    HW125766   0.697   6.047   1.606
 8289SOL    HW225767   0.667   5.992   1.455
 8290SOL     OW25768   5.961   0.754   1.148
 8290SOL    HW125769   5.975   0.733   1.051
 8290SOL    HW225770   6.027   0.824   1.177
 8291SOL     OW25771   5.401   6.336   5.887
 8291SOL    HW125772   5.474   6.397   5.920
 8291SOL    HW225773   5.426   6.241   5.907
 8292SOL     OW25774   2.584   6.299   0.148
 8292SOL    HW125775   2.674   6.290   0.106
 8292SOL    HW225776   2.519   6.334   0.080
 8293SOL     OW25777   3.247   6.729   6.773
 8293SOL    HW125778   3.309   6.700   6.845
 8293SOL    HW225779   3.200   6.650   6.734
 8294SOL     OW25780   5.794   4.493   5.050
 8294SOL    HW125781   5.718   4.542   5.093
 8294SOL    HW225782   5.759   4.411   5.004
 8295SOL     OW25783   4.808   5.814   1.571
 8295SOL    HW125784   4.872   5.891   1.573
 8295SOL    HW225785   4.846   5.742   1.513
 8296SOL     OW25786   2.515   6.528   6.495
 8296SOL    HW125787   2.534   6.624   6.475
 8296SOL    HW225788   2.420   6.507   6.475
 8297SOL     OW25789   6.512   2.739   2.175
 8297SOL    HW125790   6.608   2.727   2.197
 8297SOL    HW225791   6.459   2.664   2.215
 8298SOL     OW25792   5.717   2.417   1.236
 8298SOL    HW125793   5.768   2.337   1.268
 8298SOL    HW225794   5.764   2.500   1.264
 8299SOL     OW25795   0.170   2.664   1.797
 8299SOL    HW125796   0.074   2.689   1.787
 8299SOL    HW225797   0.227   2.746   1.794
 8300SOL     OW25798   0.496   6.209   5.195
 8300SOL    HW125799   0.557   6.225   5.272
 8300SOL    HW225800   0.406   6.179   5.229
 8301SOL     OW25801   4.244   1.672   1.807
 8301SOL    HW125802   4.220   1.582   1.771
 8301SOL    HW225803   4.211   1.743   1.745
 8302SOL     OW25804   6.011   6.372   6.493
 8302SOL    HW125805   6.071   6.373   6.573
 8302SOL    HW225806   6.048   6.431   6.422
 8303SOL     OW25807   6.650   1.072   4.063
 8303SOL    HW125808   6.564   1.039   4.024
 8303SOL    HW225809   6.724   1.055   3.998
 8304SOL     OW25810   1.186   3.659   0.804
 8304SOL    HW125811   1.220   3.709   0.884
 8304SOL    HW225812   1.089   3.680   0.791
 8305SOL     OW25813   4.187   4.780   4.412
 8305SOL    HW125814   4.181   4.740   4.321
 8305SOL    HW225815   4.097   4.816   4.439
 8306SOL     OW25816   6.583   2.875   5.243
 8306SOL    HW125817   6.540   2.924   5.319
 8306SOL    HW225818   6.674   2.843   5.271
 8307SOL     OW25819   4.117   5.178   1.727
 8307SOL    HW125820   4.081   5.129   1.807
 8307SOL    HW225821   4.100   5.123   1.645
 8308SOL     OW25822   3.808   5.469   1.099
 8308SOL    HW125823   3.735   5.430   1.156
 8308SOL    HW225824   3.831   5.560   1.133
 8309SOL     OW25825   6.229   5.712   3.327
 8309SOL    HW125826   6.285   5.764   3.391
 8309SOL    HW225827   6.262   5.728   3.234
 8310SOL     OW25828   1.079   4.445   0.556
 8310SOL    HW125829   1.138   4.403   0.625
 8310SOL    HW225830   0.984   4.431   0.581
 8311SOL     OW25831   0.463   1.150   4.848
 8311SOL    HW125832   0.381   1.124   4.899
 8311SOL    HW225833   0.439   1.168   4.753
 8312SOL     OW25834   4.227   6.605   0.830
 8312SOL    HW125835   4.226   6.593   0.929
 8312SOL    HW225836   4.148   6.558   0.790
 8313SOL     OW25837   5.048   1.124   2.727
 8313SOL    HW125838   4.996   1.047   2.691
 8313SOL    HW225839   5.133   1.090   2.768
 8314SOL     OW25840   4.547   0.088   1.006
 8314SOL    HW125841   4.469   0.054   0.953
 8314SOL    HW225842   4.557   0.034   1.089
 8315SOL     OW25843   3.882   3.439   0.766
 8315SOL    HW125844   3.948   3.415   0.837
 8315SOL    HW225845   3.854   3.357   0.717
 8316SOL     OW25846   1.023   2.217   1.837
 8316SOL    HW125847   1.023   2.313   1.866
 8316SOL    HW225848   1.094   2.167   1.886
 8317SOL     OW25849   2.259   2.413   2.678
 8317SOL    HW125850   2.183   2.389   2.617
 8317SOL    HW225851   2.231   2.398   2.773
 8318SOL     OW25852   4.575   0.920   5.201
 8318SOL    HW125853   4.631   0.940   5.120
 8318SOL    HW225854   4.545   1.005   5.242
 8319SOL     OW25855   2.892   1.443   6.338
 8319SOL    HW125856   2.802   1.413   6.307
 8319SOL    HW225857   2.937   1.496   6.266
 8320SOL     OW25858   3.281   3.637   1.725
 8320SOL    HW125859   3.351   3.634   1.796
 8320SOL    HW225860   3.258   3.732   1.705
 8321SOL     OW25861   6.906   1.011   0.409
 8321SOL    HW125862   6.940   1.054   0.325
 8321SOL    HW225863   6.856   1.079   0.463
 8322SOL     OW25864   0.109   0.858   0.749
 8322SOL    HW125865   0.120   0.936   0.686
 8322SOL    HW225866   0.179   0.790   0.730
 8323SOL     OW25867   5.732   5.818   2.728
 8323SOL    HW125868   5.789   5.894   2.697
 8323SOL    HW225869   5.689   5.774   2.650
 8324SOL     OW25870   5.628   1.292   1.770
 8324SOL    HW125871   5.552   1.237   1.804
 8324SOL    HW225872   5.604   1.331   1.681
 8325SOL     OW25873   3.206   3.510   5.280
 8325SOL    HW125874   3.287   3.538   5.331
 8325SOL    HW225875   3.234   3.467   5.194
 8326SOL     OW25876   4.751   3.364   5.323
 8326SOL    HW125877   4.723   3.447   5.275
 8326SOL    HW225878   4.851   3.359   5.324
 8327SOL     OW25879   6.247   1.964   6.212
 8327SOL    HW125880   6.331   1.969   6.265
 8327SOL    HW225881   6.218   1.868   6.204
 8328SOL     OW25882   2.562   4.375   5.679
 8328SOL    HW125883   2.641   4.376   5.617
 8328SOL    HW225884   2.534   4.281   5.695
 8329SOL     OW25885   0.221   3.597   6.432
 8329SOL    HW125886   0.277   3.659   6.486
 8329SOL    HW225887   0.148   3.648   6.387
 8330SOL     OW25888   2.986   0.108   0.117
 8330SOL    HW125889   3.066   0.167   0.133
 8330SOL    HW225890   2.971   0.100   0.019
 8331SOL     OW25891   2.642   1.247   0.951
 8331SOL    HW125892   2.542   1.246   0.949
 8331SOL    HW225893   2.674   1.179   1.016
 8332SOL     OW25894   4.979   4.781   2.499
 8332SOL    HW125895   5.067   4.819   2.527
 8332SOL    HW225896   4.974   4.685   2.527
 8333SOL     OW25897   0.447   6.424   6.642
 8333SOL    HW125898   0.355   6.450   6.614
 8333SOL    HW225899   0.445   6.335   6.687
 8334SOL     OW25900   4.600   1.343   3.955
 8334SOL    HW125901   4.560   1.284   3.885
 8334SOL    HW225902   4.683   1.386   3.920
 8335SOL     OW25903   6.516   5.316   6.400
 8335SOL    HW125904   6.532   5.412   6.424
 8335SOL    HW225905   6.490   5.311   6.303
 8336SOL     OW25906   6.348   6.835   2.788
 8336SOL    HW125907   6.378   6.930   2.779
 8336SOL    HW225908   6.314   6.819   2.881
 8337SOL     OW25909   0.769   6.397   3.261
 8337SOL    HW125910   0.754   6.488   3.222
 8337SOL    HW225911   0.818   6.340   3.195
 8338SOL     OW25912   2.296   4.864   1.736
 8338SOL    HW125913   2.355   4.786   1.755
 8338SOL    HW225914   2.207   4.831   1.705
 8339SOL     OW25915   5.778   0.436   1.842
 8339SOL    HW125916   5.720   0.402   1.768
 8339SOL    HW225917   5.862   0.382   1.845
 8340SOL     OW25918   5.233   3.948   1.487
 8340SOL    HW125919   5.266   3.949   1.392
 8340SOL    HW225920   5.140   3.984   1.490
 8341SOL     OW25921   1.966   6.760   6.904
 8341SOL    HW125922   2.038   6.740   6.838
 8341SOL    HW225923   1.976   6.855   6.935
 8342SOL     OW25924   3.608   0.306   1.522
 8342SOL    HW125925   3.640   0.235   1.585
 8342SOL    HW225926   3.521   0.277   1.481
 8343SOL     OW25927   0.986   4.712   5.897
 8343SOL    HW125928   1.035   4.639   5.849
 8343SOL    HW225929   0.971   4.789   5.836
 8344SOL     OW25930   4.514   0.549   5.148
 8344SOL    HW125931   4.433   0.490   5.147
 8344SOL    HW225932   4.497   0.629   5.091
 8345SOL     OW25933   5.075   1.792   3.527
 8345SOL    HW125934   5.153   1.749   3.481
 8345SOL    HW225935   5.041   1.732   3.599
 8346SOL     OW25936   2.654   4.362   0.174
 8346SOL    HW125937   2.717   4.434   0.201
 8346SOL    HW225938   2.612   4.385   0.087
 8347SOL     OW25939   3.889   5.558   4.686
 8347SOL    HW125940   3.940   5.472   4.676
 8347SOL    HW225941   3.820   5.564   4.614
 8348SOL     OW25942   1.033   0.086   2.140
 8348SOL    HW125943   1.120   0.113   2.098
 8348SOL    HW225944   1.034   7.011   2.158
 8349SOL     OW25945   6.338   6.177   1.627
 8349SOL    HW125946   6.375   6.122   1.702
 8349SOL    HW225947   6.321   6.119   1.548
 8350SOL     OW25948   4.863   0.935   4.774
 8350SOL    HW125949   4.954   0.965   4.800
 8350SOL    HW225950   4.860   0.920   4.675
 8351SOL     OW25951   4.734   5.324   4.312
 8351SOL    HW125952   4.757   5.374   4.229
 8351SOL    HW225953   4.818   5.296   4.359
 8352SOL     OW25954   6.739   6.206   2.897
 8352SOL    HW125955   6.816   6.256   2.936
 8352SOL    HW225956   6.772   6.123   2.851
 8353SOL     OW25957   6.619   3.290   1.533
 8353SOL    HW125958   6.585   3.356   1.467
 8353SOL    HW225959   6.541   3.246   1.578
 8354SOL     OW25960   3.799   0.295   6.818
 8354SOL    HW125961   3.863   0.322   6.889
 8354SOL    HW225962   3.823   0.204   6.784
 8355SOL     OW25963   2.848   0.365   6.969
 8355SOL    HW125964   2.882   0.286   6.918
 8355SOL    HW225965   2.818   0.436   6.905
 8356SOL     OW25966   1.803   6.455   0.820
 8356SOL    HW125967   1.768   6.459   0.913
 8356SOL    HW225968   1.783   6.365   0.781
 8357SOL     OW25969   3.863   0.162   6.121
 8357SOL    HW125970   3.830   0.228   6.189
 8357SOL    HW225971   3.963   0.164   6.119
 8358SOL     OW25972   0.980   3.511   5.693
 8358SOL    HW125973   1.055   3.473   5.639
 8358SOL    HW225974   0.929   3.576   5.638
 8359SOL     OW25975   3.065   6.120   4.529
 8359SOL    HW125976   3.160   6.126   4.498
 8359SOL    HW225977   3.016   6.053   4.474
 8360SOL     OW25978   3.641   6.009   1.104
 8360SOL    HW125979   3.731   6.004   1.059
 8360SOL    HW225980   3.622   6.103   1.130
 8361SOL     OW25981   2.297   0.342   2.799
 8361SOL    HW125982   2.362   0.315   2.728
 8361SOL    HW225983   2.215   0.382   2.758
 8362SOL     OW25984   3.061   1.680   0.830
 8362SOL    HW125985   3.009   1.765   0.840
 8362SOL    HW225986   3.001   1.602   0.849
 8363SOL     OW25987   0.589   2.761   0.513
 8363SOL    HW125988   0.541   2.756   0.425
 8363SOL    HW225989   0.576   2.675   0.563
 8364SOL     OW25990   6.383   3.164   2.645
 8364SOL    HW125991   6.400   3.111   2.562
 8364SOL    HW225992   6.465   3.216   2.670
 8365SOL     OW25993   1.715   4.412   1.955
 8365SOL    HW125994   1.810   4.401   1.926
 8365SOL    HW225995   1.681   4.325   1.990
 8366SOL     OW25996   3.187   5.406   2.148
 8366SOL    HW125997   3.206   5.309   2.160
 8366SOL    HW225998   3.237   5.440   2.068
 8367SOL     OW25999   3.895   6.086   4.020
 8367SOL    HW126000   3.920   5.989   4.026
 8367SOL    HW226001   3.951   6.139   4.084
 8368SOL     OW26002   2.305   6.767   5.688
 8368SOL    HW126003   2.317   6.862   5.714
 8368SOL    HW226004   2.302   6.760   5.588
 8369SOL     OW26005   1.715   6.616   6.872
 8369SOL    HW126006   1.686   6.596   6.778
 8369SOL    HW226007   1.794   6.677   6.871
 8370SOL     OW26008   2.605   2.183   5.541
 8370SOL    HW126009   2.629   2.116   5.471
 8370SOL    HW226010   2.671   2.177   5.616
 8371SOL     OW26011   1.705   4.128   1.336
 8371SOL    HW126012   1.715   4.038   1.294
 8371SOL    HW226013   1.624   4.129   1.395
 8372SOL     OW26014   0.535   5.725   2.103
 8372SOL    HW126015   0.554   5.775   2.187
 8372SOL    HW226016   0.621   5.690   2.066
 8373SOL     OW26017   1.297   0.577   4.148
 8373SOL    HW126018   1.254   0.641   4.211
 8373SOL    HW226019   1.344   0.627   4.075
 8374SOL     OW26020   6.660   0.837   6.134
 8374SOL    HW126021   6.694   0.920   6.179
 8374SOL    HW226022   6.702   0.757   6.177
 8375SOL     OW26023   3.299   7.013   6.162
 8375SOL    HW126024   3.208   0.031   6.165
 8375SOL    HW226025   3.364   0.051   6.207
 8376SOL     OW26026   1.931   0.309   4.259
 8376SOL    HW126027   1.909   0.212   4.252
 8376SOL    HW226028   1.860   0.362   4.213
 8377SOL     OW26029   5.819   5.521   1.546
 8377SOL    HW126030   5.764   5.595   1.509
 8377SOL    HW226031   5.841   5.455   1.474
 8378SOL     OW26032   4.913   4.800   2.986
 8378SOL    HW126033   4.865   4.806   2.898
 8378SOL    HW226034   4.861   4.743   3.049
 8379SOL     OW26035   6.436   2.260   1.070
 8379SOL    HW126036   6.487   2.175   1.058
 8379SOL    HW226037   6.500   2.335   1.085
 8380SOL     OW26038   6.651   1.656   2.610
 8380SOL    HW126039   6.655   1.667   2.511
 8380SOL    HW226040   6.597   1.574   2.632
 8381SOL     OW26041   0.082   3.987   4.795
 8381SOL    HW126042   0.016   4.041   4.846
 8381SOL    HW226043   0.137   4.047   4.736
 8382SOL     OW26044   1.222   0.782   1.977
 8382SOL    HW126045   1.193   0.791   2.073
 8382SOL    HW226046   1.314   0.744   1.973
 8383SOL     OW26047   2.595   0.378   5.874
 8383SOL    HW126048   2.616   0.455   5.934
 8383SOL    HW226049   2.511   0.397   5.823
 8384SOL     OW26050   0.410   0.078   0.565
 8384SOL    HW126051   0.356   0.091   0.482
 8384SOL    HW226052   0.360   0.116   0.643
 8385SOL     OW26053   5.843   2.231   1.545
 8385SOL    HW126054   5.845   2.330   1.553
 8385SOL    HW226055   5.871   2.203   1.453
 8386SOL     OW26056   0.819   4.113   2.410
 8386SOL    HW126057   0.884   4.038   2.419
 8386SOL    HW226058   0.817   4.144   2.314
 8387SOL     OW26059   0.924   1.404   1.710
 8387SOL    HW126060   1.020   1.431   1.702
 8387SOL    HW226061   0.866   1.486   1.704
 8388SOL     OW26062   1.670   6.454   0.364
 8388SOL    HW126063   1.677   6.553   0.351
 8388SOL    HW226064   1.649   6.411   0.276
 8389SOL     OW26065   6.380   3.891   2.941
 8389SOL    HW126066   6.478   3.873   2.931
 8389SOL    HW226067   6.362   3.988   2.924
 8390SOL     OW26068   3.845   1.515   6.585
 8390SOL    HW126069   3.898   1.454   6.643
 8390SOL    HW226070   3.749   1.512   6.612
 8391SOL     OW26071   6.169   5.555   0.181
 8391SOL    HW126072   6.202   5.634   0.232
 8391SOL    HW226073   6.082   5.578   0.136
 8392SOL     OW26074   6.323   4.001   3.554
 8392SOL    HW126075   6.299   4.036   3.464
 8392SOL    HW226076   6.416   3.966   3.553
 8393SOL     OW26077   6.093   1.048   2.661
 8393SOL    HW126078   6.058   1.107   2.588
 8393SOL    HW226079   6.167   1.095   2.709
 8394SOL     OW26080   5.793   2.855   1.540
 8394SOL    HW126081   5.820   2.789   1.469
 8394SOL    HW226082   5.737   2.927   1.499
 8395SOL     OW26083   2.962   6.825   5.307
 8395SOL    HW126084   2.955   6.772   5.223
 8395SOL    HW226085   2.875   6.871   5.325
 8396SOL     OW26086   5.164   4.762   3.298
 8396SOL    HW126087   5.257   4.800   3.303
 8396SOL    HW226088   5.101   4.822   3.347
 8397SOL     OW26089   1.097   1.207   3.304
 8397SOL    HW126090   1.058   1.137   3.363
 8397SOL    HW226091   1.195   1.192   3.294
 8398SOL     OW26092   4.905   2.798   5.859
 8398SOL    HW126093   4.941   2.738   5.931
 8398SOL    HW226094   4.817   2.836   5.888
 8399SOL     OW26095   6.169   6.372   6.711
 8399SOL    HW126096   6.246   6.308   6.714
 8399SOL    HW226097   6.127   6.377   6.801
 8400SOL     OW26098   1.946   2.527   4.111
 8400SOL    HW126099   1.916   2.478   4.192
 8400SOL    HW226100   2.027   2.482   4.073
 8401SOL     OW26101   1.821   1.566   5.341
 8401SOL    HW126102   1.813   1.470   5.368
 8401SOL    HW226103   1.734   1.598   5.305
 8402SOL     OW26104   5.556   1.582   6.388
 8402SOL    HW126105   5.589   1.666   6.430
 8402SOL    HW226106   5.459   1.592   6.364
 8403SOL     OW26107   0.342   3.532   4.198
 8403SOL    HW126108   0.320   3.441   4.233
 8403SOL    HW226109   0.295   3.546   4.111
 8404SOL     OW26110   3.703   0.100   5.897
 8404SOL    HW126111   3.749   0.128   5.982
 8404SOL    HW226112   3.666   0.008   5.908
 8405SOL     OW26113   3.155   1.780   6.022
 8405SOL    HW126114   3.168   1.854   6.088
 8405SOL    HW226115   3.143   1.818   5.931
 8406SOL     OW26116   4.094   0.167   0.310
 8406SOL    HW126117   4.027   0.095   0.298
 8406SOL    HW226118   4.161   0.164   0.236
 8407SOL     OW26119   4.099   6.370   3.521
 8407SOL    HW126120   4.180   6.316   3.500
 8407SOL    HW226121   4.046   6.385   3.438
 8408SOL     OW26122   5.520   4.971   1.037
 8408SOL    HW126123   5.487   4.877   1.047
 8408SOL    HW226124   5.614   4.971   1.005
 8409SOL     OW26125   4.821   2.335   1.985
 8409SOL    HW126126   4.838   2.277   1.906
 8409SOL    HW226127   4.866   2.297   2.066
 8410SOL     OW26128   6.232   1.799   1.690
 8410SOL    HW126129   6.323   1.763   1.669
 8410SOL    HW226130   6.240   1.873   1.757
 8411SOL     OW26131   0.308   5.724   1.357
 8411SOL    HW126132   0.342   5.766   1.441
 8411SOL    HW226133   0.279   5.630   1.376
 8412SOL     OW26134   3.827   2.045   1.147
 8412SOL    HW126135   3.780   2.093   1.221
 8412SOL    HW226136   3.759   2.007   1.084
 8413SOL     OW26137   4.750   5.902   6.044
 8413SOL    HW126138   4.656   5.936   6.052
 8413SOL    HW226139   4.757   5.814   6.091
 8414SOL     OW26140   2.168   0.649   3.295
 8414SOL    HW126141   2.087   0.626   3.348
 8414SOL    HW226142   2.244   0.670   3.357
 8415SOL     OW26143   1.757   6.711   4.168
 8415SOL    HW126144   1.736   6.777   4.097
 8415SOL    HW226145   1.701   6.729   4.249
 8416SOL     OW26146   6.379   1.635   4.802
 8416SOL    HW126147   6.473   1.668   4.808
 8416SOL    HW226148   6.358   1.611   4.707
 8417SOL     OW26149   1.089   2.996   5.399
 8417SOL    HW126150   1.150   3.011   5.320
 8417SOL    HW226151   1.091   3.076   5.458
 8418SOL     OW26152   0.241   5.429   1.954
 8418SOL    HW126153   0.167   5.441   1.889
 8418SOL    HW226154   0.285   5.518   1.972
 8419SOL     OW26155   5.749   1.062   2.471
 8419SOL    HW126156   5.761   1.046   2.373
 8419SOL    HW226157   5.775   0.980   2.521
 8420SOL     OW26158   3.626   6.527   1.870
 8420SOL    HW126159   3.583   6.532   1.961
 8420SOL    HW226160   3.679   6.610   1.854
 8421SOL     OW26161   3.817   4.435   0.268
 8421SOL    HW126162   3.907   4.425   0.225
 8421SOL    HW226163   3.750   4.381   0.218
 8422SOL     OW26164   4.181   1.517   2.254
 8422SOL    HW126165   4.127   1.435   2.273
 8422SOL    HW226166   4.213   1.514   2.159
 8423SOL     OW26167   4.603   4.432   5.620
 8423SOL    HW126168   4.668   4.369   5.662
 8423SOL    HW226169   4.545   4.382   5.555
 8424SOL     OW26170   2.176   2.673   3.130
 8424SOL    HW126171   2.246   2.744   3.127
 8424SOL    HW226172   2.087   2.714   3.151
 8425SOL     OW26173   4.208   3.557   4.914
 8425SOL    HW126174   4.219   3.616   4.993
 8425SOL    HW226175   4.297   3.519   4.888
 8426SOL     OW26176   3.522   3.294   2.708
 8426SOL    HW126177   3.519   3.195   2.700
 8426SOL    HW226178   3.430   3.330   2.723
 8427SOL     OW26179   3.096   3.974   3.795
 8427SOL    HW126180   3.149   4.052   3.826
 8427SOL    HW226181   3.155   3.910   3.746
 8428SOL     OW26182   0.324   6.745   1.662
 8428SOL    HW126183   0.345   6.841   1.679
 8428SOL    HW226184   0.311   6.697   1.749
 8429SOL     OW26185   1.626   5.566   5.608
 8429SOL    HW126186   1.638   5.550   5.510
 8429SOL    HW226187   1.711   5.545   5.656
 8430SOL     OW26188   4.143   4.758   4.157
 8430SOL    HW126189   4.103   4.840   4.197
 8430SOL    HW226190   4.073   4.709   4.104
 8431SOL     OW26191   3.944   3.650   0.309
 8431SOL    HW126192   3.907   3.590   0.238
 8431SOL    HW226193   3.959   3.597   0.393
 8432SOL     OW26194   6.465   5.227   5.699
 8432SOL    HW126195   6.411   5.153   5.661
 8432SOL    HW226196   6.484   5.295   5.628
 8433SOL     OW26197   4.457   2.841   0.905
 8433SOL    HW126198   4.519   2.784   0.958
 8433SOL    HW226199   4.368   2.796   0.898
 8434SOL     OW26200   2.476   6.766   4.463
 8434SOL    HW126201   2.511   6.836   4.525
 8434SOL    HW226202   2.376   6.769   4.463
 8435SOL     OW26203   5.579   0.122   2.780
 8435SOL    HW126204   5.616   0.185   2.712
 8435SOL    HW226205   5.513   0.169   2.838
 8436SOL     OW26206   3.484   6.519   3.872
 8436SOL    HW126207   3.543   6.596   3.848
 8436SOL    HW226208   3.419   6.547   3.942
 8437SOL     OW26209   2.474   2.540   2.473
 8437SOL    HW126210   2.452   2.629   2.433
 8437SOL    HW226211   2.390   2.492   2.497
 8438SOL     OW26212   2.484   4.597   3.063
 8438SOL    HW126213   2.480   4.502   3.031
 8438SOL    HW226214   2.449   4.658   2.992
 8439SOL     OW26215   6.349   4.561   2.716
 8439SOL    HW126216   6.342   4.625   2.792
 8439SOL    HW226217   6.445   4.542   2.697
 8440SOL     OW26218   2.695   2.362   3.132
 8440SOL    HW126219   2.628   2.288   3.127
 8440SOL    HW226220   2.649   2.450   3.125
 8441SOL     OW26221   5.769   6.029   6.099
 8441SOL    HW126222   5.726   5.988   6.178
 8441SOL    HW226223   5.854   6.075   6.127
 8442SOL     OW26224   3.762   1.519   4.533
 8442SOL    HW126225   3.703   1.444   4.504
 8442SOL    HW226226   3.837   1.529   4.468
 8443SOL     OW26227   2.178   5.077   3.629
 8443SOL    HW126228   2.206   4.981   3.636
 8443SOL    HW226229   2.258   5.135   3.635
 8444SOL     OW26230   3.279   6.842   3.708
 8444SOL    HW126231   3.228   6.928   3.697
 8444SOL    HW226232   3.366   6.848   3.658
 8445SOL     OW26233   2.910   0.448   1.038
 8445SOL    HW126234   2.904   0.358   0.994
 8445SOL    HW226235   3.003   0.483   1.029
 8446SOL     OW26236   6.527   4.899   5.310
 8446SOL    HW126237   6.568   4.837   5.243
 8446SOL    HW226238   6.592   4.918   5.383
 8447SOL     OW26239   3.823   1.288   1.665
 8447SOL    HW126240   3.821   1.384   1.695
 8447SOL    HW226241   3.743   1.270   1.608
 8448SOL     OW26242   4.738   6.240   3.401
 8448SOL    HW126243   4.711   6.333   3.375
 8448SOL    HW226244   4.681   6.209   3.477
 8449SOL     OW26245   0.072   3.058   3.453
 8449SOL    HW126246   7.006   3.061   3.499
 8449SOL    HW226247   0.059   3.029   3.358
 8450SOL     OW26248   0.600   1.144   1.439
 8450SOL    HW126249   0.681   1.110   1.392
 8450SOL    HW226250   0.612   1.240   1.462
 8451SOL     OW26251   3.161   0.958   0.029
 8451SOL    HW126252   3.113   1.043   0.052
 8451SOL    HW226253   3.260   0.975   0.031
 8452SOL     OW26254   5.585   2.635   4.783
 8452SOL    HW126255   5.598   2.619   4.881
 8452SOL    HW226256   5.487   2.630   4.762
 8453SOL     OW26257   0.150   5.482   0.535
 8453SOL    HW126258   0.061   5.485   0.581
 8453SOL    HW226259   0.140   5.522   0.443
 8454SOL     OW26260   0.407   5.437   0.281
 8454SOL    HW126261   0.422   5.416   0.378
 8454SOL    HW226262   0.322   5.393   0.251
 8455SOL     OW26263   6.618   2.407   3.120
 8455SOL    HW126264   6.684   2.453   3.180
 8455SOL    HW226265   6.532   2.457   3.119
 8456SOL     OW26266   4.353   0.702   3.569
 8456SOL    HW126267   4.384   0.608   3.552
 8456SOL    HW226268   4.427   0.753   3.613
 8457SOL     OW26269   6.711   5.967   4.822
 8457SOL    HW126270   6.668   6.018   4.747
 8457SOL    HW226271   6.776   5.900   4.785
 8458SOL     OW26272   1.854   0.228   0.381
 8458SOL    HW126273   1.941   0.179   0.375
 8458SOL    HW226274   1.798   0.207   0.301
 8459SOL     OW26275   2.243   5.645   3.244
 8459SOL    HW126276   2.244   5.590   3.161
 8459SOL    HW226277   2.241   5.742   3.221
 8460SOL     OW26278   4.500   4.041   5.308
 8460SOL    HW126279   4.594   4.012   5.327
 8460SOL    HW226280   4.446   3.962   5.280
 8461SOL     OW26281   0.796   2.774   5.066
 8461SOL    HW126282   0.849   2.695   5.038
 8461SOL    HW226283   0.766   2.762   5.161
 8462SOL     OW26284   3.423   1.689   6.577
 8462SOL    HW126285   3.428   1.687   6.477
 8462SOL    HW226286   3.334   1.653   6.607
 8463SOL     OW26287   6.565   0.237   2.108
 8463SOL    HW126288   6.665   0.248   2.112
 8463SOL    HW226289   6.536   0.175   2.181
 8464SOL     OW26290   5.592   4.664   3.738
 8464SOL    HW126291   5.584   4.713   3.825
 8464SOL    HW226292   5.518   4.692   3.677
 8465SOL     OW26293   1.583   2.572   0.807
 8465SOL    HW126294   1.549   2.550   0.715
 8465SOL    HW226295   1.563   2.668   0.827
 8466SOL     OW26296   1.057   6.801   3.712
 8466SOL    HW126297   0.974   6.746   3.702
 8466SOL    HW226298   1.034   6.897   3.698
 8467SOL     OW26299   2.685   6.109   0.528
 8467SOL    HW126300   2.763   6.171   0.523
 8467SOL    HW226301   2.638   6.107   0.440
 8468SOL     OW26302   3.285   1.502   0.794
 8468SOL    HW126303   3.366   1.558   0.779
 8468SOL    HW226304   3.209   1.560   0.824
 8469SOL     OW26305   3.189   2.450   6.838
 8469SOL    HW126306   3.116   2.398   6.793
 8469SOL    HW226307   3.151   2.505   6.912
 8470SOL     OW26308   2.584   3.564   1.200
 8470SOL    HW126309   2.541   3.641   1.246
 8470SOL    HW226310   2.582   3.484   1.260
 8471SOL     OW26311   2.988   0.919   3.299
 8471SOL    HW126312   2.988   0.902   3.398
 8471SOL    HW226313   2.896   0.907   3.263
 8472SOL     OW26314   6.891   6.897   4.063
 8472SOL    HW126315   6.845   6.955   3.995
 8472SOL    HW226316   6.957   6.953   4.114
 8473SOL     OW26317   0.274   5.421   6.694
 8473SOL    HW126318   0.176   5.407   6.700
 8473SOL    HW226319   0.317   5.343   6.649
 8474SOL     OW26320   3.188   2.998   1.760
 8474SOL    HW126321   3.248   3.072   1.731
 8474SOL    HW226322   3.137   3.026   1.842
 8475SOL     OW26323   6.875   1.355   2.800
 8475SOL    HW126324   6.806   1.286   2.778
 8475SOL    HW226325   6.877   1.424   2.728
 8476SOL     OW26326   6.211   0.918   2.110
 8476SOL    HW126327   6.209   0.819   2.100
 8476SOL    HW226328   6.140   0.947   2.175
 8477SOL     OW26329   3.043   6.395   1.481
 8477SOL    HW126330   3.047   6.421   1.384
 8477SOL    HW226331   3.025   6.297   1.488
 8478SOL     OW26332   1.177   0.463   5.681
 8478SOL    HW126333   1.260   0.483   5.733
 8478SOL    HW226334   1.202   0.435   5.588
 8479SOL     OW26335   5.863   1.299   0.481
 8479SOL    HW126336   5.933   1.289   0.410
 8479SOL    HW226337   5.886   1.241   0.559
 8480SOL     OW26338   3.278   0.987   1.315
 8480SOL    HW126339   3.299   1.084   1.325
 8480SOL    HW226340   3.239   0.970   1.224
 8481SOL     OW26341   4.397   1.517   4.069
 8481SOL    HW126342   4.458   1.451   4.024
 8481SOL    HW226343   4.450   1.578   4.127
 8482SOL     OW26344   2.277   0.290   2.016
 8482SOL    HW126345   2.206   0.299   1.946
 8482SOL    HW226346   2.365   0.271   1.973
 8483SOL     OW26347   3.678   6.020   1.800
 8483SOL    HW126348   3.761   6.001   1.853
 8483SOL    HW226349   3.696   6.006   1.703
 8484SOL     OW26350   6.605   4.818   3.160
 8484SOL    HW126351   6.690   4.872   3.158
 8484SOL    HW226352   6.560   4.832   3.248
 8485SOL     OW26353   1.893   3.567   6.709
 8485SOL    HW126354   1.831   3.644   6.696
 8485SOL    HW226355   1.907   3.520   6.622
 8486SOL     OW26356   5.184   1.170   3.035
 8486SOL    HW126357   5.209   1.263   3.007
 8486SOL    HW226358   5.262   1.109   3.022
 8487SOL     OW26359   5.434   6.725   0.598
 8487SOL    HW126360   5.356   6.692   0.650
 8487SOL    HW226361   5.415   6.817   0.563
 8488SOL     OW26362   5.776   5.067   5.463
 8488SOL    HW126363   5.752   5.162   5.445
 8488SOL    HW226364   5.865   5.047   5.423
 8489SOL     OW26365   6.124   7.000   1.286
 8489SOL    HW126366   6.110   6.901   1.285
 8489SOL    HW226367   6.222   7.019   1.292
 8490SOL     OW26368   4.598   6.230   3.665
 8490SOL    HW126369   4.563   6.136   3.664
 8490SOL    HW226370   4.522   6.294   3.680
 8491SOL     OW26371   2.474   0.678   1.492
 8491SOL    HW126372   2.498   0.581   1.483
 8491SOL    HW226373   2.529   0.720   1.564
 8492SOL     OW26374   4.363   3.826   5.854
 8492SOL    HW126375   4.287   3.827   5.919
 8492SOL    HW226376   4.336   3.876   5.771
 8493SOL     OW26377   3.378   2.047   6.989
 8493SOL    HW126378   3.378   1.996   0.052
 8493SOL    HW226379   3.402   1.986   6.913
 8494SOL     OW26380   1.662   4.520   6.380
 8494SOL    HW126381   1.700   4.509   6.288
 8494SOL    HW226382   1.574   4.473   6.385
 8495SOL     OW26383   0.033   3.335   0.698
 8495SOL    HW126384   6.996   3.261   0.666
 8495SOL    HW226385   0.109   3.347   0.633
 8496SOL     OW26386   6.989   1.989   2.975
 8496SOL    HW126387   6.942   2.077   2.987
 8496SOL    HW226388   6.988   1.939   3.062
 8497SOL     OW26389   5.249   6.660   4.142
 8497SOL    HW126390   5.246   6.603   4.060
 8497SOL    HW226391   5.175   6.727   4.139
 8498SOL     OW26392   0.303   6.461   2.152
 8498SOL    HW126393   0.240   6.509   2.213
 8498SOL    HW226394   0.264   6.371   2.128
 8499SOL     OW26395   2.431   5.729   6.381
 8499SOL    HW126396   2.519   5.690   6.352
 8499SOL    HW226397   2.434   5.746   6.480
 8500SOL     OW26398   2.215   0.642   5.695
 8500SOL    HW126399   2.157   0.625   5.775
 8500SOL    HW226400   2.172   0.709   5.635
 8501SOL     OW26401   1.545   2.253   0.238
 8501SOL    HW126402   1.483   2.309   0.292
 8501SOL    HW226403   1.498   2.169   0.210
 8502SOL     OW26404   1.133   5.073   1.301
 8502SOL    HW126405   1.104   5.051   1.394
 8502SOL    HW226406   1.230   5.051   1.290
 8503SOL     OW26407   1.223   5.148   2.647
 8503SOL    HW126408   1.230   5.049   2.657
 8503SOL    HW226409   1.128   5.173   2.634
 8504SOL     OW26410   1.671   6.133   3.346
 8504SOL    HW126411   1.616   6.051   3.362
 8504SOL    HW226412   1.692   6.140   3.249
 8505SOL     OW26413   5.047   4.213   3.328
 8505SOL    HW126414   5.082   4.166   3.247
 8505SOL    HW226415   4.947   4.218   3.322
 8506SOL     OW26416   0.704   0.049   0.615
 8506SOL    HW126417   0.714   6.989   0.671
 8506SOL    HW226418   0.608   0.061   0.590
 8507SOL     OW26419   2.285   0.295   5.423
 8507SOL    HW126420   2.282   0.196   5.415
 8507SOL    HW226421   2.214   0.325   5.487
 8508SOL     OW26422   6.949   2.942   4.741
 8508SOL    HW126423   6.874   3.000   4.710
 8508SOL    HW226424   6.984   2.888   4.664
 8509SOL     OW26425   6.371   1.521   4.565
 8509SOL    HW126426   6.455   1.537   4.513
 8509SOL    HW226427   6.311   1.460   4.514
 8510SOL     OW26428   6.297   4.910   3.265
 8510SOL    HW126429   6.357   4.913   3.344
 8510SOL    HW226430   6.294   4.816   3.229
 8511SOL     OW26431   6.019   4.621   2.145
 8511SOL    HW126432   6.000   4.523   2.151
 8511SOL    HW226433   5.988   4.655   2.056
 8512SOL     OW26434   3.971   2.502   0.319
 8512SOL    HW126435   3.925   2.529   0.235
 8512SOL    HW226436   4.059   2.460   0.296
 8513SOL     OW26437   4.758   4.191   1.375
 8513SOL    HW126438   4.756   4.101   1.331
 8513SOL    HW226439   4.671   4.207   1.422
 8514SOL     OW26440   2.448   2.644   3.209
 8514SOL    HW126441   2.379   2.646   3.282
 8514SOL    HW226442   2.446   2.730   3.159
 8515SOL     OW26443   7.005   1.081   6.858
 8515SOL    HW126444   6.975   1.063   6.764
 8515SOL    HW226445   0.009   1.177   6.867
 8516SOL     OW26446   6.190   3.014   1.445
 8516SOL    HW126447   6.192   2.974   1.537
 8516SOL    HW226448   6.183   2.941   1.377
 8517SOL     OW26449   2.177   2.310   5.855
 8517SOL    HW126450   2.269   2.327   5.818
 8517SOL    HW226451   2.184   2.243   5.929
 8518SOL     OW26452   5.127   4.110   5.934
 8518SOL    HW126453   5.074   4.121   5.850
 8518SOL    HW226454   5.141   4.200   5.977
 8519SOL     OW26455   0.816   4.977   0.776
 8519SOL    HW126456   0.757   5.030   0.715
 8519SOL    HW226457   0.845   4.893   0.729
 8520SOL     OW26458   2.990   2.790   6.226
 8520SOL    HW126459   2.997   2.816   6.130
 8520SOL    HW226460   3.034   2.701   6.239
 8521SOL     OW26461   2.206   5.617   5.634
 8521SOL    HW126462   2.252   5.702   5.658
 8521SOL    HW226463   2.238   5.544   5.694
 8522SOL     OW26464   0.422   0.146   1.474
 8522SOL    HW126465   0.423   0.107   1.566
 8522SOL    HW226466   0.484   0.225   1.471
 8523SOL     OW26467   2.422   6.668   6.875
 8523SOL    HW126468   2.451   6.762   6.889
 8523SOL    HW226469   2.341   6.649   6.930
 8524SOL     OW26470   0.901   3.799   4.473
 8524SOL    HW126471   0.931   3.756   4.558
 8524SOL    HW226472   0.882   3.896   4.489
 8525SOL     OW26473   5.810   4.898   1.261
 8525SOL    HW126474   5.753   4.979   1.274
 8525SOL    HW226475   5.866   4.910   1.179
 8526SOL     OW26476   3.521   6.588   0.818
 8526SOL    HW126477   3.449   6.581   0.749
 8526SOL    HW226478   3.510   6.674   0.868
 8527SOL     OW26479   3.576   0.389   6.970
 8527SOL    HW126480   3.523   0.317   7.015
 8527SOL    HW226481   3.657   0.349   6.927
 8528SOL     OW26482   3.557   1.588   0.578
 8528SOL    HW126483   3.630   1.576   0.646
 8528SOL    HW226484   3.583   1.661   0.515
 8529SOL     OW26485   1.216   6.935   0.369
 8529SOL    HW126486   1.163   7.017   0.393
 8529SOL    HW226487   1.273   6.954   0.289
 8530SOL     OW26488   3.945   3.447   5.252
 8530SOL    HW126489   3.900   3.475   5.167
 8530SOL    HW226490   4.021   3.385   5.231
 8531SOL     OW26491   6.865   5.532   2.864
 8531SOL    HW126492   6.958   5.496   2.848
 8531SOL    HW226493   6.865   5.630   2.850
 8532SOL     OW26494   3.928   6.044   4.507
 8532SOL    HW126495   3.930   5.950   4.540
 8532SOL    HW226496   3.884   6.047   4.417
 8533SOL     OW26497   1.902   5.995   0.199
 8533SOL    HW126498   1.971   6.006   0.270
 8533SOL    HW226499   1.843   5.917   0.221
 8534SOL     OW26500   5.041   2.840   3.878
 8534SOL    HW126501   5.070   2.876   3.789
 8534SOL    HW226502   5.050   2.741   3.878
 8535SOL     OW26503   5.874   1.475   4.032
 8535SOL    HW126504   5.784   1.436   4.014
 8535SOL    HW226505   5.897   1.541   3.961
 8536SOL     OW26506   0.427   1.650   5.134
 8536SOL    HW126507   0.501   1.592   5.169
 8536SOL    HW226508   0.382   1.603   5.058
 8537SOL     OW26509   5.678   1.518   3.308
 8537SOL    HW126510   5.634   1.430   3.290
 8537SOL    HW226511   5.641   1.586   3.246
 8538SOL     OW26512   2.041   1.301   6.898
 8538SOL    HW126513   2.110   1.269   6.833
 8538SOL    HW226514   1.957   1.249   6.886
 8539SOL     OW26515   6.643   1.932   2.204
 8539SOL    HW126516   6.614   2.026   2.222
 8539SOL    HW226517   6.616   1.874   2.280
 8540SOL     OW26518   5.621   6.974   6.639
 8540SOL    HW126519   5.636   6.875   6.631
 8540SOL    HW226520   5.690   7.022   6.586
 8541SOL     OW26521   3.726   1.857   3.619
 8541SOL    HW126522   3.717   1.938   3.677
 8541SOL    HW226523   3.750   1.885   3.526
 8542SOL     OW26524   3.632   4.614   6.643
 8542SOL    HW126525   3.569   4.575   6.710
 8542SOL    HW226526   3.719   4.564   6.646
 8543SOL     OW26527   1.960   1.632   1.633
 8543SOL    HW126528   1.944   1.697   1.707
 8543SOL    HW226529   1.889   1.561   1.635
 8544SOL     OW26530   5.591   3.222   4.108
 8544SOL    HW126531   5.609   3.320   4.120
 8544SOL    HW226532   5.514   3.210   4.046
 8545SOL     OW26533   4.274   0.136   5.837
 8545SOL    HW126534   4.260   0.066   5.768
 8545SOL    HW226535   4.371   0.162   5.840
 8546SOL     OW26536   5.648   2.019   4.225
 8546SOL    HW126537   5.692   2.015   4.314
 8546SOL    HW226538   5.704   2.076   4.163
 8547SOL     OW26539   0.387   6.556   5.729
 8547SOL    HW126540   0.351   6.647   5.710
 8547SOL    HW226541   0.390   6.541   5.828
 8548SOL     OW26542   5.916   2.893   5.700
 8548SOL    HW126543   5.939   2.882   5.796
 8548SOL    HW226544   5.883   2.806   5.663
 8549SOL     OW26545   0.501   3.557   3.713
 8549SOL    HW126546   0.428   3.626   3.710
 8549SOL    HW226547   0.467   3.474   3.756
 8550SOL     OW26548   1.838   4.683   6.139
 8550SOL    HW126549   1.911   4.617   6.159
 8550SOL    HW226550   1.772   4.641   6.077
 8551SOL     OW26551   3.602   3.660   6.405
 8551SOL    HW126552   3.700   3.650   6.418
 8551SOL    HW226553   3.554   3.590   6.459
 8552SOL     OW26554   2.619   6.340   4.145
 8552SOL    HW126555   2.540   6.400   4.130
 8552SOL    HW226556   2.600   6.279   4.221
 8553SOL     OW26557   5.335   5.345   6.349
 8553SOL    HW126558   5.410   5.348   6.282
 8553SOL    HW226559   5.344   5.422   6.412
 8554SOL     OW26560   0.744   4.941   0.395
 8554SOL    HW126561   0.828   4.995   0.394
 8554SOL    HW226562   0.665   5.002   0.389
 8555SOL     OW26563   0.764   0.463   3.268
 8555SOL    HW126564   0.828   0.430   3.338
 8555SOL    HW226565   0.789   0.423   3.179
 8556SOL     OW26566   0.847   6.929   3.481
 8556SOL    HW126567   0.912   6.873   3.429
 8556SOL    HW226568   0.897   6.999   3.532
 8557SOL     OW26569   6.713   1.628   2.097
 8557SOL    HW126570   6.789   1.578   2.056
 8557SOL    HW226571   6.670   1.685   2.027
 8558SOL     OW26572   2.709   6.032   3.006
 8558SOL    HW126573   2.776   5.975   2.958
 8558SOL    HW226574   2.739   6.049   3.100
 8559SOL     OW26575   6.389   0.652   2.557
 8559SOL    HW126576   6.435   0.603   2.482
 8559SOL    HW226577   6.439   0.637   2.642
 8560SOL     OW26578   6.704   0.007   1.298
 8560SOL    HW126579   6.759   7.010   1.379
 8560SOL    HW226580   6.743   6.982   1.219
 8561SOL     OW26581   3.437   6.114   2.233
 8561SOL    HW126582   3.359   6.173   2.256
 8561SOL    HW226583   3.407   6.041   2.171
 8562SOL     OW26584   4.921   6.709   5.062
 8562SOL    HW126585   4.905   6.750   4.973
 8562SOL    HW226586   4.834   6.683   5.103
 8563SOL     OW26587   2.495   3.103   7.013
 8563SOL    HW126588   2.481   3.147   0.079
 8563SOL    HW226589   2.406   3.076   6.975
 8564SOL     OW26590   2.462   0.875   3.637
 8564SOL    HW126591   2.391   0.936   3.603
 8564SOL    HW226592   2.472   0.798   3.574
 8565SOL     OW26593   4.645   6.963   1.220
 8565SOL    HW126594   4.651   6.977   1.319
 8565SOL    HW226595   4.636   6.865   1.200
 8566SOL     OW26596   1.028   1.209   2.075
 8566SOL    HW126597   1.127   1.214   2.071
 8566SOL    HW226598   1.000   1.118   2.107
 8567SOL     OW26599   0.188   1.784   1.764
 8567SOL    HW126600   0.247   1.833   1.828
 8567SOL    HW226601   0.168   1.843   1.686
 8568SOL     OW26602   4.753   0.858   6.455
 8568SOL    HW126603   4.743   0.882   6.359
 8568SOL    HW226604   4.663   0.841   6.495
 8569SOL     OW26605   5.010   1.355   5.810
 8569SOL    HW126606   5.099   1.392   5.839
 8569SOL    HW226607   5.025   1.269   5.760
 8570SOL     OW26608   1.004   2.389   6.258
 8570SOL    HW126609   0.944   2.352   6.329
 8570SOL    HW226610   1.078   2.324   6.240
 8571SOL     OW26611   0.133   5.474   5.961
 8571SOL    HW126612   0.211   5.510   6.012
 8571SOL    HW226613   0.096   5.394   6.009
 8572SOL     OW26614   3.076   5.318   6.056
 8572SOL    HW126615   3.157   5.344   6.109
 8572SOL    HW226616   2.999   5.376   6.083
 8573SOL     OW26617   3.664   6.207   6.855
 8573SOL    HW126618   3.659   6.298   6.897
 8573SOL    HW226619   3.648   6.214   6.757
 8574SOL     OW26620   6.989   4.982   5.118
 8574SOL    HW126621   0.017   4.978   5.032
 8574SOL    HW226622   6.984   4.891   5.158
 8575SOL     OW26623   2.910   2.347   0.236
 8575SOL    HW126624   2.998   2.303   0.250
 8575SOL    HW226625   2.881   2.336   0.141
 8576SOL     OW26626   0.976   6.741   0.882
 8576SOL    HW126627   1.015   6.831   0.863
 8576SOL    HW226628   1.045   6.671   0.870
 8577SOL     OW26629   6.524   5.090   4.646
 8577SOL    HW126630   6.569   5.179   4.648
 8577SOL    HW226631   6.582   5.024   4.599
 8578SOL     OW26632   4.981   0.435   4.360
 8578SOL    HW126633   4.927   0.504   4.312
 8578SOL    HW226634   4.991   0.460   4.456
 8579SOL     OW26635   1.379   6.046   3.632
 8579SOL    HW126636   1.392   5.954   3.597
 8579SOL    HW226637   1.379   6.111   3.556
 8580SOL     OW26638   2.487   6.835   1.960
 8580SOL    HW126639   2.475   6.927   1.998
 8580SOL    HW226640   2.574   6.796   1.992
 8581SOL     OW26641   3.203   2.511   1.644
 8581SOL    HW126642   3.214   2.593   1.700
 8581SOL    HW226643   3.290   2.492   1.597
 8582SOL     OW26644   4.460   4.633   1.935
 8582SOL    HW126645   4.410   4.559   1.889
 8582SOL    HW226646   4.558   4.615   1.930
 8583SOL     OW26647   6.001   0.738   5.792
 8583SOL    HW126648   6.016   0.716   5.696
 8583SOL    HW226649   5.915   0.697   5.823
 8584SOL     OW26650   0.328   3.839   6.512
 8584SOL    HW126651   0.349   3.915   6.450
 8584SOL    HW226652   0.268   3.871   6.585
 8585SOL     OW26653   6.962   6.632   0.344
 8585SOL    HW126654   7.012   6.545   0.343
 8585SOL    HW226655   6.974   6.676   0.433
 8586SOL     OW26656   2.593   6.367   3.160
 8586SOL    HW126657   2.676   6.378   3.105
 8586SOL    HW226658   2.596   6.429   3.238
 8587SOL     OW26659   1.115   0.290   3.147
 8587SOL    HW126660   1.188   0.339   3.194
 8587SOL    HW226661   1.087   0.341   3.066
 8588SOL     OW26662   2.828   0.654   6.983
 8588SOL    HW126663   2.792   0.591   0.029
 8588SOL    HW226664   2.753   0.703   6.939
 8589SOL     OW26665   4.436   2.060   4.663
 8589SOL    HW126666   4.343   2.087   4.637
 8589SOL    HW226667   4.495   2.064   4.582
 8590SOL     OW26668   6.803   5.907   4.013
 8590SOL    HW126669   6.735   5.875   3.947
 8590SOL    HW226670   6.756   5.948   4.092
 8591SOL     OW26671   0.991   4.619   6.163
 8591SOL    HW126672   1.016   4.663   6.077
 8591SOL    HW226673   0.902   4.654   6.194
 8592SOL     OW26674   0.081   4.307   0.384
 8592SOL    HW126675   0.109   4.401   0.363
 8592SOL    HW226676   7.008   4.307   0.414
 8593SOL     OW26677   1.352   6.867   2.291
 8593SOL    HW126678   1.404   6.952   2.305
 8593SOL    HW226679   1.403   6.806   2.231
 8594SOL     OW26680   3.613   3.798   5.127
 8594SOL    HW126681   3.647   3.814   5.035
 8594SOL    HW226682   3.533   3.857   5.144
 8595SOL     OW26683   2.280   1.546   2.504
 8595SOL    HW126684   2.340   1.597   2.442
 8595SOL    HW226685   2.330   1.470   2.545
 8596SOL     OW26686   6.196   5.128   2.282
 8596SOL    HW126687   6.294   5.135   2.300
 8596SOL    HW226688   6.150   5.095   2.364
 8597SOL     OW26689   4.198   2.087   1.192
 8597SOL    HW126690   4.124   2.103   1.257
 8597SOL    HW226691   4.168   2.113   1.100
 8598SOL     OW26692   0.310   5.493   1.625
 8598SOL    HW126693   0.284   5.420   1.688
 8598SOL    HW226694   0.335   5.575   1.677
 8599SOL     OW26695   0.886   3.117   3.945
 8599SOL    HW126696   0.984   3.137   3.952
 8599SOL    HW226697   0.869   3.021   3.969
 8600SOL     OW26698   5.865   4.978   6.998
 8600SOL    HW126699   5.921   4.930   6.931
 8600SOL    HW226700   5.775   4.997   6.959
 8601SOL     OW26701   0.575   1.050   4.534
 8601SOL    HW126702   0.557   1.011   4.443
 8601SOL    HW226703   0.511   1.011   4.600
 8602SOL     OW26704   2.445   6.480   2.684
 8602SOL    HW126705   2.500   6.403   2.652
 8602SOL    HW226706   2.435   6.475   2.784
 8603SOL     OW26707   3.816   4.069   0.474
 8603SOL    HW126708   3.737   4.126   0.496
 8603SOL    HW226709   3.879   4.120   0.415
 8604SOL     OW26710   6.237   3.032   3.367
 8604SOL    HW126711   6.301   3.109   3.367
 8604SOL    HW226712   6.211   3.010   3.461
 8605SOL     OW26713   3.550   4.953   4.410
 8605SOL    HW126714   3.469   4.928   4.463
 8605SOL    HW226715   3.522   4.976   4.317
 8606SOL     OW26716   2.129   4.600   5.420
 8606SOL    HW126717   2.206   4.629   5.363
 8606SOL    HW226718   2.161   4.535   5.489
 8607SOL     OW26719   2.803   4.926   0.980
 8607SOL    HW126720   2.776   4.902   1.073
 8607SOL    HW226721   2.840   4.844   0.934
 8608SOL     OW26722   5.100   5.025   3.039
 8608SOL    HW126723   5.128   5.077   3.120
 8608SOL    HW226724   5.035   4.954   3.066
 8609SOL     OW26725   4.387   0.946   4.207
 8609SOL    HW126726   4.325   0.873   4.238
 8609SOL    HW226727   4.344   1.035   4.222
 8610SOL     OW26728   1.257   0.369   2.766
 8610SOL    HW126729   1.307   0.372   2.853
 8610SOL    HW226730   1.159   0.366   2.785
 8611SOL     OW26731   1.921   2.791   3.894
 8611SOL    HW126732   1.936   2.880   3.939
 8611SOL    HW226733   1.871   2.731   3.956
 8612SOL     OW26734   3.130   3.012   6.751
 8612SOL    HW126735   3.168   3.031   6.661
 8612SOL    HW226736   3.161   2.922   6.783
 8613SOL     OW26737   2.358   1.379   1.486
 8613SOL    HW126738   2.382   1.435   1.407
 8613SOL    HW226739   2.272   1.330   1.467
 8614SOL     OW26740   0.557   3.843   2.702
 8614SOL    HW126741   0.606   3.928   2.722
 8614SOL    HW226742   0.622   3.767   2.701
 8615SOL     OW26743   5.154   1.943   4.901
 8615SOL    HW126744   5.171   1.861   4.846
 8615SOL    HW226745   5.239   1.995   4.909
 8616SOL     OW26746   1.057   5.352   1.004
 8616SOL    HW126747   0.986   5.309   1.059
 8616SOL    HW226748   1.048   5.452   1.011
 8617SOL     OW26749   6.083   1.207   0.278
 8617SOL    HW126750   6.138   1.164   0.207
 8617SOL    HW226751   6.036   1.137   0.331
 8618SOL     OW26752   5.173   7.000   1.270
 8618SOL    HW126753   5.166   0.053   1.334
 8618SOL    HW226754   5.194   6.916   1.320
 8619SOL     OW26755   3.695   5.063   0.706
 8619SOL    HW126756   3.765   5.014   0.758
 8619SOL    HW226757   3.738   5.112   0.630
 8620SOL     OW26758   6.063   6.801   3.352
 8620SOL    HW126759   5.982   6.800   3.410
 8620SOL    HW226760   6.145   6.804   3.409
 8621SOL     OW26761   5.854   1.367   3.541
 8621SOL    HW126762   5.860   1.315   3.626
 8621SOL    HW226763   5.822   1.308   3.467
 8622SOL     OW26764   4.510   4.739   0.961
 8622SOL    HW126765   4.500   4.692   0.873
 8622SOL    HW226766   4.519   4.837   0.945
 8623SOL     OW26767   0.161   4.279   3.041
 8623SOL    HW126768   0.206   4.246   2.958
 8623SOL    HW226769   0.213   4.354   3.080
 8624SOL     OW26770   1.363   4.933   3.786
 8624SOL    HW126771   1.407   4.875   3.717
 8624SOL    HW226772   1.339   4.878   3.866
 8625SOL     OW26773   4.747   0.611   4.284
 8625SOL    HW126774   4.726   0.698   4.239
 8625SOL    HW226775   4.662   0.563   4.304
 8626SOL     OW26776   3.888   2.997   4.619
 8626SOL    HW126777   3.803   2.970   4.664
 8626SOL    HW226778   3.944   2.916   4.602
 8627SOL     OW26779   1.192   0.578   2.550
 8627SOL    HW126780   1.270   0.516   2.557
 8627SOL    HW226781   1.209   0.645   2.478
 8628SOL     OW26782   6.558   6.812   1.488
 8628SOL    HW126783   6.520   6.850   1.572
 8628SOL    HW226784   6.656   6.829   1.485
 8629SOL     OW26785   1.744   5.564   4.548
 8629SOL    HW126786   1.789   5.475   4.551
 8629SOL    HW226787   1.753   5.603   4.456
 8630SOL     OW26788   6.064   4.031   4.585
 8630SOL    HW126789   6.054   3.952   4.645
 8630SOL    HW226790   6.031   4.113   4.632
 8631SOL     OW26791   4.140   6.130   6.239
 8631SOL    HW126792   4.139   6.222   6.277
 8631SOL    HW226793   4.072   6.074   6.286
 8632SOL     OW26794   3.617   6.345   3.547
 8632SOL    HW126795   3.650   6.418   3.608
 8632SOL    HW226796   3.546   6.382   3.487
 8633SOL     OW26797   5.150   1.156   4.473
 8633SOL    HW126798   5.090   1.227   4.438
 8633SOL    HW226799   5.213   1.126   4.401
 8634SOL     OW26800   6.285   3.030   1.050
 8634SOL    HW126801   6.248   2.939   1.066
 8634SOL    HW226802   6.335   3.031   0.963
 8635SOL     OW26803   6.032   4.190   6.151
 8635SOL    HW126804   6.043   4.130   6.072
 8635SOL    HW226805   6.097   4.162   6.223
 8636SOL     OW26806   5.512   5.018   6.944
 8636SOL    HW126807   5.471   5.084   7.006
 8636SOL    HW226808   5.475   4.927   6.963
 8637SOL     OW26809   1.645   0.373   0.471
 8637SOL    HW126810   1.735   0.343   0.439
 8637SOL    HW226811   1.655   0.446   0.538
 8638SOL     OW26812   1.759   3.436   0.136
 8638SOL    HW126813   1.833   3.471   0.079
 8638SOL    HW226814   1.716   3.359   0.090
 8639SOL     OW26815   6.036   2.751   1.678
 8639SOL    HW126816   6.064   2.665   1.635
 8639SOL    HW226817   5.967   2.796   1.622
 8640SOL     OW26818   4.547   3.838   0.653
 8640SOL    HW126819   4.566   3.850   0.556
 8640SOL    HW226820   4.573   3.920   0.703
 8641SOL     OW26821   6.838   4.241   4.686
 8641SOL    HW126822   6.852   4.221   4.783
 8641SOL    HW226823   6.899   4.185   4.631
 8642SOL     OW26824   4.033   0.606   2.532
 8642SOL    HW126825   4.111   0.555   2.570
 8642SOL    HW226826   3.948   0.564   2.564
 8643SOL     OW26827   3.948   6.865   6.988
 8643SOL    HW126828   4.020   6.797   6.971
 8643SOL    HW226829   3.878   6.824   0.023
 8644SOL     OW26830   4.571   2.586   5.604
 8644SOL    HW126831   4.670   2.580   5.611
 8644SOL    HW226832   4.532   2.601   5.694
 8645SOL     OW26833   5.378   4.765   1.449
 8645SOL    HW126834   5.363   4.860   1.476
 8645SOL    HW226835   5.330   4.746   1.364
 8646SOL     OW26836   5.751   1.022   1.276
 8646SOL    HW126837   5.718   0.975   1.194
 8646SOL    HW226838   5.769   0.955   1.348
 8647SOL     OW26839   3.800   4.652   6.251
 8647SOL    HW126840   3.711   4.608   6.237
 8647SOL    HW226841   3.833   4.689   6.164
 8648SOL     OW26842   5.551   1.501   4.781
 8648SOL    HW126843   5.482   1.476   4.713
 8648SOL    HW226844   5.517   1.578   4.836
 8649SOL     OW26845   5.341   5.239   5.802
 8649SOL    HW126846   5.390   5.152   5.792
 8649SOL    HW226847   5.383   5.307   5.743
 8650SOL     OW26848   1.387   4.684   4.490
 8650SOL    HW126849   1.472   4.735   4.499
 8650SOL    HW226850   1.337   4.714   4.410
 8651SOL     OW26851   4.035   0.504   0.665
 8651SOL    HW126852   4.036   0.548   0.755
 8651SOL    HW226853   3.949   0.526   0.618
 8652SOL     OW26854   1.528   4.391   2.979
 8652SOL    HW126855   1.485   4.373   2.890
 8652SOL    HW226856   1.508   4.315   3.041
 8653SOL     OW26857   5.918   2.424   5.951
 8653SOL    HW126858   5.826   2.460   5.933
 8653SOL    HW226859   5.915   2.364   6.031
 8654SOL     OW26860   0.993   6.322   1.811
 8654SOL    HW126861   1.002   6.225   1.786
 8654SOL    HW226862   1.039   6.378   1.743
 8655SOL     OW26863   5.842   0.649   3.825
 8655SOL    HW126864   5.806   0.556   3.821
 8655SOL    HW226865   5.942   0.646   3.832
 8656SOL     OW26866   6.540   1.474   1.334
 8656SOL    HW126867   6.594   1.556   1.314
 8656SOL    HW226868   6.600   1.394   1.332
 8657SOL     OW26869   4.508   4.770   6.964
 8657SOL    HW126870   4.480   4.674   6.971
 8657SOL    HW226871   4.598   4.776   6.921
 8658SOL     OW26872   4.661   6.040   0.198
 8658SOL    HW126873   4.669   6.111   0.128
 8658SOL    HW226874   4.567   6.006   0.201
 8659SOL     OW26875   4.707   1.269   3.334
 8659SOL    HW126876   4.622   1.313   3.304
 8659SOL    HW226877   4.773   1.269   3.259
 8660SOL     OW26878   4.893   3.749   0.750
 8660SOL    HW126879   4.848   3.790   0.830
 8660SOL    HW226880   4.985   3.719   0.776
 8661SOL     OW26881   5.614   4.016   1.820
 8661SOL    HW126882   5.642   3.922   1.802
 8661SOL    HW226883   5.694   4.072   1.839
 8662SOL     OW26884   4.955   6.328   1.695
 8662SOL    HW126885   4.978   6.259   1.763
 8662SOL    HW226886   4.983   6.296   1.604
 8663SOL     OW26887   2.378   5.814   0.536
 8663SOL    HW126888   2.444   5.865   0.592
 8663SOL    HW226889   2.394   5.833   0.439
 8664SOL     OW26890   3.329   5.248   0.800
 8664SOL    HW126891   3.287   5.161   0.776
 8664SOL    HW226892   3.372   5.241   0.890
 8665SOL     OW26893   5.146   5.546   5.100
 8665SOL    HW126894   5.227   5.603   5.087
 8665SOL    HW226895   5.111   5.560   5.193
 8666SOL     OW26896   5.671   2.445   5.373
 8666SOL    HW126897   5.609   2.411   5.302
 8666SOL    HW226898   5.665   2.385   5.453
 8667SOL     OW26899   4.647   2.260   3.214
 8667SOL    HW126900   4.610   2.167   3.225
 8667SOL    HW226901   4.602   2.305   3.137
 8668SOL     OW26902   5.076   2.853   3.604
 8668SOL    HW126903   4.986   2.811   3.605
 8668SOL    HW226904   5.081   2.923   3.532
 8669SOL     OW26905   2.898   6.864   6.675
 8669SOL    HW126906   2.888   6.800   6.751
 8669SOL    HW226907   2.809   6.905   6.654
 8670SOL     OW26908   3.574   4.772   5.532
 8670SOL    HW126909   3.589   4.853   5.475
 8670SOL    HW226910   3.535   4.699   5.476
 8671SOL     OW26911   5.549   1.393   4.042
 8671SOL    HW126912   5.471   1.330   4.035
 8671SOL    HW226913   5.581   1.415   3.950
 8672SOL     OW26914   2.478   5.995   4.171
 8672SOL    HW126915   2.535   5.937   4.229
 8672SOL    HW226916   2.504   5.982   4.075
 8673SOL     OW26917   0.359   1.354   7.004
 8673SOL    HW126918   0.411   1.324   6.924
 8673SOL    HW226919   0.373   1.452   7.018
 8674SOL     OW26920   6.822   6.051   1.552
 8674SOL    HW126921   6.789   6.052   1.647
 8674SOL    HW226922   6.841   5.958   1.523
 8675SOL     OW26923   3.258   1.772   3.928
 8675SOL    HW126924   3.277   1.847   3.865
 8675SOL    HW226925   3.241   1.810   4.020
 8676SOL     OW26926   4.039   6.717   3.307
 8676SOL    HW126927   3.985   6.642   3.347
 8676SOL    HW226928   4.013   6.803   3.351
 8677SOL     OW26929   2.358   5.827   5.749
 8677SOL    HW126930   2.448   5.840   5.707
 8677SOL    HW226931   2.370   5.798   5.844
 8678SOL     OW26932   0.305   0.418   0.782
 8678SOL    HW126933   0.305   0.467   0.695
 8678SOL    HW226934   0.223   0.442   0.834
 8679SOL     OW26935   6.236   2.967   4.949
 8679SOL    HW126936   6.335   2.972   4.938
 8679SOL    HW226937   6.214   2.904   5.023
 8680SOL     OW26938   0.372   3.648   1.384
 8680SOL    HW126939   0.368   3.592   1.466
 8680SOL    HW226940   0.304   3.722   1.390
 8681SOL     OW26941   4.582   4.715   0.691
 8681SOL    HW126942   4.636   4.781   0.639
 8681SOL    HW226943   4.520   4.667   0.629
 8682SOL     OW26944   4.163   6.642   2.191
 8682SOL    HW126945   4.164   6.652   2.291
 8682SOL    HW226946   4.108   6.563   2.166
 8683SOL     OW26947   1.200   2.627   1.877
 8683SOL    HW126948   1.194   2.630   1.977
 8683SOL    HW226949   1.207   2.720   1.841
 8684SOL     OW26950   0.418   3.198   4.739
 8684SOL    HW126951   0.319   3.200   4.750
 8684SOL    HW226952   0.461   3.212   4.829
 8685SOL     OW26953   1.034   2.364   5.983
 8685SOL    HW126954   0.971   2.293   5.952
 8685SOL    HW226955   1.014   2.387   6.078
 8686SOL     OW26956   6.506   1.763   1.642
 8686SOL    HW126957   6.508   1.797   1.548
 8686SOL    HW226958   6.591   1.789   1.688
 8687SOL     OW26959   3.593   6.075   2.907
 8687SOL    HW126960   3.551   6.112   2.990
 8687SOL    HW226961   3.542   6.106   2.827
 8688SOL     OW26962   2.706   6.463   0.349
 8688SOL    HW126963   2.674   6.393   0.285
 8688SOL    HW226964   2.737   6.543   0.297
 8689SOL     OW26965   3.626   4.645   0.264
 8689SOL    HW126966   3.566   4.658   0.185
 8689SOL    HW226967   3.686   4.567   0.249
 8690SOL     OW26968   1.834   2.635   3.680
 8690SOL    HW126969   1.881   2.685   3.753
 8690SOL    HW226970   1.737   2.624   3.704
 8691SOL     OW26971   4.470   2.624   6.171
 8691SOL    HW126972   4.490   2.533   6.134
 8691SOL    HW226973   4.382   2.656   6.136
 8692SOL     OW26974   3.606   2.129   2.659
 8692SOL    HW126975   3.628   2.062   2.588
 8692SOL    HW226976   3.542   2.196   2.623
 8693SOL     OW26977   5.398   1.397   0.835
 8693SOL    HW126978   5.456   1.358   0.907
 8693SOL    HW226979   5.398   1.337   0.755
 8694SOL     OW26980   4.124   1.283   6.195
 8694SOL    HW126981   4.069   1.227   6.257
 8694SOL    HW226982   4.196   1.330   6.247
 8695SOL     OW26983   4.414   2.903   5.868
 8695SOL    HW126984   4.492   2.901   5.806
 8695SOL    HW226985   4.336   2.858   5.825
 8696SOL     OW26986   3.226   6.070   0.797
 8696SOL    HW126987   3.300   6.092   0.860
 8696SOL    HW226988   3.138   6.089   0.840
 8697SOL     OW26989   6.384   3.344   0.794
 8697SOL    HW126990   6.367   3.415   0.726
 8697SOL    HW226991   6.428   3.384   0.874
 8698SOL     OW26992   6.094   6.039   3.957
 8698SOL    HW126993   6.102   6.114   4.023
 8698SOL    HW226994   6.122   5.953   4.000
 8699SOL     OW26995   1.432   2.649   5.452
 8699SOL    HW126996   1.483   2.735   5.444
 8699SOL    HW226997   1.335   2.669   5.463
 8700SOL     OW26998   2.322   1.197   4.521
 8700SOL    HW126999   2.298   1.125   4.587
 8700SOL    HW227000   2.240   1.249   4.497
 8701SOL     OW27001   1.415   0.312   6.796
 8701SOL    HW127002   1.494   0.252   6.796
 8701SOL    HW227003   1.369   0.309   6.885
 8702SOL     OW27004   5.510   4.952   0.412
 8702SOL    HW127005   5.442   4.986   0.477
 8702SOL    HW227006   5.582   4.903   0.461
 8703SOL     OW27007   2.655   5.421   1.225
 8703SOL    HW127008   2.647   5.431   1.324
 8703SOL    HW227009   2.729   5.479   1.192
 8704SOL     OW27010   6.008   3.598   2.683
 8704SOL    HW127011   6.002   3.542   2.766
 8704SOL    HW227012   6.095   3.648   2.683
 8705SOL     OW27013   4.721   0.638   0.649
 8705SOL    HW127014   4.784   0.560   0.653
 8705SOL    HW227015   4.748   0.706   0.718
 8706SOL     OW27016   4.600   1.685   6.203
 8706SOL    HW127017   4.537   1.610   6.186
 8706SOL    HW227018   4.581   1.760   6.140
 8707SOL     OW27019   5.261   2.274   6.960
 8707SOL    HW127020   5.201   2.250   6.883
 8707SOL    HW227021   5.218   2.247   0.023
 8708SOL     OW27022   4.213   2.215   2.226
 8708SOL    HW127023   4.147   2.225   2.152
 8708SOL    HW227024   4.250   2.122   2.225
 8709SOL     OW27025   6.849   6.154   6.358
 8709SOL    HW127026   6.810   6.149   6.450
 8709SOL    HW227027   6.938   6.109   6.357
 8710SOL     OW27028   1.909   3.795   3.103
 8710SOL    HW127029   1.968   3.763   3.177
 8710SOL    HW227030   1.963   3.806   3.019
 8711SOL     OW27031   0.052   5.923   2.475
 8711SOL    HW127032   0.145   5.959   2.491
 8711SOL    HW227033   0.054   5.861   2.397
 8712SOL     OW27034   4.201   2.135   4.331
 8712SOL    HW127035   4.170   2.185   4.250
 8712SOL    HW227036   4.282   2.180   4.369
 8713SOL     OW27037   0.471   4.498   3.639
 8713SOL    HW127038   0.505   4.407   3.615
 8713SOL    HW227039   0.462   4.504   3.738
 8714SOL     OW27040   0.398   0.857   5.944
 8714SOL    HW127041   0.320   0.818   5.896
 8714SOL    HW227042   0.402   0.956   5.927
 8715SOL     OW27043   5.111   0.135   0.854
 8715SOL    HW127044   5.206   0.160   0.877
 8715SOL    HW227045   5.090   0.167   0.761
 8716SOL     OW27046   0.857   0.747   1.359
 8716SOL    HW127047   0.853   0.700   1.271
 8716SOL    HW227048   0.934   0.711   1.413
 8717SOL     OW27049   3.837   3.056   2.945
 8717SOL    HW127050   3.870   3.150   2.957
 8717SOL    HW227051   3.859   3.024   2.853
 8718SOL     OW27052   0.593   3.161   5.433
 8718SOL    HW127053   0.678   3.111   5.412
 8718SOL    HW227054   0.582   3.165   5.532
 8719SOL     OW27055   1.893   0.109   6.121
 8719SOL    HW127056   1.836   0.104   6.039
 8719SOL    HW227057   1.840   0.083   6.201
 8720SOL     OW27058   6.372   4.974   5.889
 8720SOL    HW127059   6.351   5.007   5.798
 8720SOL    HW227060   6.393   5.051   5.949
 8721SOL     OW27061   5.846   2.324   3.770
 8721SOL    HW127062   5.789   2.247   3.742
 8721SOL    HW227063   5.789   2.393   3.816
 8722SOL     OW27064   3.850   0.797   0.667
 8722SOL    HW127065   3.843   0.701   0.640
 8722SOL    HW227066   3.766   0.845   0.640
 8723SOL     OW27067   5.499   5.924   1.264
 8723SOL    HW127068   5.530   5.992   1.197
 8723SOL    HW227069   5.402   5.937   1.283
 8724SOL     OW27070   6.198   0.215   5.238
 8724SOL    HW127071   6.247   0.295   5.271
 8724SOL    HW227072   6.209   0.208   5.138
 8725SOL     OW27073   2.677   6.970   6.597
 8725SOL    HW127074   2.659   6.991   6.693
 8725SOL    HW227075   2.601   6.917   6.560
 8726SOL     OW27076   6.390   0.884   1.750
 8726SOL    HW127077   6.429   0.961   1.700
 8726SOL    HW227078   6.290   0.889   1.747
 8727SOL     OW27079   0.004   0.018   1.694
 8727SOL    HW127080   0.067   0.014   1.616
 8727SOL    HW227081   7.011   0.114   1.719
 8728SOL     OW27082   3.952   6.923   4.391
 8728SOL    HW127083   3.948   6.824   4.402
 8728SOL    HW227084   3.982   6.965   4.476
 8729SOL     OW27085   4.330   6.072   3.346
 8729SOL    HW127086   4.337   6.085   3.444
 8729SOL    HW227087   4.233   6.076   3.319
 8730SOL     OW27088   6.446   4.405   2.507
 8730SOL    HW127089   6.385   4.449   2.573
 8730SOL    HW227090   6.409   4.316   2.482
 8731SOL     OW27091   1.928   1.815   2.688
 8731SOL    HW127092   1.858   1.768   2.635
 8731SOL    HW227093   1.889   1.846   2.775
 8732SOL     OW27094   5.039   4.697   1.900
 8732SOL    HW127095   5.081   4.642   1.972
 8732SOL    HW227096   5.063   4.660   1.810
 8733SOL     OW27097   1.489   5.943   3.386
 8733SOL    HW127098   1.542   5.859   3.388
 8733SOL    HW227099   1.439   5.949   3.299
 8734SOL     OW27100   0.791   4.775   1.918
 8734SOL    HW127101   0.740   4.840   1.861
 8734SOL    HW227102   0.808   4.815   2.008
 8735SOL     OW27103   0.621   1.689   6.900
 8735SOL    HW127104   0.627   1.768   6.838
 8735SOL    HW227105   0.617   1.721   6.995
 8736SOL     OW27106   0.756   6.647   6.886
 8736SOL    HW127107   0.856   6.649   6.889
 8736SOL    HW227108   0.721   6.741   6.889
 8737SOL     OW27109   2.996   6.740   5.745
 8737SOL    HW127110   3.054   6.700   5.675
 8737SOL    HW227111   3.049   6.756   5.828
 8738SOL     OW27112   1.637   4.545   3.562
 8738SOL    HW127113   1.672   4.508   3.648
 8738SOL    HW227114   1.557   4.493   3.533
 8739SOL     OW27115   6.097   4.925   6.088
 8739SOL    HW127116   6.167   4.909   6.019
 8739SOL    HW227117   6.061   5.018   6.079
 8740SOL     OW27118   4.695   1.375   5.505
 8740SOL    HW127119   4.761   1.442   5.539
 8740SOL    HW227120   4.730   1.334   5.421
 8741SOL     OW27121   2.589   0.793   2.336
 8741SOL    HW127122   2.491   0.785   2.322
 8741SOL    HW227123   2.608   0.830   2.427
 8742SOL     OW27124   5.684   5.774   1.438
 8742SOL    HW127125   5.777   5.784   1.405
 8742SOL    HW227126   5.620   5.816   1.373
 8743SOL     OW27127   2.447   6.691   2.528
 8743SOL    HW127128   2.368   6.741   2.492
 8743SOL    HW227129   2.417   6.625   2.596
 8744SOL     OW27130   3.971   2.464   6.206
 8744SOL    HW127131   3.890   2.496   6.157
 8744SOL    HW227132   4.032   2.541   6.224
 8745SOL     OW27133   6.361   2.544   6.217
 8745SOL    HW127134   6.374   2.640   6.192
 8745SOL    HW227135   6.291   2.503   6.159
 8746SOL     OW27136   4.510   4.342   5.308
 8746SOL    HW127137   4.546   4.256   5.345
 8746SOL    HW227138   4.430   4.323   5.250
 8747SOL     OW27139   0.552   2.762   3.052
 8747SOL    HW127140   0.504   2.769   3.139
 8747SOL    HW227141   0.578   2.854   3.021
 8748SOL     OW27142   0.197   1.339   6.365
 8748SOL    HW127143   0.289   1.377   6.379
 8748SOL    HW227144   0.186   1.312   6.270
 8749SOL     OW27145   2.875   0.153   5.233
 8749SOL    HW127146   2.959   0.109   5.200
 8749SOL    HW227147   2.871   0.149   5.332
 8750SOL     OW27148   2.910   3.254   5.255
 8750SOL    HW127149   2.882   3.311   5.178
 8750SOL    HW227150   2.963   3.309   5.320
 8751SOL     OW27151   6.284   6.835   2.483
 8751SOL    HW127152   6.317   6.820   2.576
 8751SOL    HW227153   6.218   6.764   2.459
 8752SOL     OW27154   2.961   4.309   6.578
 8752SOL    HW127155   2.895   4.244   6.615
 8752SOL    HW227156   3.049   4.298   6.624
 8753SOL     OW27157   4.934   1.450   4.766
 8753SOL    HW127158   5.033   1.459   4.754
 8753SOL    HW227159   4.893   1.541   4.774
 8754SOL     OW27160   1.487   1.776   6.091
 8754SOL    HW127161   1.419   1.704   6.107
 8754SOL    HW227162   1.578   1.739   6.109
 8755SOL     OW27163   2.535   1.235   6.544
 8755SOL    HW127164   2.537   1.272   6.452
 8755SOL    HW227165   2.470   1.287   6.600
 8756SOL     OW27166   2.086   3.648   3.260
 8756SOL    HW127167   2.081   3.592   3.177
 8756SOL    HW227168   2.100   3.589   3.339
 8757SOL     OW27169   5.610   6.765   5.795
 8757SOL    HW127170   5.519   6.746   5.760
 8757SOL    HW227171   5.603   6.806   5.886
 8758SOL     OW27172   4.835   6.161   2.205
 8758SOL    HW127173   4.747   6.166   2.158
 8758SOL    HW227174   4.826   6.106   2.288
 8759SOL     OW27175   4.218   2.302   6.212
 8759SOL    HW127176   4.133   2.354   6.224
 8759SOL    HW227177   4.197   2.209   6.183
 8760SOL     OW27178   2.203   1.685   5.071
 8760SOL    HW127179   2.169   1.700   5.164
 8760SOL    HW227180   2.240   1.593   5.063
 8761SOL     OW27181   4.111   0.753   1.251
 8761SOL    HW127182   4.038   0.694   1.283
 8761SOL    HW227183   4.164   0.705   1.181
 8762SOL     OW27184   1.221   3.497   2.881
 8762SOL    HW127185   1.231   3.432   2.806
 8762SOL    HW227186   1.208   3.589   2.843
 8763SOL     OW27187   6.119   5.822   4.870
 8763SOL    HW127188   6.132   5.815   4.771
 8763SOL    HW227189   6.054   5.752   4.900
 8764SOL     OW27190   4.788   0.838   4.518
 8764SOL    HW127191   4.755   0.764   4.459
 8764SOL    HW227192   4.750   0.925   4.486
 8765SOL     OW27193   5.925   6.913   4.941
 8765SOL    HW127194   6.006   6.858   4.964
 8765SOL    HW227195   5.886   6.880   4.855
 8766SOL     OW27196   3.708   4.895   3.159
 8766SOL    HW127197   3.806   4.909   3.143
 8766SOL    HW227198   3.659   4.899   3.072
 8767SOL     OW27199   4.209   0.802   3.374
 8767SOL    HW127200   4.265   0.776   3.453
 8767SOL    HW227201   4.233   0.894   3.345
 8768SOL     OW27202   1.512   2.815   0.199
 8768SOL    HW127203   1.579   2.789   0.268
 8768SOL    HW227204   1.558   2.828   0.111
 8769SOL     OW27205   1.218   6.906   4.740
 8769SOL    HW127206   1.273   6.947   4.668
 8769SOL    HW227207   1.264   6.825   4.776
 8770SOL     OW27208   4.993   4.485   2.153
 8770SOL    HW127209   5.060   4.452   2.087
 8770SOL    HW227210   5.041   4.530   2.229
 8771SOL     OW27211   1.678   0.641   5.717
 8771SOL    HW127212   1.763   0.618   5.670
 8771SOL    HW227213   1.699   0.682   5.806
 8772SOL     OW27214   6.138   6.936   0.011
 8772SOL    HW127215   6.125   6.973   0.103
 8772SOL    HW227216   6.049   6.922   6.990
 8773SOL     OW27217   4.866   1.954   3.480
 8773SOL    HW127218   4.885   2.037   3.533
 8773SOL    HW227219   4.942   1.890   3.490
 8774SOL     OW27220   2.218   1.297   0.428
 8774SOL    HW127221   2.301   1.251   0.397
 8774SOL    HW227222   2.236   1.344   0.514
 8775SOL     OW27223   6.259   0.283   4.293
 8775SOL    HW127224   6.175   0.261   4.343
 8775SOL    HW227225   6.294   0.371   4.324
 8776SOL     OW27226   2.997   3.170   4.945
 8776SOL    HW127227   2.953   3.237   4.885
 8776SOL    HW227228   2.937   3.091   4.957
 8777SOL     OW27229   0.042   4.081   1.077
 8777SOL    HW127230   0.045   4.150   1.004
 8777SOL    HW227231   0.112   4.012   1.061
 8778SOL     OW27232   6.581   2.696   4.292
 8778SOL    HW127233   6.648   2.746   4.238
 8778SOL    HW227234   6.601   2.710   4.390
 8779SOL     OW27235   2.216   5.395   1.932
 8779SOL    HW127236   2.144   5.326   1.922
 8779SOL    HW227237   2.305   5.353   1.909
 8780SOL     OW27238   1.429   5.765   3.706
 8780SOL    HW127239   1.353   5.772   3.771
 8780SOL    HW227240   1.392   5.745   3.615
 8781SOL     OW27241   6.519   2.256   4.272
 8781SOL    HW127242   6.500   2.350   4.243
 8781SOL    HW227243   6.612   2.231   4.245
 8782SOL     OW27244   5.542   0.670   1.447
 8782SOL    HW127245   5.447   0.679   1.418
 8782SOL    HW227246   5.600   0.660   1.366
 8783SOL     OW27247   5.639   3.319   3.706
 8783SOL    HW127248   5.694   3.300   3.625
 8783SOL    HW227249   5.677   3.399   3.754
 8784SOL     OW27250   5.132   4.410   4.887
 8784SOL    HW127251   5.147   4.441   4.793
 8784SOL    HW227252   5.063   4.467   4.930
 8785SOL     OW27253   5.990   3.306   0.094
 8785SOL    HW127254   5.898   3.320   0.131
 8785SOL    HW227255   6.025   3.393   0.059
 8786SOL     OW27256   2.729   6.691   0.188
 8786SOL    HW127257   2.780   6.644   0.116
 8786SOL    HW227258   2.793   6.740   0.247
 8787SOL     OW27259   1.495   2.607   1.916
 8787SOL    HW127260   1.549   2.562   1.845
 8787SOL    HW227261   1.398   2.583   1.903
 8788SOL     OW27262   6.513   2.045   5.675
 8788SOL    HW127263   6.609   2.058   5.703
 8788SOL    HW227264   6.477   1.963   5.720
 8789SOL     OW27265   6.146   0.512   5.530
 8789SOL    HW127266   6.072   0.448   5.511
 8789SOL    HW227267   6.183   0.495   5.622
 8790SOL     OW27268   6.786   1.147   0.604
 8790SOL    HW127269   6.857   1.181   0.666
 8790SOL    HW227270   6.749   1.061   0.640
 8791SOL     OW27271   5.395   6.767   5.334
 8791SOL    HW127272   5.336   6.727   5.404
 8791SOL    HW227273   5.346   6.843   5.289
 8792SOL     OW27274   3.702   6.343   2.876
 8792SOL    HW127275   3.664   6.278   2.809
 8792SOL    HW227276   3.671   6.319   2.967
 8793SOL     OW27277   1.905   5.743   3.891
 8793SOL    HW127278   1.966   5.669   3.919
 8793SOL    HW227279   1.818   5.703   3.859
 8794SOL     OW27280   4.002   6.644   1.857
 8794SOL    HW127281   4.046   6.619   1.771
 8794SOL    HW227282   4.015   6.570   1.923
 8795SOL     OW27283   1.440   6.759   5.161
 8795SOL    HW127284   1.461   6.662   5.143
 8795SOL    HW227285   1.510   6.816   5.119
 8796SOL     OW27286   3.936   0.822   5.245
 8796SOL    HW127287   3.998   0.745   5.262
 8796SOL    HW227288   3.985   0.908   5.255
 8797SOL     OW27289   1.000   6.885   5.354
 8797SOL    HW127290   1.031   6.976   5.383
 8797SOL    HW227291   0.905   6.871   5.384
 8798SOL     OW27292   5.296   4.593   5.245
 8798SOL    HW127293   5.314   4.538   5.164
 8798SOL    HW227294   5.247   4.676   5.219
 8799SOL     OW27295   2.124   4.846   3.006
 8799SOL    HW127296   2.155   4.874   3.097
 8799SOL    HW227297   2.202   4.809   2.955
 8800SOL     OW27298   5.769   3.757   5.063
 8800SOL    HW127299   5.734   3.761   4.969
 8800SOL    HW227300   5.868   3.770   5.062
 8801SOL     OW27301   2.091   1.371   4.497
 8801SOL    HW127302   2.021   1.421   4.445
 8801SOL    HW227303   2.135   1.433   4.561
 8802SOL     OW27304   1.377   0.535   0.942
 8802SOL    HW127305   1.386   0.454   1.001
 8802SOL    HW227306   1.297   0.524   0.882
 8803SOL     OW27307   1.459   4.725   5.862
 8803SOL    HW127308   1.555   4.702   5.880
 8803SOL    HW227309   1.409   4.725   5.949
 8804SOL     OW27310   3.251   0.767   1.959
 8804SOL    HW127311   3.229   0.703   1.886
 8804SOL    HW227312   3.351   0.776   1.967
 8805SOL     OW27313   2.284   0.522   3.979
 8805SOL    HW127314   2.320   0.541   4.070
 8805SOL    HW227315   2.220   0.445   3.983
 8806SOL     OW27316   2.042   5.226   1.407
 8806SOL    HW127317   2.076   5.148   1.460
 8806SOL    HW227318   2.096   5.307   1.429
 8807SOL     OW27319   6.299   6.027   5.912
 8807SOL    HW127320   6.382   6.017   5.967
 8807SOL    HW227321   6.229   5.963   5.944
 8808SOL     OW27322   5.850   1.655   0.766
 8808SOL    HW127323   5.763   1.704   0.770
 8808SOL    HW227324   5.921   1.709   0.811
 8809SOL     OW27325   5.359   4.247   2.376
 8809SOL    HW127326   5.411   4.165   2.397
 8809SOL    HW227327   5.404   4.297   2.301
 8810SOL     OW27328   5.662   1.279   5.374
 8810SOL    HW127329   5.619   1.198   5.334
 8810SOL    HW227330   5.760   1.264   5.382
 8811SOL     OW27331   2.459   1.710   4.036
 8811SOL    HW127332   2.414   1.761   4.109
 8811SOL    HW227333   2.505   1.774   3.974
 8812SOL     OW27334   1.339   0.871   0.583
 8812SOL    HW127335   1.339   0.887   0.682
 8812SOL    HW227336   1.372   0.953   0.537
 8813SOL     OW27337   0.964   4.537   1.587
 8813SOL    HW127338   1.022   4.482   1.527
 8813SOL    HW227339   1.019   4.575   1.661
 8814SOL     OW27340   6.219   0.969   0.861
 8814SOL    HW127341   6.148   1.025   0.903
 8814SOL    HW227342   6.306   0.986   0.906
 8815SOL     OW27343   6.834   6.086   0.748
 8815SOL    HW127344   6.930   6.064   0.767
 8815SOL    HW227345   6.830   6.168   0.691
 8816SOL     OW27346   1.588   0.173   0.712
 8816SOL    HW127347   1.659   0.244   0.719
 8816SOL    HW227348   1.578   0.146   0.617
 8817SOL     OW27349   0.511   5.785   5.914
 8817SOL    HW127350   0.482   5.880   5.908
 8817SOL    HW227351   0.538   5.753   5.823
 8818SOL     OW27352   0.132   3.671   3.386
 8818SOL    HW127353   0.224   3.650   3.352
 8818SOL    HW227354   0.125   3.644   3.482
 8819SOL     OW27355   4.425   5.477   4.263
 8819SOL    HW127356   4.519   5.512   4.260
 8819SOL    HW227357   4.422   5.388   4.218
 8820SOL     OW27358   2.439   2.052   4.173
 8820SOL    HW127359   2.414   2.005   4.258
 8820SOL    HW227360   2.512   2.118   4.192
 8821SOL     OW27361   1.511   6.468   6.963
 8821SOL    HW127362   1.591   6.527   6.950
 8821SOL    HW227363   1.450   6.509   0.008
 8822SOL     OW27364   0.962   0.371   3.393
 8822SOL    HW127365   1.004   0.368   3.484
 8822SOL    HW227366   1.027   0.335   3.326
 8823SOL     OW27367   2.231   0.756   0.793
 8823SOL    HW127368   2.249   0.847   0.829
 8823SOL    HW227369   2.157   0.713   0.845
 8824SOL     OW27370   1.827   3.810   0.800
 8824SOL    HW127371   1.920   3.779   0.824
 8824SOL    HW227372   1.801   3.772   0.711
 8825SOL     OW27373   1.755   1.028   3.657
 8825SOL    HW127374   1.722   1.020   3.751
 8825SOL    HW227375   1.705   0.964   3.598
 8826SOL     OW27376   6.446   2.303   0.605
 8826SOL    HW127377   6.431   2.214   0.650
 8826SOL    HW227378   6.376   2.368   0.636
 8827SOL     OW27379   3.173   1.521   2.936
 8827SOL    HW127380   3.128   1.610   2.928
 8827SOL    HW227381   3.264   1.533   2.975
 8828SOL     OW27382   4.161   5.296   4.138
 8828SOL    HW127383   4.132   5.346   4.056
 8828SOL    HW227384   4.098   5.316   4.213
 8829SOL     OW27385   0.349   2.605   0.086
 8829SOL    HW127386   0.405   2.621   0.005
 8829SOL    HW227387   0.253   2.627   0.066
 8830SOL     OW27388   0.284   1.619   1.081
 8830SOL    HW127389   0.220   1.596   1.008
 8830SOL    HW227390   0.365   1.561   1.074
 8831SOL     OW27391   5.516   1.275   3.278
 8831SOL    HW127392   5.420   1.301   3.276
 8831SOL    HW227393   5.523   1.175   3.275
 8832SOL     OW27394   6.255   6.351   2.650
 8832SOL    HW127395   6.179   6.324   2.708
 8832SOL    HW227396   6.341   6.325   2.693
 8833SOL     OW27397   1.876   6.459   5.465
 8833SOL    HW127398   1.972   6.453   5.438
 8833SOL    HW227399   1.824   6.501   5.391
 8834SOL     OW27400   5.534   3.828   4.526
 8834SOL    HW127401   5.482   3.755   4.570
 8834SOL    HW227402   5.543   3.808   4.428
 8835SOL     OW27403   6.156   0.647   6.024
 8835SOL    HW127404   6.096   0.686   5.954
 8835SOL    HW227405   6.224   0.715   6.052
 8836SOL     OW27406   4.685   1.049   6.932
 8836SOL    HW127407   4.699   1.109   7.011
 8836SOL    HW227408   4.759   0.982   6.927
 8837SOL     OW27409   0.600   0.002   2.379
 8837SOL    HW127410   0.525   0.064   2.358
 8837SOL    HW227411   0.682   0.056   2.401
 8838SOL     OW27412   2.881   5.172   2.978
 8838SOL    HW127413   2.917   5.085   3.011
 8838SOL    HW227414   2.781   5.166   2.971
 8839SOL     OW27415   5.466   5.477   2.380
 8839SOL    HW127416   5.396   5.523   2.325
 8839SOL    HW227417   5.515   5.410   2.324
 8840SOL     OW27418   6.861   2.365   1.875
 8840SOL    HW127419   6.927   2.373   1.800
 8840SOL    HW227420   6.892   2.295   1.939
 8841SOL     OW27421   1.515   0.847   5.036
 8841SOL    HW127422   1.555   0.842   4.944
 8841SOL    HW227423   1.438   0.784   5.043
 8842SOL     OW27424   3.551   2.703   0.458
 8842SOL    HW127425   3.477   2.636   0.462
 8842SOL    HW227426   3.535   2.774   0.527
 8843SOL     OW27427   1.639   2.904   5.377
 8843SOL    HW127428   1.676   2.816   5.407
 8843SOL    HW227429   1.693   2.938   5.301
 8844SOL     OW27430   5.652   1.212   0.142
 8844SOL    HW127431   5.585   1.275   0.181
 8844SOL    HW227432   5.735   1.261   0.120
 8845SOL     OW27433   4.388   4.242   0.121
 8845SOL    HW127434   4.394   4.155   0.168
 8845SOL    HW227435   4.395   4.227   0.022
 8846SOL     OW27436   2.231   6.050   4.051
 8846SOL    HW127437   2.318   6.007   4.075
 8846SOL    HW227438   2.235   6.148   4.075
 8847SOL     OW27439   2.953   0.990   2.906
 8847SOL    HW127440   2.940   1.055   2.830
 8847SOL    HW227441   3.048   0.958   2.905
 8848SOL     OW27442   2.725   0.787   1.318
 8848SOL    HW127443   2.651   0.854   1.307
 8848SOL    HW227444   2.788   0.794   1.241
 8849SOL     OW27445   3.213   6.310   3.115
 8849SOL    HW127446   3.239   6.351   3.203
 8849SOL    HW227447   3.165   6.379   3.060
 8850SOL     OW27448   1.381   1.579   0.175
 8850SOL    HW127449   1.428   1.506   0.124
 8850SOL    HW227450   1.286   1.551   0.191
 8851SOL     OW27451   1.909   4.464   2.599
 8851SOL    HW127452   1.866   4.496   2.684
 8851SOL    HW227453   1.928   4.366   2.607
 8852SOL     OW27454   0.955   1.953   5.341
 8852SOL    HW127455   1.025   1.907   5.395
 8852SOL    HW227456   0.997   2.029   5.291
 8853SOL     OW27457   2.981   0.733   2.014
 8853SOL    HW127458   3.081   0.733   2.018
 8853SOL    HW227459   2.945   0.816   2.057
 8854SOL     OW27460   2.142   3.253   4.534
 8854SOL    HW127461   2.060   3.237   4.479
 8854SOL    HW227462   2.183   3.341   4.509
 8855SOL     OW27463   6.214   5.064   1.470
 8855SOL    HW127464   6.215   4.979   1.521
 8855SOL    HW227465   6.285   5.125   1.504
 8856SOL     OW27466   6.799   6.133   6.835
 8856SOL    HW127467   6.728   6.202   6.847
 8856SOL    HW227468   6.784   6.058   6.900
 8857SOL     OW27469   6.553   1.667   5.121
 8857SOL    HW127470   6.582   1.711   5.036
 8857SOL    HW227471   6.474   1.716   5.158
 8858SOL     OW27472   0.059   4.657   4.767
 8858SOL    HW127473   0.102   4.739   4.730
 8858SOL    HW227474   0.021   4.603   4.693
 8859SOL     OW27475   1.182   1.021   3.889
 8859SOL    HW127476   1.102   1.024   3.829
 8859SOL    HW227477   1.155   0.983   3.977
 8860SOL     OW27478   0.087   3.078   1.205
 8860SOL    HW127479   7.011   3.066   1.216
 8860SOL    HW227480   0.127   2.993   1.172
 8861SOL     OW27481   3.917   1.167   0.404
 8861SOL    HW127482   3.994   1.159   0.341
 8861SOL    HW227483   3.885   1.262   0.406
 8862SOL     OW27484   4.928   5.928   3.833
 8862SOL    HW127485   4.998   5.996   3.813
 8862SOL    HW227486   4.908   5.928   3.931
 8863SOL     OW27487   1.828   4.886   3.208
 8863SOL    HW127488   1.734   4.858   3.190
 8863SOL    HW227489   1.884   4.805   3.226
 8864SOL     OW27490   4.570   4.019   6.837
 8864SOL    HW127491   4.644   4.071   6.794
 8864SOL    HW227492   4.549   3.940   6.779
 8865SOL     OW27493   2.876   1.015   5.542
 8865SOL    HW127494   2.879   0.919   5.518
 8865SOL    HW227495   2.896   1.071   5.461
 8866SOL     OW27496   4.921   6.737   2.953
 8866SOL    HW127497   4.953   6.698   2.867
 8866SOL    HW227498   4.955   6.682   3.029
 8867SOL     OW27499   5.986   3.532   3.591
 8867SOL    HW127500   6.023   3.532   3.684
 8867SOL    HW227501   5.983   3.439   3.556
 8868SOL     OW27502   6.557   3.547   2.542
 8868SOL    HW127503   6.563   3.503   2.453
 8868SOL    HW227504   6.627   3.511   2.602
 8869SOL     OW27505   3.728   6.048   4.946
 8869SOL    HW127506   3.691   6.000   4.867
 8869SOL    HW227507   3.709   6.146   4.938
 8870SOL     OW27508   2.058   6.922   1.544
 8870SOL    HW127509   1.972   6.950   1.503
 8870SOL    HW227510   2.086   6.989   1.612
 8871SOL     OW27511   1.689   1.331   3.328
 8871SOL    HW127512   1.640   1.379   3.401
 8871SOL    HW227513   1.781   1.369   3.318
 8872SOL     OW27514   1.407   4.435   6.292
 8872SOL    HW127515   1.320   4.393   6.266
 8872SOL    HW227516   1.399   4.535   6.284
 8873SOL     OW27517   1.882   0.566   1.378
 8873SOL    HW127518   1.893   0.619   1.294
 8873SOL    HW227519   1.853   0.626   1.452
 8874SOL     OW27520   1.184   5.803   1.988
 8874SOL    HW127521   1.128   5.773   1.910
 8874SOL    HW227522   1.226   5.891   1.967
 8875SOL     OW27523   0.023   3.511   4.120
 8875SOL    HW127524   6.982   3.459   4.063
 8875SOL    HW227525   0.093   3.552   4.062
 8876SOL     OW27526   3.126   0.638   6.292
 8876SOL    HW127527   3.211   0.690   6.279
 8876SOL    HW227528   3.067   0.650   6.213
 8877SOL     OW27529   1.582   3.759   2.817
 8877SOL    HW127530   1.570   3.708   2.733
 8877SOL    HW227531   1.545   3.851   2.806
 8878SOL     OW27532   3.323   4.504   0.621
 8878SOL    HW127533   3.386   4.495   0.698
 8878SOL    HW227534   3.272   4.419   0.609
 8879SOL     OW27535   6.372   4.812   2.572
 8879SOL    HW127536   6.335   4.725   2.605
 8879SOL    HW227537   6.360   4.819   2.473
 8880SOL     OW27538   4.107   6.306   4.204
 8880SOL    HW127539   4.010   6.329   4.218
 8880SOL    HW227540   4.135   6.240   4.274
 8881SOL     OW27541   5.201   5.303   4.639
 8881SOL    HW127542   5.228   5.400   4.640
 8881SOL    HW227543   5.214   5.264   4.729
 8882SOL     OW27544   3.572   0.850   0.268
 8882SOL    HW127545   3.636   0.842   0.192
 8882SOL    HW227546   3.618   0.893   0.346
 8883SOL     OW27547   0.824   6.197   5.485
 8883SOL    HW127548   0.914   6.161   5.508
 8883SOL    HW227549   0.803   6.177   5.390
 8884SOL     OW27550   6.221   4.012   5.512
 8884SOL    HW127551   6.308   4.055   5.535
 8884SOL    HW227552   6.146   4.061   5.558
 8885SOL     OW27553   5.139   4.856   0.188
 8885SOL    HW127554   5.217   4.857   0.126
 8885SOL    HW227555   5.074   4.786   0.159
 8886SOL     OW27556   3.890   5.682   5.833
 8886SOL    HW127557   3.924   5.639   5.750
 8886SOL    HW227558   3.801   5.644   5.857
 8887SOL     OW27559   4.123   1.083   0.811
 8887SOL    HW127560   4.193   1.154   0.805
 8887SOL    HW227561   4.092   1.059   0.719
 8888SOL     OW27562   2.086   2.258   3.859
 8888SOL    HW127563   2.138   2.173   3.855
 8888SOL    HW227564   1.993   2.240   3.888
 8889SOL     OW27565   6.765   6.416   6.313
 8889SOL    HW127566   6.781   6.323   6.345
 8889SOL    HW227567   6.742   6.474   6.391
 8890SOL     OW27568   0.751   6.279   6.736
 8890SOL    HW127569   0.743   6.346   6.662
 8890SOL    HW227570   0.687   6.303   6.809
 8891SOL     OW27571   4.472   4.515   7.008
 8891SOL    HW127572   4.508   4.472   6.925
 8891SOL    HW227573   4.445   4.444   0.049
 8892SOL     OW27574   3.947   5.035   3.804
 8892SOL    HW127575   3.933   5.133   3.820
 8892SOL    HW227576   3.893   5.006   3.725
 8893SOL     OW27577   1.160   5.393   5.180
 8893SOL    HW127578   1.085   5.331   5.160
 8893SOL    HW227579   1.165   5.464   5.109
 8894SOL     OW27580   4.610   1.319   0.302
 8894SOL    HW127581   4.533   1.336   0.364
 8894SOL    HW227582   4.678   1.391   0.314
 8895SOL     OW27583   0.574   2.956   0.744
 8895SOL    HW127584   0.500   2.933   0.682
 8895SOL    HW227585   0.644   2.885   0.742
 8896SOL     OW27586   1.356   3.032   4.918
 8896SOL    HW127587   1.311   3.114   4.884
 8896SOL    HW227588   1.450   3.029   4.883
 8897SOL     OW27589   2.119   3.715   3.643
 8897SOL    HW127590   2.142   3.684   3.735
 8897SOL    HW227591   2.156   3.807   3.629
 8898SOL     OW27592   5.806   4.032   2.078
 8898SOL    HW127593   5.872   4.036   2.154
 8898SOL    HW227594   5.839   4.090   2.003
 8899SOL     OW27595   6.990   4.928   6.798
 8899SOL    HW127596   6.893   4.922   6.820
 8899SOL    HW227597   0.020   4.878   6.866
 8900SOL     OW27598   5.719   2.491   3.095
 8900SOL    HW127599   5.637   2.546   3.083
 8900SOL    HW227600   5.696   2.394   3.087
 8901SOL     OW27601   1.050   1.866   3.674
 8901SOL    HW127602   1.145   1.884   3.702
 8901SOL    HW227603   1.025   1.930   3.601
 8902SOL     OW27604   1.851   5.452   6.870
 8902SOL    HW127605   1.909   5.510   6.813
 8902SOL    HW227606   1.907   5.397   6.930
 8903SOL     OW27607   1.319   1.714   5.006
 8903SOL    HW127608   1.283   1.638   4.952
 8903SOL    HW227609   1.405   1.746   4.965
 8904SOL     OW27610   1.207   2.245   3.131
 8904SOL    HW127611   1.166   2.280   3.047
 8904SOL    HW227612   1.203   2.145   3.131
 8905SOL     OW27613   1.532   3.361   2.652
 8905SOL    HW127614   1.507   3.457   2.663
 8905SOL    HW227615   1.623   3.345   2.690
 8906SOL     OW27616   0.828   5.945   0.796
 8906SOL    HW127617   0.798   5.980   0.885
 8906SOL    HW227618   0.918   5.902   0.806
 8907SOL     OW27619   3.256   2.865   5.286
 8907SOL    HW127620   3.318   2.878   5.208
 8907SOL    HW227621   3.189   2.938   5.289
 8908SOL     OW27622   1.777   4.923   0.347
 8908SOL    HW127623   1.737   4.997   0.402
 8908SOL    HW227624   1.727   4.914   0.261
 8909SOL     OW27625   2.751   1.136   6.322
 8909SOL    HW127626   2.673   1.187   6.287
 8909SOL    HW227627   2.788   1.182   6.403
 8910SOL     OW27628   0.432   3.112   5.231
 8910SOL    HW127629   0.507   3.130   5.295
 8910SOL    HW227630   0.413   3.013   5.230
 8911SOL     OW27631   5.329   2.573   4.681
 8911SOL    HW127632   5.270   2.607   4.754
 8911SOL    HW227633   5.296   2.484   4.650
 8912SOL     OW27634   3.223   2.810   5.564
 8912SOL    HW127635   3.231   2.815   5.465
 8912SOL    HW227636   3.226   2.903   5.602
 8913SOL     OW27637   4.609   5.197   0.273
 8913SOL    HW127638   4.677   5.128   0.299
 8913SOL    HW227639   4.565   5.233   0.356
 8914SOL     OW27640   4.908   6.777   4.803
 8914SOL    HW127641   4.881   6.690   4.761
 8914SOL    HW227642   4.835   6.844   4.789
 8915SOL     OW27643   1.477   1.885   4.560
 8915SOL    HW127644   1.514   1.817   4.497
 8915SOL    HW227645   1.378   1.875   4.565
 8916SOL     OW27646   5.743   1.909   6.609
 8916SOL    HW127647   5.743   1.856   6.694
 8916SOL    HW227648   5.806   1.986   6.617
 8917SOL     OW27649   5.592   1.971   0.692
 8917SOL    HW127650   5.591   1.876   0.724
 8917SOL    HW227651   5.498   2.002   0.680
 8918SOL     OW27652   1.746   5.518   1.217
 8918SOL    HW127653   1.699   5.464   1.287
 8918SOL    HW227654   1.799   5.456   1.158
 8919SOL     OW27655   5.109   4.651   6.468
 8919SOL    HW127656   5.186   4.714   6.462
 8919SOL    HW227657   5.031   4.698   6.510
 8920SOL     OW27658   0.867   1.806   6.710
 8920SOL    HW127659   0.806   1.882   6.731
 8920SOL    HW227660   0.816   1.735   6.661
 8921SOL     OW27661   1.398   2.551   1.429
 8921SOL    HW127662   1.453   2.500   1.363
 8921SOL    HW227663   1.357   2.487   1.494
 8922SOL     OW27664   3.774   6.767   1.954
 8922SOL    HW127665   3.771   6.777   2.053
 8922SOL    HW227666   3.863   6.728   1.927
 8923SOL     OW27667   1.204   1.891   5.571
 8923SOL    HW127668   1.249   1.975   5.601
 8923SOL    HW227669   1.269   1.834   5.522
 8924SOL     OW27670   4.811   5.531   5.192
 8924SOL    HW127671   4.794   5.518   5.095
 8924SOL    HW227672   4.732   5.499   5.245
 8925SOL     OW27673   6.661   0.101   2.577
 8925SOL    HW127674   6.693   0.179   2.630
 8925SOL    HW227675   6.728   0.027   2.583
 8926SOL     OW27676   6.604   3.442   5.351
 8926SOL    HW127677   6.657   3.362   5.321
 8926SOL    HW227678   6.563   3.486   5.272
 8927SOL     OW27679   6.429   1.537   5.382
 8927SOL    HW127680   6.476   1.562   5.297
 8927SOL    HW227681   6.460   1.447   5.413
 8928SOL     OW27682   1.334   6.974   6.090
 8928SOL    HW127683   1.327   0.047   6.115
 8928SOL    HW227684   1.250   6.945   6.044
 8929SOL     OW27685   6.531   1.957   5.191
 8929SOL    HW127686   6.594   1.934   5.265
 8929SOL    HW227687   6.582   1.998   5.116
 8930SOL     OW27688   0.971   3.380   2.965
 8930SOL    HW127689   1.054   3.421   2.928
 8930SOL    HW227690   0.981   3.366   3.063
 8931SOL     OW27691   3.361   3.164   1.655
 8931SOL    HW127692   3.362   3.190   1.559
 8931SOL    HW227693   3.455   3.156   1.688
 8932SOL     OW27694   7.018   2.418   2.546
 8932SOL    HW127695   0.020   2.502   2.498
 8932SOL    HW227696   7.022   2.341   2.483
 8933SOL     OW27697   2.835   2.505   6.390
 8933SOL    HW127698   2.811   2.452   6.309
 8933SOL    HW227699   2.802   2.458   6.472
 8934SOL     OW27700   3.716   5.032   5.002
 8934SOL    HW127701   3.750   5.123   4.977
 8934SOL    HW227702   3.763   5.000   5.083
 8935SOL     OW27703   0.419   4.547   0.409
 8935SOL    HW127704   0.433   4.454   0.374
 8935SOL    HW227705   0.506   4.586   0.437
 8936SOL     OW27706   1.696   3.732   6.941
 8936SOL    HW127707   1.598   3.715   6.947
 8936SOL    HW227708   1.724   3.731   6.845
 8937SOL     OW27709   0.661   6.902   4.926
 8937SOL    HW127710   0.633   6.974   4.862
 8937SOL    HW227711   0.699   6.825   4.875
 8938SOL     OW27712   0.725   5.534   0.992
 8938SOL    HW127713   0.720   5.434   0.994
 8938SOL    HW227714   0.676   5.568   0.912
 8939SOL     OW27715   4.839   2.786   4.201
 8939SOL    HW127716   4.809   2.703   4.156
 8939SOL    HW227717   4.775   2.861   4.181
 8940SOL     OW27718   0.195   0.853   3.775
 8940SOL    HW127719   0.195   0.943   3.818
 8940SOL    HW227720   0.101   0.821   3.765
 8941SOL     OW27721   5.446   2.297   5.630
 8941SOL    HW127722   5.415   2.236   5.703
 8941SOL    HW227723   5.537   2.267   5.599
 8942SOL     OW27724   1.048   4.036   5.872
 8942SOL    HW127725   1.034   3.971   5.797
 8942SOL    HW227726   1.135   4.084   5.859
 8943SOL     OW27727   4.053   3.953   0.266
 8943SOL    HW127728   4.033   3.858   0.290
 8943SOL    HW227729   4.145   3.977   0.297
 8944SOL     OW27730   4.935   4.907   5.173
 8944SOL    HW127731   4.865   4.933   5.239
 8944SOL    HW227732   4.892   4.864   5.093
 8945SOL     OW27733   1.917   1.045   4.103
 8945SOL    HW127734   1.982   1.038   4.027
 8945SOL    HW227735   1.829   1.008   4.074
 8946SOL     OW27736   3.024   1.585   5.336
 8946SOL    HW127737   2.960   1.583   5.260
 8946SOL    HW227738   3.081   1.502   5.334
 8947SOL     OW27739   1.072   3.797   5.077
 8947SOL    HW127740   1.118   3.866   5.021
 8947SOL    HW227741   1.072   3.710   5.027
 8948SOL     OW27742   6.204   5.889   4.174
 8948SOL    HW127743   6.294   5.850   4.153
 8948SOL    HW227744   6.162   5.837   4.248
 8949SOL     OW27745   1.878   0.433   0.910
 8949SOL    HW127746   1.855   0.420   0.814
 8949SOL    HW227747   1.814   0.498   0.951
 8950SOL     OW27748   4.774   3.083   5.785
 8950SOL    HW127749   4.836   3.104   5.709
 8950SOL    HW227750   4.710   3.012   5.757
 8951SOL     OW27751   1.249   2.418   5.097
 8951SOL    HW127752   1.341   2.420   5.137
 8951SOL    HW227753   1.204   2.506   5.114
 8952SOL     OW27754   0.969   0.609   1.998
 8952SOL    HW127755   1.034   0.684   1.988
 8952SOL    HW227756   1.001   0.530   1.946
 8953SOL     OW27757   1.140   3.849   0.003
 8953SOL    HW127758   1.236   3.819   0.005
 8953SOL    HW227759   1.082   3.776   0.037
 8954SOL     OW27760   0.433   6.047   5.875
 8954SOL    HW127761   0.513   6.041   5.815
 8954SOL    HW227762   0.360   6.096   5.828
 8955SOL     OW27763   0.404   4.375   2.324
 8955SOL    HW127764   0.448   4.299   2.372
 8955SOL    HW227765   0.305   4.362   2.324
 8956SOL     OW27766   6.912   1.553   7.013
 8956SOL    HW127767   6.847   1.492   6.969
 8956SOL    HW227768   6.890   1.562   0.087
 8957SOL     OW27769   3.089   4.090   1.498
 8957SOL    HW127770   3.157   4.162   1.490
 8957SOL    HW227771   3.013   4.108   1.435
 8958SOL     OW27772   0.975   0.683   4.160
 8958SOL    HW127773   0.900   0.643   4.212
 8958SOL    HW227774   1.014   0.613   4.099
 8959SOL     OW27775   1.908   4.478   1.248
 8959SOL    HW127776   1.850   4.468   1.167
 8959SOL    HW227777   2.003   4.458   1.224
 8960SOL     OW27778   5.273   5.610   2.221
 8960SOL    HW127779   5.241   5.527   2.176
 8960SOL    HW227780   5.197   5.675   2.228
 8961SOL     OW27781   1.951   2.115   4.400
 8961SOL    HW127782   1.945   2.031   4.347
 8961SOL    HW227783   1.989   2.095   4.491
 8962SOL     OW27784   6.456   6.576   2.224
 8962SOL    HW127785   6.445   6.524   2.309
 8962SOL    HW227786   6.461   6.674   2.245
 8963SOL     OW27787   4.992   6.641   4.457
 8963SOL    HW127788   4.920   6.635   4.526
 8963SOL    HW227789   4.958   6.692   4.378
 8964SOL     OW27790   6.012   3.705   3.232
 8964SOL    HW127791   5.969   3.746   3.151
 8964SOL    HW227792   6.084   3.765   3.266
 8965SOL     OW27793   1.892   4.780   1.192
 8965SOL    HW127794   1.972   4.787   1.132
 8965SOL    HW227795   1.895   4.693   1.241
 8966SOL     OW27796   1.766   3.813   5.479
 8966SOL    HW127797   1.809   3.722   5.476
 8966SOL    HW227798   1.820   3.874   5.535
 8967SOL     OW27799   3.086   5.776   1.562
 8967SOL    HW127800   3.079   5.818   1.472
 8967SOL    HW227801   3.172   5.804   1.606
 8968SOL     OW27802   5.074   5.278   2.386
 8968SOL    HW127803   5.152   5.310   2.440
 8968SOL    HW227804   5.096   5.286   2.289
 8969SOL     OW27805   6.297   0.290   4.025
 8969SOL    HW127806   6.246   0.225   3.970
 8969SOL    HW227807   6.267   0.285   4.121
 8970SOL     OW27808   3.051   2.207   0.737
 8970SOL    HW127809   3.037   2.206   0.638
 8970SOL    HW227810   3.149   2.214   0.756
 8971SOL     OW27811   3.806   5.427   2.398
 8971SOL    HW127812   3.861   5.502   2.361
 8971SOL    HW227813   3.711   5.437   2.368
 8972SOL     OW27814   4.864   5.665   6.171
 8972SOL    HW127815   4.857   5.666   6.271
 8972SOL    HW227816   4.960   5.669   6.144
 8973SOL     OW27817   1.077   3.375   2.062
 8973SOL    HW127818   1.132   3.443   2.110
 8973SOL    HW227819   0.997   3.352   2.116
 8974SOL     OW27820   1.120   4.316   5.569
 8974SOL    HW127821   1.176   4.253   5.623
 8974SOL    HW227822   1.044   4.266   5.527
 8975SOL     OW27823   2.594   0.348   6.825
 8975SOL    HW127824   2.506   0.339   6.777
 8975SOL    HW227825   2.669   0.331   6.760
 8976SOL     OW27826   0.605   5.057   5.292
 8976SOL    HW127827   0.675   5.089   5.228
 8976SOL    HW227828   0.622   5.097   5.383
 8977SOL     OW27829   5.839   1.392   6.690
 8977SOL    HW127830   5.861   1.437   6.604
 8977SOL    HW227831   5.909   1.413   6.758
 8978SOL     OW27832   6.139   6.966   6.522
 8978SOL    HW127833   6.203   6.960   6.599
 8978SOL    HW227834   6.190   6.977   6.437
 8979SOL     OW27835   1.325   3.235   4.434
 8979SOL    HW127836   1.400   3.269   4.492
 8979SOL    HW227837   1.309   3.138   4.455
 8980SOL     OW27838   2.329   3.155   5.390
 8980SOL    HW127839   2.238   3.176   5.353
 8980SOL    HW227840   2.386   3.118   5.316
 8981SOL     OW27841   3.764   1.836   5.008
 8981SOL    HW127842   3.738   1.772   4.936
 8981SOL    HW227843   3.723   1.807   5.095
 8982SOL     OW27844   1.386   2.743   0.461
 8982SOL    HW127845   1.453   2.798   0.411
 8982SOL    HW227846   1.338   2.799   0.528
 8983SOL     OW27847   2.773   6.401   6.174
 8983SOL    HW127848   2.715   6.325   6.145
 8983SOL    HW227849   2.855   6.404   6.118
 8984SOL     OW27850   0.852   6.949   4.087
 8984SOL    HW127851   0.896   6.990   4.166
 8984SOL    HW227852   0.754   6.967   4.089
 8985SOL     OW27853   3.768   1.989   0.584
 8985SOL    HW127854   3.850   1.961   0.634
 8985SOL    HW227855   3.781   2.082   0.549
 8986SOL     OW27856   4.258   5.279   2.731
 8986SOL    HW127857   4.158   5.282   2.738
 8986SOL    HW227858   4.285   5.206   2.668
 8987SOL     OW27859   4.319   6.402   1.839
 8987SOL    HW127860   4.391   6.377   1.774
 8987SOL    HW227861   4.358   6.458   1.912
 8988SOL     OW27862   1.234   4.489   4.649
 8988SOL    HW127863   1.289   4.557   4.601
 8988SOL    HW227864   1.247   4.498   4.748
 8989SOL     OW27865   4.749   3.635   0.311
 8989SOL    HW127866   4.682   3.564   0.329
 8989SOL    HW227867   4.702   3.719   0.284
 8990SOL     OW27868   1.353   5.475   4.606
 8990SOL    HW127869   1.380   5.564   4.568
 8990SOL    HW227870   1.392   5.465   4.697
 8991SOL     OW27871   1.717   3.072   4.557
 8991SOL    HW127872   1.813   3.045   4.562
 8991SOL    HW227873   1.685   3.066   4.462
 8992SOL     OW27874   4.313   1.263   0.779
 8992SOL    HW127875   4.412   1.256   0.789
 8992SOL    HW227876   4.289   1.355   0.749
 8993SOL     OW27877   4.444   2.349   0.432
 8993SOL    HW127878   4.423   2.358   0.530
 8993SOL    HW227879   4.465   2.439   0.394
 8994SOL     OW27880   1.463   4.127   5.581
 8994SOL    HW127881   1.453   4.029   5.566
 8994SOL    HW227882   1.444   4.176   5.495
 8995SOL     OW27883   1.024   2.257   0.089
 8995SOL    HW127884   1.091   2.269   0.162
 8995SOL    HW227885   1.041   2.324   0.016
 8996SOL     OW27886   5.075   4.238   6.728
 8996SOL    HW127887   5.102   4.169   6.660
 8996SOL    HW227888   5.140   4.236   6.804
 8997SOL     OW27889   4.882   1.956   6.344
 8997SOL    HW127890   4.800   1.949   6.288
 8997SOL    HW227891   4.946   2.020   6.303
 8998SOL     OW27892   6.294   3.531   4.425
 8998SOL    HW127893   6.346   3.523   4.510
 8998SOL    HW227894   6.349   3.580   4.357
 8999SOL     OW27895   4.940   6.469   6.304
 8999SOL    HW127896   4.878   6.412   6.359
 8999SOL    HW227897   4.887   6.519   6.236
 9000SOL     OW27898   1.760   3.427   1.964
 9000SOL    HW127899   1.784   3.396   1.872
 9000SOL    HW227900   1.745   3.526   1.962
 9001SOL     OW27901   1.276   4.710   2.117
 9001SOL    HW127902   1.235   4.622   2.091
 9001SOL    HW227903   1.369   4.694   2.150
 9002SOL     OW27904   1.659   5.008   4.911
 9002SOL    HW127905   1.579   5.015   4.970
 9002SOL    HW227906   1.688   5.099   4.883
 9003SOL     OW27907   5.894   4.050   1.527
 9003SOL    HW127908   5.827   3.980   1.502
 9003SOL    HW227909   5.873   4.086   1.618
 9004SOL     OW27910   4.279   5.473   0.955
 9004SOL    HW127911   4.342   5.448   1.029
 9004SOL    HW227912   4.298   5.566   0.925
 9005SOL     OW27913   6.434   1.753   5.558
 9005SOL    HW127914   6.345   1.798   5.554
 9005SOL    HW227915   6.425   1.660   5.523
 9006SOL     OW27916   1.997   5.847   1.437
 9006SOL    HW127917   1.925   5.901   1.395
 9006SOL    HW227918   2.026   5.774   1.374
 9007SOL     OW27919   3.524   0.628   3.489
 9007SOL    HW127920   3.553   0.616   3.394
 9007SOL    HW227921   3.605   0.630   3.548
 9008SOL     OW27922   0.934   5.424   2.824
 9008SOL    HW127923   0.986   5.461   2.747
 9008SOL    HW227924   0.987   5.436   2.908
 9009SOL     OW27925   2.655   5.620   0.722
 9009SOL    HW127926   2.705   5.588   0.802
 9009SOL    HW227927   2.721   5.649   0.652
 9010SOL     OW27928   1.615   6.491   4.062
 9010SOL    HW127929   1.654   6.576   4.099
 9010SOL    HW227930   1.684   6.419   4.067
 9011SOL     OW27931   4.822   1.072   1.067
 9011SOL    HW127932   4.853   1.032   1.154
 9011SOL    HW227933   4.739   1.125   1.083
 9012SOL     OW27934   2.079   4.844   6.825
 9012SOL    HW127935   2.150   4.836   6.755
 9012SOL    HW227936   2.114   4.808   6.912
 9013SOL     OW27937   0.132   0.352   6.239
 9013SOL    HW127938   0.152   0.328   6.144
 9013SOL    HW227939   0.194   0.302   6.299
 9014SOL     OW27940   0.021   2.182   0.865
 9014SOL    HW127941   6.976   2.220   0.928
 9014SOL    HW227942   0.045   2.089   0.893
 9015SOL     OW27943   4.498   2.444   1.705
 9015SOL    HW127944   4.468   2.435   1.800
 9015SOL    HW227945   4.560   2.369   1.682
 9016SOL     OW27946   6.612   6.336   6.799
 9016SOL    HW127947   6.576   6.329   6.706
 9016SOL    HW227948   6.635   6.431   6.819
 9017SOL     OW27949   4.801   1.520   4.202
 9017SOL    HW127950   4.728   1.583   4.176
 9017SOL    HW227951   4.788   1.492   4.297
 9018SOL     OW27952   2.786   2.939   6.005
 9018SOL    HW127953   2.781   2.847   5.967
 9018SOL    HW227954   2.716   2.996   5.964
 9019SOL     OW27955   1.623   5.168   2.820
 9019SOL    HW127956   1.614   5.167   2.919
 9019SOL    HW227957   1.560   5.100   2.780
 9020SOL     OW27958   0.213   3.857   1.114
 9020SOL    HW127959   0.138   3.794   1.136
 9020SOL    HW227960   0.276   3.813   1.050
 9021SOL     OW27961   6.892   1.265   3.687
 9021SOL    HW127962   6.828   1.306   3.622
 9021SOL    HW227963   6.917   1.173   3.655
 9022SOL     OW27964   2.758   1.025   7.008
 9022SOL    HW127965   2.695   1.068   6.943
 9022SOL    HW227966   2.825   0.970   6.957
 9023SOL     OW27967   3.450   3.400   1.896
 9023SOL    HW127968   3.499   3.355   1.822
 9023SOL    HW227969   3.475   3.496   1.899
 9024SOL     OW27970   1.401   3.850   5.904
 9024SOL    HW127971   1.384   3.867   5.807
 9024SOL    HW227972   1.491   3.807   5.915
 9025SOL     OW27973   0.644   5.165   0.676
 9025SOL    HW127974   0.698   5.194   0.597
 9025SOL    HW227975   0.553   5.207   0.671
 9026SOL     OW27976   3.464   2.704   0.759
 9026SOL    HW127977   3.410   2.692   0.842
 9026SOL    HW227978   3.403   2.727   0.682
 9027SOL     OW27979   0.489   3.326   2.773
 9027SOL    HW127980   0.531   3.265   2.706
 9027SOL    HW227981   0.398   3.354   2.742
 9028SOL     OW27982   3.074   3.057   5.293
 9028SOL    HW127983   3.152   3.107   5.331
 9028SOL    HW227984   2.999   3.120   5.276
 9029SOL     OW27985   3.481   6.907   5.070
 9029SOL    HW127986   3.523   6.990   5.035
 9029SOL    HW227987   3.383   6.907   5.052
 9030SOL     OW27988   2.293   1.968   3.490
 9030SOL    HW127989   2.196   1.985   3.504
 9030SOL    HW227990   2.305   1.908   3.411
 9031SOL     OW27991   4.318   6.335   3.999
 9031SOL    HW127992   4.388   6.280   4.044
 9031SOL    HW227993   4.228   6.310   4.034
 9032SOL     OW27994   4.500   4.127   1.062
 9032SOL    HW127995   4.599   4.132   1.072
 9032SOL    HW227996   4.459   4.091   1.146
 9033SOL     OW27997   0.478   4.201   2.691
 9033SOL    HW127998   0.498   4.183   2.595
 9033SOL    HW227999   0.553   4.252   2.732
 9034SOL     OW28000   2.967   5.686   4.697
 9034SOL    HW128001   2.876   5.719   4.674
 9034SOL    HW228002   3.006   5.637   4.620
 9035SOL     OW28003   2.568   4.732   0.056
 9035SOL    HW128004   2.541   4.658   7.018
 9035SOL    HW228005   2.619   4.694   0.134
 9036SOL     OW28006   2.102   3.322   5.696
 9036SOL    HW128007   2.161   3.401   5.712
 9036SOL    HW228008   2.158   3.241   5.680
 9037SOL     OW28009   1.141   4.314   4.083
 9037SOL    HW128010   1.123   4.321   4.181
 9037SOL    HW228011   1.196   4.233   4.065
 9038SOL     OW28012   4.606   1.942   6.598
 9038SOL    HW128013   4.626   1.854   6.555
 9038SOL    HW228014   4.573   2.006   6.530
 9039SOL     OW28015   1.927   4.886   6.304
 9039SOL    HW128016   1.896   4.817   6.239
 9039SOL    HW228017   1.856   4.957   6.314
 9040SOL     OW28018   2.596   2.459   2.757
 9040SOL    HW128019   2.525   2.467   2.828
 9040SOL    HW228020   2.573   2.519   2.680
 9041SOL     OW28021   1.299   2.574   0.750
 9041SOL    HW128022   1.239   2.607   0.678
 9041SOL    HW228023   1.284   2.628   0.833
 9042SOL     OW28024   4.043   0.263   4.384
 9042SOL    HW128025   4.011   0.308   4.301
 9042SOL    HW228026   4.136   0.229   4.370
 9043SOL     OW28027   2.340   0.864   6.005
 9043SOL    HW128028   2.300   0.919   5.932
 9043SOL    HW228029   2.277   0.860   6.082
 9044SOL     OW28030   6.512   0.559   0.596
 9044SOL    HW128031   6.598   0.557   0.545
 9044SOL    HW228032   6.478   0.465   0.609
 9045SOL     OW28033   3.557   1.220   2.473
 9045SOL    HW128034   3.599   1.231   2.563
 9045SOL    HW228035   3.481   1.285   2.463
 9046SOL     OW28036   3.491   4.069   2.977
 9046SOL    HW128037   3.590   4.056   2.987
 9046SOL    HW228038   3.460   4.139   3.041
 9047SOL     OW28039   1.684   3.763   4.866
 9047SOL    HW128040   1.637   3.738   4.951
 9047SOL    HW228041   1.627   3.738   4.788
 9048SOL     OW28042   6.729   3.291   6.282
 9048SOL    HW128043   6.811   3.240   6.308
 9048SOL    HW228044   6.752   3.388   6.269
 9049SOL     OW28045   4.079   6.565   5.512
 9049SOL    HW128046   4.103   6.477   5.553
 9049SOL    HW228047   3.979   6.573   5.508
 9050SOL     OW28048   0.923   3.825   1.172
 9050SOL    HW128049   0.935   3.826   1.271
 9050SOL    HW228050   0.942   3.916   1.135
 9051SOL     OW28051   3.051   0.310   1.256
 9051SOL    HW128052   3.052   0.222   1.304
 9051SOL    HW228053   2.960   0.350   1.263
 9052SOL     OW28054   2.535   2.629   4.033
 9052SOL    HW128055   2.522   2.548   4.090
 9052SOL    HW228056   2.592   2.605   3.954
 9053SOL     OW28057   2.478   1.348   2.306
 9053SOL    HW128058   2.469   1.325   2.403
 9053SOL    HW228059   2.564   1.398   2.292
 9054SOL     OW28060   3.029   5.614   4.303
 9054SOL    HW128061   3.049   5.577   4.393
 9054SOL    HW228062   3.099   5.681   4.278
 9055SOL     OW28063   5.675   1.734   4.222
 9055SOL    HW128064   5.639   1.826   4.240
 9055SOL    HW228065   5.770   1.741   4.191
 9056SOL     OW28066   0.602   2.336   1.375
 9056SOL    HW128067   0.649   2.268   1.431
 9056SOL    HW228068   0.517   2.364   1.420
 9057SOL     OW28069   4.514   2.880   5.410
 9057SOL    HW128070   4.595   2.926   5.373
 9057SOL    HW228071   4.498   2.796   5.359
 9058SOL     OW28072   1.756   1.105   1.979
 9058SOL    HW128073   1.846   1.092   1.936
 9058SOL    HW228074   1.719   1.016   2.006
 9059SOL     OW28075   1.021   2.574   3.084
 9059SOL    HW128076   1.119   2.582   3.103
 9059SOL    HW228077   0.984   2.665   3.067
 9060SOL     OW28078   5.770   2.558   4.594
 9060SOL    HW128079   5.773   2.622   4.517
 9060SOL    HW228080   5.696   2.584   4.656
 9061SOL     OW28081   2.899   5.329   2.203
 9061SOL    HW128082   2.995   5.347   2.183
 9061SOL    HW228083   2.884   5.334   2.302
 9062SOL     OW28084   1.259   6.216   2.081
 9062SOL    HW128085   1.296   6.297   2.035
 9062SOL    HW228086   1.289   6.215   2.176
 9063SOL     OW28087   2.805   0.510   4.168
 9063SOL    HW128088   2.792   0.475   4.261
 9063SOL    HW228089   2.777   0.606   4.165
 9064SOL     OW28090   6.054   3.458   6.520
 9064SOL    HW128091   6.011   3.436   6.432
 9064SOL    HW228092   6.027   3.390   6.588
 9065SOL     OW28093   3.870   0.395   0.272
 9065SOL    HW128094   3.865   0.315   0.212
 9065SOL    HW228095   3.958   0.441   0.260
 9066SOL     OW28096   5.115   6.822   0.140
 9066SOL    HW128097   5.051   6.890   0.175
 9066SOL    HW228098   5.203   6.830   0.188
 9067SOL     OW28099   0.958   0.968   3.730
 9067SOL    HW128100   0.862   0.993   3.737
 9067SOL    HW228101   0.967   0.869   3.724
 9068SOL     OW28102   1.919   6.275   4.637
 9068SOL    HW128103   1.905   6.374   4.631
 9068SOL    HW228104   2.006   6.250   4.595
 9069SOL     OW28105   1.279   3.190   0.764
 9069SOL    HW128106   1.210   3.261   0.784
 9069SOL    HW228107   1.326   3.165   0.848
 9070SOL     OW28108   1.586   3.701   5.177
 9070SOL    HW128109   1.598   3.604   5.201
 9070SOL    HW228110   1.493   3.730   5.201
 9071SOL     OW28111   6.876   6.262   1.230
 9071SOL    HW128112   6.798   6.319   1.204
 9071SOL    HW228113   6.845   6.170   1.251
 9072SOL     OW28114   0.157   2.828   1.135
 9072SOL    HW128115   0.193   2.804   1.045
 9072SOL    HW228116   0.212   2.784   1.206
 9073SOL     OW28117   1.941   0.120   2.186
 9073SOL    HW128118   2.011   0.130   2.257
 9073SOL    HW228119   1.910   0.211   2.157
 9074SOL     OW28120   0.928   0.481   2.574
 9074SOL    HW128121   1.021   0.517   2.569
 9074SOL    HW228122   0.862   0.556   2.564
 9075SOL     OW28123   0.001   1.488   2.370
 9075SOL    HW128124   0.056   1.558   2.414
 9075SOL    HW228125   0.021   1.398   2.410
 9076SOL     OW28126   0.115   0.979   6.539
 9076SOL    HW128127   0.021   1.011   6.547
 9076SOL    HW228128   0.153   0.964   6.630
 9077SOL     OW28129   4.225   6.680   1.490
 9077SOL    HW128130   4.159   6.623   1.441
 9077SOL    HW228131   4.219   6.774   1.456
 9078SOL     OW28132   3.413   3.377   4.833
 9078SOL    HW128133   3.373   3.286   4.823
 9078SOL    HW228134   3.349   3.437   4.882
 9079SOL     OW28135   2.534   0.878   4.627
 9079SOL    HW128136   2.630   0.906   4.638
 9079SOL    HW228137   2.501   0.839   4.713
 9080SOL     OW28138   5.391   2.905   6.327
 9080SOL    HW128139   5.436   2.884   6.414
 9080SOL    HW228140   5.325   2.978   6.341
 9081SOL     OW28141   5.189   6.314   2.223
 9081SOL    HW128142   5.167   6.327   2.320
 9081SOL    HW228143   5.236   6.395   2.189
 9082SOL     OW28144   1.579   0.403   4.599
 9082SOL    HW128145   1.510   0.474   4.581
 9082SOL    HW228146   1.577   0.335   4.526
 9083SOL     OW28147   4.413   4.770   6.017
 9083SOL    HW128148   4.497   4.729   5.983
 9083SOL    HW228149   4.435   4.850   6.072
 9084SOL     OW28150   4.000   3.738   3.162
 9084SOL    HW128151   3.905   3.726   3.192
 9084SOL    HW228152   4.000   3.781   3.071
 9085SOL     OW28153   2.512   0.540   0.465
 9085SOL    HW128154   2.418   0.575   0.463
 9085SOL    HW228155   2.540   0.515   0.372
 9086SOL     OW28156   0.461   4.260   0.475
 9086SOL    HW128157   0.533   4.231   0.539
 9086SOL    HW228158   0.455   4.194   0.400
 9087SOL     OW28159   5.106   2.696   1.826
 9087SOL    HW128160   5.036   2.627   1.809
 9087SOL    HW228161   5.080   2.750   1.906
 9088SOL     OW28162   6.306   0.306   1.160
 9088SOL    HW128163   6.369   0.329   1.234
 9088SOL    HW228164   6.358   0.283   1.078
 9089SOL     OW28165   5.387   6.616   5.714
 9089SOL    HW128166   5.313   6.627   5.648
 9089SOL    HW228167   5.364   6.544   5.779
 9090SOL     OW28168   6.004   1.251   5.587
 9090SOL    HW128169   5.919   1.251   5.640
 9090SOL    HW228170   5.982   1.252   5.489
 9091SOL     OW28171   2.972   3.522   6.799
 9091SOL    HW128172   2.901   3.564   6.743
 9091SOL    HW228173   3.002   3.587   6.868
 9092SOL     OW28174   6.591   1.170   0.345
 9092SOL    HW128175   6.658   1.221   0.399
 9092SOL    HW228176   6.568   1.085   0.392
 9093SOL     OW28177   1.827   5.908   5.427
 9093SOL    HW128178   1.728   5.910   5.414
 9093SOL    HW228179   1.857   5.815   5.445
 9094SOL     OW28180   6.726   4.261   2.537
 9094SOL    HW128181   6.791   4.334   2.552
 9094SOL    HW228182   6.678   4.240   2.623
 9095SOL     OW28183   5.238   4.718   6.067
 9095SOL    HW128184   5.168   4.674   6.123
 9095SOL    HW228185   5.200   4.800   6.026
 9096SOL     OW28186   0.281   5.136   3.637
 9096SOL    HW128187   0.219   5.213   3.649
 9096SOL    HW228188   0.265   5.094   3.548
 9097SOL     OW28189   2.045   2.042   6.637
 9097SOL    HW128190   2.076   2.107   6.707
 9097SOL    HW228191   2.088   1.953   6.652
 9098SOL     OW28192   2.499   2.235   5.115
 9098SOL    HW128193   2.459   2.242   5.024
 9098SOL    HW228194   2.584   2.288   5.118
 9099SOL     OW28195   2.405   3.037   6.619
 9099SOL    HW128196   2.498   3.006   6.638
 9099SOL    HW228197   2.405   3.094   6.538
 9100SOL     OW28198   1.062   3.805   1.744
 9100SOL    HW128199   1.122   3.734   1.782
 9100SOL    HW228200   0.991   3.827   1.812
 9101SOL     OW28201   2.903   1.511   2.562
 9101SOL    HW128202   2.818   1.560   2.582
 9101SOL    HW228203   2.974   1.577   2.538
 9102SOL     OW28204   4.058   6.856   2.044
 9102SOL    HW128205   4.016   6.799   1.973
 9102SOL    HW228206   4.100   6.797   2.113
 9103SOL     OW28207   5.693   1.478   6.968
 9103SOL    HW128208   5.707   1.463   6.870
 9103SOL    HW228209   5.777   1.454   7.018
 9104SOL     OW28210   6.813   0.159   1.953
 9104SOL    HW128211   6.851   0.214   1.879
 9104SOL    HW228212   6.881   0.146   2.024
 9105SOL     OW28213   1.050   6.651   5.097
 9105SOL    HW128214   0.958   6.645   5.135
 9105SOL    HW228215   1.059   6.584   5.023
 9106SOL     OW28216   0.637   3.863   0.108
 9106SOL    HW128217   0.586   3.787   0.066
 9106SOL    HW228218   0.655   3.933   0.040
 9107SOL     OW28219   2.242   0.817   6.245
 9107SOL    HW128220   2.236   0.886   6.317
 9107SOL    HW228221   2.190   0.736   6.273
 9108SOL     OW28222   5.063   4.392   5.267
 9108SOL    HW128223   5.092   4.476   5.313
 9108SOL    HW228224   4.964   4.395   5.251
 9109SOL     OW28225   4.748   2.880   2.489
 9109SOL    HW128226   4.752   2.821   2.409
 9109SOL    HW228227   4.656   2.919   2.497
 9110SOL     OW28228   0.992   5.633   4.264
 9110SOL    HW128229   0.954   5.572   4.333
 9110SOL    HW228230   0.966   5.601   4.173
 9111SOL     OW28231   4.730   3.069   6.179
 9111SOL    HW128232   4.689   3.118   6.103
 9111SOL    HW228233   4.721   2.970   6.164
 9112SOL     OW28234   1.592   4.928   3.029
 9112SOL    HW128235   1.534   4.896   2.953
 9112SOL    HW228236   1.535   4.945   3.109
 9113SOL     OW28237   5.822   2.657   3.728
 9113SOL    HW128238   5.799   2.743   3.772
 9113SOL    HW228239   5.920   2.639   3.739
 9114SOL     OW28240   1.075   6.411   3.766
 9114SOL    HW128241   1.028   6.494   3.735
 9114SOL    HW228242   1.015   6.359   3.826
 9115SOL     OW28243   6.040   4.964   3.258
 9115SOL    HW128244   6.139   4.956   3.247
 9115SOL    HW228245   6.011   4.914   3.340
 9116SOL     OW28246   0.487   6.879   3.009
 9116SOL    HW128247   0.549   6.905   3.083
 9116SOL    HW228248   0.399   6.851   3.048
 9117SOL     OW28249   4.049   1.188   6.547
 9117SOL    HW128250   4.064   1.282   6.578
 9117SOL    HW228251   3.967   1.152   6.591
 9118SOL     OW28252   6.161   3.899   0.597
 9118SOL    HW128253   6.077   3.861   0.634
 9118SOL    HW228254   6.188   3.980   0.650
 9119SOL     OW28255   3.849   6.867   1.401
 9119SOL    HW128256   3.888   6.934   1.339
 9119SOL    HW228257   3.874   6.889   1.495
 9120SOL     OW28258   0.086   2.964   6.035
 9120SOL    HW128259   0.158   2.969   6.104
 9120SOL    HW228260   0.108   2.891   5.970
 9121SOL     OW28261   3.702   0.292   5.394
 9121SOL    HW128262   3.798   0.320   5.382
 9121SOL    HW228263   3.699   0.203   5.438
 9122SOL     OW28264   2.209   3.878   2.057
 9122SOL    HW128265   2.178   3.961   2.103
 9122SOL    HW228266   2.306   3.864   2.076
 9123SOL     OW28267   1.579   0.375   3.387
 9123SOL    HW128268   1.652   0.354   3.323
 9123SOL    HW228269   1.585   0.315   3.466
 9124SOL     OW28270   3.539   4.929   1.755
 9124SOL    HW128271   3.544   4.871   1.674
 9124SOL    HW228272   3.540   4.872   1.837
 9125SOL     OW28273   3.536   5.880   0.267
 9125SOL    HW128274   3.549   5.803   0.205
 9125SOL    HW228275   3.625   5.909   0.303
 9126SOL     OW28276   4.291   4.509   1.198
 9126SOL    HW128277   4.373   4.503   1.256
 9126SOL    HW228278   4.247   4.420   1.194
 9127SOL     OW28279   6.950   3.195   5.070
 9127SOL    HW128280   7.007   3.124   5.029
 9127SOL    HW228281   6.915   3.256   4.999
 9128SOL     OW28282   6.199   2.857   4.700
 9128SOL    HW128283   6.185   2.758   4.706
 9128SOL    HW228284   6.221   2.892   4.791
 9129SOL     OW28285   1.998   1.822   0.991
 9129SOL    HW128286   1.952   1.734   1.000
 9129SOL    HW228287   1.930   1.894   0.975
 9130SOL     OW28288   2.370   3.871   5.725
 9130SOL    HW128289   2.423   3.789   5.704
 9130SOL    HW228290   2.273   3.854   5.706
 9131SOL     OW28291   5.325   2.642   0.272
 9131SOL    HW128292   5.383   2.723   0.268
 9131SOL    HW228293   5.314   2.613   0.367
 9132SOL     OW28294   1.036   4.830   4.041
 9132SOL    HW128295   1.036   4.804   3.945
 9132SOL    HW228296   1.011   4.926   4.050
 9133SOL     OW28297   3.504   0.743   0.985
 9133SOL    HW128298   3.447   0.800   0.925
 9133SOL    HW228299   3.489   0.769   1.080
 9134SOL     OW28300   4.570   5.267   0.932
 9134SOL    HW128301   4.505   5.305   0.998
 9134SOL    HW228302   4.570   5.322   0.849
 9135SOL     OW28303   0.980   6.153   2.049
 9135SOL    HW128304   0.933   6.184   1.968
 9135SOL    HW228305   1.078   6.174   2.041
 9136SOL     OW28306   5.434   4.793   6.210
 9136SOL    HW128307   5.371   4.753   6.143
 9136SOL    HW228308   5.528   4.771   6.185
 9137SOL     OW28309   5.069   5.959   6.017
 9137SOL    HW128310   5.074   5.878   6.076
 9137SOL    HW228311   5.010   6.028   6.060
 9138SOL     OW28312   2.140   2.899   0.412
 9138SOL    HW128313   2.071   2.955   0.457
 9138SOL    HW228314   2.108   2.804   0.405
 9139SOL     OW28315   0.448   0.503   1.278
 9139SOL    HW128316   0.355   0.482   1.251
 9139SOL    HW228317   0.451   0.526   1.376
 9140SOL     OW28318   0.430   4.674   1.965
 9140SOL    HW128319   0.338   4.714   1.971
 9140SOL    HW228320   0.493   4.741   1.924
 9141SOL     OW28321   6.958   5.370   6.308
 9141SOL    HW128322   6.929   5.465   6.295
 9141SOL    HW228323   6.882   5.317   6.344
 9142SOL     OW28324   0.508   3.335   3.052
 9142SOL    HW128325   0.494   3.347   2.954
 9142SOL    HW228326   0.489   3.240   3.077
 9143SOL     OW28327   0.085   3.936   2.228
 9143SOL    HW128328   0.108   3.868   2.157
 9143SOL    HW228329   0.047   4.018   2.185
 9144SOL     OW28330   3.009   5.222   4.559
 9144SOL    HW128331   3.087   5.222   4.497
 9144SOL    HW228332   3.035   5.262   4.646
 9145SOL     OW28333   1.298   6.647   6.224
 9145SOL    HW128334   1.279   6.678   6.131
 9145SOL    HW228335   1.256   6.557   6.238
 9146SOL     OW28336   5.827   3.296   3.476
 9146SOL    HW128337   5.892   3.228   3.509
 9146SOL    HW228338   5.874   3.360   3.415
 9147SOL     OW28339   5.580   0.016   4.225
 9147SOL    HW128340   5.642   0.083   4.267
 9147SOL    HW228341   5.625   6.995   4.148
 9148SOL     OW28342   6.348   0.323   1.958
 9148SOL    HW128343   6.424   0.307   2.022
 9148SOL    HW228344   6.356   0.415   1.920
 9149SOL     OW28345   6.038   2.896   0.947
 9149SOL    HW128346   6.087   2.810   0.933
 9149SOL    HW228347   5.971   2.908   0.874
 9150SOL     OW28348   2.664   3.857   6.899
 9150SOL    HW128349   2.591   3.924   6.901
 9150SOL    HW228350   2.627   3.767   6.874
 9151SOL     OW28351   2.111   3.640   3.898
 9151SOL    HW128352   2.122   3.675   3.991
 9151SOL    HW228353   2.061   3.554   3.901
 9152SOL     OW28354   2.103   3.838   4.140
 9152SOL    HW128355   2.024   3.803   4.190
 9152SOL    HW228356   2.148   3.909   4.195
 9153SOL     OW28357   0.060   2.105   6.592
 9153SOL    HW128358   0.133   2.143   6.649
 9153SOL    HW228359   0.066   2.005   6.593
 9154SOL     OW28360   6.351   5.476   3.448
 9154SOL    HW128361   6.285   5.517   3.385
 9154SOL    HW228362   6.316   5.387   3.478
 9155SOL     OW28363   1.846   5.718   2.823
 9155SOL    HW128364   1.802   5.804   2.795
 9155SOL    HW228365   1.943   5.734   2.841
 9156SOL     OW28366   6.913   3.526   0.917
 9156SOL    HW128367   6.841   3.477   0.869
 9156SOL    HW228368   7.002   3.498   0.882
 9157SOL     OW28369   3.240   4.250   6.187
 9157SOL    HW128370   3.334   4.244   6.219
 9157SOL    HW228371   3.193   4.163   6.207
 9158SOL     OW28372   6.615   3.861   4.068
 9158SOL    HW128373   6.587   3.812   3.986
 9158SOL    HW228374   6.534   3.887   4.120
 9159SOL     OW28375   3.001   6.928   3.193
 9159SOL    HW128376   3.067   6.904   3.122
 9159SOL    HW228377   3.034   7.008   3.244
 9160SOL     OW28378   0.871   4.787   6.462
 9160SOL    HW128379   0.785   4.747   6.432
 9160SOL    HW228380   0.873   4.884   6.437
 9161SOL     OW28381   5.865   3.588   1.601
 9161SOL    HW128382   5.952   3.636   1.612
 9161SOL    HW228383   5.874   3.493   1.633
 9162SOL     OW28384   4.516   1.745   2.661
 9162SOL    HW128385   4.437   1.799   2.632
 9162SOL    HW228386   4.554   1.783   2.745
 9163SOL     OW28387   0.854   2.364   3.155
 9163SOL    HW128388   0.931   2.426   3.144
 9163SOL    HW228389   0.851   2.301   3.077
 9164SOL     OW28390   2.079   0.108   6.504
 9164SOL    HW128391   2.109   0.020   6.468
 9164SOL    HW228392   2.150   0.176   6.486
 9165SOL     OW28393   4.951   2.567   5.236
 9165SOL    HW128394   4.978   2.494   5.173
 9165SOL    HW228395   4.931   2.650   5.184
 9166SOL     OW28396   4.851   5.811   1.860
 9166SOL    HW128397   4.831   5.839   1.766
 9166SOL    HW228398   4.765   5.787   1.906
 9167SOL     OW28399   1.156   0.813   5.668
 9167SOL    HW128400   1.143   0.859   5.756
 9167SOL    HW228401   1.249   0.776   5.663
 9168SOL     OW28402   6.690   5.383   4.685
 9168SOL    HW128403   6.612   5.418   4.737
 9168SOL    HW228404   6.751   5.459   4.664
 9169SOL     OW28405   5.976   5.523   6.791
 9169SOL    HW128406   5.976   5.620   6.766
 9169SOL    HW228407   5.950   5.513   6.887
 9170SOL     OW28408   1.339   1.523   6.091
 9170SOL    HW128409   1.282   1.498   6.170
 9170SOL    HW228410   1.372   1.439   6.047
 9171SOL     OW28411   2.965   5.056   0.734
 9171SOL    HW128412   2.982   5.155   0.741
 9171SOL    HW228413   2.954   5.018   0.825
 9172SOL     OW28414   5.345   1.269   4.658
 9172SOL    HW128415   5.438   1.234   4.649
 9172SOL    HW228416   5.286   1.222   4.592
 9173SOL     OW28417   6.082   2.545   3.779
 9173SOL    HW128418   6.034   2.533   3.866
 9173SOL    HW228419   6.096   2.456   3.736
 9174SOL     OW28420   1.015   5.771   6.957
 9174SOL    HW128421   0.956   5.821   6.894
 9174SOL    HW228422   1.110   5.779   6.926
 9175SOL     OW28423   1.768   6.954   0.300
 9175SOL    HW128424   1.720   6.888   0.241
 9175SOL    HW228425   1.837   7.002   0.247
 9176SOL     OW28426   1.911   1.248   3.066
 9176SOL    HW128427   1.902   1.314   3.141
 9176SOL    HW228428   1.866   1.163   3.091
 9177SOL     OW28429   0.736   4.848   4.069
 9177SOL    HW128430   0.724   4.782   3.995
 9177SOL    HW228431   0.699   4.809   4.154
 9178SOL     OW28432   2.352   6.444   0.047
 9178SOL    HW128433   2.343   6.528   0.101
 9178SOL    HW228434   2.269   6.428   7.017
 9179SOL     OW28435   4.374   6.288   5.330
 9179SOL    HW128436   4.371   6.266   5.427
 9179SOL    HW228437   4.470   6.289   5.299
 9180SOL     OW28438   0.017   1.625   4.393
 9180SOL    HW128439   0.037   1.698   4.458
 9180SOL    HW228440   6.957   1.648   4.341
 9181SOL     OW28441   4.400   1.763   3.595
 9181SOL    HW128442   4.489   1.759   3.549
 9181SOL    HW228443   4.414   1.769   3.694
 9182SOL     OW28444   2.059   1.445   2.938
 9182SOL    HW128445   2.023   1.372   2.996
 9182SOL    HW228446   2.085   1.408   2.849
 9183SOL     OW28447   5.471   2.521   6.325
 9183SOL    HW128448   5.500   2.458   6.397
 9183SOL    HW228449   5.551   2.554   6.274
 9184SOL     OW28450   3.332   2.996   0.800
 9184SOL    HW128451   3.415   2.952   0.833
 9184SOL    HW228452   3.347   3.094   0.791
 9185SOL     OW28453   0.567   0.523   6.827
 9185SOL    HW128454   0.563   0.424   6.837
 9185SOL    HW228455   0.641   0.548   6.765
 9186SOL     OW28456   5.015   0.464   6.717
 9186SOL    HW128457   4.994   0.398   6.789
 9186SOL    HW228458   4.949   0.453   6.642
 9187SOL     OW28459   4.993   1.839   0.000
 9187SOL    HW128460   4.962   1.761   6.969
 9187SOL    HW228461   4.915   1.886   0.040
 9188SOL     OW28462   1.290   0.202   1.849
 9188SOL    HW128463   1.235   0.129   1.808
 9188SOL    HW228464   1.326   0.172   1.937
 9189SOL     OW28465   2.687   1.266   3.387
 9189SOL    HW128466   2.711   1.357   3.353
 9189SOL    HW228467   2.666   1.271   3.485
 9190SOL     OW28468   5.912   3.754   5.617
 9190SOL    HW128469   5.871   3.673   5.576
 9190SOL    HW228470   5.909   3.830   5.553
 9191SOL     OW28471   5.373   6.350   6.375
 9191SOL    HW128472   5.318   6.284   6.323
 9191SOL    HW228473   5.469   6.338   6.352
 9192SOL     OW28474   0.247   4.236   5.837
 9192SOL    HW128475   0.319   4.305   5.832
 9192SOL    HW228476   0.288   4.145   5.831
 9193SOL     OW28477   4.019   3.153   3.270
 9193SOL    HW128478   4.091   3.202   3.321
 9193SOL    HW228479   3.969   3.093   3.331
 9194SOL     OW28480   3.073   5.697   2.860
 9194SOL    HW128481   3.060   5.646   2.775
 9194SOL    HW228482   3.133   5.646   2.921
 9195SOL     OW28483   0.335   3.051   3.552
 9195SOL    HW128484   0.357   3.015   3.461
 9195SOL    HW228485   0.243   3.092   3.550
 9196SOL     OW28486   3.942   0.777   3.382
 9196SOL    HW128487   3.920   0.869   3.413
 9196SOL    HW228488   4.037   0.756   3.404
 9197SOL     OW28489   2.716   3.211   6.865
 9197SOL    HW128490   2.651   3.271   6.819
 9197SOL    HW228491   2.667   3.137   6.912
 9198SOL     OW28492   5.662   3.630   5.848
 9198SOL    HW128493   5.698   3.690   5.776
 9198SOL    HW228494   5.576   3.669   5.882
 9199SOL     OW28495   1.856   3.752   6.385
 9199SOL    HW128496   1.817   3.685   6.321
 9199SOL    HW228497   1.808   3.745   6.472
 9200SOL     OW28498   6.604   0.140   1.017
 9200SOL    HW128499   6.609   0.056   1.071
 9200SOL    HW228500   6.662   0.131   0.937
 9201SOL     OW28501   6.909   4.416   1.689
 9201SOL    HW128502   6.833   4.402   1.626
 9201SOL    HW228503   6.967   4.490   1.655
 9202SOL     OW28504   2.476   4.903   4.166
 9202SOL    HW128505   2.509   4.941   4.253
 9202SOL    HW228506   2.477   4.803   4.170
 9203SOL     OW28507   5.664   1.225   5.908
 9203SOL    HW128508   5.753   1.252   5.872
 9203SOL    HW228509   5.633   1.141   5.864
 9204SOL     OW28510   5.423   3.981   3.382
 9204SOL    HW128511   5.519   3.969   3.355
 9204SOL    HW228512   5.364   3.939   3.313
 9205SOL     OW28513   6.048   3.081   2.808
 9205SOL    HW128514   6.028   2.987   2.781
 9205SOL    HW228515   5.971   3.140   2.785
 9206SOL     OW28516   2.017   6.243   3.705
 9206SOL    HW128517   2.067   6.159   3.728
 9206SOL    HW228518   1.956   6.225   3.628
 9207SOL     OW28519   4.502   5.962   6.087
 9207SOL    HW128520   4.504   6.057   6.056
 9207SOL    HW228521   4.427   5.914   6.042
 9208SOL     OW28522   4.878   3.357   2.298
 9208SOL    HW128523   4.844   3.441   2.341
 9208SOL    HW228524   4.975   3.346   2.319
 9209SOL     OW28525   4.035   1.645   3.018
 9209SOL    HW128526   4.036   1.574   2.948
 9209SOL    HW228527   3.972   1.620   3.091
 9210SOL     OW28528   2.264   0.552   1.183
 9210SOL    HW128529   2.219   0.539   1.271
 9210SOL    HW228530   2.274   0.463   1.137
 9211SOL     OW28531   5.007   1.630   6.371
 9211SOL    HW128532   4.988   1.677   6.284
 9211SOL    HW228533   4.975   1.687   6.447
 9212SOL     OW28534   5.238   4.468   4.304
 9212SOL    HW128535   5.166   4.441   4.239
 9212SOL    HW228536   5.241   4.402   4.379
 9213SOL     OW28537   6.077   0.364   3.751
 9213SOL    HW128538   6.061   0.384   3.848
 9213SOL    HW228539   6.000   0.399   3.697
 9214SOL     OW28540   1.732   2.584   4.636
 9214SOL    HW128541   1.786   2.646   4.580
 9214SOL    HW228542   1.785   2.501   4.654
 9215SOL     OW28543   0.363   3.694   2.576
 9215SOL    HW128544   0.346   3.748   2.494
 9215SOL    HW228545   0.425   3.744   2.637
 9216SOL     OW28546   2.885   5.519   4.892
 9216SOL    HW128547   2.917   5.541   4.800
 9216SOL    HW228548   2.824   5.441   4.887
 9217SOL     OW28549   5.259   1.458   5.863
 9217SOL    HW128550   5.275   1.485   5.958
 9217SOL    HW228551   5.341   1.473   5.809
 9218SOL     OW28552   5.976   6.730   6.499
 9218SOL    HW128553   5.937   6.672   6.570
 9218SOL    HW228554   6.027   6.805   6.541
 9219SOL     OW28555   3.787   2.691   5.458
 9219SOL    HW128556   3.701   2.642   5.471
 9219SOL    HW228557   3.769   2.777   5.411
 9220SOL     OW28558   1.495   6.143   2.729
 9220SOL    HW128559   1.454   6.233   2.745
 9220SOL    HW228560   1.423   6.074   2.723
 9221SOL     OW28561   2.386   0.601   6.632
 9221SOL    HW128562   2.360   0.666   6.703
 9221SOL    HW228563   2.474   0.627   6.593
 9222SOL     OW28564   1.465   5.160   3.651
 9222SOL    HW128565   1.561   5.142   3.626
 9222SOL    HW228566   1.429   5.082   3.702
 9223SOL     OW28567   1.506   4.201   4.514
 9223SOL    HW128568   1.515   4.188   4.613
 9223SOL    HW228569   1.572   4.143   4.467
 9224SOL     OW28570   1.466   4.765   3.586
 9224SOL    HW128571   1.532   4.690   3.592
 9224SOL    HW228572   1.502   4.838   3.528
 9225SOL     OW28573   4.221   6.913   6.527
 9225SOL    HW128574   4.291   6.842   6.529
 9225SOL    HW228575   4.139   6.877   6.483
 9226SOL     OW28576   1.003   6.801   1.170
 9226SOL    HW128577   0.971   6.771   1.080
 9226SOL    HW228578   0.950   6.881   1.199
 9227SOL     OW28579   2.474   5.452   0.931
 9227SOL    HW128580   2.489   5.550   0.942
 9227SOL    HW228581   2.407   5.437   0.859
 9228SOL     OW28582   2.196   2.701   5.707
 9228SOL    HW128583   2.166   2.628   5.647
 9228SOL    HW228584   2.287   2.732   5.680
 9229SOL     OW28585   0.147   4.568   6.777
 9229SOL    HW128586   0.087   4.544   6.853
 9229SOL    HW228587   0.163   4.487   6.720
 9230SOL     OW28588   4.877   2.307   4.054
 9230SOL    HW128589   4.830   2.236   4.003
 9230SOL    HW228590   4.928   2.365   3.991
 9231SOL     OW28591   0.828   5.411   5.120
 9231SOL    HW128592   0.898   5.349   5.084
 9231SOL    HW228593   0.819   5.490   5.059
 9232SOL     OW28594   2.293   5.649   1.675
 9232SOL    HW128595   2.208   5.607   1.705
 9232SOL    HW228596   2.352   5.666   1.753
 9233SOL     OW28597   0.292   0.145   0.798
 9233SOL    HW128598   0.362   0.101   0.855
 9233SOL    HW228599   0.309   0.243   0.795
 9234SOL     OW28600   2.384   4.831   0.732
 9234SOL    HW128601   2.391   4.749   0.674
 9234SOL    HW228602   2.327   4.899   0.687
 9235SOL     OW28603   2.597   2.502   3.439
 9235SOL    HW128604   2.540   2.426   3.406
 9235SOL    HW228605   2.600   2.573   3.369
 9236SOL     OW28606   1.821   2.790   6.704
 9236SOL    HW128607   1.787   2.762   6.794
 9236SOL    HW228608   1.761   2.861   6.666
 9237SOL     OW28609   5.851   5.596   3.445
 9237SOL    HW128610   5.755   5.595   3.417
 9237SOL    HW228611   5.907   5.634   3.371
 9238SOL     OW28612   1.569   3.423   5.273
 9238SOL    HW128613   1.513   3.432   5.355
 9238SOL    HW228614   1.638   3.352   5.286
 9239SOL     OW28615   0.645   4.692   0.463
 9239SOL    HW128616   0.700   4.774   0.445
 9239SOL    HW228617   0.592   4.706   0.546
 9240SOL     OW28618   4.842   2.798   2.775
 9240SOL    HW128619   4.915   2.733   2.752
 9240SOL    HW228620   4.822   2.855   2.695
 9241SOL     OW28621   6.684   6.368   0.389
 9241SOL    HW128622   6.719   6.438   0.328
 9241SOL    HW228623   6.588   6.350   0.368
 9242SOL     OW28624   1.374   2.270   2.020
 9242SOL    HW128625   1.403   2.184   2.062
 9242SOL    HW228626   1.411   2.347   2.073
 9243SOL     OW28627   0.844   0.413   1.502
 9243SOL    HW128628   0.933   0.369   1.509
 9243SOL    HW228629   0.851   0.508   1.533
 9244SOL     OW28630   3.741   6.570   5.375
 9244SOL    HW128631   3.736   6.620   5.461
 9244SOL    HW228632   3.657   6.585   5.323
 9245SOL     OW28633   0.734   4.113   3.353
 9245SOL    HW128634   0.790   4.045   3.400
 9245SOL    HW228635   0.770   4.127   3.260
 9246SOL     OW28636   5.848   0.082   4.692
 9246SOL    HW128637   5.918   0.096   4.763
 9246SOL    HW228638   5.797   7.021   4.712
 9247SOL     OW28639   3.707   5.608   2.841
 9247SOL    HW128640   3.753   5.665   2.772
 9247SOL    HW228641   3.752   5.620   2.929
 9248SOL     OW28642   2.784   1.616   5.140
 9248SOL    HW128643   2.708   1.555   5.117
 9248SOL    HW228644   2.758   1.710   5.119
 9249SOL     OW28645   3.772   4.490   1.628
 9249SOL    HW128646   3.710   4.545   1.684
 9249SOL    HW228647   3.770   4.524   1.533
 9250SOL     OW28648   6.755   4.065   4.404
 9250SOL    HW128649   6.847   4.081   4.440
 9250SOL    HW228650   6.762   4.033   4.309
 9251SOL     OW28651   4.208   2.739   0.847
 9251SOL    HW128652   4.218   2.735   0.947
 9251SOL    HW228653   4.132   2.680   0.819
 9252SOL     OW28654   4.166   1.112   4.943
 9252SOL    HW128655   4.155   1.149   5.035
 9252SOL    HW228656   4.255   1.139   4.907
 9253SOL     OW28657   0.385   4.633   5.633
 9253SOL    HW128658   0.443   4.710   5.660
 9253SOL    HW228659   0.355   4.646   5.539
 9254SOL     OW28660   6.244   3.993   2.612
 9254SOL    HW128661   6.235   3.896   2.631
 9254SOL    HW228662   6.163   4.041   2.647
 9255SOL     OW28663   6.376   4.278   0.469
 9255SOL    HW128664   6.447   4.210   0.485
 9255SOL    HW228665   6.304   4.239   0.412
 9256SOL     OW28666   2.198   6.733   1.994
 9256SOL    HW128667   2.295   6.758   1.997
 9256SOL    HW228668   2.144   6.814   1.973
 9257SOL     OW28669   0.185   5.870   3.492
 9257SOL    HW128670   0.182   5.921   3.579
 9257SOL    HW228671   0.280   5.858   3.464
 9258SOL     OW28672   3.560   3.637   0.284
 9258SOL    HW128673   3.624   3.689   0.227
 9258SOL    HW228674   3.542   3.549   0.241
 9259SOL     OW28675   1.733   1.290   6.298
 9259SOL    HW128676   1.673   1.360   6.336
 9259SOL    HW228677   1.782   1.327   6.219
 9260SOL     OW28678   5.780   3.081   5.906
 9260SOL    HW128679   5.751   3.143   5.833
 9260SOL    HW228680   5.736   2.992   5.894
 9261SOL     OW28681   4.301   1.698   0.888
 9261SOL    HW128682   4.213   1.696   0.936
 9261SOL    HW228683   4.372   1.732   0.949
 9262SOL     OW28684   6.457   6.693   4.254
 9262SOL    HW128685   6.365   6.705   4.215
 9262SOL    HW228686   6.458   6.611   4.311
 9263SOL     OW28687   2.643   4.927   2.799
 9263SOL    HW128688   2.710   4.855   2.820
 9263SOL    HW228689   2.578   4.893   2.731
 9264SOL     OW28690   5.546   3.919   6.819
 9264SOL    HW128691   5.448   3.920   6.836
 9264SOL    HW228692   5.563   3.920   6.720
 9265SOL     OW28693   4.164   2.260   6.813
 9265SOL    HW128694   4.230   2.316   6.863
 9265SOL    HW228695   4.203   2.170   6.797
 9266SOL     OW28696   0.672   4.539   1.524
 9266SOL    HW128697   0.769   4.547   1.546
 9266SOL    HW228698   0.618   4.552   1.607
 9267SOL     OW28699   0.679   1.166   3.764
 9267SOL    HW128700   0.696   1.250   3.815
 9267SOL    HW228701   0.709   1.177   3.670
 9268SOL     OW28702   1.022   0.129   1.792
 9268SOL    HW128703   0.932   0.090   1.773
 9268SOL    HW228704   1.077   0.128   1.709
 9269SOL     OW28705   4.338   6.905   0.361
 9269SOL    HW128706   4.394   6.975   0.406
 9269SOL    HW228707   4.387   6.818   0.363
 9270SOL     OW28708   3.506   1.007   6.367
 9270SOL    HW128709   3.511   1.030   6.270
 9270SOL    HW228710   3.598   1.010   6.406
 9271SOL     OW28711   0.936   0.470   6.991
 9271SOL    HW128712   1.028   0.440   7.015
 9271SOL    HW228713   0.883   0.393   6.956
 9272SOL     OW28714   6.402   6.632   6.225
 9272SOL    HW128715   6.396   6.707   6.160
 9272SOL    HW228716   6.416   6.546   6.176
 9273SOL     OW28717   5.249   5.857   3.823
 9273SOL    HW128718   5.307   5.826   3.898
 9273SOL    HW228719   5.156   5.823   3.836
 9274SOL     OW28720   0.720   3.263   0.395
 9274SOL    HW128721   0.762   3.192   0.451
 9274SOL    HW228722   0.789   3.331   0.370
 9275SOL     OW28723   0.636   6.620   1.062
 9275SOL    HW128724   0.540   6.628   1.037
 9275SOL    HW228725   0.659   6.691   1.128
 9276SOL     OW28726   3.431   4.215   0.308
 9276SOL    HW128727   3.369   4.167   0.371
 9276SOL    HW228728   3.381   4.285   0.258
 9277SOL     OW28729   4.338   4.843   2.288
 9277SOL    HW128730   4.299   4.757   2.255
 9277SOL    HW228731   4.432   4.852   2.255
 9278SOL     OW28732   0.260   0.735   4.177
 9278SOL    HW128733   0.189   0.805   4.180
 9278SOL    HW228734   0.299   0.730   4.085
 9279SOL     OW28735   3.660   5.199   1.569
 9279SOL    HW128736   3.563   5.220   1.564
 9279SOL    HW228737   3.675   5.126   1.636
 9280SOL     OW28738   1.364   1.316   2.646
 9280SOL    HW128739   1.415   1.233   2.665
 9280SOL    HW228740   1.295   1.298   2.576
 9281SOL     OW28741   3.459   3.476   6.552
 9281SOL    HW128742   3.413   3.509   6.635
 9281SOL    HW228743   3.494   3.384   6.569
 9282SOL     OW28744   3.313   0.351   4.686
 9282SOL    HW128745   3.401   0.390   4.712
 9282SOL    HW228746   3.241   0.418   4.700
 9283SOL     OW28747   5.114   6.383   6.010
 9283SOL    HW128748   5.173   6.449   6.056
 9283SOL    HW228749   5.153   6.360   5.921
 9284SOL     OW28750   3.385   4.238   5.243
 9284SOL    HW128751   3.325   4.257   5.321
 9284SOL    HW228752   3.478   4.267   5.264
 9285SOL     OW28753   6.153   3.187   2.417
 9285SOL    HW128754   6.232   3.198   2.478
 9285SOL    HW228755   6.136   3.090   2.403
 9286SOL     OW28756   4.808   6.350   0.875
 9286SOL    HW128757   4.806   6.250   0.876
 9286SOL    HW228758   4.714   6.385   0.873
 9287SOL     OW28759   2.667   4.719   5.748
 9287SOL    HW128760   2.578   4.737   5.707
 9287SOL    HW228761   2.671   4.760   5.839
 9288SOL     OW28762   4.335   2.335   3.974
 9288SOL    HW128763   4.366   2.392   4.050
 9288SOL    HW228764   4.368   2.374   3.888
 9289SOL     OW28765   4.409   6.178   6.286
 9289SOL    HW128766   4.473   6.102   6.273
 9289SOL    HW228767   4.321   6.154   6.244
 9290SOL     OW28768   5.336   0.383   4.776
 9290SOL    HW128769   5.336   0.300   4.832
 9290SOL    HW228770   5.429   0.418   4.769
 9291SOL     OW28771   1.201   5.586   5.378
 9291SOL    HW128772   1.247   5.549   5.459
 9291SOL    HW228773   1.184   5.512   5.312
 9292SOL     OW28774   1.227   1.128   5.985
 9292SOL    HW128775   1.304   1.132   6.049
 9292SOL    HW228776   1.255   1.160   5.895
 9293SOL     OW28777   4.606   2.885   5.687
 9293SOL    HW128778   4.539   2.899   5.614
 9293SOL    HW228779   4.689   2.844   5.649
 9294SOL     OW28780   4.766   0.683   0.070
 9294SOL    HW128781   4.720   0.597   0.092
 9294SOL    HW228782   4.860   0.680   0.104
 9295SOL     OW28783   0.294   0.773   4.945
 9295SOL    HW128784   0.260   0.749   4.855
 9295SOL    HW228785   0.394   0.769   4.946
 9296SOL     OW28786   2.850   4.198   0.640
 9296SOL    HW128787   2.780   4.180   0.571
 9296SOL    HW228788   2.846   4.128   0.711
 9297SOL     OW28789   6.701   6.431   3.131
 9297SOL    HW128790   6.767   6.438   3.056
 9297SOL    HW228791   6.610   6.458   3.098
 9298SOL     OW28792   1.534   6.648   5.753
 9298SOL    HW128793   1.624   6.630   5.713
 9298SOL    HW228794   1.497   6.564   5.793
 9299SOL     OW28795   1.930   2.366   4.736
 9299SOL    HW128796   1.928   2.268   4.757
 9299SOL    HW228797   1.990   2.382   4.657
 9300SOL     OW28798   1.562   5.854   5.415
 9300SOL    HW128799   1.468   5.876   5.390
 9300SOL    HW228800   1.582   5.760   5.389
 9301SOL     OW28801   0.288   4.074   4.396
 9301SOL    HW128802   0.325   4.135   4.327
 9301SOL    HW228803   0.363   4.034   4.450
 9302SOL     OW28804   2.111   3.158   4.809
 9302SOL    HW128805   2.176   3.087   4.838
 9302SOL    HW228806   2.137   3.192   4.719
 9303SOL     OW28807   2.784   3.861   0.508
 9303SOL    HW128808   2.820   3.768   0.511
 9303SOL    HW228809   2.856   3.924   0.479
 9304SOL     OW28810   5.425   4.705   1.029
 9304SOL    HW128811   5.348   4.678   1.087
 9304SOL    HW228812   5.406   4.679   0.935
 9305SOL     OW28813   2.549   1.393   0.564
 9305SOL    HW128814   2.503   1.404   0.476
 9305SOL    HW228815   2.573   1.297   0.577
 9306SOL     OW28816   0.365   4.234   4.879
 9306SOL    HW128817   0.308   4.289   4.941
 9306SOL    HW228818   0.310   4.199   4.804
 9307SOL     OW28819   2.549   3.063   1.080
 9307SOL    HW128820   2.595   3.102   1.000
 9307SOL    HW228821   2.450   3.065   1.066
 9308SOL     OW28822   1.630   3.836   1.459
 9308SOL    HW128823   1.671   3.815   1.370
 9308SOL    HW228824   1.702   3.860   1.524
 9309SOL     OW28825   4.813   5.851   5.592
 9309SOL    HW128826   4.802   5.752   5.597
 9309SOL    HW228827   4.822   5.888   5.685
 9310SOL     OW28828   4.321   5.540   5.587
 9310SOL    HW128829   4.367   5.471   5.644
 9310SOL    HW228830   4.385   5.615   5.568
 9311SOL     OW28831   4.413   3.427   1.603
 9311SOL    HW128832   4.447   3.341   1.641
 9311SOL    HW228833   4.385   3.414   1.508
 9312SOL     OW28834   1.175   1.991   0.973
 9312SOL    HW128835   1.180   1.975   1.072
 9312SOL    HW228836   1.094   2.046   0.953
 9313SOL     OW28837   1.298   0.072   2.090
 9313SOL    HW128838   1.331   7.002   2.071
 9313SOL    HW228839   1.327   0.099   2.181
 9314SOL     OW28840   4.916   2.938   0.644
 9314SOL    HW128841   4.993   2.894   0.690
 9314SOL    HW228842   4.866   2.870   0.590
 9315SOL     OW28843   5.680   1.180   6.779
 9315SOL    HW128844   5.724   1.263   6.745
 9315SOL    HW228845   5.581   1.194   6.784
 9316SOL     OW28846   5.249   0.706   5.474
 9316SOL    HW128847   5.325   0.750   5.425
 9316SOL    HW228848   5.260   0.722   5.573
 9317SOL     OW28849   2.637   5.695   3.940
 9317SOL    HW128850   2.667   5.681   4.034
 9317SOL    HW228851   2.716   5.690   3.879
 9318SOL     OW28852   4.728   6.114   0.455
 9318SOL    HW128853   4.767   6.204   0.434
 9318SOL    HW228854   4.705   6.067   0.369
 9319SOL     OW28855   2.819   4.038   0.892
 9319SOL    HW128856   2.772   3.968   0.838
 9319SOL    HW228857   2.756   4.076   0.960
 9320SOL     OW28858   5.565   0.076   6.054
 9320SOL    HW128859   5.656   0.109   6.075
 9320SOL    HW228860   5.571   7.008   6.012
 9321SOL     OW28861   0.279   3.072   5.615
 9321SOL    HW128862   0.292   3.021   5.530
 9321SOL    HW228863   0.367   3.112   5.642
 9322SOL     OW28864   6.487   3.807   5.753
 9322SOL    HW128865   6.459   3.719   5.791
 9322SOL    HW228866   6.490   3.801   5.653
 9323SOL     OW28867   1.396   3.666   3.515
 9323SOL    HW128868   1.422   3.756   3.549
 9323SOL    HW228869   1.309   3.674   3.466
 9324SOL     OW28870   1.360   4.297   0.988
 9324SOL    HW128871   1.322   4.255   0.906
 9324SOL    HW228872   1.410   4.380   0.962
 9325SOL     OW28873   1.828   5.342   2.521
 9325SOL    HW128874   1.919   5.381   2.540
 9325SOL    HW228875   1.830   5.244   2.541
 9326SOL     OW28876   4.063   4.256   0.338
 9326SOL    HW128877   4.116   4.171   0.332
 9326SOL    HW228878   4.045   4.290   0.246
 9327SOL     OW28879   4.552   0.850   3.197
 9327SOL    HW128880   4.478   0.803   3.246
 9327SOL    HW228881   4.618   0.886   3.263
 9328SOL     OW28882   3.240   6.518   4.550
 9328SOL    HW128883   3.303   6.445   4.574
 9328SOL    HW228884   3.149   6.479   4.535
 9329SOL     OW28885   0.108   5.819   6.181
 9329SOL    HW128886   0.093   5.876   6.262
 9329SOL    HW228887   0.182   5.858   6.125
 9330SOL     OW28888   6.871   0.246   0.274
 9330SOL    HW128889   6.816   0.208   0.199
 9330SOL    HW228890   6.907   0.335   0.247
 9331SOL     OW28891   1.504   3.407   5.011
 9331SOL    HW128892   1.598   3.407   4.976
 9331SOL    HW228893   1.505   3.402   5.111
 9332SOL     OW28894   4.169   5.748   0.710
 9332SOL    HW128895   4.093   5.813   0.716
 9332SOL    HW228896   4.243   5.778   0.770
 9333SOL     OW28897   3.545   4.782   0.488
 9333SOL    HW128898   3.561   4.723   0.409
 9333SOL    HW228899   3.482   4.856   0.462
 9334SOL     OW28900   5.064   6.563   5.273
 9334SOL    HW128901   4.978   6.538   5.317
 9334SOL    HW228902   5.046   6.607   5.186
 9335SOL     OW28903   2.421   1.830   1.405
 9335SOL    HW128904   2.361   1.909   1.411
 9335SOL    HW228905   2.467   1.829   1.317
 9336SOL     OW28906   6.330   0.917   4.978
 9336SOL    HW128907   6.248   0.912   4.922
 9336SOL    HW228908   6.350   1.012   5.001
 9337SOL     OW28909   4.538   0.675   6.200
 9337SOL    HW128910   4.562   0.639   6.110
 9337SOL    HW228911   4.582   0.620   6.271
 9338SOL     OW28912   6.852   6.318   0.591
 9338SOL    HW128913   6.841   6.416   0.609
 9338SOL    HW228914   6.810   6.296   0.503
 9339SOL     OW28915   5.891   4.632   6.494
 9339SOL    HW128916   5.803   4.675   6.471
 9339SOL    HW228917   5.958   4.654   6.423
 9340SOL     OW28918   3.698   6.148   2.367
 9340SOL    HW128919   3.631   6.136   2.293
 9340SOL    HW228920   3.702   6.064   2.421
 9341SOL     OW28921   6.182   4.145   6.393
 9341SOL    HW128922   6.221   4.094   6.469
 9341SOL    HW228923   6.160   4.238   6.422
 9342SOL     OW28924   2.707   0.131   4.406
 9342SOL    HW128925   2.686   0.128   4.503
 9342SOL    HW228926   2.807   0.134   4.393
 9343SOL     OW28927   4.695   4.510   1.975
 9343SOL    HW128928   4.659   4.417   1.981
 9343SOL    HW228929   4.768   4.523   2.042
 9344SOL     OW28930   5.427   5.071   6.168
 9344SOL    HW128931   5.438   4.972   6.179
 9344SOL    HW228932   5.400   5.111   6.256
 9345SOL     OW28933   0.019   6.167   6.962
 9345SOL    HW128934   6.963   6.145   6.905
 9345SOL    HW228935   0.085   6.092   6.959
 9346SOL     OW28936   5.193   6.819   1.920
 9346SOL    HW128937   5.198   6.731   1.967
 9346SOL    HW228938   5.193   6.804   1.821
 9347SOL     OW28939   3.591   5.765   1.214
 9347SOL    HW128940   3.530   5.693   1.182
 9347SOL    HW228941   3.569   5.851   1.167
 9348SOL     OW28942   2.423   6.446   2.953
 9348SOL    HW128943   2.372   6.502   3.019
 9348SOL    HW228944   2.506   6.412   2.996
 9349SOL     OW28945   6.665   5.730   2.503
 9349SOL    HW128946   6.663   5.819   2.547
 9349SOL    HW228947   6.571   5.699   2.487
 9350SOL     OW28948   6.873   1.478   4.926
 9350SOL    HW128949   6.960   1.428   4.916
 9350SOL    HW228950   6.824   1.476   4.839
 9351SOL     OW28951   1.881   0.919   5.151
 9351SOL    HW128952   1.898   0.863   5.071
 9351SOL    HW228953   1.954   0.987   5.160
 9352SOL     OW28954   1.931   2.689   5.269
 9352SOL    HW128955   1.846   2.670   5.319
 9352SOL    HW228956   1.950   2.787   5.274
 9353SOL     OW28957   1.486   4.346   1.555
 9353SOL    HW128958   1.499   4.249   1.531
 9353SOL    HW228959   1.478   4.399   1.471
 9354SOL     OW28960   6.480   1.968   1.036
 9354SOL    HW128961   6.434   1.888   1.072
 9354SOL    HW228962   6.576   1.967   1.065
 9355SOL     OW28963   6.574   0.691   4.290
 9355SOL    HW128964   6.541   0.669   4.199
 9355SOL    HW228965   6.608   0.786   4.292
 9356SOL     OW28966   4.388   5.331   1.909
 9356SOL    HW128967   4.400   5.404   1.842
 9356SOL    HW228968   4.292   5.324   1.934
 9357SOL     OW28969   2.920   3.271   0.332
 9357SOL    HW128970   2.833   3.243   0.372
 9357SOL    HW228971   2.994   3.252   0.396
 9358SOL     OW28972   5.803   4.415   1.755
 9358SOL    HW128973   5.754   4.454   1.677
 9358SOL    HW228974   5.822   4.487   1.822
 9359SOL     OW28975   6.850   3.870   6.826
 9359SOL    HW128976   6.872   3.968   6.821
 9359SOL    HW228977   6.931   3.820   6.856
 9360SOL     OW28978   1.936   0.146   5.339
 9360SOL    HW128979   1.988   0.068   5.373
 9360SOL    HW228980   1.998   0.223   5.324
 9361SOL     OW28981   3.134   6.046   3.045
 9361SOL    HW128982   3.159   6.135   3.082
 9361SOL    HW228983   3.217   5.991   3.031
 9362SOL     OW28984   2.346   1.003   2.446
 9362SOL    HW128985   2.340   0.981   2.348
 9362SOL    HW228986   2.442   1.004   2.474
 9363SOL     OW28987   3.578   5.550   2.113
 9363SOL    HW128988   3.548   5.510   2.200
 9363SOL    HW228989   3.614   5.478   2.054
 9364SOL     OW28990   4.678   2.828   6.072
 9364SOL    HW128991   4.594   2.779   6.094
 9364SOL    HW228992   4.756   2.766   6.078
 9365SOL     OW28993   2.742   2.319   5.207
 9365SOL    HW128994   2.715   2.414   5.223
 9365SOL    HW228995   2.828   2.301   5.254
 9366SOL     OW28996   3.278   1.780   0.417
 9366SOL    HW128997   3.324   1.718   0.480
 9366SOL    HW228998   3.289   1.874   0.448
 9367SOL     OW28999   0.438   5.217   4.075
 9367SOL    HW129000   0.487   5.186   3.994
 9367SOL    HW229001   0.397   5.306   4.058
 9368SOL     OW29002   3.927   1.845   2.399
 9368SOL    HW129003   3.897   1.837   2.494
 9368SOL    HW229004   3.855   1.810   2.339
 9369SOL     OW29005   6.593   1.669   6.282
 9369SOL    HW129006   6.512   1.647   6.337
 9369SOL    HW229007   6.564   1.717   6.199
 9370SOL     OW29008   5.775   0.918   3.299
 9370SOL    HW129009   5.856   0.894   3.245
 9370SOL    HW229010   5.790   0.893   3.394
 9371SOL     OW29011   1.680   5.225   0.802
 9371SOL    HW129012   1.770   5.245   0.841
 9371SOL    HW229013   1.633   5.311   0.782
 9372SOL     OW29014   5.727   6.311   3.119
 9372SOL    HW129015   5.636   6.351   3.132
 9372SOL    HW229016   5.778   6.366   3.053
 9373SOL     OW29017   4.398   1.973   2.953
 9373SOL    HW129018   4.430   2.057   2.909
 9373SOL    HW229019   4.307   1.949   2.919
 9374SOL     OW29020   5.667   2.398   0.440
 9374SOL    HW129021   5.654   2.411   0.342
 9374SOL    HW229022   5.578   2.386   0.484
 9375SOL     OW29023   6.622   1.360   3.303
 9375SOL    HW129024   6.550   1.372   3.234
 9375SOL    HW229025   6.702   1.317   3.260
 9376SOL     OW29026   3.439   3.565   1.052
 9376SOL    HW129027   3.499   3.524   0.984
 9376SOL    HW229028   3.345   3.534   1.037
 9377SOL     OW29029   6.517   5.661   3.557
 9377SOL    HW129030   6.495   5.743   3.504
 9377SOL    HW229031   6.483   5.580   3.508
 9378SOL     OW29032   2.537   0.073   5.475
 9378SOL    HW129033   2.459   0.085   5.414
 9378SOL    HW229034   2.507   0.087   5.570
 9379SOL     OW29035   4.945   4.596   4.967
 9379SOL    HW129036   4.874   4.652   4.926
 9379SOL    HW229037   4.904   4.538   5.038
 9380SOL     OW29038   6.432   6.587   5.645
 9380SOL    HW129039   6.461   6.530   5.569
 9380SOL    HW229040   6.509   6.602   5.707
 9381SOL     OW29041   3.003   3.236   5.735
 9381SOL    HW129042   3.052   3.311   5.690
 9381SOL    HW229043   2.922   3.273   5.782
 9382SOL     OW29044   3.842   1.386   3.378
 9382SOL    HW129045   3.801   1.355   3.292
 9382SOL    HW229046   3.779   1.369   3.453
 9383SOL     OW29047   3.615   5.965   4.668
 9383SOL    HW129048   3.523   5.972   4.707
 9383SOL    HW229049   3.657   5.879   4.697
 9384SOL     OW29050   4.450   5.872   2.178
 9384SOL    HW129051   4.453   5.959   2.129
 9384SOL    HW229052   4.451   5.889   2.276
 9385SOL     OW29053   4.107   2.174   2.892
 9385SOL    HW129054   4.108   2.075   2.903
 9385SOL    HW229055   4.141   2.198   2.801
 9386SOL     OW29056   3.508   5.889   4.182
 9386SOL    HW129057   3.421   5.920   4.220
 9386SOL    HW229058   3.509   5.903   4.083
 9387SOL     OW29059   4.237   6.968   1.062
 9387SOL    HW129060   4.192   6.994   0.976
 9387SOL    HW229061   4.252   6.869   1.063
 9388SOL     OW29062   1.783   6.204   2.617
 9388SOL    HW129063   1.696   6.239   2.651
 9388SOL    HW229064   1.779   6.193   2.518
 9389SOL     OW29065   2.498   0.088   4.967
 9389SOL    HW129066   2.483   0.084   4.868
 9389SOL    HW229067   2.596   0.081   4.986
 9390SOL     OW29068   3.865   5.714   3.023
 9390SOL    HW129069   3.838   5.809   3.006
 9390SOL    HW229070   3.923   5.711   3.104
 9391SOL     OW29071   1.977   0.693   5.306
 9391SOL    HW129072   2.042   0.727   5.374
 9391SOL    HW229073   1.940   0.769   5.254
 9392SOL     OW29074   0.467   6.871   4.306
 9392SOL    HW129075   0.509   6.842   4.220
 9392SOL    HW229076   0.368   6.853   4.302
 9393SOL     OW29077   3.837   1.834   4.323
 9393SOL    HW129078   3.863   1.846   4.227
 9393SOL    HW229079   3.739   1.815   4.329
 9394SOL     OW29080   5.781   2.439   3.348
 9394SOL    HW129081   5.752   2.493   3.269
 9394SOL    HW229082   5.881   2.436   3.352
 9395SOL     OW29083   2.808   2.041   0.518
 9395SOL    HW129084   2.837   1.976   0.589
 9395SOL    HW229085   2.806   2.133   0.556
 9396SOL     OW29086   0.245   6.463   4.671
 9396SOL    HW129087   0.323   6.497   4.723
 9396SOL    HW229088   0.211   6.535   4.610
 9397SOL     OW29089   2.545   0.223   0.070
 9397SOL    HW129090   2.551   0.282   7.012
 9397SOL    HW229091   2.633   0.177   0.083
 9398SOL     OW29092   2.156   0.468   6.908
 9398SOL    HW129093   2.126   0.474   7.003
 9398SOL    HW229094   2.210   0.548   6.885
 9399SOL     OW29095   0.156   2.050   0.028
 9399SOL    HW129096   0.069   2.059   0.078
 9399SOL    HW229097   0.227   2.102   0.076
 9400SOL     OW29098   5.242   3.897   1.880
 9400SOL    HW129099   5.255   3.855   1.790
 9400SOL    HW229100   5.165   3.961   1.877
 9401SOL     OW29101   2.846   6.414   3.738
 9401SOL    HW129102   2.780   6.488   3.723
 9401SOL    HW229103   2.798   6.326   3.734
 9402SOL     OW29104   1.718   4.558   5.480
 9402SOL    HW129105   1.713   4.580   5.383
 9402SOL    HW229106   1.657   4.618   5.531
 9403SOL     OW29107   5.003   1.654   2.751
 9403SOL    HW129108   5.033   1.749   2.761
 9403SOL    HW229109   5.068   1.604   2.694
 9404SOL     OW29110   1.433   4.403   6.693
 9404SOL    HW129111   1.496   4.479   6.709
 9404SOL    HW229112   1.465   4.349   6.615
 9405SOL     OW29113   6.717   6.981   2.088
 9405SOL    HW129114   6.763   0.024   2.028
 9405SOL    HW229115   6.732   6.888   2.054
 9406SOL     OW29116   7.009   1.250   5.914
 9406SOL    HW129117   6.944   1.237   5.839
 9406SOL    HW229118   0.073   1.205   5.891
 9407SOL     OW29119   2.858   6.952   2.709
 9407SOL    HW129120   2.869   6.929   2.805
 9407SOL    HW229121   2.770   6.918   2.675
 9408SOL     OW29122   3.544   1.476   5.775
 9408SOL    HW129123   3.479   1.507   5.706
 9408SOL    HW229124   3.507   1.395   5.821
 9409SOL     OW29125   4.739   4.286   4.680
 9409SOL    HW129126   4.689   4.362   4.721
 9409SOL    HW229127   4.769   4.223   4.752
 9410SOL     OW29128   3.396   5.634   1.682
 9410SOL    HW129129   3.390   5.654   1.584
 9410SOL    HW229130   3.392   5.535   1.695
 9411SOL     OW29131   3.331   4.439   0.942
 9411SOL    HW129132   3.404   4.373   0.961
 9411SOL    HW229133   3.325   4.504   1.018
 9412SOL     OW29134   0.610   3.618   1.711
 9412SOL    HW129135   0.598   3.703   1.658
 9412SOL    HW229136   0.544   3.550   1.680
 9413SOL     OW29137   4.280   5.623   4.807
 9413SOL    HW129138   4.194   5.632   4.757
 9413SOL    HW229139   4.308   5.713   4.841
 9414SOL     OW29140   3.475   1.823   3.409
 9414SOL    HW129141   3.490   1.916   3.443
 9414SOL    HW229142   3.516   1.813   3.318
 9415SOL     OW29143   2.653   6.180   2.578
 9415SOL    HW129144   2.717   6.196   2.503
 9415SOL    HW229145   2.561   6.205   2.549
 9416SOL     OW29146   0.924   1.895   1.740
 9416SOL    HW129147   0.967   1.836   1.809
 9416SOL    HW229148   0.982   1.974   1.723
 9417SOL     OW29149   2.833   0.347   5.720
 9417SOL    HW129150   2.744   0.371   5.759
 9417SOL    HW229151   2.891   0.428   5.717
 9418SOL     OW29152   2.502   6.657   0.473
 9418SOL    HW129153   2.447   6.613   0.544
 9418SOL    HW229154   2.562   6.589   0.430
 9419SOL     OW29155   3.145   6.445   5.183
 9419SOL    HW129156   3.212   6.460   5.255
 9419SOL    HW229157   3.178   6.486   5.098
 9420SOL     OW29158   0.690   2.056   5.029
 9420SOL    HW129159   0.632   2.059   5.110
 9420SOL    HW229160   0.728   1.964   5.018
 9421SOL     OW29161   2.503   5.775   5.255
 9421SOL    HW129162   2.562   5.786   5.176
 9421SOL    HW229163   2.427   5.840   5.249
 9422SOL     OW29164   5.174   0.133   2.612
 9422SOL    HW129165   5.187   0.226   2.648
 9422SOL    HW229166   5.259   0.102   2.569
 9423SOL     OW29167   4.096   0.731   2.822
 9423SOL    HW129168   4.093   0.711   2.724
 9423SOL    HW229169   4.033   0.671   2.871
 9424SOL     OW29170   4.807   0.395   5.491
 9424SOL    HW129171   4.848   0.476   5.450
 9424SOL    HW229172   4.852   0.313   5.455
 9425SOL     OW29173   6.995   3.402   6.163
 9425SOL    HW129174   6.944   3.467   6.219
 9425SOL    HW229175   6.999   3.313   6.209
 9426SOL     OW29176   2.871   1.627   0.285
 9426SOL    HW129177   2.864   1.615   0.384
 9426SOL    HW229178   2.963   1.658   0.261
 9427SOL     OW29179   2.332   4.688   5.191
 9427SOL    HW129180   2.415   4.633   5.184
 9427SOL    HW229181   2.353   4.783   5.172
 9428SOL     OW29182   5.059   0.029   1.673
 9428SOL    HW129183   5.075   0.069   1.582
 9428SOL    HW229184   5.070   0.099   1.743
 9429SOL     OW29185   1.350   4.587   1.808
 9429SOL    HW129186   1.279   4.603   1.739
 9429SOL    HW229187   1.439   4.583   1.763
 9430SOL     OW29188   6.960   6.817   2.249
 9430SOL    HW129189   7.022   6.739   2.256
 9430SOL    HW229190   6.901   6.805   2.169
 9431SOL     OW29191   5.623   4.294   0.759
 9431SOL    HW129192   5.630   4.348   0.675
 9431SOL    HW229193   5.683   4.215   0.752
 9432SOL     OW29194   6.910   0.379   3.356
 9432SOL    HW129195   6.884   0.296   3.405
 9432SOL    HW229196   6.831   0.441   3.352
 9433SOL     OW29197   3.342   4.925   4.101
 9433SOL    HW129198   3.321   4.864   4.178
 9433SOL    HW229199   3.289   4.896   4.021
 9434SOL     OW29200   5.639   4.862   3.362
 9434SOL    HW129201   5.705   4.801   3.318
 9434SOL    HW229202   5.678   4.899   3.446
 9435SOL     OW29203   0.986   1.567   3.964
 9435SOL    HW129204   1.004   1.632   4.039
 9435SOL    HW229205   1.072   1.528   3.932
 9436SOL     OW29206   0.920   4.218   1.848
 9436SOL    HW129207   0.862   4.259   1.778
 9436SOL    HW229208   1.016   4.222   1.819
 9437SOL     OW29209   1.293   6.239   3.408
 9437SOL    HW129210   1.278   6.285   3.495
 9437SOL    HW229211   1.340   6.300   3.345
 9438SOL     OW29212   1.010   6.096   1.120
 9438SOL    HW129213   0.951   6.017   1.138
 9438SOL    HW229214   1.010   6.115   1.022
 9439SOL     OW29215   0.353   3.366   1.847
 9439SOL    HW129216   0.379   3.308   1.923
 9439SOL    HW229217   0.269   3.416   1.870
 9440SOL     OW29218   4.934   5.808   4.099
 9440SOL    HW129219   4.857   5.770   4.149
 9440SOL    HW229220   5.018   5.796   4.151
 9441SOL     OW29221   1.429   5.381   4.848
 9441SOL    HW129222   1.505   5.331   4.806
 9441SOL    HW229223   1.362   5.315   4.883
 9442SOL     OW29224   6.088   2.242   0.330
 9442SOL    HW129225   6.065   2.276   0.421
 9442SOL    HW229226   6.150   2.306   0.285
 9443SOL     OW29227   2.417   4.735   1.220
 9443SOL    HW129228   2.467   4.784   1.291
 9443SOL    HW229229   2.465   4.744   1.133
 9444SOL     OW29230   0.838   3.717   6.595
 9444SOL    HW129231   0.832   3.788   6.525
 9444SOL    HW229232   0.894   3.641   6.561
 9445SOL     OW29233   5.308   3.347   1.927
 9445SOL    HW129234   5.308   3.291   1.844
 9445SOL    HW229235   5.264   3.435   1.907
 9446SOL     OW29236   6.267   6.867   3.544
 9446SOL    HW129237   6.272   6.772   3.573
 9446SOL    HW229238   6.344   6.888   3.485
 9447SOL     OW29239   5.691   3.527   3.270
 9447SOL    HW129240   5.771   3.471   3.289
 9447SOL    HW229241   5.682   3.542   3.172
 9448SOL     OW29242   5.682   6.207   6.303
 9448SOL    HW129243   5.639   6.167   6.222
 9448SOL    HW229244   5.746   6.279   6.275
 9449SOL     OW29245   6.868   5.525   6.554
 9449SOL    HW129246   6.874   5.622   6.530
 9449SOL    HW229247   6.955   5.496   6.595
 9450SOL     OW29248   3.223   4.924   4.733
 9450SOL    HW129249   3.133   4.963   4.752
 9450SOL    HW229250   3.288   4.953   4.802
 9451SOL     OW29251   4.136   5.615   6.010
 9451SOL    HW129252   4.083   5.620   5.925
 9451SOL    HW229253   4.199   5.537   6.005
 9452SOL     OW29254   1.986   3.326   1.211
 9452SOL    HW129255   1.931   3.366   1.285
 9452SOL    HW229256   1.927   3.270   1.153
 9453SOL     OW29257   2.071   4.465   3.034
 9453SOL    HW129258   2.030   4.381   3.071
 9453SOL    HW229259   2.047   4.542   3.093
 9454SOL     OW29260   1.898   3.479   5.784
 9454SOL    HW129261   1.821   3.441   5.735
 9454SOL    HW229262   1.982   3.433   5.756
 9455SOL     OW29263   3.635   1.520   2.827
 9455SOL    HW129264   3.567   1.457   2.792
 9455SOL    HW229265   3.708   1.533   2.760
 9456SOL     OW29266   0.423   4.828   0.196
 9456SOL    HW129267   0.421   4.731   0.219
 9456SOL    HW229268   0.483   4.843   0.118
 9457SOL     OW29269   1.580   3.444   6.369
 9457SOL    HW129270   1.511   3.507   6.335
 9457SOL    HW229271   1.663   3.452   6.314
 9458SOL     OW29272   1.154   4.052   6.588
 9458SOL    HW129273   1.130   4.019   6.679
 9458SOL    HW229274   1.103   4.136   6.568
 9459SOL     OW29275   6.398   4.837   2.288
 9459SOL    HW129276   6.383   4.773   2.213
 9459SOL    HW229277   6.494   4.863   2.291
 9460SOL     OW29278   0.097   1.741   4.843
 9460SOL    HW129279   0.020   1.804   4.834
 9460SOL    HW229280   0.069   1.649   4.816
 9461SOL     OW29281   6.518   1.649   3.489
 9461SOL    HW129282   6.516   1.549   3.481
 9461SOL    HW229283   6.441   1.679   3.546
 9462SOL     OW29284   2.182   4.049   3.079
 9462SOL    HW129285   2.263   4.106   3.098
 9462SOL    HW229286   2.161   3.995   3.160
 9463SOL     OW29287   0.328   1.166   1.422
 9463SOL    HW129288   0.423   1.142   1.402
 9463SOL    HW229289   0.299   1.240   1.361
 9464SOL     OW29290   5.252   6.543   6.934
 9464SOL    HW129291   5.181   6.613   6.934
 9464SOL    HW229292   5.342   6.586   6.924
 9465SOL     OW29293   0.034   0.277   3.143
 9465SOL    HW129294   0.097   0.201   3.156
 9465SOL    HW229295   0.008   0.313   3.232
 9466SOL     OW29296   3.995   4.039   5.261
 9466SOL    HW129297   4.077   4.093   5.281
 9466SOL    HW229298   4.020   3.958   5.208
 9467SOL     OW29299   1.495   3.126   1.382
 9467SOL    HW129300   1.590   3.153   1.398
 9467SOL    HW229301   1.484   3.028   1.401
 9468SOL     OW29302   5.774   2.748   5.900
 9468SOL    HW129303   5.872   2.740   5.916
 9468SOL    HW229304   5.724   2.727   5.984
 9469SOL     OW29305   6.046   5.430   1.669
 9469SOL    HW129306   5.993   5.479   1.600
 9469SOL    HW229307   6.141   5.421   1.639
 9470SOL     OW29308   5.877   3.132   6.382
 9470SOL    HW129309   5.863   3.075   6.463
 9470SOL    HW229310   5.790   3.145   6.336
 9471SOL     OW29311   6.421   2.400   5.234
 9471SOL    HW129312   6.442   2.360   5.324
 9471SOL    HW229313   6.338   2.358   5.198
 9472SOL     OW29314   6.644   3.797   4.461
 9472SOL    HW129315   6.576   3.780   4.389
 9472SOL    HW229316   6.650   3.896   4.478
 9473SOL     OW29317   3.610   6.306   5.518
 9473SOL    HW129318   3.683   6.356   5.471
 9473SOL    HW229319   3.560   6.250   5.452
 9474SOL     OW29320   6.353   3.526   1.190
 9474SOL    HW129321   6.338   3.530   1.289
 9474SOL    HW229322   6.316   3.441   1.154
 9475SOL     OW29323   3.071   3.154   0.546
 9475SOL    HW129324   3.141   3.104   0.495
 9475SOL    HW229325   3.108   3.180   0.635
 9476SOL     OW29326   2.995   3.736   4.816
 9476SOL    HW129327   3.019   3.721   4.911
 9476SOL    HW229328   3.055   3.807   4.777
 9477SOL     OW29329   0.079   3.464   2.003
 9477SOL    HW129330   0.018   3.541   2.018
 9477SOL    HW229331   0.143   3.456   2.079
 9478SOL     OW29332   6.001   3.809   6.234
 9478SOL    HW129333   6.090   3.835   6.270
 9478SOL    HW229334   5.984   3.858   6.148
 9479SOL     OW29335   6.040   6.638   6.184
 9479SOL    HW129336   5.993   6.716   6.226
 9479SOL    HW229337   6.107   6.601   6.248
 9480SOL     OW29338   4.616   4.408   6.811
 9480SOL    HW129339   4.569   4.393   6.725
 9480SOL    HW229340   4.667   4.326   6.836
 9481SOL     OW29341   5.711   3.872   1.468
 9481SOL    HW129342   5.650   3.937   1.512
 9481SOL    HW229343   5.668   3.782   1.465
 9482SOL     OW29344   6.234   1.217   3.394
 9482SOL    HW129345   6.186   1.241   3.310
 9482SOL    HW229346   6.205   1.126   3.424
 9483SOL     OW29347   1.733   1.660   0.919
 9483SOL    HW129348   1.650   1.637   0.970
 9483SOL    HW229349   1.724   1.628   0.824
 9484SOL     OW29350   4.910   1.718   3.266
 9484SOL    HW129351   4.821   1.673   3.267
 9484SOL    HW229352   4.910   1.794   3.330
 9485SOL     OW29353   0.882   0.353   1.844
 9485SOL    HW129354   0.798   0.328   1.893
 9485SOL    HW229355   0.938   0.271   1.830
 9486SOL     OW29356   2.358   5.098   1.370
 9486SOL    HW129357   2.294   5.021   1.365
 9486SOL    HW229358   2.363   5.131   1.465
 9487SOL     OW29359   3.344   3.546   3.834
 9487SOL    HW129360   3.311   3.522   3.925
 9487SOL    HW229361   3.322   3.473   3.769
 9488SOL     OW29362   3.167   6.489   1.719
 9488SOL    HW129363   3.138   6.467   1.812
 9488SOL    HW229364   3.097   6.460   1.654
 9489SOL     OW29365   3.423   4.044   1.477
 9489SOL    HW129366   3.484   4.114   1.441
 9489SOL    HW229367   3.462   4.005   1.561
 9490SOL     OW29368   5.907   6.751   0.241
 9490SOL    HW129369   5.810   6.738   0.220
 9490SOL    HW229370   5.916   6.789   0.334
 9491SOL     OW29371   6.865   4.725   4.492
 9491SOL    HW129372   6.854   4.656   4.564
 9491SOL    HW229373   6.881   4.680   4.404
 9492SOL     OW29374   3.314   3.712   2.731
 9492SOL    HW129375   3.275   3.772   2.662
 9492SOL    HW229376   3.335   3.765   2.813
 9493SOL     OW29377   4.594   5.196   3.698
 9493SOL    HW129378   4.682   5.161   3.668
 9493SOL    HW229379   4.531   5.119   3.712
 9494SOL     OW29380   4.057   3.884   0.955
 9494SOL    HW129381   3.977   3.832   0.987
 9494SOL    HW229382   4.100   3.833   0.880
 9495SOL     OW29383   6.432   2.520   4.198
 9495SOL    HW129384   6.499   2.575   4.247
 9495SOL    HW229385   6.349   2.512   4.253
 9496SOL     OW29386   5.242   4.764   0.737
 9496SOL    HW129387   5.248   4.856   0.777
 9496SOL    HW229388   5.221   4.771   0.639
 9497SOL     OW29389   4.907   4.089   0.546
 9497SOL    HW129390   4.975   4.059   0.612
 9497SOL    HW229391   4.897   4.020   0.474
 9498SOL     OW29392   5.332   0.577   6.373
 9498SOL    HW129393   5.241   0.615   6.387
 9498SOL    HW229394   5.389   0.596   6.453
 9499SOL     OW29395   2.593   3.083   5.894
 9499SOL    HW129396   2.600   3.046   5.801
 9499SOL    HW229397   2.553   3.174   5.891
 9500SOL     OW29398   3.611   6.886   1.705
 9500SOL    HW129399   3.534   6.873   1.642
 9500SOL    HW229400   3.662   6.800   1.713
 9501SOL     OW29401   2.934   1.399   4.193
 9501SOL    HW129402   2.843   1.375   4.160
 9501SOL    HW229403   2.928   1.477   4.255
 9502SOL     OW29404   0.303   1.918   4.970
 9502SOL    HW129405   0.365   1.840   4.967
 9502SOL    HW229406   0.209   1.887   4.957
 9503SOL     OW29407   0.527   1.222   1.922
 9503SOL    HW129408   0.562   1.151   1.861
 9503SOL    HW229409   0.432   1.242   1.899
 9504SOL     OW29410   0.264   2.417   1.222
 9504SOL    HW129411   0.273   2.395   1.319
 9504SOL    HW229412   0.269   2.333   1.169
 9505SOL     OW29413   5.024   3.760   3.363
 9505SOL    HW129414   5.067   3.684   3.411
 9505SOL    HW229415   4.967   3.726   3.288
 9506SOL     OW29416   0.786   3.128   6.265
 9506SOL    HW129417   0.843   3.116   6.346
 9506SOL    HW229418   0.845   3.141   6.185
 9507SOL     OW29419   1.768   1.292   4.034
 9507SOL    HW129420   1.860   1.286   3.996
 9507SOL    HW229421   1.757   1.379   4.081
 9508SOL     OW29422   6.376   2.636   0.680
 9508SOL    HW129423   6.445   2.598   0.618
 9508SOL    HW229424   6.307   2.684   0.626
 9509SOL     OW29425   1.229   6.582   5.359
 9509SOL    HW129426   1.324   6.553   5.372
 9509SOL    HW229427   1.175   6.504   5.327
 9510SOL     OW29428   0.603   3.889   1.912
 9510SOL    HW129429   0.598   3.800   1.958
 9510SOL    HW229430   0.578   3.878   1.816
 9511SOL     OW29431   1.020   1.813   6.933
 9511SOL    HW129432   1.087   1.739   6.934
 9511SOL    HW229433   0.961   1.803   6.853
 9512SOL     OW29434   5.939   1.832   3.322
 9512SOL    HW129435   5.889   1.795   3.401
 9512SOL    HW229436   5.916   1.928   3.311
 9513SOL     OW29437   1.195   3.284   4.721
 9513SOL    HW129438   1.269   3.350   4.711
 9513SOL    HW229439   1.209   3.208   4.658
 9514SOL     OW29440   1.440   3.689   6.739
 9514SOL    HW129441   1.376   3.638   6.681
 9514SOL    HW229442   1.403   3.697   6.831
 9515SOL     OW29443   1.564   6.017   0.167
 9515SOL    HW129444   1.570   6.117   0.177
 9515SOL    HW229445   1.577   5.975   0.257
 9516SOL     OW29446   4.927   3.587   4.501
 9516SOL    HW129447   4.967   3.538   4.578
 9516SOL    HW229448   4.905   3.522   4.428
 9517SOL     OW29449   1.543   4.985   0.794
 9517SOL    HW129450   1.609   5.060   0.798
 9517SOL    HW229451   1.579   4.911   0.738
 9518SOL     OW29452   1.132   2.086   6.699
 9518SOL    HW129453   1.050   2.038   6.729
 9518SOL    HW229454   1.196   2.095   6.775
 9519SOL     OW29455   3.633   3.122   3.165
 9519SOL    HW129456   3.692   3.177   3.225
 9519SOL    HW229457   3.666   3.130   3.071
 9520SOL     OW29458   6.454   1.366   3.572
 9520SOL    HW129459   6.430   1.322   3.659
 9520SOL    HW229460   6.394   1.331   3.500
 9521SOL     OW29461   3.676   3.831   1.584
 9521SOL    HW129462   3.708   3.736   1.586
 9521SOL    HW229463   3.658   3.862   1.677
 9522SOL     OW29464   4.001   5.388   2.763
 9522SOL    HW129465   3.905   5.371   2.740
 9522SOL    HW229466   4.031   5.472   2.719
 9523SOL     OW29467   2.627   5.105   5.314
 9523SOL    HW129468   2.545   5.123   5.259
 9523SOL    HW229469   2.612   5.023   5.370
 9524SOL     OW29470   1.907   2.650   1.121
 9524SOL    HW129471   1.815   2.647   1.161
 9524SOL    HW229472   1.971   2.691   1.186
 9525SOL     OW29473   1.686   1.886   5.129
 9525SOL    HW129474   1.688   1.935   5.042
 9525SOL    HW229475   1.779   1.881   5.166
 9526SOL     OW29476   6.054   4.782   1.182
 9526SOL    HW129477   6.036   4.774   1.280
 9526SOL    HW229478   6.044   4.878   1.154
 9527SOL     OW29479   2.129   0.366   4.800
 9527SOL    HW129480   2.194   0.431   4.839
 9527SOL    HW229481   2.128   0.377   4.700
 9528SOL     OW29482   6.150   1.538   1.091
 9528SOL    HW129483   6.132   1.510   1.186
 9528SOL    HW229484   6.075   1.508   1.033
 9529SOL     OW29485   5.324   4.263   0.531
 9529SOL    HW129486   5.324   4.287   0.628
 9529SOL    HW229487   5.305   4.165   0.520
 9530SOL     OW29488   1.047   4.714   4.300
 9530SOL    HW129489   1.034   4.733   4.202
 9530SOL    HW229490   1.126   4.764   4.333
 9531SOL     OW29491   4.362   4.631   3.055
 9531SOL    HW129492   4.449   4.674   3.029
 9531SOL    HW229493   4.357   4.540   3.014
 9532SOL     OW29494   6.930   5.083   0.939
 9532SOL    HW129495   6.957   5.010   1.001
 9532SOL    HW229496   6.848   5.056   0.888
 9533SOL     OW29497   0.700   5.218   3.596
 9533SOL    HW129498   0.696   5.141   3.533
 9533SOL    HW229499   0.777   5.207   3.659
 9534SOL     OW29500   5.693   4.405   4.419
 9534SOL    HW129501   5.651   4.375   4.504
 9534SOL    HW229502   5.790   4.382   4.420
 9535SOL     OW29503   2.016   0.918   6.050
 9535SOL    HW129504   2.023   0.996   5.988
 9535SOL    HW229505   2.009   0.950   6.145
 9536SOL     OW29506   3.448   3.249   5.613
 9536SOL    HW129507   3.492   3.218   5.697
 9536SOL    HW229508   3.518   3.269   5.544
 9537SOL     OW29509   3.093   1.718   4.816
 9537SOL    HW129510   3.076   1.697   4.720
 9537SOL    HW229511   3.040   1.798   4.843
 9538SOL     OW29512   4.411   0.516   4.397
 9538SOL    HW129513   4.320   0.522   4.438
 9538SOL    HW229514   4.457   0.433   4.429
 9539SOL     OW29515   2.956   3.370   4.403
 9539SOL    HW129516   2.915   3.374   4.311
 9539SOL    HW229517   2.923   3.448   4.457
 9540SOL     OW29518   5.585   5.623   4.320
 9540SOL    HW129519   5.633   5.558   4.381
 9540SOL    HW229520   5.540   5.572   4.246
 9541SOL     OW29521   2.085   0.625   5.931
 9541SOL    HW129522   2.106   0.718   5.960
 9541SOL    HW229523   2.061   0.570   6.011
 9542SOL     OW29524   5.893   5.248   4.615
 9542SOL    HW129525   5.964   5.182   4.591
 9542SOL    HW229526   5.809   5.200   4.640
 9543SOL     OW29527   3.847   0.543   6.221
 9543SOL    HW129528   3.849   0.472   6.291
 9543SOL    HW229529   3.903   0.620   6.250
 9544SOL     OW29530   5.359   3.389   4.304
 9544SOL    HW129531   5.314   3.400   4.393
 9544SOL    HW229532   5.437   3.327   4.314
 9545SOL     OW29533   5.910   5.241   2.475
 9545SOL    HW129534   5.859   5.259   2.559
 9545SOL    HW229535   5.960   5.155   2.484
 9546SOL     OW29536   3.772   1.090   5.945
 9546SOL    HW129537   3.795   0.993   5.952
 9546SOL    HW229538   3.816   1.129   5.864
 9547SOL     OW29539   2.382   5.260   3.685
 9547SOL    HW129540   2.474   5.254   3.646
 9547SOL    HW229541   2.385   5.237   3.782
 9548SOL     OW29542   0.016   5.573   4.942
 9548SOL    HW129543   6.966   5.607   4.883
 9548SOL    HW229544   0.031   5.639   5.016
 9549SOL     OW29545   2.635   1.115   2.038
 9549SOL    HW129546   2.610   1.199   1.990
 9549SOL    HW229547   2.710   1.134   2.102
 9550SOL     OW29548   6.513   1.611   0.700
 9550SOL    HW129549   6.424   1.655   0.706
 9550SOL    HW229550   6.501   1.512   0.695
 9551SOL     OW29551   5.949   3.036   6.117
 9551SOL    HW129552   5.935   3.090   6.200
 9551SOL    HW229553   5.876   3.057   6.052
 9552SOL     OW29554   2.242   6.258   6.014
 9552SOL    HW129555   2.241   6.310   6.099
 9552SOL    HW229556   2.186   6.305   5.945
 9553SOL     OW29557   5.384   2.374   0.260
 9553SOL    HW129558   5.317   2.349   0.191
 9553SOL    HW229559   5.375   2.471   0.281
 9554SOL     OW29560   1.465   6.235   3.047
 9554SOL    HW129561   1.405   6.311   3.074
 9554SOL    HW229562   1.459   6.162   3.114
 9555SOL     OW29563   0.077   1.236   3.344
 9555SOL    HW129564   0.117   1.144   3.336
 9555SOL    HW229565   0.137   1.294   3.399
 9556SOL     OW29566   1.617   3.477   0.774
 9556SOL    HW129567   1.697   3.493   0.717
 9556SOL    HW229568   1.534   3.501   0.724
 9557SOL     OW29569   5.688   7.006   0.906
 9557SOL    HW129570   5.596   0.022   0.908
 9557SOL    HW229571   5.739   0.013   0.987
 9558SOL     OW29572   6.070   5.711   5.255
 9558SOL    HW129573   5.975   5.730   5.229
 9558SOL    HW229574   6.130   5.782   5.218
 9559SOL     OW29575   1.049   4.598   0.340
 9559SOL    HW129576   1.080   4.547   0.420
 9559SOL    HW229577   0.967   4.554   0.302
 9560SOL     OW29578   2.424   0.855   2.962
 9560SOL    HW129579   2.446   0.873   3.058
 9560SOL    HW229580   2.352   0.786   2.956
 9561SOL     OW29581   0.542   0.574   1.551
 9561SOL    HW129582   0.483   0.635   1.605
 9561SOL    HW229583   0.637   0.590   1.575
 9562SOL     OW29584   2.856   0.181   4.676
 9562SOL    HW129585   2.900   0.105   4.628
 9562SOL    HW229586   2.838   0.155   4.771
 9563SOL     OW29587   0.069   6.877   0.151
 9563SOL    HW129588   0.032   6.790   0.183
 9563SOL    HW229589   0.141   6.859   0.083
 9564SOL     OW29590   2.347   0.803   0.547
 9564SOL    HW129591   2.291   0.749   0.484
 9564SOL    HW229592   2.310   0.794   0.639
 9565SOL     OW29593   3.482   1.120   5.715
 9565SOL    HW129594   3.438   1.169   5.791
 9565SOL    HW229595   3.417   1.113   5.639
 9566SOL     OW29596   2.613   6.061   0.243
 9566SOL    HW129597   2.596   6.151   0.205
 9566SOL    HW229598   2.679   6.012   0.185
 9567SOL     OW29599   5.103   4.581   0.088
 9567SOL    HW129600   5.117   4.545   0.180
 9567SOL    HW229601   5.163   4.533   0.024
 9568SOL     OW29602   4.350   2.004   0.263
 9568SOL    HW129603   4.276   1.994   0.197
 9568SOL    HW229604   4.431   2.041   0.218
 9569SOL     OW29605   0.049   1.713   2.182
 9569SOL    HW129606   0.016   1.646   2.249
 9569SOL    HW229607   0.143   1.690   2.156
 9570SOL     OW29608   0.715   3.085   1.390
 9570SOL    HW129609   0.647   3.149   1.355
 9570SOL    HW229610   0.805   3.107   1.351
 9571SOL     OW29611   3.433   2.943   5.860
 9571SOL    HW129612   3.402   2.935   5.765
 9571SOL    HW229613   3.531   2.921   5.864
 9572SOL     OW29614   1.938   5.113   2.187
 9572SOL    HW129615   1.855   5.061   2.207
 9572SOL    HW229616   1.927   5.207   2.219
 9573SOL     OW29617   0.641   1.886   6.456
 9573SOL    HW129618   0.591   1.802   6.435
 9573SOL    HW229619   0.704   1.907   6.381
 9574SOL     OW29620   3.427   2.846   2.536
 9574SOL    HW129621   3.382   2.782   2.474
 9574SOL    HW229622   3.359   2.888   2.597
 9575SOL     OW29623   0.306   1.611   2.098
 9575SOL    HW129624   0.349   1.661   2.023
 9575SOL    HW229625   0.377   1.575   2.159
 9576SOL     OW29626   2.044   1.963   0.627
 9576SOL    HW129627   2.129   2.010   0.647
 9576SOL    HW229628   1.967   2.011   0.671
 9577SOL     OW29629   0.679   0.043   6.083
 9577SOL    HW129630   0.611   0.114   6.067
 9577SOL    HW229631   0.662   6.988   6.022
 9578SOL     OW29632   1.274   3.540   3.133
 9578SOL    HW129633   1.359   3.593   3.132
 9578SOL    HW229634   1.232   3.542   3.043
 9579SOL     OW29635   0.242   5.497   3.021
 9579SOL    HW129636   0.230   5.589   2.982
 9579SOL    HW229637   0.284   5.505   3.112
 9580SOL     OW29638   4.344   3.225   0.784
 9580SOL    HW129639   4.406   3.156   0.746
 9580SOL    HW229640   4.391   3.279   0.853
 9581SOL     OW29641   0.287   0.438   6.773
 9581SOL    HW129642   0.373   0.484   6.752
 9581SOL    HW229643   0.267   0.448   6.870
 9582SOL     OW29644   4.539   5.929   5.073
 9582SOL    HW129645   4.517   5.904   4.979
 9582SOL    HW229646   4.459   5.970   5.116
 9583SOL     OW29647   2.976   3.829   1.310
 9583SOL    HW129648   2.924   3.754   1.352
 9583SOL    HW229649   3.000   3.804   1.216
 9584SOL     OW29650   6.913   5.106   5.871
 9584SOL    HW129651   6.953   5.123   5.960
 9584SOL    HW229652   6.980   5.062   5.811
 9585SOL     OW29653   5.401   6.567   3.730
 9585SOL    HW129654   5.395   6.544   3.633
 9585SOL    HW229655   5.340   6.507   3.782
 9586SOL     OW29656   4.811   5.149   2.279
 9586SOL    HW129657   4.727   5.181   2.323
 9586SOL    HW229658   4.890   5.193   2.322
 9587SOL     OW29659   1.140   0.310   1.472
 9587SOL    HW129660   1.164   0.232   1.529
 9587SOL    HW229661   1.177   0.394   1.512
 9588SOL     OW29662   6.351   6.666   1.004
 9588SOL    HW129663   6.355   6.640   1.101
 9588SOL    HW229664   6.336   6.765   0.997
 9589SOL     OW29665   1.893   5.213   0.251
 9589SOL    HW129666   1.936   5.243   0.336
 9589SOL    HW229667   1.796   5.196   0.267
 9590SOL     OW29668   5.613   3.266   1.607
 9590SOL    HW129669   5.698   3.318   1.616
 9590SOL    HW229670   5.593   3.251   1.511
 9591SOL     OW29671   2.991   5.580   5.872
 9591SOL    HW129672   3.058   5.508   5.889
 9591SOL    HW229673   2.973   5.629   5.958
 9592SOL     OW29674   2.742   4.648   0.258
 9592SOL    HW129675   2.681   4.670   0.334
 9592SOL    HW229676   2.836   4.646   0.290
 9593SOL     OW29677   0.990   1.224   6.790
 9593SOL    HW129678   0.949   1.221   6.881
 9593SOL    HW229679   1.074   1.278   6.793
 9594SOL     OW29680   2.120   5.104   3.904
 9594SOL    HW129681   2.070   5.190   3.914
 9594SOL    HW229682   2.121   5.077   3.807
 9595SOL     OW29683   0.254   3.247   4.268
 9595SOL    HW129684   0.156   3.249   4.290
 9595SOL    HW229685   0.266   3.214   4.175
 9596SOL     OW29686   1.206   4.585   6.717
 9596SOL    HW129687   1.168   4.561   6.628
 9596SOL    HW229688   1.304   4.564   6.718
 9597SOL     OW29689   6.855   4.034   1.531
 9597SOL    HW129690   6.923   4.029   1.458
 9597SOL    HW229691   6.775   4.084   1.499
 9598SOL     OW29692   1.583   4.953   3.443
 9598SOL    HW129693   1.649   4.997   3.505
 9598SOL    HW229694   1.632   4.895   3.379
 9599SOL     OW29695   2.347   0.597   4.245
 9599SOL    HW129696   2.365   0.535   4.321
 9599SOL    HW229697   2.411   0.673   4.248
 9600SOL     OW29698   3.078   6.756   0.097
 9600SOL    HW129699   3.035   6.792   0.180
 9600SOL    HW229700   3.010   6.704   0.045
 9601SOL     OW29701   4.774   4.128   1.072
 9601SOL    HW129702   4.787   4.198   1.002
 9601SOL    HW229703   4.852   4.066   1.073
 9602SOL     OW29704   6.163   4.031   6.834
 9602SOL    HW129705   6.114   3.943   6.829
 9602SOL    HW229706   6.100   4.105   6.811
 9603SOL     OW29707   4.610   0.981   5.634
 9603SOL    HW129708   4.570   1.067   5.604
 9603SOL    HW229709   4.710   0.987   5.628
 9604SOL     OW29710   4.852   0.222   1.004
 9604SOL    HW129711   4.916   0.194   0.932
 9604SOL    HW229712   4.905   0.253   1.084
 9605SOL     OW29713   0.687   6.014   3.385
 9605SOL    HW129714   0.762   6.032   3.448
 9605SOL    HW229715   0.674   6.092   3.324
 9606SOL     OW29716   1.840   6.287   0.472
 9606SOL    HW129717   1.780   6.363   0.448
 9606SOL    HW229718   1.935   6.317   0.466
 9607SOL     OW29719   2.164   1.035   6.414
 9607SOL    HW129720   2.215   0.999   6.493
 9607SOL    HW229721   2.095   1.100   6.446
 9608SOL     OW29722   0.054   4.969   2.132
 9608SOL    HW129723   0.075   4.950   2.036
 9608SOL    HW229724   6.978   4.984   2.142
 9609SOL     OW29725   2.449   3.246   0.233
 9609SOL    HW129726   2.354   3.266   0.208
 9609SOL    HW229727   2.451   3.176   0.304
 9610SOL     OW29728   1.627   4.998   3.929
 9610SOL    HW129729   1.538   4.978   3.886
 9610SOL    HW229730   1.627   5.093   3.960
 9611SOL     OW29731   1.248   6.186   6.608
 9611SOL    HW129732   1.159   6.175   6.653
 9611SOL    HW229733   1.317   6.211   6.675
 9612SOL     OW29734   0.502   4.016   1.432
 9612SOL    HW129735   0.453   3.999   1.346
 9612SOL    HW229736   0.459   4.092   1.480
 9613SOL     OW29737   5.264   0.649   3.641
 9613SOL    HW129738   5.270   0.627   3.544
 9613SOL    HW229739   5.175   0.621   3.676
 9614SOL     OW29740   4.025   2.391   1.659
 9614SOL    HW129741   4.063   2.327   1.726
 9614SOL    HW229742   3.963   2.454   1.704
 9615SOL     OW29743   2.799   0.242   0.629
 9615SOL    HW129744   2.723   0.293   0.667
 9615SOL    HW229745   2.877   0.247   0.690
 9616SOL     OW29746   3.724   3.294   1.275
 9616SOL    HW129747   3.640   3.329   1.316
 9616SOL    HW229748   3.704   3.211   1.223
 9617SOL     OW29749   1.163   3.689   3.369
 9617SOL    HW129750   1.192   3.676   3.274
 9617SOL    HW229751   1.096   3.620   3.394
 9618SOL     OW29752   4.173   6.664   7.022
 9618SOL    HW129753   4.155   6.623   0.089
 9618SOL    HW229754   4.253   6.620   6.981
 9619SOL     OW29755   1.561   6.599   6.328
 9619SOL    HW129756   1.602   6.598   6.237
 9619SOL    HW229757   1.462   6.600   6.321
 9620SOL     OW29758   4.091   0.713   6.246
 9620SOL    HW129759   4.119   0.646   6.177
 9620SOL    HW229760   4.129   0.687   6.335
 9621SOL     OW29761   0.867   2.103   2.043
 9621SOL    HW129762   0.910   2.131   1.957
 9621SOL    HW229763   0.795   2.036   2.025
 9622SOL     OW29764   6.912   1.265   0.828
 9622SOL    HW129765   6.867   1.354   0.823
 9622SOL    HW229766   6.991   1.270   0.889
 9623SOL     OW29767   2.940   3.788   5.474
 9623SOL    HW129768   2.924   3.863   5.538
 9623SOL    HW229769   2.939   3.701   5.523
 9624SOL     OW29770   6.773   3.999   2.075
 9624SOL    HW129771   6.729   4.024   2.161
 9624SOL    HW229772   6.865   4.040   2.071
 9625SOL     OW29773   4.898   5.465   6.808
 9625SOL    HW129774   4.843   5.446   6.726
 9625SOL    HW229775   4.995   5.466   6.783
 9626SOL     OW29776   4.216   5.152   6.916
 9626SOL    HW129777   4.296   5.100   6.945
 9626SOL    HW229778   4.244   5.227   6.856
 9627SOL     OW29779   6.925   6.192   4.875
 9627SOL    HW129780   6.882   6.102   4.869
 9627SOL    HW229781   6.878   6.247   4.944
 9628SOL     OW29782   4.996   4.755   6.898
 9628SOL    HW129783   5.053   4.779   6.819
 9628SOL    HW229784   5.043   4.686   6.953
 9629SOL     OW29785   0.261   0.127   2.101
 9629SOL    HW129786   0.254   0.146   2.004
 9629SOL    HW229787   0.354   0.148   2.133
 9630SOL     OW29788   6.773   6.798   5.087
 9630SOL    HW129789   6.681   6.836   5.102
 9630SOL    HW229790   6.836   6.837   5.154
 9631SOL     OW29791   6.954   6.662   6.986
 9631SOL    HW129792   6.870   6.611   7.002
 9631SOL    HW229793   6.943   6.722   6.906
 9632SOL     OW29794   0.822   0.146   2.751
 9632SOL    HW129795   0.902   0.199   2.780
 9632SOL    HW229796   0.829   0.053   2.786
 9633SOL     OW29797   5.290   4.964   5.949
 9633SOL    HW129798   5.363   4.929   5.890
 9633SOL    HW229799   5.330   5.005   6.031
 9634SOL     OW29800   1.193   5.950   4.073
 9634SOL    HW129801   1.160   5.860   4.044
 9634SOL    HW229802   1.292   5.945   4.091
 9635SOL     OW29803   1.459   4.620   4.822
 9635SOL    HW129804   1.480   4.625   4.919
 9635SOL    HW229805   1.491   4.532   4.785
 9636SOL     OW29806   4.220   1.836   5.510
 9636SOL    HW129807   4.145   1.813   5.448
 9636SOL    HW229808   4.183   1.876   5.594
 9637SOL     OW29809   2.445   1.435   6.118
 9637SOL    HW129810   2.387   1.362   6.154
 9637SOL    HW229811   2.438   1.436   6.018
 9638SOL     OW29812   6.662   3.696   6.929
 9638SOL    HW129813   6.643   3.782   6.976
 9638SOL    HW229814   6.732   3.712   6.859
 9639SOL     OW29815   3.716   1.421   2.350
 9639SOL    HW129816   3.683   1.503   2.303
 9639SOL    HW229817   3.640   1.360   2.369
 9640SOL     OW29818   2.235   2.798   3.499
 9640SOL    HW129819   2.188   2.714   3.471
 9640SOL    HW229820   2.310   2.775   3.561
 9641SOL     OW29821   3.729   6.467   0.719
 9641SOL    HW129822   3.742   6.521   0.636
 9641SOL    HW229823   3.650   6.502   0.770
 9642SOL     OW29824   3.486   6.663   4.594
 9642SOL    HW129825   3.421   6.718   4.542
 9642SOL    HW229826   3.472   6.566   4.575
 9643SOL     OW29827   5.416   5.314   4.464
 9643SOL    HW129828   5.474   5.232   4.463
 9643SOL    HW229829   5.333   5.295   4.517
 9644SOL     OW29830   1.136   4.379   6.142
 9644SOL    HW129831   1.077   4.460   6.148
 9644SOL    HW229832   1.082   4.297   6.161
 9645SOL     OW29833   2.942   5.265   3.365
 9645SOL    HW129834   2.900   5.309   3.445
 9645SOL    HW229835   2.907   5.307   3.282
 9646SOL     OW29836   2.907   4.866   1.760
 9646SOL    HW129837   2.814   4.844   1.732
 9646SOL    HW229838   2.934   4.808   1.837
 9647SOL     OW29839   6.298   5.412   2.237
 9647SOL    HW129840   6.255   5.326   2.208
 9647SOL    HW229841   6.331   5.402   2.331
 9648SOL     OW29842   4.427   1.400   0.515
 9648SOL    HW129843   4.467   1.445   0.594
 9648SOL    HW229844   4.329   1.419   0.512
 9649SOL     OW29845   2.894   6.574   0.016
 9649SOL    HW129846   2.980   6.525   0.030
 9649SOL    HW229847   2.863   6.560   6.945
 9650SOL     OW29848   6.145   5.250   2.051
 9650SOL    HW129849   6.126   5.206   2.139
 9650SOL    HW229850   6.101   5.198   1.978
 9651SOL     OW29851   0.271   1.041   6.322
 9651SOL    HW129852   0.196   1.028   6.387
 9651SOL    HW229853   0.245   1.112   6.256
 9652SOL     OW29854   2.313   4.380   0.789
 9652SOL    HW129855   2.354   4.348   0.704
 9652SOL    HW229856   2.285   4.475   0.779
 9653SOL     OW29857   4.117   5.368   4.636
 9653SOL    HW129858   4.202   5.358   4.584
 9653SOL    HW229859   4.085   5.278   4.665
 9654SOL     OW29860   3.211   2.767   1.492
 9654SOL    HW129861   3.183   2.858   1.523
 9654SOL    HW229862   3.198   2.701   1.566
 9655SOL     OW29863   0.070   1.195   0.268
 9655SOL    HW129864   0.119   1.227   0.188
 9655SOL    HW229865   0.135   1.165   0.338
 9656SOL     OW29866   2.818   1.467   0.908
 9656SOL    HW129867   2.744   1.399   0.910
 9656SOL    HW229868   2.812   1.523   0.991
 9657SOL     OW29869   5.419   0.399   3.688
 9657SOL    HW129870   5.354   0.472   3.670
 9657SOL    HW229871   5.431   0.344   3.605
 9658SOL     OW29872   6.139   2.064   3.492
 9658SOL    HW129873   6.186   1.980   3.517
 9658SOL    HW229874   6.177   2.101   3.407
 9659SOL     OW29875   6.775   4.483   0.600
 9659SOL    HW129876   6.802   4.421   0.525
 9659SOL    HW229877   6.675   4.482   0.609
 9660SOL     OW29878   0.635   5.542   0.136
 9660SOL    HW129879   0.559   5.502   0.188
 9660SOL    HW229880   0.636   5.503   0.044
 9661SOL     OW29881   4.296   5.705   1.431
 9661SOL    HW129882   4.362   5.754   1.374
 9661SOL    HW229883   4.283   5.613   1.395
 9662SOL     OW29884   5.981   2.563   5.042
 9662SOL    HW129885   5.981   2.528   4.948
 9662SOL    HW229886   5.892   2.603   5.062
 9663SOL     OW29887   1.094   5.711   3.900
 9663SOL    HW129888   0.997   5.726   3.879
 9663SOL    HW229889   1.117   5.614   3.888
 9664SOL     OW29890   5.535   6.677   2.890
 9664SOL    HW129891   5.536   6.658   2.988
 9664SOL    HW229892   5.515   6.774   2.875
 9665SOL     OW29893   5.013   5.541   5.361
 9665SOL    HW129894   4.941   5.540   5.292
 9665SOL    HW229895   5.016   5.632   5.404
 9666SOL     OW29896   5.617   4.303   2.145
 9666SOL    HW129897   5.700   4.335   2.102
 9666SOL    HW229898   5.556   4.263   2.077
 9667SOL     OW29899   3.663   2.973   3.771
 9667SOL    HW129900   3.710   2.985   3.683
 9667SOL    HW229901   3.590   2.906   3.760
 9668SOL     OW29902   6.595   1.121   6.320
 9668SOL    HW129903   6.681   1.169   6.338
 9668SOL    HW229904   6.553   1.158   6.237
 9669SOL     OW29905   0.800   1.422   1.118
 9669SOL    HW129906   0.808   1.326   1.093
 9669SOL    HW229907   0.883   1.471   1.092
 9670SOL     OW29908   5.368   5.102   6.442
 9670SOL    HW129909   5.393   5.110   6.538
 9670SOL    HW229910   5.359   5.194   6.402
 9671SOL     OW29911   0.724   4.682   6.141
 9671SOL    HW129912   0.667   4.688   6.223
 9671SOL    HW229913   0.721   4.770   6.092
 9672SOL     OW29914   1.636   6.757   4.437
 9672SOL    HW129915   1.560   6.700   4.467
 9672SOL    HW229916   1.681   6.798   4.517
 9673SOL     OW29917   5.271   4.519   6.619
 9673SOL    HW129918   5.202   4.563   6.562
 9673SOL    HW229919   5.362   4.542   6.583
 9674SOL     OW29920   2.913   6.250   3.094
 9674SOL    HW129921   2.909   6.345   3.124
 9674SOL    HW229922   2.904   6.247   2.994
 9675SOL     OW29923   5.879   1.294   1.357
 9675SOL    HW129924   5.791   1.263   1.320
 9675SOL    HW229925   5.953   1.238   1.319
 9676SOL     OW29926   1.250   3.369   5.747
 9676SOL    HW129927   1.257   3.457   5.794
 9676SOL    HW229928   1.229   3.297   5.814
 9677SOL     OW29929   2.529   4.823   6.236
 9677SOL    HW129930   2.622   4.808   6.268
 9677SOL    HW229931   2.479   4.737   6.236
 9678SOL     OW29932   3.190   4.023   3.217
 9678SOL    HW129933   3.265   4.085   3.241
 9678SOL    HW229934   3.142   3.996   3.300
 9679SOL     OW29935   1.485   1.874   1.726
 9679SOL    HW129936   1.552   1.935   1.682
 9679SOL    HW229937   1.393   1.897   1.694
 9680SOL     OW29938   5.889   6.990   3.722
 9680SOL    HW129939   5.898   6.892   3.742
 9680SOL    HW229940   5.885   0.019   3.808
 9681SOL     OW29941   2.905   0.889   1.572
 9681SOL    HW129942   2.911   0.816   1.503
 9681SOL    HW229943   2.883   0.975   1.527
 9682SOL     OW29944   5.480   5.358   3.560
 9682SOL    HW129945   5.455   5.455   3.560
 9682SOL    HW229946   5.551   5.342   3.629
 9683SOL     OW29947   3.096   5.314   0.669
 9683SOL    HW129948   3.181   5.313   0.721
 9683SOL    HW229949   3.109   5.366   0.584
 9684SOL     OW29950   0.329   2.883   5.047
 9684SOL    HW129951   0.300   2.801   5.096
 9684SOL    HW229952   0.422   2.872   5.014
 9685SOL     OW29953   2.336   2.948   0.962
 9685SOL    HW129954   2.250   2.901   0.944
 9685SOL    HW229955   2.390   2.952   0.878
 9686SOL     OW29956   6.039   1.783   0.920
 9686SOL    HW129957   6.039   1.866   0.977
 9686SOL    HW229958   6.134   1.753   0.906
 9687SOL     OW29959   2.248   0.447   3.580
 9687SOL    HW129960   2.263   0.546   3.587
 9687SOL    HW229961   2.336   0.400   3.574
 9688SOL     OW29962   6.381   2.326   3.724
 9688SOL    HW129963   6.285   2.307   3.743
 9688SOL    HW229964   6.419   2.252   3.667
 9689SOL     OW29965   1.738   6.495   1.083
 9689SOL    HW129966   1.655   6.460   1.126
 9689SOL    HW229967   1.764   6.582   1.125
 9690SOL     OW29968   5.876   5.156   6.602
 9690SOL    HW129969   5.808   5.218   6.641
 9690SOL    HW229970   5.964   5.203   6.596
 9691SOL     OW29971   2.573   4.588   1.516
 9691SOL    HW129972   2.538   4.526   1.446
 9691SOL    HW229973   2.574   4.543   1.605
 9692SOL     OW29974   2.112   5.194   2.638
 9692SOL    HW129975   2.016   5.165   2.632
 9692SOL    HW229976   2.117   5.293   2.627
 9693SOL     OW29977   6.570   5.123   1.841
 9693SOL    HW129978   6.569   5.199   1.906
 9693SOL    HW229979   6.514   5.048   1.877
 9694SOL     OW29980   2.256   1.204   5.979
 9694SOL    HW129981   2.267   1.190   6.078
 9694SOL    HW229982   2.162   1.233   5.961
 9695SOL     OW29983   6.355   4.033   0.996
 9695SOL    HW129984   6.410   4.041   0.913
 9695SOL    HW229985   6.307   3.946   0.996
 9696SOL     OW29986   4.775   1.794   1.018
 9696SOL    HW129987   4.797   1.847   1.101
 9696SOL    HW229988   4.814   1.839   0.939
 9697SOL     OW29989   7.012   5.340   6.708
 9697SOL    HW129990   0.017   5.252   6.670
 9697SOL    HW229991   6.938   5.327   6.773
 9698SOL     OW29992   5.735   0.942   5.751
 9698SOL    HW129993   5.829   0.961   5.723
 9698SOL    HW229994   5.709   0.851   5.720
 9699SOL     OW29995   0.352   4.648   6.522
 9699SOL    HW129996   0.321   4.609   6.435
 9699SOL    HW229997   0.339   4.580   6.595
 9700SOL     OW29998   4.201   5.443   5.291
 9700SOL    HW129999   4.209   5.434   5.390
 9700SOL    HW230000   4.275   5.392   5.246
 9701SOL     OW30001   3.507   5.459   4.739
 9701SOL    HW130002   3.521   5.454   4.837
 9701SOL    HW230003   3.462   5.375   4.707
 9702SOL     OW30004   5.734   0.633   6.674
 9702SOL    HW130005   5.804   0.700   6.651
 9702SOL    HW230006   5.749   0.550   6.620
 9703SOL     OW30007   3.673   5.724   3.920
 9703SOL    HW130008   3.720   5.802   3.961
 9703SOL    HW230009   3.574   5.735   3.930
 9704SOL     OW30010   2.913   0.917   2.463
 9704SOL    HW130011   2.968   0.978   2.519
 9704SOL    HW230012   2.920   0.945   2.367
 9705SOL     OW30013   5.327   5.313   1.007
 9705SOL    HW130014   5.359   5.284   1.098
 9705SOL    HW230015   5.236   5.274   0.990
 9706SOL     OW30016   0.611   2.364   1.113
 9706SOL    HW130017   0.592   2.355   1.211
 9706SOL    HW230018   0.586   2.279   1.066
 9707SOL     OW30019   6.415   4.126   1.230
 9707SOL    HW130020   6.383   4.087   1.144
 9707SOL    HW230021   6.409   4.057   1.302
 9708SOL     OW30022   1.652   2.673   3.278
 9708SOL    HW130023   1.618   2.641   3.367
 9708SOL    HW230024   1.576   2.677   3.213
 9709SOL     OW30025   6.868   5.682   3.449
 9709SOL    HW130026   6.933   5.654   3.378
 9709SOL    HW230027   6.777   5.647   3.426
 9710SOL     OW30028   0.386   1.900   2.674
 9710SOL    HW130029   0.320   1.925   2.744
 9710SOL    HW230030   0.369   1.806   2.643
 9711SOL     OW30031   1.517   3.202   5.968
 9711SOL    HW130032   1.559   3.112   5.973
 9711SOL    HW230033   1.424   3.198   6.006
 9712SOL     OW30034   5.198   3.832   4.699
 9712SOL    HW130035   5.268   3.843   4.770
 9712SOL    HW230036   5.222   3.755   4.640
 9713SOL     OW30037   0.389   5.013   2.955
 9713SOL    HW130038   0.430   5.091   3.001
 9713SOL    HW230039   0.341   5.044   2.873
 9714SOL     OW30040   2.097   1.031   2.016
 9714SOL    HW130041   2.083   1.130   2.016
 9714SOL    HW230042   2.158   1.006   2.092
 9715SOL     OW30043   6.524   5.374   5.121
 9715SOL    HW130044   6.443   5.425   5.151
 9715SOL    HW230045   6.495   5.285   5.084
 9716SOL     OW30046   4.194   2.774   6.886
 9716SOL    HW130047   4.191   2.694   6.826
 9716SOL    HW230048   4.178   2.857   6.832
 9717SOL     OW30049   5.946   5.744   5.558
 9717SOL    HW130050   5.952   5.749   5.657
 9717SOL    HW230051   5.975   5.831   5.518
 9718SOL     OW30052   4.634   3.225   1.642
 9718SOL    HW130053   4.646   3.176   1.728
 9718SOL    HW230054   4.601   3.162   1.571
 9719SOL     OW30055   1.010   2.492   6.959
 9719SOL    HW130056   0.990   2.555   6.883
 9719SOL    HW230057   1.023   2.544   0.020
 9720SOL     OW30058   0.778   5.541   1.638
 9720SOL    HW130059   0.787   5.462   1.699
 9720SOL    HW230060   0.767   5.624   1.693
 9721SOL     OW30061   0.808   2.551   1.098
 9721SOL    HW130062   0.765   2.642   1.097
 9721SOL    HW230063   0.737   2.481   1.095
 9722SOL     OW30064   0.363   6.791   3.473
 9722SOL    HW130065   0.437   6.847   3.509
 9722SOL    HW230066   0.397   6.734   3.398
 9723SOL     OW30067   1.891   6.077   3.022
 9723SOL    HW130068   1.879   6.173   3.048
 9723SOL    HW230069   1.901   6.071   2.922
 9724SOL     OW30070   2.857   2.976   0.968
 9724SOL    HW130071   2.811   2.951   0.883
 9724SOL    HW230072   2.939   2.919   0.980
 9725SOL     OW30073   4.073   3.768   6.287
 9725SOL    HW130074   4.152   3.730   6.335
 9725SOL    HW230075   4.001   3.791   6.352
 9726SOL     OW30076   4.151   7.003   4.566
 9726SOL    HW130077   4.169   6.910   4.535
 9726SOL    HW230078   4.162   0.044   4.490
 9727SOL     OW30079   1.236   3.606   5.480
 9727SOL    HW130080   1.323   3.560   5.499
 9727SOL    HW230081   1.168   3.537   5.452
 9728SOL     OW30082   0.818   6.537   6.316
 9728SOL    HW130083   0.864   6.537   6.405
 9728SOL    HW230084   0.826   6.446   6.274
 9729SOL     OW30085   0.794   4.270   2.628
 9729SOL    HW130086   0.816   4.227   2.540
 9729SOL    HW230087   0.818   4.367   2.624
 9730SOL     OW30088   0.736   3.731   2.212
 9730SOL    HW130089   0.771   3.670   2.142
 9730SOL    HW230090   0.750   3.690   2.302
 9731SOL     OW30091   4.310   4.528   0.855
 9731SOL    HW130092   4.275   4.477   0.777
 9731SOL    HW230093   4.372   4.470   0.908
 9732SOL     OW30094   5.379   6.027   2.823
 9732SOL    HW130095   5.377   6.011   2.922
 9732SOL    HW230096   5.368   5.939   2.775
 9733SOL     OW30097   5.937   5.193   4.907
 9733SOL    HW130098   5.996   5.114   4.925
 9733SOL    HW230099   5.897   5.184   4.816
 9734SOL     OW30100   5.454   1.981   3.862
 9734SOL    HW130101   5.529   1.915   3.852
 9734SOL    HW230102   5.389   1.969   3.788
 9735SOL     OW30103   1.580   4.509   2.680
 9735SOL    HW130104   1.647   4.505   2.755
 9735SOL    HW230105   1.618   4.565   2.606
 9736SOL     OW30106   5.576   1.500   5.994
 9736SOL    HW130107   5.600   1.420   5.940
 9736SOL    HW230108   5.476   1.503   6.005
 9737SOL     OW30109   5.243   3.211   4.806
 9737SOL    HW130110   5.193   3.158   4.875
 9737SOL    HW230111   5.315   3.263   4.850
 9738SOL     OW30112   1.412   6.908   3.160
 9738SOL    HW130113   1.360   6.957   3.230
 9738SOL    HW230114   1.415   6.962   3.076
 9739SOL     OW30115   0.289   5.166   2.063
 9739SOL    HW130116   0.268   5.257   2.028
 9739SOL    HW230117   0.203   5.117   2.081
 9740SOL     OW30118   5.876   3.184   3.088
 9740SOL    HW130119   5.949   3.152   3.028
 9740SOL    HW230120   5.893   3.279   3.114
 9741SOL     OW30121   4.919   1.180   2.156
 9741SOL    HW130122   4.957   1.090   2.179
 9741SOL    HW230123   4.938   1.244   2.230
 9742SOL     OW30124   4.462   0.156   3.364
 9742SOL    HW130125   4.469   0.057   3.377
 9742SOL    HW230126   4.466   0.177   3.266
 9743SOL     OW30127   1.956   2.150   4.887
 9743SOL    HW130128   1.954   2.147   4.987
 9743SOL    HW230129   2.032   2.093   4.854
 9744SOL     OW30130   0.592   0.392   2.921
 9744SOL    HW130131   0.576   0.332   2.999
 9744SOL    HW230132   0.547   0.354   2.840
 9745SOL     OW30133   0.234   2.526   6.157
 9745SOL    HW130134   0.296   2.596   6.122
 9745SOL    HW230135   0.142   2.566   6.167
 9746SOL     OW30136   5.847   1.583   5.739
 9746SOL    HW130137   5.837   1.643   5.819
 9746SOL    HW230138   5.921   1.618   5.681
 9747SOL     OW30139   1.553   1.220   1.811
 9747SOL    HW130140   1.471   1.261   1.851
 9747SOL    HW230141   1.613   1.188   1.884
 9748SOL     OW30142   1.035   0.598   5.006
 9748SOL    HW130143   1.067   0.586   4.912
 9748SOL    HW230144   0.936   0.584   5.009
 9749SOL     OW30145   2.018   2.184   5.152
 9749SOL    HW130146   2.111   2.158   5.177
 9749SOL    HW230147   2.015   2.282   5.133
 9750SOL     OW30148   5.576   5.075   4.081
 9750SOL    HW130149   5.483   5.053   4.110
 9750SOL    HW230150   5.608   5.156   4.129
 9751SOL     OW30151   2.655   2.155   1.060
 9751SOL    HW130152   2.697   2.195   1.142
 9751SOL    HW230153   2.627   2.228   0.998
 9752SOL     OW30154   4.453   0.712   6.896
 9752SOL    HW130155   4.424   0.801   6.933
 9752SOL    HW230156   4.372   0.658   6.873
 9753SOL     OW30157   6.430   5.957   4.755
 9753SOL    HW130158   6.496   5.988   4.686
 9753SOL    HW230159   6.351   5.916   4.709
 9754SOL     OW30160   0.904   1.299   0.289
 9754SOL    HW130161   0.969   1.226   0.309
 9754SOL    HW230162   0.936   1.385   0.330
 9755SOL     OW30163   4.332   3.373   5.498
 9755SOL    HW130164   4.331   3.440   5.424
 9755SOL    HW230165   4.408   3.310   5.485
 9756SOL     OW30166   6.091   3.040   0.153
 9756SOL    HW130167   6.140   3.003   0.074
 9756SOL    HW230168   6.028   3.111   0.122
 9757SOL     OW30169   4.881   3.402   3.463
 9757SOL    HW130170   4.897   3.453   3.547
 9757SOL    HW230171   4.812   3.448   3.408
 9758SOL     OW30172   1.423   6.447   5.902
 9758SOL    HW130173   1.474   6.366   5.874
 9758SOL    HW230174   1.456   6.478   5.991
 9759SOL     OW30175   2.100   6.732   0.955
 9759SOL    HW130176   2.118   6.640   0.921
 9759SOL    HW230177   2.177   6.762   1.012
 9760SOL     OW30178   4.810   3.726   5.327
 9760SOL    HW130179   4.758   3.670   5.262
 9760SOL    HW230180   4.779   3.706   5.420
 9761SOL     OW30181   6.088   6.130   2.137
 9761SOL    HW130182   6.038   6.095   2.216
 9761SOL    HW230183   6.105   6.228   2.150
 9762SOL     OW30184   2.764   2.141   4.475
 9762SOL    HW130185   2.696   2.084   4.521
 9762SOL    HW230186   2.816   2.192   4.544
 9763SOL     OW30187   4.446   2.353   1.971
 9763SOL    HW130188   4.498   2.269   1.956
 9763SOL    HW230189   4.433   2.366   2.069
 9764SOL     OW30190   0.549   2.208   3.449
 9764SOL    HW130191   0.648   2.201   3.460
 9764SOL    HW230192   0.528   2.244   3.358
 9765SOL     OW30193   6.808   2.052   4.617
 9765SOL    HW130194   6.843   2.130   4.566
 9765SOL    HW230195   6.709   2.044   4.601
 9766SOL     OW30196   2.426   0.348   3.229
 9766SOL    HW130197   2.506   0.342   3.289
 9766SOL    HW230198   2.434   0.429   3.171
 9767SOL     OW30199   5.916   2.176   5.125
 9767SOL    HW130200   6.004   2.222   5.113
 9767SOL    HW230201   5.922   2.114   5.203
 9768SOL     OW30202   4.850   1.981   2.184
 9768SOL    HW130203   4.890   1.915   2.248
 9768SOL    HW230204   4.903   2.066   2.186
 9769SOL     OW30205   2.030   1.290   1.953
 9769SOL    HW130206   1.968   1.344   1.897
 9769SOL    HW230207   2.052   1.340   2.037
 9770SOL     OW30208   5.798   6.550   6.629
 9770SOL    HW130209   5.846   6.477   6.580
 9770SOL    HW230210   5.770   6.516   6.719
 9771SOL     OW30211   4.494   4.572   1.594
 9771SOL    HW130212   4.424   4.540   1.659
 9771SOL    HW230213   4.479   4.528   1.506
 9772SOL     OW30214   0.789   6.736   1.868
 9772SOL    HW130215   0.844   6.657   1.894
 9772SOL    HW230216   0.701   6.733   1.916
 9773SOL     OW30217   5.189   6.055   4.162
 9773SOL    HW130218   5.205   6.093   4.071
 9773SOL    HW230219   5.198   6.127   4.230
 9774SOL     OW30220   6.102   5.328   2.735
 9774SOL    HW130221   6.095   5.403   2.670
 9774SOL    HW230222   6.012   5.288   2.750
 9775SOL     OW30223   2.214   1.966   4.035
 9775SOL    HW130224   2.294   2.012   4.074
 9775SOL    HW230225   2.238   1.930   3.945
 9776SOL     OW30226   6.927   5.796   4.759
 9776SOL    HW130227   6.876   5.741   4.826
 9776SOL    HW230228   7.009   5.833   4.802
 9777SOL     OW30229   5.889   5.201   6.306
 9777SOL    HW130230   5.925   5.151   6.227
 9777SOL    HW230231   5.854   5.137   6.373
 9778SOL     OW30232   5.857   0.453   3.593
 9778SOL    HW130233   5.819   0.480   3.505
 9778SOL    HW230234   5.788   0.468   3.665
 9779SOL     OW30235   2.618   1.961   4.648
 9779SOL    HW130236   2.653   1.969   4.742
 9779SOL    HW230237   2.605   1.864   4.627
 9780SOL     OW30238   2.258   1.899   0.917
 9780SOL    HW130239   2.171   1.854   0.937
 9780SOL    HW230240   2.329   1.830   0.903
 9781SOL     OW30241   2.043   4.379   3.762
 9781SOL    HW130242   2.109   4.444   3.726
 9781SOL    HW230243   2.041   4.385   3.862
 9782SOL     OW30244   6.816   0.273   1.218
 9782SOL    HW130245   6.776   0.365   1.210
 9782SOL    HW230246   6.743   0.206   1.229
 9783SOL     OW30247   6.166   1.379   1.997
 9783SOL    HW130248   6.180   1.322   2.078
 9783SOL    HW230249   6.122   1.464   2.023
 9784SOL     OW30250   5.112   1.360   3.719
 9784SOL    HW130251   5.061   1.442   3.696
 9784SOL    HW230252   5.188   1.349   3.655
 9785SOL     OW30253   0.122   4.017   3.945
 9785SOL    HW130254   0.090   3.966   3.865
 9785SOL    HW230255   0.197   3.967   3.988
 9786SOL     OW30256   1.395   5.131   5.792
 9786SOL    HW130257   1.338   5.139   5.874
 9786SOL    HW230258   1.419   5.223   5.760
 9787SOL     OW30259   5.214   4.263   1.858
 9787SOL    HW130260   5.298   4.232   1.903
 9787SOL    HW230261   5.154   4.185   1.842
 9788SOL     OW30262   0.100   0.423   3.905
 9788SOL    HW130263   0.006   0.448   3.929
 9788SOL    HW230264   0.153   0.506   3.885
 9789SOL     OW30265   2.405   5.733   6.647
 9789SOL    HW130266   2.451   5.682   6.720
 9789SOL    HW230267   2.372   5.820   6.683
 9790SOL     OW30268   5.778   2.980   5.034
 9790SOL    HW130269   5.788   2.926   5.117
 9790SOL    HW230270   5.790   3.077   5.055
 9791SOL     OW30271   0.871   0.943   2.378
 9791SOL    HW130272   0.838   1.032   2.410
 9791SOL    HW230273   0.971   0.947   2.366
 9792SOL     OW30274   4.719   5.261   2.022
 9792SOL    HW130275   4.794   5.327   2.017
 9792SOL    HW230276   4.720   5.216   2.111
 9793SOL     OW30277   5.311   5.356   2.556
 9793SOL    HW130278   5.337   5.263   2.584
 9793SOL    HW230279   5.375   5.388   2.486
 9794SOL     OW30280   5.715   3.367   7.012
 9794SOL    HW130281   5.646   3.387   6.942
 9794SOL    HW230282   5.803   3.351   6.967
 9795SOL     OW30283   0.875   2.816   4.003
 9795SOL    HW130284   0.818   2.804   3.922
 9795SOL    HW230285   0.817   2.815   4.085
 9796SOL     OW30286   3.166   4.098   0.826
 9796SOL    HW130287   3.130   4.137   0.910
 9796SOL    HW230288   3.266   4.095   0.831
 9797SOL     OW30289   4.319   3.768   0.398
 9797SOL    HW130290   4.302   3.686   0.343
 9797SOL    HW230291   4.309   3.746   0.495
 9798SOL     OW30292   2.623   0.829   0.604
 9798SOL    HW130293   2.528   0.802   0.590
 9798SOL    HW230294   2.682   0.749   0.599
 9799SOL     OW30295   3.583   3.566   2.744
 9799SOL    HW130296   3.646   3.581   2.669
 9799SOL    HW230297   3.547   3.473   2.740
 9800SOL     OW30298   3.991   5.915   6.004
 9800SOL    HW130299   3.964   5.828   5.963
 9800SOL    HW230300   4.004   5.903   6.102
 9801SOL     OW30301   4.070   4.829   0.231
 9801SOL    HW130302   4.148   4.871   0.185
 9801SOL    HW230303   4.102   4.777   0.311
 9802SOL     OW30304   6.799   3.075   1.926
 9802SOL    HW130305   6.897   3.053   1.925
 9802SOL    HW230306   6.765   3.068   2.019
 9803SOL     OW30307   6.430   0.468   6.601
 9803SOL    HW130308   6.421   0.372   6.574
 9803SOL    HW230309   6.340   0.505   6.623
 9804SOL     OW30310   0.505   5.385   3.549
 9804SOL    HW130311   0.593   5.339   3.567
 9804SOL    HW230312   0.446   5.375   3.628
 9805SOL     OW30313   1.543   5.643   6.994
 9805SOL    HW130314   1.544   5.577   6.919
 9805SOL    HW230315   1.601   5.721   6.969
 9806SOL     OW30316   0.752   2.329   1.711
 9806SOL    HW130317   0.746   2.256   1.643
 9806SOL    HW230318   0.838   2.320   1.762
 9807SOL     OW30319   2.902   1.698   6.432
 9807SOL    HW130320   3.002   1.701   6.437
 9807SOL    HW230321   2.874   1.606   6.404
 9808SOL     OW30322   5.960   0.982   5.612
 9808SOL    HW130323   6.008   1.064   5.581
 9808SOL    HW230324   6.018   0.902   5.596
 9809SOL     OW30325   0.925   1.584   6.062
 9809SOL    HW130326   0.882   1.508   6.013
 9809SOL    HW230327   1.006   1.551   6.111
 9810SOL     OW30328   2.551   1.912   3.199
 9810SOL    HW130329   2.587   1.960   3.279
 9810SOL    HW230330   2.574   1.962   3.116
 9811SOL     OW30331   6.430   5.908   3.456
 9811SOL    HW130332   6.402   5.978   3.390
 9811SOL    HW230333   6.423   5.945   3.549
 9812SOL     OW30334   4.001   1.967   6.703
 9812SOL    HW130335   4.077   2.004   6.756
 9812SOL    HW230336   4.001   2.008   6.612
 9813SOL     OW30337   6.597   5.623   6.871
 9813SOL    HW130338   6.547   5.651   6.953
 9813SOL    HW230339   6.686   5.587   6.896
 9814SOL     OW30340   6.614   0.436   6.230
 9814SOL    HW130341   6.583   0.351   6.273
 9814SOL    HW230342   6.713   0.444   6.241
 9815SOL     OW30343   6.845   2.305   1.056
 9815SOL    HW130344   6.782   2.374   1.021
 9815SOL    HW230345   6.909   2.348   1.120
 9816SOL     OW30346   6.453   0.676   6.256
 9816SOL    HW130347   6.503   0.737   6.194
 9816SOL    HW230348   6.448   0.585   6.216
 9817SOL     OW30349   3.119   5.322   1.704
 9817SOL    HW130350   3.063   5.250   1.746
 9817SOL    HW230351   3.101   5.409   1.749
 9818SOL     OW30352   1.714   1.658   3.446
 9818SOL    HW130353   1.653   1.725   3.489
 9818SOL    HW230354   1.801   1.657   3.494
 9819SOL     OW30355   5.600   4.298   4.669
 9819SOL    HW130356   5.655   4.272   4.748
 9819SOL    HW230357   5.506   4.267   4.682
 9820SOL     OW30358   2.791   2.050   6.375
 9820SOL    HW130359   2.867   2.026   6.435
 9820SOL    HW230360   2.742   2.129   6.413
 9821SOL     OW30361   4.867   2.131   1.477
 9821SOL    HW130362   4.935   2.189   1.522
 9821SOL    HW230363   4.776   2.151   1.514
 9822SOL     OW30364   4.261   5.676   4.122
 9822SOL    HW130365   4.316   5.615   4.179
 9822SOL    HW230366   4.236   5.629   4.037
 9823SOL     OW30367   1.263   0.714   2.309
 9823SOL    HW130368   1.279   0.624   2.269
 9823SOL    HW230369   1.349   0.752   2.341
 9824SOL     OW30370   2.613   5.854   5.687
 9824SOL    HW130371   2.646   5.786   5.753
 9824SOL    HW230372   2.688   5.913   5.658
 9825SOL     OW30373   5.286   6.156   5.076
 9825SOL    HW130374   5.191   6.130   5.092
 9825SOL    HW230375   5.322   6.204   5.156
 9826SOL     OW30376   3.943   0.015   5.773
 9826SOL    HW130377   3.888   0.078   5.827
 9826SOL    HW230378   4.021   7.007   5.828
 9827SOL     OW30379   2.251   5.556   2.991
 9827SOL    HW130380   2.180   5.487   2.979
 9827SOL    HW230381   2.245   5.623   2.917
 9828SOL     OW30382   3.397   2.040   4.728
 9828SOL    HW130383   3.378   1.949   4.764
 9828SOL    HW230384   3.441   2.095   4.799
 9829SOL     OW30385   5.149   6.267   5.756
 9829SOL    HW130386   5.248   6.279   5.748
 9829SOL    HW230387   5.102   6.345   5.713
 9830SOL     OW30388   5.900   1.444   2.254
 9830SOL    HW130389   5.925   1.495   2.336
 9830SOL    HW230390   5.801   1.437   2.247
 9831SOL     OW30391   0.442   4.419   2.036
 9831SOL    HW130392   0.445   4.516   2.014
 9831SOL    HW230393   0.470   4.405   2.131
 9832SOL     OW30394   5.228   4.753   4.317
 9832SOL    HW130395   5.248   4.656   4.313
 9832SOL    HW230396   5.261   4.798   4.234
 9833SOL     OW30397   3.519   3.833   3.340
 9833SOL    HW130398   3.530   3.810   3.437
 9833SOL    HW230399   3.435   3.792   3.305
 9834SOL     OW30400   2.281   5.475   5.844
 9834SOL    HW130401   2.345   5.399   5.838
 9834SOL    HW230402   2.221   5.462   5.923
 9835SOL     OW30403   3.774   4.165   4.645
 9835SOL    HW130404   3.860   4.115   4.654
 9835SOL    HW230405   3.789   4.261   4.668
 9836SOL     OW30406   1.338   3.684   6.411
 9836SOL    HW130407   1.382   3.665   6.323
 9836SOL    HW230408   1.276   3.762   6.401
 9837SOL     OW30409   5.489   1.997   1.589
 9837SOL    HW130410   5.433   2.062   1.640
 9837SOL    HW230411   5.518   2.038   1.503
 9838SOL     OW30412   1.212   6.037   1.302
 9838SOL    HW130413   1.165   5.978   1.368
 9838SOL    HW230414   1.147   6.068   1.233
 9839SOL     OW30415   4.822   1.119   3.831
 9839SOL    HW130416   4.843   1.166   3.917
 9839SOL    HW230417   4.866   1.029   3.831
 9840SOL     OW30418   5.422   1.235   6.789
 9840SOL    HW130419   5.379   1.317   6.829
 9840SOL    HW230420   5.370   1.154   6.816
 9841SOL     OW30421   0.258   5.584   3.519
 9841SOL    HW130422   0.208   5.507   3.559
 9841SOL    HW230423   0.209   5.669   3.537
 9842SOL     OW30424   3.708   3.023   0.344
 9842SOL    HW130425   3.631   3.021   0.408
 9842SOL    HW230426   3.710   2.937   0.292
 9843SOL     OW30427   6.561   0.201   1.556
 9843SOL    HW130428   6.617   0.124   1.526
 9843SOL    HW230429   6.546   0.194   1.654
 9844SOL     OW30430   5.584   0.416   4.454
 9844SOL    HW130431   5.488   0.423   4.427
 9844SOL    HW230432   5.641   0.466   4.388
 9845SOL     OW30433   1.152   2.312   2.573
 9845SOL    HW130434   1.081   2.378   2.598
 9845SOL    HW230435   1.139   2.284   2.478
 9846SOL     OW30436   5.132   1.133   1.214
 9846SOL    HW130437   5.200   1.206   1.221
 9846SOL    HW230438   5.175   1.046   1.239
 9847SOL     OW30439   3.880   2.881   1.734
 9847SOL    HW130440   3.865   2.904   1.638
 9847SOL    HW230441   3.796   2.842   1.773
 9848SOL     OW30442   3.071   4.079   5.220
 9848SOL    HW130443   3.054   4.176   5.236
 9848SOL    HW230444   3.136   4.045   5.288
 9849SOL     OW30445   1.454   0.590   6.443
 9849SOL    HW130446   1.451   0.522   6.370
 9849SOL    HW230447   1.360   0.611   6.472
 9850SOL     OW30448   0.133   0.345   4.267
 9850SOL    HW130449   0.212   0.400   4.242
 9850SOL    HW230450   0.069   0.343   4.190
 9851SOL     OW30451   3.427   5.204   4.703
 9851SOL    HW130452   3.397   5.145   4.628
 9851SOL    HW230453   3.466   5.147   4.776
 9852SOL     OW30454   1.369   1.691   6.402
 9852SOL    HW130455   1.342   1.786   6.419
 9852SOL    HW230456   1.301   1.648   6.343
 9853SOL     OW30457   0.015   4.056   4.514
 9853SOL    HW130458   7.011   3.975   4.566
 9853SOL    HW230459   0.100   4.037   4.464
 9854SOL     OW30460   0.883   5.926   6.066
 9854SOL    HW130461   0.975   5.898   6.038
 9854SOL    HW230462   0.850   5.997   6.004
 9855SOL     OW30463   0.896   3.541   0.608
 9855SOL    HW130464   0.818   3.533   0.670
 9855SOL    HW230465   0.865   3.529   0.514
 9856SOL     OW30466   6.086   5.128   3.882
 9856SOL    HW130467   6.052   5.042   3.922
 9856SOL    HW230468   6.102   5.195   3.954
 9857SOL     OW30469   5.219   2.738   3.326
 9857SOL    HW130470   5.229   2.832   3.360
 9857SOL    HW230471   5.131   2.701   3.359
 9858SOL     OW30472   1.012   6.801   2.305
 9858SOL    HW130473   1.078   6.866   2.341
 9858SOL    HW230474   0.998   6.727   2.371
 9859SOL     OW30475   6.636   4.700   5.151
 9859SOL    HW130476   6.680   4.682   5.062
 9859SOL    HW230477   6.639   4.617   5.207
 9860SOL     OW30478   1.975   2.456   5.111
 9860SOL    HW130479   1.933   2.469   5.021
 9860SOL    HW230480   1.959   2.537   5.167
 9861SOL     OW30481   2.670   1.170   4.006
 9861SOL    HW130482   2.753   1.186   3.953
 9861SOL    HW230483   2.681   1.209   4.098
 9862SOL     OW30484   2.442   4.463   1.268
 9862SOL    HW130485   2.406   4.404   1.196
 9862SOL    HW230486   2.413   4.557   1.251
 9863SOL     OW30487   2.916   5.955   0.510
 9863SOL    HW130488   2.833   5.964   0.455
 9863SOL    HW230489   2.947   5.860   0.507
 9864SOL     OW30490   2.670   6.468   5.183
 9864SOL    HW130491   2.734   6.545   5.187
 9864SOL    HW230492   2.636   6.448   5.275
 9865SOL     OW30493   0.655   6.984   5.228
 9865SOL    HW130494   0.606   0.038   5.268
 9865SOL    HW230495   0.590   6.923   5.182
 9866SOL     OW30496   5.964   4.366   4.388
 9866SOL    HW130497   6.008   4.279   4.364
 9866SOL    HW230498   6.019   4.442   4.354
 9867SOL     OW30499   4.984   1.809   2.397
 9867SOL    HW130500   5.013   1.723   2.439
 9867SOL    HW230501   5.014   1.885   2.455
 9868SOL     OW30502   1.258   4.611   3.477
 9868SOL    HW130503   1.345   4.650   3.506
 9868SOL    HW230504   1.275   4.524   3.430
 9869SOL     OW30505   0.414   2.673   0.763
 9869SOL    HW130506   0.478   2.627   0.701
 9869SOL    HW230507   0.435   2.646   0.858
 9870SOL     OW30508   3.837   1.825   1.762
 9870SOL    HW130509   3.766   1.862   1.822
 9870SOL    HW230510   3.924   1.872   1.779
 9871SOL     OW30511   0.067   3.320   5.251
 9871SOL    HW130512   0.094   3.253   5.320
 9871SOL    HW230513   0.026   3.273   5.173
 9872SOL     OW30514   2.469   5.470   5.010
 9872SOL    HW130515   2.511   5.547   4.962
 9872SOL    HW230516   2.372   5.467   4.988
 9873SOL     OW30517   1.934   2.149   5.795
 9873SOL    HW130518   1.953   2.091   5.875
 9873SOL    HW230519   1.988   2.233   5.802
 9874SOL     OW30520   0.524   3.032   4.505
 9874SOL    HW130521   0.500   2.935   4.512
 9874SOL    HW230522   0.442   3.088   4.510
 9875SOL     OW30523   0.243   6.181   0.774
 9875SOL    HW130524   0.189   6.249   0.724
 9875SOL    HW230525   0.280   6.222   0.857
 9876SOL     OW30526   3.107   0.152   3.393
 9876SOL    HW130527   3.035   0.205   3.438
 9876SOL    HW230528   3.163   0.107   3.462
 9877SOL     OW30529   7.010   4.479   4.581
 9877SOL    HW130530   7.011   4.452   4.484
 9877SOL    HW230531   6.959   4.411   4.634
 9878SOL     OW30532   1.810   3.027   0.116
 9878SOL    HW130533   1.903   3.047   0.085
 9878SOL    HW230534   1.801   3.054   0.212
 9879SOL     OW30535   1.537   4.417   6.044
 9879SOL    HW130536   1.508   4.394   6.137
 9879SOL    HW230537   1.458   4.416   5.983
 9880SOL     OW30538   2.468   0.889   0.311
 9880SOL    HW130539   2.562   0.867   0.283
 9880SOL    HW230540   2.457   0.870   0.408
 9881SOL     OW30541   5.209   0.614   4.519
 9881SOL    HW130542   5.111   0.618   4.536
 9881SOL    HW230543   5.232   0.526   4.476
 9882SOL     OW30544   3.834   3.215   4.888
 9882SOL    HW130545   3.811   3.166   4.804
 9882SOL    HW230546   3.816   3.313   4.876
 9883SOL     OW30547   1.653   6.286   1.780
 9883SOL    HW130548   1.588   6.335   1.722
 9883SOL    HW230549   1.647   6.321   1.873
 9884SOL     OW30550   1.673   3.032   6.778
 9884SOL    HW130551   1.660   3.057   6.682
 9884SOL    HW230552   1.702   3.113   6.830
 9885SOL     OW30553   6.629   2.891   3.656
 9885SOL    HW130554   6.670   2.943   3.581
 9885SOL    HW230555   6.549   2.841   3.623
 9886SOL     OW30556   5.506   6.100   1.499
 9886SOL    HW130557   5.546   6.041   1.429
 9886SOL    HW230558   5.406   6.102   1.487
 9887SOL     OW30559   4.029   6.678   0.584
 9887SOL    HW130560   4.087   6.716   0.512
 9887SOL    HW230561   4.006   6.583   0.561
 9888SOL     OW30562   5.629   5.678   2.510
 9888SOL    HW130563   5.566   5.606   2.482
 9888SOL    HW230564   5.683   5.708   2.432
 9889SOL     OW30565   0.012   4.685   2.929
 9889SOL    HW130566   0.102   4.642   2.931
 9889SOL    HW230567   6.997   4.687   3.022
 9890SOL     OW30568   6.497   3.044   0.529
 9890SOL    HW130569   6.590   3.063   0.560
 9890SOL    HW230570   6.445   3.003   0.604
 9891SOL     OW30571   4.843   5.252   0.940
 9891SOL    HW130572   4.747   5.225   0.941
 9891SOL    HW230573   4.884   5.236   1.030
 9892SOL     OW30574   2.198   5.480   3.663
 9892SOL    HW130575   2.261   5.408   3.633
 9892SOL    HW230576   2.104   5.451   3.647
 9893SOL     OW30577   5.848   5.251   2.762
 9893SOL    HW130578   5.861   5.158   2.796
 9893SOL    HW230579   5.751   5.276   2.769
 9894SOL     OW30580   4.194   2.178   5.768
 9894SOL    HW130581   4.131   2.238   5.816
 9894SOL    HW230582   4.174   2.083   5.790
 9895SOL     OW30583   5.145   2.516   6.393
 9895SOL    HW130584   5.230   2.466   6.412
 9895SOL    HW230585   5.166   2.596   6.337
 9896SOL     OW30586   3.398   3.260   0.741
 9896SOL    HW130587   3.404   3.290   0.645
 9896SOL    HW230588   3.480   3.288   0.790
 9897SOL     OW30589   4.873   1.288   2.887
 9897SOL    HW130590   4.936   1.346   2.938
 9897SOL    HW230591   4.924   1.233   2.822
 9898SOL     OW30592   1.002   5.299   5.537
 9898SOL    HW130593   0.970   5.358   5.463
 9898SOL    HW230594   1.102   5.307   5.545
 9899SOL     OW30595   5.391   4.678   2.431
 9899SOL    HW130596   5.490   4.681   2.423
 9899SOL    HW230597   5.364   4.697   2.526
 9900SOL     OW30598   1.181   2.123   3.823
 9900SOL    HW130599   1.143   2.163   3.739
 9900SOL    HW230600   1.204   2.196   3.887
 9901SOL     OW30601   2.222   2.089   6.384
 9901SOL    HW130602   2.201   1.996   6.414
 9901SOL    HW230603   2.200   2.153   6.458
 9902SOL     OW30604   3.660   3.496   0.892
 9902SOL    HW130605   3.733   3.484   0.959
 9902SOL    HW230606   3.697   3.485   0.800
 9903SOL     OW30607   4.534   1.738   2.372
 9903SOL    HW130608   4.498   1.726   2.464
 9903SOL    HW230609   4.594   1.661   2.350
 9904SOL     OW30610   6.551   2.825   0.375
 9904SOL    HW130611   6.581   2.774   0.456
 9904SOL    HW230612   6.522   2.916   0.401
 9905SOL     OW30613   1.327   6.229   6.368
 9905SOL    HW130614   1.270   6.301   6.328
 9905SOL    HW230615   1.288   6.202   6.456
 9906SOL     OW30616   1.748   2.591   6.514
 9906SOL    HW130617   1.754   2.639   6.601
 9906SOL    HW230618   1.838   2.556   6.488
 9907SOL     OW30619   2.548   6.114   3.249
 9907SOL    HW130620   2.558   6.189   3.182
 9907SOL    HW230621   2.465   6.130   3.303
 9908SOL     OW30622   0.592   3.111   6.455
 9908SOL    HW130623   0.664   3.136   6.390
 9908SOL    HW230624   0.591   3.012   6.468
 9909SOL     OW30625   3.114   1.779   2.786
 9909SOL    HW130626   3.023   1.739   2.795
 9909SOL    HW230627   3.111   1.855   2.721
 9910SOL     OW30628   6.905   4.731   0.837
 9910SOL    HW130629   6.962   4.780   0.770
 9910SOL    HW230630   6.935   4.636   0.842
 9911SOL     OW30631   4.607   4.782   2.955
 9911SOL    HW130632   4.624   4.837   2.873
 9911SOL    HW230633   4.591   4.842   3.033
 9912SOL     OW30634   4.680   1.014   2.154
 9912SOL    HW130635   4.608   1.013   2.085
 9912SOL    HW230636   4.737   1.095   2.142
 9913SOL     OW30637   5.240   2.989   2.579
 9913SOL    HW130638   5.215   2.928   2.655
 9913SOL    HW230639   5.180   2.971   2.501
 9914SOL     OW30640   1.732   0.333   5.306
 9914SOL    HW130641   1.690   0.343   5.396
 9914SOL    HW230642   1.794   0.255   5.306
 9915SOL     OW30643   5.253   3.427   4.059
 9915SOL    HW130644   5.294   3.441   4.148
 9915SOL    HW230645   5.228   3.331   4.048
 9916SOL     OW30646   2.100   3.162   2.703
 9916SOL    HW130647   2.111   3.167   2.802
 9916SOL    HW230648   2.138   3.075   2.670
 9917SOL     OW30649   3.390   3.952   5.188
 9917SOL    HW130650   3.322   3.911   5.248
 9917SOL    HW230651   3.373   4.050   5.179
 9918SOL     OW30652   2.064   1.423   5.772
 9918SOL    HW130653   2.148   1.373   5.748
 9918SOL    HW230654   2.026   1.386   5.857
 9919SOL     OW30655   1.330   6.246   2.335
 9919SOL    HW130656   1.280   6.323   2.375
 9919SOL    HW230657   1.330   6.170   2.400
 9920SOL     OW30658   3.768   0.020   1.984
 9920SOL    HW130659   3.850   0.051   2.032
 9920SOL    HW230660   3.768   6.942   1.980
 9921SOL     OW30661   5.819   0.245   3.311
 9921SOL    HW130662   5.905   0.267   3.357
 9921SOL    HW230663   5.813   0.146   3.295
 9922SOL     OW30664   4.015   4.646   1.034
 9922SOL    HW130665   4.004   4.634   0.935
 9922SOL    HW230666   3.957   4.582   1.083
 9923SOL     OW30667   6.659   2.298   6.137
 9923SOL    HW130668   6.736   2.352   6.105
 9923SOL    HW230669   6.628   2.332   6.226
 9924SOL     OW30670   5.959   1.222   2.472
 9924SOL    HW130671   5.882   1.159   2.463
 9924SOL    HW230672   5.934   1.296   2.535
 9925SOL     OW30673   2.683   3.667   5.794
 9925SOL    HW130674   2.647   3.733   5.860
 9925SOL    HW230675   2.642   3.684   5.705
 9926SOL     OW30676   1.565   1.352   0.884
 9926SOL    HW130677   1.612   1.378   0.968
 9926SOL    HW230678   1.501   1.278   0.903
 9927SOL     OW30679   0.985   2.027   2.426
 9927SOL    HW130680   1.038   2.045   2.344
 9927SOL    HW230681   0.919   2.101   2.441
 9928SOL     OW30682   0.334   4.855   1.520
 9928SOL    HW130683   0.304   4.950   1.528
 9928SOL    HW230684   0.434   4.851   1.521
 9929SOL     OW30685   3.570   4.364   5.790
 9929SOL    HW130686   3.628   4.300   5.738
 9929SOL    HW230687   3.508   4.312   5.848
 9930SOL     OW30688   0.646   0.576   6.412
 9930SOL    HW130689   0.648   0.562   6.313
 9930SOL    HW230690   0.556   0.551   6.448
 9931SOL     OW30691   1.286   6.334   4.789
 9931SOL    HW130692   1.370   6.361   4.741
 9931SOL    HW230693   1.264   6.239   4.767
 9932SOL     OW30694   1.494   2.347   0.633
 9932SOL    HW130695   1.474   2.337   0.730
 9932SOL    HW230696   1.572   2.289   0.609
 9933SOL     OW30697   2.627   0.697   3.195
 9933SOL    HW130698   2.691   0.767   3.163
 9933SOL    HW230699   2.634   0.616   3.136
 9934SOL     OW30700   5.842   1.192   6.420
 9934SOL    HW130701   5.811   1.196   6.325
 9934SOL    HW230702   5.800   1.113   6.466
 9935SOL     OW30703   3.128   2.175   0.449
 9935SOL    HW130704   3.176   2.248   0.400
 9935SOL    HW230705   3.084   2.114   0.383
 9936SOL     OW30706   5.067   5.098   5.873
 9936SOL    HW130707   5.156   5.073   5.910
 9936SOL    HW230708   5.038   5.185   5.911
 9937SOL     OW30709   0.158   0.296   2.882
 9937SOL    HW130710   0.226   0.222   2.888
 9937SOL    HW230711   0.121   0.313   2.973
 9938SOL     OW30712   6.566   1.251   4.558
 9938SOL    HW130713   6.627   1.261   4.480
 9938SOL    HW230714   6.488   1.193   4.532
 9939SOL     OW30715   2.141   4.021   1.170
 9939SOL    HW130716   2.065   4.083   1.150
 9939SOL    HW230717   2.210   4.029   1.097
 9940SOL     OW30718   0.557   0.286   3.161
 9940SOL    HW130719   0.623   0.320   3.228
 9940SOL    HW230720   0.501   0.215   3.204
 9941SOL     OW30721   4.015   5.337   5.609
 9941SOL    HW130722   4.063   5.424   5.603
 9941SOL    HW230723   3.922   5.352   5.645
 9942SOL     OW30724   4.579   4.701   3.279
 9942SOL    HW130725   4.523   4.620   3.291
 9942SOL    HW230726   4.522   4.783   3.290
 9943SOL     OW30727   1.707   3.858   0.155
 9943SOL    HW130728   1.705   3.957   0.144
 9943SOL    HW230729   1.705   3.814   0.065
 9944SOL     OW30730   1.668   4.837   0.093
 9944SOL    HW130731   1.646   4.922   0.045
 9944SOL    HW230732   1.593   4.772   0.081
 9945SOL     OW30733   6.204   4.150   0.299
 9945SOL    HW130734   6.264   4.118   0.226
 9945SOL    HW230735   6.142   4.076   0.325
 9946SOL     OW30736   5.925   0.661   2.931
 9946SOL    HW130737   6.012   0.613   2.919
 9946SOL    HW230738   5.935   0.756   2.903
 9947SOL     OW30739   1.128   2.531   4.402
 9947SOL    HW130740   1.165   2.438   4.390
 9947SOL    HW230741   1.062   2.550   4.329
 9948SOL     OW30742   6.095   0.047   3.493
 9948SOL    HW130743   6.168   7.003   3.508
 9948SOL    HW230744   6.026   0.038   3.565
 9949SOL     OW30745   6.278   4.274   5.199
 9949SOL    HW130746   6.374   4.251   5.215
 9949SOL    HW230747   6.273   4.344   5.128
 9950SOL     OW30748   6.701   4.940   6.147
 9950SOL    HW130749   6.783   4.979   6.189
 9950SOL    HW230750   6.702   4.957   6.049
 9951SOL     OW30751   0.982   3.139   2.360
 9951SOL    HW130752   1.007   3.051   2.321
 9951SOL    HW230753   0.982   3.132   2.460
 9952SOL     OW30754   0.986   3.936   1.447
 9952SOL    HW130755   0.917   4.008   1.434
 9952SOL    HW230756   1.059   3.971   1.507
 9953SOL     OW30757   6.054   2.456   3.240
 9953SOL    HW130758   6.101   2.519   3.178
 9953SOL    HW230759   6.103   2.450   3.326
 9954SOL     OW30760   2.871   1.743   5.522
 9954SOL    HW130761   2.912   1.693   5.599
 9954SOL    HW230762   2.911   1.711   5.436
 9955SOL     OW30763   4.335   3.534   0.890
 9955SOL    HW130764   4.284   3.526   0.975
 9955SOL    HW230765   4.429   3.562   0.909
 9956SOL     OW30766   1.185   4.414   2.989
 9956SOL    HW130767   1.136   4.501   2.984
 9956SOL    HW230768   1.136   4.345   2.937
 9957SOL     OW30769   5.429   6.782   1.623
 9957SOL    HW130770   5.487   6.807   1.545
 9957SOL    HW230771   5.473   6.813   1.708
 9958SOL     OW30772   3.871   4.846   6.036
 9958SOL    HW130773   3.887   4.781   5.962
 9958SOL    HW230774   3.777   4.880   6.029
 9959SOL     OW30775   4.373   4.036   1.298
 9959SOL    HW130776   4.454   3.982   1.322
 9959SOL    HW230777   4.300   4.018   1.364
 9960SOL     OW30778   6.665   6.461   1.249
 9960SOL    HW130779   6.597   6.534   1.240
 9960SOL    HW230780   6.652   6.414   1.336
 9961SOL     OW30781   1.567   3.904   1.813
 9961SOL    HW130782   1.651   3.898   1.759
 9961SOL    HW230783   1.512   3.980   1.781
 9962SOL     OW30784   3.322   5.915   2.050
 9962SOL    HW130785   3.223   5.903   2.050
 9962SOL    HW230786   3.357   5.909   1.956
 9963SOL     OW30787   2.376   1.532   0.402
 9963SOL    HW130788   2.399   1.628   0.416
 9963SOL    HW230789   2.286   1.513   0.442
 9964SOL     OW30790   4.686   4.666   5.259
 9964SOL    HW130791   4.724   4.611   5.184
 9964SOL    HW230792   4.736   4.645   5.343
 9965SOL     OW30793   2.976   6.134   4.898
 9965SOL    HW130794   3.038   6.062   4.868
 9965SOL    HW230795   2.995   6.157   4.993
 9966SOL     OW30796   2.937   4.836   2.142
 9966SOL    HW130797   3.035   4.817   2.140
 9966SOL    HW230798   2.887   4.757   2.105
 9967SOL     OW30799   6.014   6.612   2.702
 9967SOL    HW130800   6.041   6.626   2.607
 9967SOL    HW230801   5.928   6.561   2.705
 9968SOL     OW30802   4.414   5.918   0.259
 9968SOL    HW130803   4.400   5.822   0.235
 9968SOL    HW230804   4.360   5.940   0.340
 9969SOL     OW30805   0.653   4.580   4.764
 9969SOL    HW130806   0.696   4.497   4.730
 9969SOL    HW230807   0.580   4.557   4.828
 9970SOL     OW30808   5.575   5.453   1.852
 9970SOL    HW130809   5.483   5.419   1.872
 9970SOL    HW230810   5.631   5.379   1.816
 9971SOL     OW30811   1.280   3.001   1.966
 9971SOL    HW130812   1.262   3.023   1.870
 9971SOL    HW230813   1.319   3.081   2.012
 9972SOL     OW30814   3.268   3.712   0.698
 9972SOL    HW130815   3.187   3.766   0.722
 9972SOL    HW230816   3.347   3.747   0.748
 9973SOL     OW30817   4.192   1.785   4.439
 9973SOL    HW130818   4.141   1.830   4.512
 9973SOL    HW230819   4.189   1.841   4.356
 9974SOL     OW30820   6.546   2.352   3.417
 9974SOL    HW130821   6.533   2.283   3.488
 9974SOL    HW230822   6.603   2.313   3.343
 9975SOL     OW30823   0.933   5.344   6.967
 9975SOL    HW130824   0.956   5.289   6.887
 9975SOL    HW230825   0.898   5.433   6.937
 9976SOL     OW30826   1.426   5.414   5.771
 9976SOL    HW130827   1.471   5.397   5.859
 9976SOL    HW230828   1.492   5.458   5.709
 9977SOL     OW30829   5.635   4.949   4.933
 9977SOL    HW130830   5.605   4.854   4.930
 9977SOL    HW230831   5.684   4.965   5.018
 9978SOL     OW30832   0.155   2.092   5.978
 9978SOL    HW130833   0.106   2.179   5.981
 9978SOL    HW230834   0.244   2.102   6.022
 9979SOL     OW30835   4.978   3.399   6.034
 9979SOL    HW130836   4.899   3.442   6.078
 9979SOL    HW230837   4.956   3.377   5.939
 9980SOL     OW30838   1.508   0.696   0.047
 9980SOL    HW130839   1.525   0.599   0.061
 9980SOL    HW230840   1.429   0.725   0.102
 9981SOL     OW30841   1.548   2.468   1.205
 9981SOL    HW130842   1.514   2.428   1.120
 9981SOL    HW230843   1.585   2.559   1.186
 9982SOL     OW30844   2.118   1.012   4.898
 9982SOL    HW130845   2.107   0.930   4.954
 9982SOL    HW230846   2.051   1.080   4.925
 9983SOL     OW30847   6.041   2.866   2.549
 9983SOL    HW130848   5.968   2.798   2.556
 9983SOL    HW230849   6.002   2.955   2.528
 9984SOL     OW30850   0.175   6.103   1.334
 9984SOL    HW130851   0.126   6.038   1.276
 9984SOL    HW230852   0.273   6.090   1.323
 9985SOL     OW30853   3.334   4.966   0.442
 9985SOL    HW130854   3.307   4.986   0.536
 9985SOL    HW230855   3.399   5.035   0.411
 9986SOL     OW30856   4.908   4.336   0.944
 9986SOL    HW130857   4.968   4.290   0.879
 9986SOL    HW230858   4.913   4.434   0.930
 9987SOL     OW30859   5.336   3.224   1.696
 9987SOL    HW130860   5.433   3.235   1.675
 9987SOL    HW230861   5.312   3.127   1.692
 9988SOL     OW30862   6.704   5.371   4.092
 9988SOL    HW130863   6.742   5.300   4.152
 9988SOL    HW230864   6.610   5.392   4.120
 9989SOL     OW30865   5.968   3.270   1.926
 9989SOL    HW130866   5.960   3.175   1.956
 9989SOL    HW230867   5.971   3.330   2.006
 9990SOL     OW30868   0.085   6.653   3.288
 9990SOL    HW130869   0.144   6.630   3.366
 9990SOL    HW230870   0.027   6.576   3.265
 9991SOL     OW30871   1.421   3.917   3.640
 9991SOL    HW130872   1.498   3.924   3.577
 9991SOL    HW230873   1.447   3.954   3.729
 9992SOL     OW30874   3.354   3.842   1.054
 9992SOL    HW130875   3.387   3.747   1.058
 9992SOL    HW230876   3.378   3.882   0.966
 9993SOL     OW30877   3.455   6.266   3.749
 9993SOL    HW130878   3.529   6.269   3.682
 9993SOL    HW230879   3.445   6.356   3.792
 9994SOL     OW30880   0.130   4.028   3.158
 9994SOL    HW130881   0.207   3.972   3.127
 9994SOL    HW230882   0.140   4.120   3.121
 9995SOL     OW30883   2.891   1.232   3.856
 9995SOL    HW130884   2.932   1.315   3.894
 9995SOL    HW230885   2.964   1.172   3.823
 9996SOL     OW30886   2.613   4.068   0.522
 9996SOL    HW130887   2.518   4.038   0.510
 9996SOL    HW230888   2.674   3.994   0.495
 9997SOL     OW30889   5.296   1.683   3.384
 9997SOL    HW130890   5.305   1.645   3.292
 9997SOL    HW230891   5.371   1.747   3.401
 9998SOL     OW30892   5.169   3.866   2.554
 9998SOL    HW130893   5.107   3.906   2.486
 9998SOL    HW230894   5.172   3.924   2.635
 9999SOL     OW30895   0.688   0.184   4.111
 9999SOL    HW130896   0.785   0.184   4.136
 9999SOL    HW230897   0.632   0.195   4.193
10000SOL     OW30898   5.586   1.409   1.527
10000SOL    HW130899   5.650   1.482   1.504
10000SOL    HW230900   5.598   1.334   1.461
10001SOL     OW30901   3.576   6.383   2.469
10001SOL    HW130902   3.620   6.294   2.455
10001SOL    HW230903   3.493   6.370   2.524
10002SOL     OW30904   2.136   1.176   0.711
10002SOL    HW130905   2.169   1.115   0.783
10002SOL    HW230906   2.190   1.261   0.711
10003SOL     OW30907   3.014   1.735   2.341
10003SOL    HW130908   3.004   1.830   2.311
10003SOL    HW230909   3.079   1.688   2.281
10004SOL     OW30910   5.676   4.606   4.752
10004SOL    HW130911   5.645   4.523   4.705
10004SOL    HW230912   5.627   4.616   4.838
10005SOL     OW30913   3.210   5.411   3.570
10005SOL    HW130914   3.143   5.340   3.592
10005SOL    HW230915   3.230   5.409   3.472
10006SOL     OW30916   5.488   0.230   5.205
10006SOL    HW130917   5.531   0.319   5.223
10006SOL    HW230918   5.538   0.159   5.254
10007SOL     OW30919   0.554   3.704   4.627
10007SOL    HW130920   0.574   3.691   4.530
10007SOL    HW230921   0.504   3.625   4.662
10008SOL     OW30922   4.300   1.893   4.079
10008SOL    HW130923   4.371   1.955   4.113
10008SOL    HW230924   4.219   1.947   4.053
10009SOL     OW30925   1.814   3.915   1.654
10009SOL    HW130926   1.816   4.014   1.647
10009SOL    HW230927   1.903   3.878   1.627
10010SOL     OW30928   3.072   5.215   6.427
10010SOL    HW130929   3.131   5.289   6.459
10010SOL    HW230930   3.067   5.144   6.497
10011SOL     OW30931   0.390   4.548   0.051
10011SOL    HW130932   0.452   4.507   7.007
10011SOL    HW230933   0.344   4.627   0.010
10012SOL     OW30934   4.654   0.389   2.059
10012SOL    HW130935   4.585   0.339   2.112
10012SOL    HW230936   4.610   0.436   1.983
10013SOL     OW30937   0.987   4.733   4.555
10013SOL    HW130938   1.018   4.724   4.461
10013SOL    HW230939   1.040   4.672   4.614
10014SOL     OW30940   1.684   6.929   2.519
10014SOL    HW130941   1.590   6.901   2.498
10014SOL    HW230942   1.687   0.006   2.529
10015SOL     OW30943   3.798   4.910   0.234
10015SOL    HW130944   3.755   4.821   0.248
10015SOL    HW230945   3.897   4.901   0.247
10016SOL     OW30946   2.167   1.452   4.893
10016SOL    HW130947   2.243   1.438   4.830
10016SOL    HW230948   2.101   1.514   4.851
10017SOL     OW30949   2.206   1.816   2.592
10017SOL    HW130950   2.117   1.813   2.638
10017SOL    HW230951   2.224   1.729   2.547
10018SOL     OW30952   6.722   3.754   5.540
10018SOL    HW130953   6.749   3.776   5.446
10018SOL    HW230954   6.758   3.824   5.602
10019SOL     OW30955   0.218   1.439   3.479
10019SOL    HW130956   0.307   1.482   3.497
10019SOL    HW230957   0.155   1.508   3.443
10020SOL     OW30958   0.240   1.253   2.249
10020SOL    HW130959   0.230   1.153   2.244
10020SOL    HW230960   0.184   1.295   2.177
10021SOL     OW30961   0.965   3.196   1.735
10021SOL    HW130962   0.957   3.164   1.829
10021SOL    HW230963   1.038   3.145   1.689
10022SOL     OW30964   2.311   5.888   6.949
10022SOL    HW130965   2.329   5.965   7.010
10022SOL    HW230966   2.304   5.921   6.855
10023SOL     OW30967   2.823   6.035   5.649
10023SOL    HW130968   2.849   6.087   5.730
10023SOL    HW230969   2.900   5.981   5.616
10024SOL     OW30970   0.913   4.943   2.604
10024SOL    HW130971   0.991   4.898   2.647
10024SOL    HW230972   0.916   5.041   2.624
10025SOL     OW30973   1.524   2.999   2.369
10025SOL    HW130974   1.516   2.974   2.466
10025SOL    HW230975   1.620   3.010   2.345
10026SOL     OW30976   4.986   0.600   3.396
10026SOL    HW130977   5.021   0.649   3.315
10026SOL    HW230978   5.051   0.609   3.471
10027SOL     OW30979   0.962   2.961   4.973
10027SOL    HW130980   1.053   2.920   4.977
10027SOL    HW230981   0.895   2.896   5.008
10028SOL     OW30982   2.894   0.913   0.692
10028SOL    HW130983   2.860   0.937   0.601
10028SOL    HW230984   2.987   0.948   0.703
10029SOL     OW30985   0.827   3.560   3.697
10029SOL    HW130986   0.761   3.486   3.710
10029SOL    HW230987   0.785   3.633   3.642
10030SOL     OW30988   3.342   7.003   4.823
10030SOL    HW130989   3.402   0.050   4.862
10030SOL    HW230990   3.272   0.025   4.767
10031SOL     OW30991   4.424   5.022   4.809
10031SOL    HW130992   4.523   5.023   4.796
10031SOL    HW230993   4.399   4.946   4.869
10032SOL     OW30994   3.786   0.302   6.359
10032SOL    HW130995   3.874   0.265   6.391
10032SOL    HW230996   3.719   0.297   6.434
10033SOL     OW30997   4.124   1.692   4.778
10033SOL    HW130998   4.091   1.714   4.871
10033SOL    HW230999   4.073   1.747   4.712
10034SOL     OW31000   2.375   1.278   3.543
10034SOL    HW131001   2.455   1.259   3.600
10034SOL    HW231002   2.322   1.353   3.583
10035SOL     OW31003   5.575   4.038   1.129
10035SOL    HW131004   5.632   4.109   1.170
10035SOL    HW231005   5.505   4.010   1.194
10036SOL     OW31006   6.644   0.926   0.743
10036SOL    HW131007   6.662   0.837   0.785
10036SOL    HW231008   6.619   0.992   0.814
10037SOL     OW31009   6.200   6.515   6.363
10037SOL    HW131010   6.269   6.515   6.290
10037SOL    HW231011   6.234   6.568   6.441
10038SOL     OW31012   4.155   6.756   6.113
10038SOL    HW131013   4.219   6.685   6.140
10038SOL    HW231014   4.097   6.723   6.038
10039SOL     OW31015   5.622   6.649   5.227
10039SOL    HW131016   5.542   6.695   5.264
10039SOL    HW231017   5.667   6.597   5.300
10040SOL     OW31018   4.533   5.818   6.333
10040SOL    HW131019   4.509   5.849   6.241
10040SOL    HW231020   4.582   5.890   6.382
10041SOL     OW31021   5.669   5.312   5.869
10041SOL    HW131022   5.735   5.307   5.944
10041SOL    HW231023   5.579   5.332   5.906
10042SOL     OW31024   0.362   0.932   5.226
10042SOL    HW131025   0.290   0.864   5.240
10042SOL    HW231026   0.376   0.984   5.310
10043SOL     OW31027   0.771   0.472   3.615
10043SOL    HW131028   0.692   0.467   3.676
10043SOL    HW231029   0.743   0.511   3.527
10044SOL     OW31030   2.564   1.792   3.735
10044SOL    HW131031   2.628   1.763   3.805
10044SOL    HW231032   2.566   1.726   3.659
10045SOL     OW31033   5.192   0.210   3.879
10045SOL    HW131034   5.137   0.251   3.952
10045SOL    HW231035   5.288   0.234   3.892
10046SOL     OW31036   1.373   1.567   1.892
10046SOL    HW131037   1.298   1.630   1.911
10046SOL    HW231038   1.460   1.609   1.920
10047SOL     OW31039   6.020   3.111   4.959
10047SOL    HW131040   6.112   3.073   4.955
10047SOL    HW231041   5.957   3.044   4.999
10048SOL     OW31042   3.358   2.024   2.446
10048SOL    HW131043   3.281   2.072   2.403
10048SOL    HW231044   3.440   2.035   2.390
10049SOL     OW31045   0.692   0.820   6.547
10049SOL    HW131046   0.727   0.773   6.628
10049SOL    HW231047   0.678   0.754   6.474
10050SOL     OW31048   6.354   2.541   5.003
10050SOL    HW131049   6.364   2.482   5.083
10050SOL    HW231050   6.325   2.632   5.033
10051SOL     OW31051   6.397   2.404   4.766
10051SOL    HW131052   6.366   2.446   4.852
10051SOL    HW231053   6.495   2.382   4.773
10052SOL     OW31054   1.467   2.227   2.358
10052SOL    HW131055   1.540   2.187   2.414
10052SOL    HW231056   1.471   2.189   2.266
10053SOL     OW31057   3.490   5.133   1.906
10053SOL    HW131058   3.512   5.063   1.838
10053SOL    HW231059   3.402   5.111   1.949
10054SOL     OW31060   3.886   6.288   5.727
10054SOL    HW131061   3.817   6.218   5.710
10054SOL    HW231062   3.955   6.252   5.791
10055SOL     OW31063   5.946   2.447   5.340
10055SOL    HW131064   6.003   2.469   5.260
10055SOL    HW231065   5.850   2.453   5.315
10056SOL     OW31066   6.400   5.584   0.407
10056SOL    HW131067   6.456   5.576   0.490
10056SOL    HW231068   6.304   5.591   0.432
10057SOL     OW31069   3.598   1.049   4.160
10057SOL    HW131070   3.642   0.961   4.145
10057SOL    HW231071   3.666   1.122   4.153
10058SOL     OW31072   0.646   3.786   4.356
10058SOL    HW131073   0.745   3.793   4.371
10058SOL    HW231074   0.604   3.876   4.369
10059SOL     OW31075   5.591   6.451   0.489
10059SOL    HW131076   5.567   6.369   0.541
10059SOL    HW231077   5.541   6.530   0.525
10060SOL     OW31078   2.569   1.341   1.936
10060SOL    HW131079   2.498   1.409   1.953
10060SOL    HW231080   2.653   1.388   1.907
10061SOL     OW31081   5.013   1.331   4.325
10061SOL    HW131082   4.935   1.364   4.378
10061SOL    HW231083   4.995   1.343   4.227
10062SOL     OW31084   6.200   6.825   4.935
10062SOL    HW131085   6.254   6.901   4.899
10062SOL    HW231086   6.262   6.755   4.972
10063SOL     OW31087   1.550   2.130   3.341
10063SOL    HW131088   1.640   2.096   3.367
10063SOL    HW231089   1.528   2.101   3.248
10064SOL     OW31090   5.855   5.707   6.032
10064SOL    HW131091   5.876   5.644   5.957
10064SOL    HW231092   5.801   5.784   5.996
10065SOL     OW31093   2.242   0.849   1.788
10065SOL    HW131094   2.313   0.785   1.818
10065SOL    HW231095   2.271   0.942   1.809
10066SOL     OW31096   1.812   1.460   4.634
10066SOL    HW131097   1.800   1.456   4.535
10066SOL    HW231098   1.755   1.390   4.678
10067SOL     OW31099   5.431   3.928   5.631
10067SOL    HW131100   5.373   3.923   5.712
10067SOL    HW231101   5.496   4.003   5.641
10068SOL     OW31102   5.607   3.296   4.419
10068SOL    HW131103   5.688   3.305   4.360
10068SOL    HW231104   5.605   3.204   4.458
10069SOL     OW31105   1.888   5.499   3.614
10069SOL    HW131106   1.803   5.456   3.583
10069SOL    HW231107   1.906   5.581   3.560
10070SOL     OW31108   0.318   0.252   5.082
10070SOL    HW131109   0.349   0.220   5.171
10070SOL    HW231110   0.252   0.187   5.044
10071SOL     OW31111   5.181   5.488   3.812
10071SOL    HW131112   5.137   5.564   3.860
10071SOL    HW231113   5.268   5.465   3.857
10072SOL     OW31114   0.693   6.161   4.108
10072SOL    HW131115   0.737   6.160   4.198
10072SOL    HW231116   0.763   6.170   4.037
10073SOL     OW31117   6.322   3.992   4.439
10073SOL    HW131118   6.376   4.069   4.473
10073SOL    HW231119   6.235   3.988   4.489
10074SOL     OW31120   0.683   0.516   5.298
10074SOL    HW131121   0.748   0.445   5.271
10074SOL    HW231122   0.716   0.605   5.267
10075SOL     OW31123   1.618   2.617   2.642
10075SOL    HW131124   1.532   2.567   2.638
10075SOL    HW231125   1.644   2.631   2.738
10076SOL     OW31126   5.431   0.345   3.370
10076SOL    HW131127   5.346   0.294   3.360
10076SOL    HW231128   5.505   0.296   3.323
10077SOL     OW31129   3.268   2.007   6.533
10077SOL    HW131130   3.314   2.092   6.557
10077SOL    HW231131   3.336   1.935   6.519
10078SOL     OW31132   6.791   6.488   4.085
10078SOL    HW131133   6.839   6.402   4.066
10078SOL    HW231134   6.833   6.533   4.163
10079SOL     OW31135   1.158   3.495   1.831
10079SOL    HW131136   1.134   3.437   1.908
10079SOL    HW231137   1.075   3.526   1.784
10080SOL     OW31138   3.031   1.544   5.661
10080SOL    HW131139   3.126   1.563   5.681
10080SOL    HW231140   3.008   1.450   5.689
10081SOL     OW31141   0.236   0.535   7.020
10081SOL    HW131142   0.153   0.573   6.979
10081SOL    HW231143   0.282   0.605   0.052
10082SOL     OW31144   0.220   4.237   2.063
10082SOL    HW131145   0.283   4.315   2.066
10082SOL    HW231146   0.272   4.152   2.067
10083SOL     OW31147   5.405   0.600   2.580
10083SOL    HW131148   5.316   0.643   2.570
10083SOL    HW231149   5.455   0.606   2.494
10084SOL     OW31150   3.238   0.916   5.892
10084SOL    HW131151   3.315   0.859   5.864
10084SOL    HW231152   3.194   0.954   5.810
10085SOL     OW31153   0.579   6.113   1.972
10085SOL    HW131154   0.489   6.071   1.957
10085SOL    HW231155   0.569   6.193   2.031
10086SOL     OW31156   5.978   5.210   1.512
10086SOL    HW131157   6.060   5.157   1.492
10086SOL    HW231158   5.994   5.266   1.593
10087SOL     OW31159   0.369   0.001   3.992
10087SOL    HW131160   0.294   0.065   3.976
10087SOL    HW231161   0.338   6.949   4.050
10088SOL     OW31162   0.032   0.071   0.319
10088SOL    HW131163   7.000   0.150   0.290
10088SOL    HW231164   0.040   0.007   0.242
10089SOL     OW31165   2.404   2.526   2.956
10089SOL    HW131166   2.417   2.566   3.047
10089SOL    HW231167   2.308   2.501   2.944
10090SOL     OW31168   1.208   4.764   0.775
10090SOL    HW131169   1.265   4.739   0.697
10090SOL    HW231170   1.213   4.863   0.789
10091SOL     OW31171   1.381   3.369   5.481
10091SOL    HW131172   1.339   3.375   5.571
10091SOL    HW231173   1.389   3.273   5.455
10092SOL     OW31174   2.171   3.540   4.982
10092SOL    HW131175   2.172   3.633   5.018
10092SOL    HW231176   2.261   3.519   4.943
10093SOL     OW31177   0.666   4.461   5.082
10093SOL    HW131178   0.577   4.463   5.038
10093SOL    HW231179   0.721   4.539   5.051
10094SOL     OW31180   2.407   6.333   1.741
10094SOL    HW131181   2.383   6.267   1.670
10094SOL    HW231182   2.329   6.392   1.760
10095SOL     OW31183   6.311   2.185   5.763
10095SOL    HW131184   6.338   2.281   5.762
10095SOL    HW231185   6.381   2.130   5.718
10096SOL     OW31186   5.692   4.896   1.931
10096SOL    HW131187   5.599   4.930   1.943
10096SOL    HW231188   5.705   4.814   1.987
10097SOL     OW31189   1.145   1.031   0.032
10097SOL    HW131190   1.068   0.968   0.041
10097SOL    HW231191   1.217   1.004   0.096
10098SOL     OW31192   2.301   0.690   5.259
10098SOL    HW131193   2.384   0.672   5.206
10098SOL    HW231194   2.321   0.681   5.357
10099SOL     OW31195   0.171   4.937   0.337
10099SOL    HW131196   0.157   5.028   0.297
10099SOL    HW231197   0.237   4.886   0.282
10100SOL     OW31198   4.843   0.046   4.367
10100SOL    HW131199   4.935   0.052   4.329
10100SOL    HW231200   4.833   0.114   4.439
10101SOL     OW31201   5.835   4.144   1.833
10101SOL    HW131202   5.840   4.237   1.796
10101SOL    HW231203   5.921   4.096   1.815
10102SOL     OW31204   1.511   1.059   2.882
10102SOL    HW131205   1.572   1.137   2.893
10102SOL    HW231206   1.466   1.039   2.969
10103SOL     OW31207   2.472   1.462   5.502
10103SOL    HW131208   2.374   1.464   5.481
10103SOL    HW231209   2.502   1.553   5.528
10104SOL     OW31210   1.513   2.766   4.330
10104SOL    HW131211   1.606   2.731   4.316
10104SOL    HW231212   1.491   2.763   4.427
10105SOL     OW31213   0.998   0.786   0.385
10105SOL    HW131214   0.971   0.805   0.479
10105SOL    HW231215   1.072   0.718   0.384
10106SOL     OW31216   4.480   5.484   1.141
10106SOL    HW131217   4.557   5.549   1.136
10106SOL    HW231218   4.441   5.486   1.233
10107SOL     OW31219   0.387   1.931   6.857
10107SOL    HW131220   0.343   2.006   6.808
10107SOL    HW231221   0.353   1.929   6.951
10108SOL     OW31222   6.333   5.929   6.680
10108SOL    HW131223   6.342   6.027   6.697
10108SOL    HW231224   6.315   5.912   6.583
10109SOL     OW31225   3.642   6.517   1.552
10109SOL    HW131226   3.656   6.418   1.560
10109SOL    HW231227   3.612   6.553   1.640
10110SOL     OW31228   4.598   6.550   4.887
10110SOL    HW131229   4.655   6.623   4.850
10110SOL    HW231230   4.579   6.483   4.815
10111SOL     OW31231   5.661   2.958   4.183
10111SOL    HW131232   5.625   3.049   4.163
10111SOL    HW231233   5.625   2.892   4.117
10112SOL     OW31234   5.457   4.089   4.457
10112SOL    HW131235   5.494   4.137   4.377
10112SOL    HW231236   5.511   4.007   4.475
10113SOL     OW31237   4.100   0.614   5.334
10113SOL    HW131238   4.135   0.632   5.425
10113SOL    HW231239   4.174   0.578   5.276
10114SOL     OW31240   5.107   0.444   0.859
10114SOL    HW131241   5.169   0.409   0.929
10114SOL    HW231242   5.133   0.538   0.836
10115SOL     OW31243   3.155   2.165   3.452
10115SOL    HW131244   3.073   2.174   3.396
10115SOL    HW231245   3.215   2.096   3.410
10116SOL     OW31246   0.628   6.522   0.279
10116SOL    HW131247   0.672   6.579   0.348
10116SOL    HW231248   0.698   6.479   0.222
10117SOL     OW31249   6.805   6.321   5.112
10117SOL    HW131250   6.821   6.413   5.077
10117SOL    HW231251   6.874   6.299   5.181
10118SOL     OW31252   1.098   5.407   3.052
10118SOL    HW131253   1.163   5.331   3.064
10118SOL    HW231254   1.143   5.493   3.072
10119SOL     OW31255   0.830   6.648   4.434
10119SOL    HW131256   0.878   6.650   4.521
10119SOL    HW231257   0.808   6.554   4.410
10120SOL     OW31258   1.413   3.950   4.307
10120SOL    HW131259   1.484   3.928   4.373
10120SOL    HW231260   1.325   3.960   4.354
10121SOL     OW31261   6.407   4.447   6.297
10121SOL    HW131262   6.346   4.410   6.367
10121SOL    HW231263   6.439   4.538   6.326
10122SOL     OW31264   5.776   3.256   0.590
10122SOL    HW131265   5.790   3.165   0.630
10122SOL    HW231266   5.794   3.326   0.659
10123SOL     OW31267   6.754   6.550   0.180
10123SOL    HW131268   6.793   6.460   0.160
10123SOL    HW231269   6.823   6.608   0.222
10124SOL     OW31270   1.983   3.487   6.962
10124SOL    HW131271   2.065   3.438   6.933
10124SOL    HW231272   1.932   3.517   6.882
10125SOL     OW31273   1.511   0.599   2.766
10125SOL    HW131274   1.462   0.679   2.802
10125SOL    HW231275   1.574   0.565   2.837
10126SOL     OW31276   0.111   7.002   6.411
10126SOL    HW131277   0.036   0.034   6.449
10126SOL    HW231278   0.094   6.986   6.314
10127SOL     OW31279   2.176   4.712   5.825
10127SOL    HW131280   2.139   4.754   5.907
10127SOL    HW231281   2.245   4.644   5.851
10128SOL     OW31282   1.584   1.373   1.387
10128SOL    HW131283   1.615   1.298   1.446
10128SOL    HW231284   1.615   1.460   1.425
10129SOL     OW31285   5.212   3.135   4.044
10129SOL    HW131286   5.133   3.118   4.102
10129SOL    HW231287   5.187   3.119   3.948
10130SOL     OW31288   2.092   4.093   2.170
10130SOL    HW131289   2.109   4.086   2.268
10130SOL    HW231290   2.127   4.180   2.136
10131SOL     OW31291   0.348   0.500   3.366
10131SOL    HW131292   0.274   0.564   3.348
10131SOL    HW231293   0.430   0.529   3.315
10132SOL     OW31294   2.904   0.042   3.877
10132SOL    HW131295   2.884   6.978   3.923
10132SOL    HW231296   2.930   0.111   3.945
10133SOL     OW31297   4.921   6.244   1.417
10133SOL    HW131298   4.989   6.313   1.392
10133SOL    HW231299   4.829   6.284   1.410
10134SOL     OW31300   6.400   6.665   3.914
10134SOL    HW131301   6.433   6.587   3.967
10134SOL    HW231302   6.478   6.715   3.877
10135SOL     OW31303   4.866   3.143   3.302
10135SOL    HW131304   4.878   3.230   3.350
10135SOL    HW231305   4.820   3.158   3.215
10136SOL     OW31306   5.615   0.657   3.023
10136SOL    HW131307   5.658   0.646   3.113
10136SOL    HW231308   5.681   0.638   2.951
10137SOL     OW31309   5.898   4.280   3.953
10137SOL    HW131310   5.814   4.310   3.909
10137SOL    HW231311   5.876   4.211   4.022
10138SOL     OW31312   5.315   1.987   0.613
10138SOL    HW131313   5.283   2.046   0.539
10138SOL    HW231314   5.283   1.894   0.597
10139SOL     OW31315   3.768   3.954   3.325
10139SOL    HW131316   3.780   3.988   3.232
10139SOL    HW231317   3.685   3.899   3.330
10140SOL     OW31318   6.412   6.370   6.167
10140SOL    HW131319   6.402   6.348   6.070
10140SOL    HW231320   6.464   6.298   6.212
10141SOL     OW31321   3.375   1.657   4.517
10141SOL    HW131322   3.337   1.630   4.605
10141SOL    HW231323   3.366   1.581   4.452
10142SOL     OW31324   6.111   6.614   4.642
10142SOL    HW131325   6.200   6.646   4.609
10142SOL    HW231326   6.123   6.529   4.694
10143SOL     OW31327   4.365   0.802   0.215
10143SOL    HW131328   4.457   0.839   0.224
10143SOL    HW231329   4.313   0.819   0.299
10144SOL     OW31330   3.604   6.792   6.072
10144SOL    HW131331   3.564   6.702   6.055
10144SOL    HW231332   3.562   6.859   6.011
10145SOL     OW31333   3.017   5.327   5.601
10145SOL    HW131334   2.988   5.421   5.581
10145SOL    HW231335   2.941   5.265   5.583
10146SOL     OW31336   4.186   5.106   4.351
10146SOL    HW131337   4.105   5.061   4.314
10146SOL    HW231338   4.171   5.205   4.353
10147SOL     OW31339   5.682   4.234   4.975
10147SOL    HW131340   5.763   4.175   4.972
10147SOL    HW231341   5.607   4.186   5.020
10148SOL     OW31342   5.171   5.085   6.952
10148SOL    HW131343   5.106   5.159   6.970
10148SOL    HW231344   5.240   5.083   0.001
10149SOL     OW31345   5.568   2.183   1.135
10149SOL    HW131346   5.619   2.253   1.185
10149SOL    HW231347   5.632   2.127   1.082
10150SOL     OW31348   3.981   3.495   0.524
10150SOL    HW131349   4.071   3.454   0.515
10150SOL    HW231350   3.952   3.491   0.620
10151SOL     OW31351   0.891   6.843   0.269
10151SOL    HW131352   0.887   6.750   0.233
10151SOL    HW231353   0.981   6.860   0.309
10152SOL     OW31354   0.969   6.510   4.676
10152SOL    HW131355   0.977   6.470   4.767
10152SOL    HW231356   0.941   6.440   4.610
10153SOL     OW31357   4.772   6.340   3.889
10153SOL    HW131358   4.685   6.334   3.841
10153SOL    HW231359   4.788   6.435   3.918
10154SOL     OW31360   5.518   6.962   4.918
10154SOL    HW131361   5.597   6.930   4.970
10154SOL    HW231362   5.544   6.975   4.822
10155SOL     OW31363   3.707   2.270   5.629
10155SOL    HW131364   3.776   2.200   5.615
10155SOL    HW231365   3.703   2.329   5.548
10156SOL     OW31366   6.346   1.537   2.323
10156SOL    HW131367   6.302   1.624   2.300
10156SOL    HW231368   6.292   1.461   2.287
10157SOL     OW31369   5.950   2.117   6.596
10157SOL    HW131370   5.973   2.139   6.501
10157SOL    HW231371   5.969   2.196   6.654
10158SOL     OW31372   5.708   3.553   1.025
10158SOL    HW131373   5.780   3.552   1.095
10158SOL    HW231374   5.641   3.623   1.048
10159SOL     OW31375   2.618   2.967   6.416
10159SOL    HW131376   2.631   2.930   6.507
10159SOL    HW231377   2.621   2.894   6.348
10160SOL     OW31378   2.158   2.924   2.058
10160SOL    HW131379   2.216   2.868   1.999
10160SOL    HW231380   2.094   2.977   2.003
10161SOL     OW31381   3.152   2.719   6.547
10161SOL    HW131382   3.181   2.773   6.468
10161SOL    HW231383   3.139   2.624   6.520
10162SOL     OW31384   3.597   4.415   0.724
10162SOL    HW131385   3.609   4.372   0.813
10162SOL    HW231386   3.585   4.513   0.736
10163SOL     OW31387   5.754   4.841   5.736
10163SOL    HW131388   5.685   4.806   5.673
10163SOL    HW231389   5.835   4.782   5.734
10164SOL     OW31390   5.763   3.378   4.881
10164SOL    HW131391   5.700   3.364   4.806
10164SOL    HW231392   5.855   3.351   4.853
10165SOL     OW31393   0.521   1.931   3.414
10165SOL    HW131394   0.544   2.028   3.403
10165SOL    HW231395   0.471   1.900   3.333
10166SOL     OW31396   3.336   1.859   1.880
10166SOL    HW131397   3.417   1.901   1.838
10166SOL    HW231398   3.361   1.771   1.921
10167SOL     OW31399   2.638   2.878   0.077
10167SOL    HW131400   2.653   2.934   0.158
10167SOL    HW231401   2.618   2.937   7.022
10168SOL     OW31402   6.146   3.845   5.783
10168SOL    HW131403   6.219   3.853   5.715
10168SOL    HW231404   6.068   3.798   5.742
10169SOL     OW31405   6.496   4.463   3.753
10169SOL    HW131406   6.529   4.416   3.671
10169SOL    HW231407   6.565   4.530   3.783
10170SOL     OW31408   1.198   5.158   5.975
10170SOL    HW131409   1.201   5.085   6.043
10170SOL    HW231410   1.133   5.228   6.005
10171SOL     OW31411   6.774   3.017   5.738
10171SOL    HW131412   6.808   3.054   5.825
10171SOL    HW231413   6.814   3.070   5.663
10172SOL     OW31414   6.551   6.536   4.478
10172SOL    HW131415   6.519   6.630   4.489
10172SOL    HW231416   6.651   6.534   4.479
10173SOL     OW31417   0.987   2.425   0.939
10173SOL    HW131418   1.072   2.456   0.982
10173SOL    HW231419   0.909   2.470   0.983
10174SOL     OW31420   5.620   5.341   2.177
10174SOL    HW131421   5.648   5.251   2.208
10174SOL    HW231422   5.699   5.390   2.140
10175SOL     OW31423   5.415   2.153   4.342
10175SOL    HW131424   5.380   2.110   4.425
10175SOL    HW231425   5.489   2.097   4.304
10176SOL     OW31426   1.001   3.407   5.948
10176SOL    HW131427   1.078   3.454   5.991
10176SOL    HW231428   0.981   3.450   5.860
10177SOL     OW31429   2.421   0.607   0.175
10177SOL    HW131430   2.409   0.698   0.214
10177SOL    HW231431   2.332   0.571   0.146
10178SOL     OW31432   6.909   0.751   5.556
10178SOL    HW131433   6.941   0.829   5.502
10178SOL    HW231434   6.955   0.751   5.645
10179SOL     OW31435   1.078   1.780   6.396
10179SOL    HW131436   1.037   1.797   6.306
10179SOL    HW231437   1.029   1.705   6.440
10180SOL     OW31438   4.029   0.196   6.451
10180SOL    HW131439   4.102   0.247   6.497
10180SOL    HW231440   4.050   0.098   6.455
10181SOL     OW31441   5.332   2.639   1.946
10181SOL    HW131442   5.407   2.705   1.952
10181SOL    HW231443   5.263   2.673   1.882
10182SOL     OW31444   4.037   0.988   1.406
10182SOL    HW131445   4.012   0.985   1.503
10182SOL    HW231446   4.060   0.896   1.375
10183SOL     OW31447   6.846   2.230   6.764
10183SOL    HW131448   6.786   2.302   6.729
10183SOL    HW231449   6.924   2.219   6.703
10184SOL     OW31450   3.854   0.772   6.622
10184SOL    HW131451   3.795   0.763   6.702
10184SOL    HW231452   3.920   0.697   6.621
10185SOL     OW31453   5.924   6.015   1.846
10185SOL    HW131454   5.959   6.087   1.905
10185SOL    HW231455   5.994   5.989   1.779
10186SOL     OW31456   6.077   4.091   3.673
10186SOL    HW131457   6.159   4.044   3.642
10186SOL    HW231458   6.096   4.189   3.682
10187SOL     OW31459   0.263   3.366   0.560
10187SOL    HW131460   0.276   3.459   0.528
10187SOL    HW231461   0.327   3.305   0.514
10188SOL     OW31462   3.597   5.517   0.720
10188SOL    HW131463   3.619   5.602   0.769
10188SOL    HW231464   3.619   5.527   0.623
10189SOL     OW31465   0.880   0.882   6.333
10189SOL    HW131466   0.814   0.863   6.405
10189SOL    HW231467   0.889   0.802   6.273
10190SOL     OW31468   4.911   3.128   1.891
10190SOL    HW131469   4.831   3.073   1.916
10190SOL    HW231470   4.925   3.122   1.792
10191SOL     OW31471   5.471   5.148   5.005
10191SOL    HW131472   5.533   5.071   4.991
10191SOL    HW231473   5.443   5.185   4.916
10192SOL     OW31474   4.327   1.131   5.775
10192SOL    HW131475   4.309   1.102   5.869
10192SOL    HW231476   4.413   1.183   5.772
10193SOL     OW31477   4.183   3.371   2.037
10193SOL    HW131478   4.097   3.356   2.085
10193SOL    HW231479   4.260   3.359   2.101
10194SOL     OW31480   5.481   5.599   5.066
10194SOL    HW131481   5.561   5.656   5.084
10194SOL    HW231482   5.487   5.515   5.119
10195SOL     OW31483   6.349   5.439   0.849
10195SOL    HW131484   6.259   5.471   0.821
10195SOL    HW231485   6.390   5.507   0.911
10196SOL     OW31486   4.592   1.719   4.177
10196SOL    HW131487   4.650   1.800   4.186
10196SOL    HW231488   4.517   1.724   4.243
10197SOL     OW31489   6.206   1.937   5.569
10197SOL    HW131490   6.222   1.987   5.654
10197SOL    HW231491   6.230   1.995   5.491
10198SOL     OW31492   2.856   0.030   2.347
10198SOL    HW131493   2.923   0.076   2.405
10198SOL    HW231494   2.895   6.968   2.312
10199SOL     OW31495   2.408   2.326   0.099
10199SOL    HW131496   2.469   2.281   0.164
10199SOL    HW231497   2.424   2.425   0.102
10200SOL     OW31498   5.004   1.900   0.431
10200SOL    HW131499   5.100   1.905   0.402
10200SOL    HW231500   4.964   1.814   0.399
10201SOL     OW31501   1.724   4.349   0.804
10201SOL    HW131502   1.819   4.321   0.790
10201SOL    HW231503   1.697   4.412   0.731
10202SOL     OW31504   3.554   3.445   0.516
10202SOL    HW131505   3.457   3.468   0.529
10202SOL    HW231506   3.603   3.527   0.485
10203SOL     OW31507   6.113   3.271   3.637
10203SOL    HW131508   6.188   3.319   3.592
10203SOL    HW231509   6.146   3.226   3.719
10204SOL     OW31510   4.857   6.366   0.018
10204SOL    HW131511   4.766   6.328   0.032
10204SOL    HW231512   4.926   6.304   0.056
10205SOL     OW31513   1.827   0.958   1.507
10205SOL    HW131514   1.805   0.862   1.525
10205SOL    HW231515   1.918   0.980   1.542
10206SOL     OW31516   0.287   0.887   0.300
10206SOL    HW131517   0.347   0.814   0.268
10206SOL    HW231518   0.301   0.969   0.244
10207SOL     OW31519   1.360   1.669   6.910
10207SOL    HW131520   1.399   1.758   6.888
10207SOL    HW231521   1.375   1.648   7.006
10208SOL     OW31522   5.735   4.213   3.725
10208SOL    HW131523   5.638   4.188   3.734
10208SOL    HW231524   5.783   4.141   3.674
10209SOL     OW31525   0.293   0.028   6.850
10209SOL    HW131526   0.311   6.969   6.905
10209SOL    HW231527   0.379   0.074   6.830
10210SOL     OW31528   4.644   6.171   2.002
10210SOL    HW131529   4.651   6.102   1.930
10210SOL    HW231530   4.547   6.191   2.020
10211SOL     OW31531   4.105   6.490   4.625
10211SOL    HW131532   4.177   6.422   4.614
10211SOL    HW231533   4.036   6.456   4.688
10212SOL     OW31534   0.778   0.272   5.346
10212SOL    HW131535   0.858   0.216   5.367
10212SOL    HW231536   0.758   0.332   5.423
10213SOL     OW31537   5.408   3.261   0.871
10213SOL    HW131538   5.329   3.315   0.899
10213SOL    HW231539   5.412   3.177   0.925
10214SOL     OW31540   1.810   1.749   2.258
10214SOL    HW131541   1.728   1.693   2.277
10214SOL    HW231542   1.892   1.695   2.277
10215SOL     OW31543   4.139   3.374   3.397
10215SOL    HW131544   4.092   3.457   3.428
10215SOL    HW231545   4.164   3.385   3.301
10216SOL     OW31546   0.211   1.073   0.929
10216SOL    HW131547   0.220   1.046   1.025
10216SOL    HW231548   0.154   1.006   0.881
10217SOL     OW31549   3.230   1.802   3.259
10217SOL    HW131550   3.310   1.806   3.320
10217SOL    HW231551   3.256   1.838   3.170
10218SOL     OW31552   1.728   1.452   1.683
10218SOL    HW131553   1.663   1.378   1.699
10218SOL    HW231554   1.678   1.535   1.657
10219SOL     OW31555   0.046   2.421   2.810
10219SOL    HW131556   6.992   2.387   2.865
10219SOL    HW231557   0.022   2.416   2.713
10220SOL     OW31558   4.443   2.089   0.917
10220SOL    HW131559   4.532   2.125   0.945
10220SOL    HW231560   4.431   1.998   0.954
10221SOL     OW31561   0.589   4.996   2.747
10221SOL    HW131562   0.685   5.021   2.762
10221SOL    HW231563   0.538   5.002   2.833
10222SOL     OW31564   2.957   3.408   6.067
10222SOL    HW131565   2.885   3.387   6.001
10222SOL    HW231566   3.020   3.331   6.073
10223SOL     OW31567   0.607   4.920   1.393
10223SOL    HW131568   0.699   4.883   1.398
10223SOL    HW231569   0.608   5.016   1.423
10224SOL     OW31570   6.667   3.582   4.167
10224SOL    HW131571   6.647   3.677   4.143
10224SOL    HW231572   6.586   3.526   4.154
10225SOL     OW31573   1.587   4.769   5.625
10225SOL    HW131574   1.669   4.804   5.669
10225SOL    HW231575   1.516   4.755   5.694
10226SOL     OW31576   2.824   0.389   6.678
10226SOL    HW131577   2.909   0.440   6.687
10226SOL    HW231578   2.842   0.303   6.629
10227SOL     OW31579   5.195   4.540   0.898
10227SOL    HW131580   5.211   4.623   0.845
10227SOL    HW231581   5.254   4.466   0.863
10228SOL     OW31582   0.392   0.037   1.735
10228SOL    HW131583   0.468   0.059   1.796
10228SOL    HW231584   0.307   0.075   1.772
10229SOL     OW31585   0.888   2.828   4.537
10229SOL    HW131586   0.834   2.764   4.483
10229SOL    HW231587   0.865   2.922   4.512
10230SOL     OW31588   5.674   5.777   2.996
10230SOL    HW131589   5.577   5.759   2.980
10230SOL    HW231590   5.716   5.812   2.913
10231SOL     OW31591   0.177   5.577   5.347
10231SOL    HW131592   0.096   5.519   5.357
10231SOL    HW231593   0.232   5.544   5.270
10232SOL     OW31594   2.662   1.274   3.701
10232SOL    HW131595   2.759   1.259   3.716
10232SOL    HW231596   2.610   1.222   3.769
10233SOL     OW31597   3.988   3.933   4.981
10233SOL    HW131598   3.902   3.891   4.953
10233SOL    HW231599   3.976   4.032   4.986
10234SOL     OW31600   6.319   1.330   1.302
10234SOL    HW131601   6.237   1.353   1.355
10234SOL    HW231602   6.394   1.390   1.330
10235SOL     OW31603   1.757   2.712   2.093
10235SOL    HW131604   1.779   2.732   1.998
10235SOL    HW231605   1.660   2.690   2.102
10236SOL     OW31606   2.747   0.082   0.222
10236SOL    HW131607   2.840   0.086   0.185
10236SOL    HW231608   2.729   7.014   0.258
10237SOL     OW31609   0.238   2.919   6.870
10237SOL    HW131610   0.216   2.875   6.957
10237SOL    HW231611   0.332   2.954   6.873
10238SOL     OW31612   4.177   4.081   1.463
10238SOL    HW131613   4.226   4.074   1.550
10238SOL    HW231614   4.088   4.036   1.470
10239SOL     OW31615   1.138   2.806   4.424
10239SOL    HW131616   1.165   2.710   4.416
10239SOL    HW231617   1.051   2.812   4.472
10240SOL     OW31618   2.005   5.667   2.240
10240SOL    HW131619   1.960   5.687   2.153
10240SOL    HW231620   2.009   5.568   2.253
10241SOL     OW31621   5.554   0.618   2.343
10241SOL    HW131622   5.598   0.534   2.312
10241SOL    HW231623   5.623   0.687   2.363
10242SOL     OW31624   6.569   1.536   1.047
10242SOL    HW131625   6.542   1.464   1.112
10242SOL    HW231626   6.506   1.535   0.970
10243SOL     OW31627   2.427   4.279   1.878
10243SOL    HW131628   2.501   4.340   1.851
10243SOL    HW231629   2.430   4.196   1.821
10244SOL     OW31630   2.275   3.851   0.673
10244SOL    HW131631   2.291   3.950   0.668
10244SOL    HW231632   2.345   3.803   0.620
10245SOL     OW31633   3.694   3.557   1.160
10245SOL    HW131634   3.599   3.570   1.133
10245SOL    HW231635   3.697   3.500   1.242
10246SOL     OW31636   3.286   4.092   4.152
10246SOL    HW131637   3.281   4.103   4.251
10246SOL    HW231638   3.382   4.080   4.124
10247SOL     OW31639   6.938   4.160   6.190
10247SOL    HW131640   6.972   4.076   6.148
10247SOL    HW231641   6.849   4.143   6.232
10248SOL     OW31642   1.191   6.790   2.871
10248SOL    HW131643   1.185   6.826   2.778
10248SOL    HW231644   1.165   6.861   2.937
10249SOL     OW31645   3.342   5.988   6.660
10249SOL    HW131646   3.280   5.911   6.650
10249SOL    HW231647   3.390   6.003   6.574
10250SOL     OW31648   6.589   3.530   1.397
10250SOL    HW131649   6.667   3.585   1.430
10250SOL    HW231650   6.568   3.557   1.303
10251SOL     OW31651   2.316   1.488   4.344
10251SOL    HW131652   2.342   1.398   4.307
10251SOL    HW231653   2.239   1.524   4.291
10252SOL     OW31654   3.872   3.600   6.161
10252SOL    HW131655   3.955   3.647   6.192
10252SOL    HW231656   3.868   3.509   6.202
10253SOL     OW31657   2.857   6.437   0.619
10253SOL    HW131658   2.796   6.488   0.558
10253SOL    HW231659   2.951   6.446   0.586
10254SOL     OW31660   4.646   1.640   5.210
10254SOL    HW131661   4.600   1.616   5.296
10254SOL    HW231662   4.583   1.690   5.151
10255SOL     OW31663   2.587   6.938   0.968
10255SOL    HW131664   2.554   7.007   0.903
10255SOL    HW231665   2.551   6.849   0.943
10256SOL     OW31666   3.959   1.269   2.598
10256SOL    HW131667   4.049   1.278   2.640
10256SOL    HW231668   3.966   1.290   2.500
10257SOL     OW31669   1.661   5.670   3.834
10257SOL    HW131670   1.595   5.723   3.781
10257SOL    HW231671   1.654   5.573   3.808
10258SOL     OW31672   3.762   2.105   2.867
10258SOL    HW131673   3.701   2.119   2.790
10258SOL    HW231674   3.856   2.119   2.839
10259SOL     OW31675   0.604   4.255   3.561
10259SOL    HW131676   0.615   4.159   3.534
10259SOL    HW231677   0.661   4.273   3.641
10260SOL     OW31678   0.492   1.575   3.222
10260SOL    HW131679   0.445   1.508   3.164
10260SOL    HW231680   0.429   1.650   3.242
10261SOL     OW31681   6.840   5.011   0.619
10261SOL    HW131682   6.763   5.032   0.679
10261SOL    HW231683   6.834   4.916   0.589
10262SOL     OW31684   3.257   6.261   6.623
10262SOL    HW131685   3.283   6.280   6.528
10262SOL    HW231686   3.257   6.162   6.639
10263SOL     OW31687   5.687   0.123   0.557
10263SOL    HW131688   5.605   0.145   0.611
10263SOL    HW231689   5.766   0.117   0.617
10264SOL     OW31690   6.719   6.069   6.585
10264SOL    HW131691   6.656   5.991   6.591
10264SOL    HW231692   6.766   6.080   6.673
10265SOL     OW31693   3.815   2.539   0.094
10265SOL    HW131694   3.783   2.554   0.001
10265SOL    HW231695   3.774   2.608   0.155
10266SOL     OW31696   3.781   3.023   3.535
10266SOL    HW131697   3.792   2.987   3.442
10266SOL    HW231698   3.867   3.062   3.566
10267SOL     OW31699   5.126   1.292   0.605
10267SOL    HW131700   5.104   1.229   0.680
10267SOL    HW231701   5.209   1.343   0.628
10268SOL     OW31702   6.158   6.399   2.234
10268SOL    HW131703   6.234   6.450   2.194
10268SOL    HW231704   6.083   6.461   2.254
10269SOL     OW31705   0.537   3.165   5.699
10269SOL    HW131706   0.624   3.128   5.733
10269SOL    HW231707   0.508   3.241   5.757
10270SOL     OW31708   3.135   5.123   2.690
10270SOL    HW131709   3.143   5.222   2.681
10270SOL    HW231710   3.039   5.096   2.679
10271SOL     OW31711   3.798   2.218   0.468
10271SOL    HW131712   3.832   2.211   0.375
10271SOL    HW231713   3.834   2.301   0.511
10272SOL     OW31714   0.782   0.956   4.659
10272SOL    HW131715   0.847   1.032   4.664
10272SOL    HW231716   0.695   0.988   4.621
10273SOL     OW31717   3.429   5.594   3.412
10273SOL    HW131718   3.375   5.588   3.329
10273SOL    HW231719   3.526   5.602   3.388
10274SOL     OW31720   1.017   4.980   5.751
10274SOL    HW131721   1.104   4.931   5.746
10274SOL    HW231722   1.026   5.058   5.812
10275SOL     OW31723   0.097   0.644   2.435
10275SOL    HW131724   0.119   0.648   2.338
10275SOL    HW231725   0.176   0.675   2.488
10276SOL     OW31726   5.146   6.125   5.423
10276SOL    HW131727   5.093   6.090   5.501
10276SOL    HW231728   5.167   6.049   5.361
10277SOL     OW31729   1.768   6.454   4.897
10277SOL    HW131730   1.824   6.377   4.927
10277SOL    HW231731   1.822   6.515   4.839
10278SOL     OW31732   1.354   1.498   3.513
10278SOL    HW131733   1.368   1.543   3.601
10278SOL    HW231734   1.368   1.565   3.439
10279SOL     OW31735   1.614   5.122   4.489
10279SOL    HW131736   1.520   5.137   4.518
10279SOL    HW231737   1.635   5.024   4.493
10280SOL     OW31738   6.406   2.824   6.191
10280SOL    HW131739   6.330   2.846   6.252
10280SOL    HW231740   6.477   2.893   6.200
10281SOL     OW31741   5.925   1.791   4.127
10281SOL    HW131742   5.957   1.869   4.073
10281SOL    HW231743   6.002   1.753   4.179
10282SOL     OW31744   5.211   3.460   3.767
10282SOL    HW131745   5.278   3.484   3.697
10282SOL    HW231746   5.244   3.487   3.857
10283SOL     OW31747   1.579   3.388   1.030
10283SOL    HW131748   1.605   3.295   1.059
10283SOL    HW231749   1.569   3.390   0.930
10284SOL     OW31750   5.551   1.769   5.241
10284SOL    HW131751   5.492   1.692   5.219
10284SOL    HW231752   5.603   1.749   5.324
10285SOL     OW31753   4.637   6.437   3.134
10285SOL    HW131754   4.562   6.397   3.188
10285SOL    HW231755   4.670   6.519   3.180
10286SOL     OW31756   4.267   0.586   3.997
10286SOL    HW131757   4.215   0.670   4.014
10286SOL    HW231758   4.231   0.541   3.915
10287SOL     OW31759   2.862   5.481   1.803
10287SOL    HW131760   2.929   5.551   1.829
10287SOL    HW231761   2.786   5.523   1.755
10288SOL     OW31762   4.433   6.323   3.262
10288SOL    HW131763   4.411   6.228   3.285
10288SOL    HW231764   4.349   6.377   3.264
10289SOL     OW31765   3.122   6.472   0.512
10289SOL    HW131766   3.196   6.410   0.535
10289SOL    HW231767   3.153   6.539   0.445
10290SOL     OW31768   3.022   3.376   2.693
10290SOL    HW131769   3.021   3.333   2.783
10290SOL    HW231770   2.956   3.451   2.690
10291SOL     OW31771   3.769   1.811   2.979
10291SOL    HW131772   3.766   1.874   2.901
10291SOL    HW231773   3.856   1.762   2.979
10292SOL     OW31774   0.867   2.253   5.106
10292SOL    HW131775   0.957   2.215   5.126
10292SOL    HW231776   0.808   2.182   5.067
10293SOL     OW31777   0.955   3.162   2.678
10293SOL    HW131778   0.940   3.063   2.686
10293SOL    HW231779   0.889   3.210   2.736
10294SOL     OW31780   4.473   1.427   3.275
10294SOL    HW131781   4.403   1.462   3.212
10294SOL    HW231782   4.430   1.399   3.361
10295SOL     OW31783   0.894   2.769   5.750
10295SOL    HW131784   0.847   2.714   5.680
10295SOL    HW231785   0.984   2.795   5.715
10296SOL     OW31786   5.242   1.282   6.159
10296SOL    HW131787   5.302   1.213   6.198
10296SOL    HW231788   5.254   1.368   6.209
10297SOL     OW31789   1.749   1.004   6.291
10297SOL    HW131790   1.695   0.993   6.374
10297SOL    HW231791   1.759   1.102   6.271
10298SOL     OW31792   2.602   4.521   0.850
10298SOL    HW131793   2.545   4.439   0.852
10298SOL    HW231794   2.693   4.497   0.814
10299SOL     OW31795   3.813   4.882   2.892
10299SOL    HW131796   3.730   4.857   2.842
10299SOL    HW231797   3.891   4.884   2.829
10300SOL     OW31798   1.185   4.239   1.751
10300SOL    HW131799   1.172   4.335   1.729
10300SOL    HW231800   1.262   4.228   1.813
10301SOL     OW31801   4.500   1.892   5.111
10301SOL    HW131802   4.422   1.942   5.148
10301SOL    HW231803   4.472   1.844   5.028
10302SOL     OW31804   2.613   6.269   4.590
10302SOL    HW131805   2.593   6.216   4.508
10302SOL    HW231806   2.586   6.364   4.575
10303SOL     OW31807   1.354   6.176   3.899
10303SOL    HW131808   1.384   6.130   3.815
10303SOL    HW231809   1.259   6.206   3.889
10304SOL     OW31810   5.923   0.357   1.498
10304SOL    HW131811   5.931   0.456   1.488
10304SOL    HW231812   5.950   0.331   1.591
10305SOL     OW31813   1.745   3.911   5.946
10305SOL    HW131814   1.709   3.985   5.890
10305SOL    HW231815   1.733   3.933   6.043
10306SOL     OW31816   5.277   5.702   0.266
10306SOL    HW131817   5.243   5.705   0.172
10306SOL    HW231818   5.338   5.780   0.281
10307SOL     OW31819   3.175   1.856   5.319
10307SOL    HW131820   3.151   1.761   5.302
10307SOL    HW231821   3.101   1.915   5.285
10308SOL     OW31822   2.207   3.917   2.824
10308SOL    HW131823   2.258   3.973   2.759
10308SOL    HW231824   2.204   3.963   2.913
10309SOL     OW31825   0.398   2.129   0.203
10309SOL    HW131826   0.379   2.192   0.278
10309SOL    HW231827   0.485   2.153   0.159
10310SOL     OW31828   3.071   3.837   0.425
10310SOL    HW131829   3.069   3.861   0.522
10310SOL    HW231830   3.166   3.826   0.395
10311SOL     OW31831   6.872   5.505   0.454
10311SOL    HW131832   6.893   5.425   0.398
10311SOL    HW231833   6.827   5.476   0.539
10312SOL     OW31834   4.040   6.512   2.585
10312SOL    HW131835   4.116   6.571   2.557
10312SOL    HW231836   4.021   6.525   2.682
10313SOL     OW31837   4.047   5.784   2.089
10313SOL    HW131838   4.061   5.847   2.165
10313SOL    HW231839   3.970   5.723   2.110
10314SOL     OW31840   6.662   0.661   0.799
10314SOL    HW131841   6.621   0.636   0.886
10314SOL    HW231842   6.611   0.618   0.724
10315SOL     OW31843   5.716   6.028   4.615
10315SOL    HW131844   5.682   6.112   4.574
10315SOL    HW231845   5.802   6.047   4.663
10316SOL     OW31846   6.376   2.450   5.741
10316SOL    HW131847   6.446   2.451   5.812
10316SOL    HW231848   6.391   2.526   5.678
10317SOL     OW31849   4.158   5.745   6.568
10317SOL    HW131850   4.215   5.827   6.561
10317SOL    HW231851   4.212   5.664   6.544
10318SOL     OW31852   4.634   0.382   6.623
10318SOL    HW131853   4.646   0.414   6.529
10318SOL    HW231854   4.623   0.460   6.684
10319SOL     OW31855   0.593   3.570   5.562
10319SOL    HW131856   0.530   3.545   5.635
10319SOL    HW231857   0.570   3.519   5.479
10320SOL     OW31858   0.931   6.630   2.541
10320SOL    HW131859   0.882   6.550   2.508
10320SOL    HW231860   0.867   6.705   2.556
10321SOL     OW31861   5.175   2.096   1.826
10321SOL    HW131862   5.195   2.000   1.845
10321SOL    HW231863   5.079   2.104   1.798
10322SOL     OW31864   5.108   5.335   4.912
10322SOL    HW131865   5.087   5.419   4.862
10322SOL    HW231866   5.139   5.358   5.004
10323SOL     OW31867   5.975   4.566   5.475
10323SOL    HW131868   5.980   4.513   5.560
10323SOL    HW231869   5.961   4.504   5.398
10324SOL     OW31870   3.219   2.942   2.223
10324SOL    HW131871   3.155   2.983   2.158
10324SOL    HW231872   3.197   2.975   2.315
10325SOL     OW31873   6.220   4.578   1.840
10325SOL    HW131874   6.208   4.479   1.833
10325SOL    HW231875   6.293   4.607   1.777
10326SOL     OW31876   4.709   4.633   6.311
10326SOL    HW131877   4.708   4.535   6.333
10326SOL    HW231878   4.616   4.662   6.285
10327SOL     OW31879   2.646   2.256   0.642
10327SOL    HW131880   2.563   2.205   0.664
10327SOL    HW231881   2.630   2.310   0.559
10328SOL     OW31882   6.587   2.550   0.530
10328SOL    HW131883   6.636   2.469   0.564
10328SOL    HW231884   6.537   2.526   0.447
10329SOL     OW31885   2.712   0.910   3.751
10329SOL    HW131886   2.722   0.894   3.849
10329SOL    HW231887   2.618   0.890   3.723
10330SOL     OW31888   3.972   1.031   2.281
10330SOL    HW131889   4.046   1.026   2.214
10330SOL    HW231890   4.004   0.995   2.369
10331SOL     OW31891   6.632   6.764   6.362
10331SOL    HW131892   6.550   6.720   6.324
10331SOL    HW231893   6.625   6.863   6.352
10332SOL     OW31894   0.052   0.425   0.920
10332SOL    HW131895   0.016   0.504   0.871
10332SOL    HW231896   7.003   0.355   0.929
10333SOL     OW31897   0.342   4.587   5.337
10333SOL    HW131898   0.414   4.518   5.329
10333SOL    HW231899   0.309   4.612   5.245
10334SOL     OW31900   3.432   0.668   5.038
10334SOL    HW131901   3.452   0.750   4.985
10334SOL    HW231902   3.516   0.617   5.056
10335SOL     OW31903   2.741   4.175   6.683
10335SOL    HW131904   2.697   4.263   6.661
10335SOL    HW231905   2.700   4.136   6.765
10336SOL     OW31906   6.543   0.169   1.827
10336SOL    HW131907   6.469   0.211   1.879
10336SOL    HW231908   6.627   0.169   1.881
10337SOL     OW31909   0.076   6.035   6.352
10337SOL    HW131910   0.139   6.017   6.428
10337SOL    HW231911   0.113   6.110   6.296
10338SOL     OW31912   2.182   6.609   2.234
10338SOL    HW131913   2.182   6.682   2.303
10338SOL    HW231914   2.202   6.648   2.144
10339SOL     OW31915   4.646   4.054   6.501
10339SOL    HW131916   4.582   4.051   6.424
10339SOL    HW231917   4.668   4.150   6.522
10340SOL     OW31918   1.270   3.545   0.564
10340SOL    HW131919   1.338   3.615   0.543
10340SOL    HW231920   1.215   3.575   0.642
10341SOL     OW31921   2.052   3.204   2.323
10341SOL    HW131922   2.049   3.244   2.231
10341SOL    HW231923   2.121   3.132   2.326
10342SOL     OW31924   1.542   0.008   4.271
10342SOL    HW131925   1.557   6.937   4.300
10342SOL    HW231926   1.453   0.016   4.225
10343SOL     OW31927   3.208   5.396   6.633
10343SOL    HW131928   3.302   5.399   6.599
10343SOL    HW231929   3.207   5.360   6.726
10344SOL     OW31930   4.188   3.278   0.540
10344SOL    HW131931   4.244   3.248   0.617
10344SOL    HW231932   4.179   3.204   0.474
10345SOL     OW31933   1.826   1.433   6.083
10345SOL    HW131934   1.742   1.424   6.028
10345SOL    HW231935   1.827   1.522   6.128
10346SOL     OW31936   0.553   5.379   1.504
10346SOL    HW131937   0.459   5.412   1.502
10346SOL    HW231938   0.609   5.440   1.560
10347SOL     OW31939   3.885   1.628   3.249
10347SOL    HW131940   3.956   1.687   3.286
10347SOL    HW231941   3.875   1.546   3.305
10348SOL     OW31942   6.621   2.203   6.994
10348SOL    HW131943   6.557   2.277   6.977
10348SOL    HW231944   6.714   2.240   7.000
10349SOL     OW31945   1.259   0.736   0.177
10349SOL    HW131946   1.215   0.716   0.265
10349SOL    HW231947   1.189   0.757   0.109
10350SOL     OW31948   2.742   5.996   4.869
10350SOL    HW131949   2.700   6.020   4.956
10350SOL    HW231950   2.824   6.051   4.855
10351SOL     OW31951   4.092   4.932   6.538
10351SOL    HW131952   4.143   4.848   6.522
10351SOL    HW231953   4.006   4.930   6.486
10352SOL     OW31954   3.479   1.275   6.498
10352SOL    HW131955   3.529   1.209   6.442
10352SOL    HW231956   3.414   1.325   6.440
10353SOL     OW31957   6.843   3.164   5.505
10353SOL    HW131958   6.936   3.141   5.477
10353SOL    HW231959   6.787   3.180   5.423
10354SOL     OW31960   5.421   2.707   2.793
10354SOL    HW131961   5.405   2.662   2.705
10354SOL    HW231962   5.350   2.776   2.808
10355SOL     OW31963   2.708   6.588   2.004
10355SOL    HW131964   2.716   6.653   2.080
10355SOL    HW231965   2.616   6.549   2.003
10356SOL     OW31966   0.700   4.882   4.871
10356SOL    HW131967   0.775   4.909   4.811
10356SOL    HW231968   0.617   4.871   4.818
10357SOL     OW31969   1.407   2.881   6.546
10357SOL    HW131970   1.424   2.796   6.496
10357SOL    HW231971   1.482   2.946   6.529
10358SOL     OW31972   6.756   3.455   3.244
10358SOL    HW131973   6.824   3.477   3.175
10358SOL    HW231974   6.666   3.446   3.200
10359SOL     OW31975   0.788   2.057   0.693
10359SOL    HW131976   0.798   2.021   0.601
10359SOL    HW231977   0.692   2.079   0.710
10360SOL     OW31978   4.594   4.389   3.299
10360SOL    HW131979   4.681   4.426   3.332
10360SOL    HW231980   4.599   4.379   3.200
10361SOL     OW31981   2.765   6.165   3.419
10361SOL    HW131982   2.706   6.182   3.341
10361SOL    HW231983   2.861   6.170   3.390
10362SOL     OW31984   0.588   5.174   4.942
10362SOL    HW131985   0.632   5.086   4.963
10362SOL    HW231986   0.630   5.214   4.861
10363SOL     OW31987   4.530   1.329   1.833
10363SOL    HW131988   4.516   1.342   1.735
10363SOL    HW231989   4.624   1.352   1.857
10364SOL     OW31990   3.319   2.728   1.251
10364SOL    HW131991   3.264   2.728   1.335
10364SOL    HW231992   3.352   2.820   1.233
10365SOL     OW31993   3.888   4.953   6.303
10365SOL    HW131994   3.843   4.943   6.214
10365SOL    HW231995   3.832   4.909   6.374
10366SOL     OW31996   2.704   0.427   4.405
10366SOL    HW131997   2.612   0.463   4.416
10366SOL    HW231998   2.699   0.330   4.378
10367SOL     OW31999   6.368   2.379   2.652
10367SOL    HW132000   6.270   2.363   2.638
10367SOL    HW232001   6.384   2.476   2.667
10368SOL     OW32002   2.016   2.053   1.661
10368SOL    HW132003   1.916   2.043   1.655
10368SOL    HW232004   2.052   1.987   1.726
10369SOL     OW32005   4.180   0.635   5.595
10369SOL    HW132006   4.090   0.653   5.634
10369SOL    HW232007   4.242   0.710   5.618
10370SOL     OW32008   5.106   1.622   5.362
10370SOL    HW132009   5.066   1.712   5.349
10370SOL    HW232010   5.193   1.616   5.314
10371SOL     OW32011   3.330   5.557   5.043
10371SOL    HW132012   3.253   5.495   5.029
10371SOL    HW232013   3.297   5.643   5.083
10372SOL     OW32014   1.556   1.336   5.941
10372SOL    HW132015   1.627   1.382   5.887
10372SOL    HW232016   1.467   1.350   5.899
10373SOL     OW32017   2.033   6.529   4.867
10373SOL    HW132018   2.040   6.432   4.844
10373SOL    HW232019   2.101   6.551   4.937
10374SOL     OW32020   3.700   1.247   2.702
10374SOL    HW132021   3.794   1.243   2.669
10374SOL    HW232022   3.695   1.309   2.780
10375SOL     OW32023   4.292   2.007   6.791
10375SOL    HW132024   4.289   2.001   6.691
10375SOL    HW232025   4.380   1.972   6.824
10376SOL     OW32026   0.828   6.262   3.885
10376SOL    HW132027   0.808   6.343   3.940
10376SOL    HW232028   0.766   6.258   3.807
10377SOL     OW32029   6.588   0.722   4.014
10377SOL    HW132030   6.566   0.807   3.966
10377SOL    HW232031   6.557   0.644   3.960
10378SOL     OW32032   6.732   1.036   5.911
10378SOL    HW132033   6.711   0.961   5.849
10378SOL    HW232034   6.812   1.012   5.966
10379SOL     OW32035   4.012   0.465   4.895
10379SOL    HW132036   4.038   0.410   4.816
10379SOL    HW232037   3.974   0.552   4.864
10380SOL     OW32038   6.205   1.351   3.121
10380SOL    HW132039   6.302   1.334   3.103
10380SOL    HW232040   6.182   1.445   3.096
10381SOL     OW32041   4.805   5.450   6.001
10381SOL    HW132042   4.817   5.538   6.047
10381SOL    HW232043   4.878   5.388   6.029
10382SOL     OW32044   2.627   4.873   5.971
10382SOL    HW132045   2.654   4.963   5.936
10382SOL    HW232046   2.579   4.885   6.058
10383SOL     OW32047   1.064   3.373   0.746
10383SOL    HW132048   1.010   3.449   0.712
10383SOL    HW232049   1.017   3.287   0.728
10384SOL     OW32050   0.651   0.336   0.576
10384SOL    HW132051   0.644   0.417   0.634
10384SOL    HW232052   0.678   0.257   0.631
10385SOL     OW32053   5.050   0.216   6.460
10385SOL    HW132054   5.038   0.145   6.391
10385SOL    HW232055   5.131   0.270   6.439
10386SOL     OW32056   0.493   3.682   4.911
10386SOL    HW132057   0.540   3.695   4.998
10386SOL    HW232058   0.539   3.734   4.839
10387SOL     OW32059   3.816   1.829   2.667
10387SOL    HW132060   3.812   1.730   2.652
10387SOL    HW232061   3.746   1.856   2.733
10388SOL     OW32062   0.877   5.707   3.488
10388SOL    HW132063   0.778   5.701   3.479
10388SOL    HW232064   0.916   5.615   3.487
10389SOL     OW32065   0.569   5.937   2.306
10389SOL    HW132066   0.608   6.028   2.320
10389SOL    HW232067   0.471   5.946   2.286
10390SOL     OW32068   1.487   3.614   2.201
10390SOL    HW132069   1.560   3.570   2.254
10390SOL    HW232070   1.512   3.614   2.104
10391SOL     OW32071   1.224   5.808   5.678
10391SOL    HW132072   1.168   5.726   5.692
10391SOL    HW232073   1.320   5.786   5.695
10392SOL     OW32074   6.561   4.076   0.535
10392SOL    HW132075   6.500   3.997   0.533
10392SOL    HW232076   6.656   4.044   0.537
10393SOL     OW32077   0.932   1.752   3.063
10393SOL    HW132078   0.877   1.776   2.983
10393SOL    HW232079   0.871   1.733   3.140
10394SOL     OW32080   2.874   6.749   6.051
10394SOL    HW132081   2.876   6.849   6.056
10394SOL    HW232082   2.856   6.712   6.142
10395SOL     OW32083   6.604   0.866   4.713
10395SOL    HW132084   6.578   0.959   4.738
10395SOL    HW232085   6.531   0.825   4.659
10396SOL     OW32086   1.154   0.991   3.483
10396SOL    HW132087   1.227   1.041   3.530
10396SOL    HW232088   1.076   0.981   3.545
10397SOL     OW32089   3.686   1.438   3.944
10397SOL    HW132090   3.664   1.505   3.874
10397SOL    HW232091   3.723   1.355   3.901
10398SOL     OW32092   6.233   2.431   0.175
10398SOL    HW132093   6.261   2.527   0.174
10398SOL    HW232094   6.298   2.376   0.123
10399SOL     OW32095   4.485   1.555   5.455
10399SOL    HW132096   4.547   1.487   5.494
10399SOL    HW232097   4.471   1.629   5.520
10400SOL     OW32098   3.378   5.727   2.301
10400SOL    HW132099   3.410   5.633   2.296
10400SOL    HW232100   3.367   5.764   2.209
10401SOL     OW32101   6.783   6.727   2.007
10401SOL    HW132102   6.705   6.672   1.977
10401SOL    HW232103   6.844   6.742   1.930
10402SOL     OW32104   0.469   2.654   5.675
10402SOL    HW132105   0.469   2.595   5.755
10402SOL    HW232106   0.469   2.750   5.704
10403SOL     OW32107   5.194   1.288   2.554
10403SOL    HW132108   5.217   1.240   2.469
10403SOL    HW232109   5.141   1.227   2.613
10404SOL     OW32110   0.871   6.607   3.696
10404SOL    HW132111   0.793   6.602   3.758
10404SOL    HW232112   0.849   6.560   3.611
10405SOL     OW32113   1.747   5.303   5.117
10405SOL    HW132114   1.748   5.305   5.017
10405SOL    HW232115   1.653   5.289   5.149
10406SOL     OW32116   1.573   4.376   5.058
10406SOL    HW132117   1.497   4.314   5.038
10406SOL    HW232118   1.633   4.382   4.978
10407SOL     OW32119   1.425   0.870   5.872
10407SOL    HW132120   1.393   0.814   5.795
10407SOL    HW232121   1.479   0.946   5.837
10408SOL     OW32122   4.495   6.011   2.830
10408SOL    HW132123   4.487   6.102   2.871
10408SOL    HW232124   4.585   6.001   2.788
10409SOL     OW32125   0.035   4.760   1.266
10409SOL    HW132126   0.064   4.854   1.250
10409SOL    HW232127   0.074   4.701   1.195
10410SOL     OW32128   4.969   0.729   1.451
10410SOL    HW132129   4.956   0.640   1.406
10410SOL    HW232130   4.893   0.746   1.513
10411SOL     OW32131   2.208   4.732   4.173
10411SOL    HW132132   2.275   4.676   4.223
10411SOL    HW232133   2.228   4.829   4.189
10412SOL     OW32134   0.707   1.426   6.884
10412SOL    HW132135   0.694   1.525   6.887
10412SOL    HW232136   0.794   1.405   6.841
10413SOL     OW32137   1.190   2.317   0.751
10413SOL    HW132138   1.109   2.326   0.809
10413SOL    HW232139   1.233   2.407   0.741
10414SOL     OW32140   5.207   6.063   6.562
10414SOL    HW132141   5.156   6.092   6.642
10414SOL    HW232142   5.245   6.143   6.515
10415SOL     OW32143   1.048   5.431   3.871
10415SOL    HW132144   0.955   5.419   3.836
10415SOL    HW232145   1.111   5.375   3.818
10416SOL     OW32146   6.089   1.713   5.658
10416SOL    HW132147   6.110   1.699   5.755
10416SOL    HW232148   6.116   1.805   5.630
10417SOL     OW32149   4.189   4.718   3.255
10417SOL    HW132150   4.224   4.664   3.179
10417SOL    HW232151   4.266   4.750   3.312
10418SOL     OW32152   6.811   4.075   5.933
10418SOL    HW132153   6.874   4.151   5.946
10418SOL    HW232154   6.728   4.090   5.988
10419SOL     OW32155   3.509   1.310   5.157
10419SOL    HW132156   3.547   1.222   5.184
10419SOL    HW232157   3.541   1.382   5.219
10420SOL     OW32158   6.825   3.164   2.582
10420SOL    HW132159   6.870   3.130   2.499
10420SOL    HW232160   6.819   3.091   2.649
10421SOL     OW32161   1.279   4.519   3.948
10421SOL    HW132162   1.262   4.494   3.853
10421SOL    HW232163   1.230   4.456   4.008
10422SOL     OW32164   6.527   4.259   5.376
10422SOL    HW132165   6.456   4.243   5.445
10422SOL    HW232166   6.584   4.177   5.367
10423SOL     OW32167   3.815   4.946   4.478
10423SOL    HW132168   3.847   4.938   4.572
10423SOL    HW232169   3.716   4.935   4.476
10424SOL     OW32170   3.990   1.140   0.062
10424SOL    HW132171   4.036   1.143   6.995
10424SOL    HW232172   4.057   1.159   0.134
10425SOL     OW32173   1.283   6.760   1.211
10425SOL    HW132174   1.195   6.788   1.173
10425SOL    HW232175   1.356   6.812   1.167
10426SOL     OW32176   4.971   3.165   5.596
10426SOL    HW132177   5.040   3.095   5.613
10426SOL    HW232178   4.986   3.205   5.506
10427SOL     OW32179   4.789   5.753   4.934
10427SOL    HW132180   4.732   5.678   4.900
10427SOL    HW232181   4.788   5.753   5.034
10428SOL     OW32182   1.368   1.932   3.471
10428SOL    HW132183   1.410   1.998   3.408
10428SOL    HW232184   1.351   1.846   3.423
10429SOL     OW32185   1.175   3.509   2.525
10429SOL    HW132186   1.175   3.577   2.599
10429SOL    HW232187   1.204   3.421   2.561
10430SOL     OW32188   3.743   5.974   4.284
10430SOL    HW132189   3.665   5.944   4.229
10430SOL    HW232190   3.807   5.899   4.296
10431SOL     OW32191   2.478   1.866   4.383
10431SOL    HW132192   2.422   1.795   4.427
10431SOL    HW232193   2.567   1.827   4.359
10432SOL     OW32194   0.153   0.040   4.978
10432SOL    HW132195   0.161   7.005   5.058
10432SOL    HW232196   0.061   0.032   4.940
10433SOL     OW32197   2.153   0.511   1.423
10433SOL    HW132198   2.059   0.543   1.408
10433SOL    HW232199   2.173   0.515   1.521
10434SOL     OW32200   5.103   0.444   5.542
10434SOL    HW132201   5.105   0.353   5.581
10434SOL    HW232202   5.167   0.449   5.465
10435SOL     OW32203   0.902   2.170   6.447
10435SOL    HW132204   0.966   2.100   6.478
10435SOL    HW232205   0.850   2.204   6.525
10436SOL     OW32206   0.288   4.045   5.471
10436SOL    HW132207   0.297   4.098   5.386
10436SOL    HW232208   0.258   3.952   5.449
10437SOL     OW32209   4.662   5.491   4.953
10437SOL    HW132210   4.627   5.502   4.859
10437SOL    HW232211   4.597   5.533   5.017
10438SOL     OW32212   7.019   6.436   6.206
10438SOL    HW132213   6.947   6.386   6.255
10438SOL    HW232214   0.013   6.523   6.252
10439SOL     OW32215   6.433   0.719   4.509
10439SOL    HW132216   6.380   0.798   4.478
10439SOL    HW232217   6.501   0.696   4.439
10440SOL     OW32218   0.117   1.321   6.897
10440SOL    HW132219   0.209   1.299   6.928
10440SOL    HW232220   0.077   1.389   6.958
10441SOL     OW32221   3.438   1.641   1.622
10441SOL    HW132222   3.459   1.729   1.579
10441SOL    HW232223   3.366   1.595   1.570
10442SOL     OW32224   3.012   0.891   5.240
10442SOL    HW132225   2.951   0.966   5.262
10442SOL    HW232226   3.106   0.915   5.264
10443SOL     OW32227   0.380   1.908   3.038
10443SOL    HW132228   0.338   1.988   2.995
10443SOL    HW232229   0.323   1.828   3.021
10444SOL     OW32230   3.757   4.899   3.689
10444SOL    HW132231   3.665   4.878   3.722
10444SOL    HW232232   3.762   4.881   3.591
10445SOL     OW32233   0.372   4.013   2.020
10445SOL    HW132234   0.337   3.919   2.013
10445SOL    HW232235   0.465   4.011   2.057
10446SOL     OW32236   1.635   4.006   5.340
10446SOL    HW132237   1.711   4.070   5.331
10446SOL    HW232238   1.665   3.926   5.392
10447SOL     OW32239   6.211   2.180   3.232
10447SOL    HW132240   6.306   2.149   3.226
10447SOL    HW232241   6.209   2.273   3.268
10448SOL     OW32242   2.822   0.662   3.685
10448SOL    HW132243   2.772   0.739   3.646
10448SOL    HW232244   2.802   0.580   3.632
10449SOL     OW32245   3.506   5.645   6.947
10449SOL    HW132246   3.567   5.653   0.003
10449SOL    HW232247   3.541   5.576   6.884
10450SOL     OW32248   6.007   0.107   6.320
10450SOL    HW132249   6.046   0.198   6.337
10450SOL    HW232250   6.061   0.038   6.367
10451SOL     OW32251   1.815   0.522   4.104
10451SOL    HW132252   1.804   0.570   4.017
10451SOL    HW232253   1.898   0.555   4.150
10452SOL     OW32254   6.271   2.817   3.159
10452SOL    HW132255   6.256   2.901   3.212
10452SOL    HW232256   6.307   2.841   3.069
10453SOL     OW32257   4.345   6.413   2.696
10453SOL    HW132258   4.360   6.506   2.730
10453SOL    HW232259   4.373   6.347   2.765
10454SOL     OW32260   6.716   1.429   6.869
10454SOL    HW132261   6.657   1.501   6.832
10454SOL    HW232262   6.780   1.400   6.798
10455SOL     OW32263   6.056   6.695   4.049
10455SOL    HW132264   6.108   6.614   4.073
10455SOL    HW232265   6.114   6.776   4.059
10456SOL     OW32266   6.945   5.479   0.098
10456SOL    HW132267   6.856   5.442   0.126
10456SOL    HW232268   6.942   5.502   0.000
10457SOL     OW32269   4.298   3.372   6.906
10457SOL    HW132270   4.227   3.319   6.952
10457SOL    HW232271   4.261   3.461   6.880
10458SOL     OW32272   6.760   0.346   6.018
10458SOL    HW132273   6.716   0.261   5.988
10458SOL    HW232274   6.810   0.330   6.103
10459SOL     OW32275   6.965   5.257   0.737
10459SOL    HW132276   7.016   5.226   0.657
10459SOL    HW232277   6.952   5.180   0.800
10460SOL     OW32278   6.726   4.411   1.494
10460SOL    HW132279   6.772   4.457   1.418
10460SOL    HW232280   6.687   4.325   1.462
10461SOL     OW32281   6.287   4.744   5.333
10461SOL    HW132282   6.330   4.669   5.384
10461SOL    HW232283   6.356   4.810   5.304
10462SOL     OW32284   5.154   1.929   1.565
10462SOL    HW132285   5.131   1.879   1.649
10462SOL    HW232286   5.136   2.026   1.578
10463SOL     OW32287   4.819   1.997   6.063
10463SOL    HW132288   4.846   2.082   6.110
10463SOL    HW232289   4.722   2.000   6.042
10464SOL     OW32290   5.455   5.105   2.531
10464SOL    HW132291   5.470   5.042   2.608
10464SOL    HW232292   5.526   5.089   2.462
10465SOL     OW32293   5.578   4.359   2.592
10465SOL    HW132294   5.527   4.277   2.566
10465SOL    HW232295   5.515   4.425   2.634
10466SOL     OW32296   5.465   4.267   5.928
10466SOL    HW132297   5.376   4.311   5.911
10466SOL    HW232298   5.505   4.305   6.011
10467SOL     OW32299   1.978   2.527   6.723
10467SOL    HW132300   2.017   2.493   6.637
10467SOL    HW232301   1.960   2.625   6.716
10468SOL     OW32302   3.227   4.882   3.872
10468SOL    HW132303   3.145   4.866   3.818
10468SOL    HW232304   3.306   4.888   3.812
10469SOL     OW32305   5.252   2.782   5.724
10469SOL    HW132306   5.239   2.828   5.636
10469SOL    HW232307   5.191   2.823   5.792
10470SOL     OW32308   2.234   1.634   3.745
10470SOL    HW132309   2.316   1.684   3.772
10470SOL    HW232310   2.210   1.657   3.650
10471SOL     OW32311   2.622   1.235   6.805
10471SOL    HW132312   2.632   1.220   6.707
10471SOL    HW232313   2.604   1.332   6.822
10472SOL     OW32314   3.050   5.039   1.052
10472SOL    HW132315   3.028   5.123   1.103
10472SOL    HW232316   2.965   4.990   1.031
10473SOL     OW32317   5.414   5.642   6.449
10473SOL    HW132318   5.366   5.720   6.489
10473SOL    HW232319   5.396   5.638   6.351
10474SOL     OW32320   5.279   0.787   4.240
10474SOL    HW132321   5.319   0.772   4.330
10474SOL    HW232322   5.179   0.789   4.248
10475SOL     OW32323   2.558   6.076   1.815
10475SOL    HW132324   2.478   6.127   1.845
10475SOL    HW232325   2.641   6.131   1.827
10476SOL     OW32326   4.732   6.317   6.147
10476SOL    HW132327   4.667   6.256   6.101
10476SOL    HW232328   4.711   6.322   6.244
10477SOL     OW32329   0.272   6.232   3.909
10477SOL    HW132330   0.322   6.265   3.830
10477SOL    HW232331   0.260   6.306   3.975
10478SOL     OW32332   6.384   7.019   0.119
10478SOL    HW132333   6.414   0.089   0.097
10478SOL    HW232334   6.302   6.997   0.066
10479SOL     OW32335   6.719   3.100   2.199
10479SOL    HW132336   6.623   3.102   2.170
10479SOL    HW232337   6.731   3.025   2.265
10480SOL     OW32338   1.732   0.628   2.503
10480SOL    HW132339   1.797   0.676   2.444
10480SOL    HW232340   1.781   0.558   2.555
10481SOL     OW32341   0.727   6.647   3.177
10481SOL    HW132342   0.745   6.729   3.232
10481SOL    HW232343   0.788   6.647   3.097
10482SOL     OW32344   6.243   4.438   4.699
10482SOL    HW132345   6.216   4.534   4.687
10482SOL    HW232346   6.185   4.395   4.768
10483SOL     OW32347   5.584   5.242   0.590
10483SOL    HW132348   5.657   5.189   0.634
10483SOL    HW232349   5.500   5.188   0.589
10484SOL     OW32350   5.078   0.931   1.043
10484SOL    HW132351   4.980   0.927   1.021
10484SOL    HW232352   5.099   1.019   1.085
10485SOL     OW32353   3.783   4.359   6.634
10485SOL    HW132354   3.804   4.268   6.599
10485SOL    HW232355   3.845   4.381   6.710
10486SOL     OW32356   6.705   2.320   0.728
10486SOL    HW132357   6.613   2.305   0.695
10486SOL    HW232358   6.747   2.232   0.753
10487SOL     OW32359   5.201   6.560   2.018
10487SOL    HW132360   5.113   6.541   1.975
10487SOL    HW232361   5.192   6.552   2.118
10488SOL     OW32362   2.576   3.343   6.460
10488SOL    HW132363   2.516   3.412   6.420
10488SOL    HW232364   2.594   3.365   6.556
10489SOL     OW32365   0.420   6.903   5.864
10489SOL    HW132366   0.342   6.876   5.807
10489SOL    HW232367   0.387   6.932   5.954
10490SOL     OW32368   5.971   1.580   2.492
10490SOL    HW132369   5.980   1.679   2.483
10490SOL    HW232370   6.055   1.543   2.533
10491SOL     OW32371   1.574   3.255   6.598
10491SOL    HW132372   1.498   3.262   6.663
10491SOL    HW232373   1.581   3.341   6.547
10492SOL     OW32374   5.043   3.869   5.593
10492SOL    HW132375   5.128   3.895   5.639
10492SOL    HW232376   4.983   3.822   5.657
10493SOL     OW32377   3.368   0.518   1.577
10493SOL    HW132378   3.285   0.569   1.600
10493SOL    HW232379   3.373   0.506   1.478
10494SOL     OW32380   5.491   2.687   5.353
10494SOL    HW132381   5.543   2.765   5.389
10494SOL    HW232382   5.543   2.603   5.367
10495SOL     OW32383   1.715   7.012   0.911
10495SOL    HW132384   1.780   0.064   0.928
10495SOL    HW232385   1.645   0.020   0.846
10496SOL     OW32386   0.244   6.690   1.043
10496SOL    HW132387   0.295   6.741   0.974
10496SOL    HW232388   0.214   6.602   1.004
10497SOL     OW32389   1.847   6.875   1.377
10497SOL    HW132390   1.784   6.952   1.375
10497SOL    HW232391   1.885   6.861   1.286
10498SOL     OW32392   2.682   6.958   1.332
10498SOL    HW132393   2.623   6.916   1.264
10498SOL    HW232394   2.708   6.891   1.401
10499SOL     OW32395   2.843   6.605   2.554
10499SOL    HW132396   2.849   6.583   2.457
10499SOL    HW232397   2.777   6.679   2.567
10500SOL     OW32398   0.398   1.153   5.409
10500SOL    HW132399   0.417   1.157   5.507
10500SOL    HW232400   0.465   1.208   5.359
10501SOL     OW32401   1.644   5.742   3.355
10501SOL    HW132402   1.727   5.759   3.408
10501SOL    HW232403   1.669   5.724   3.260
10502SOL     OW32404   3.237   6.877   1.189
10502SOL    HW132405   3.309   6.922   1.241
10502SOL    HW232406   3.226   6.922   1.100
10503SOL     OW32407   4.513   2.702   0.430
10503SOL    HW132408   4.604   2.736   0.455
10503SOL    HW232409   4.445   2.741   0.491
10504SOL     OW32410   1.909   2.861   0.642
10504SOL    HW132411   1.915   2.769   0.602
10504SOL    HW232412   1.813   2.887   0.651
10505SOL     OW32413   6.210   5.771   0.333
10505SOL    HW132414   6.141   5.783   0.404
10505SOL    HW232415   6.278   5.844   0.340
10506SOL     OW32416   0.724   5.049   6.411
10506SOL    HW132417   0.643   5.043   6.352
10506SOL    HW232418   0.695   5.077   6.503
10507SOL     OW32419   2.086   6.341   0.151
10507SOL    HW132420   2.182   6.312   0.151
10507SOL    HW232421   2.031   6.275   0.099
10508SOL     OW32422   6.036   6.027   4.471
10508SOL    HW132423   5.969   6.094   4.439
10508SOL    HW232424   6.002   5.935   4.452
10509SOL     OW32425   0.864   6.740   6.135
10509SOL    HW132426   0.862   6.665   6.201
10509SOL    HW232427   0.773   6.753   6.096
10510SOL     OW32428   5.892   5.104   5.764
10510SOL    HW132429   5.859   5.150   5.682
10510SOL    HW232430   5.836   5.023   5.781
10511SOL     OW32431   4.780   2.677   0.935
10511SOL    HW132432   4.811   2.770   0.953
10511SOL    HW232433   4.702   2.656   0.993
10512SOL     OW32434   3.757   0.984   6.472
10512SOL    HW132435   3.779   0.909   6.535
10512SOL    HW232436   3.812   0.975   6.389
10513SOL     OW32437   0.160   2.565   5.828
10513SOL    HW132438   0.246   2.518   5.848
10513SOL    HW232439   0.180   2.657   5.794
10514SOL     OW32440   7.005   3.761   0.338
10514SOL    HW132441   6.945   3.802   0.270
10514SOL    HW232442   7.021   3.665   0.316
10515SOL     OW32443   5.539   3.067   3.207
10515SOL    HW132444   5.625   3.027   3.177
10515SOL    HW232445   5.463   3.021   3.161
10516SOL     OW32446   4.980   1.243   6.617
10516SOL    HW132447   5.036   1.167   6.584
10516SOL    HW232448   5.014   1.273   6.707
10517SOL     OW32449   0.845   2.326   2.401
10517SOL    HW132450   0.801   2.323   2.311
10517SOL    HW232451   0.873   2.420   2.420
10518SOL     OW32452   1.291   4.879   0.291
10518SOL    HW132453   1.241   4.875   0.378
10518SOL    HW232454   1.226   4.889   0.216
10519SOL     OW32455   3.080   2.533   6.281
10519SOL    HW132456   2.983   2.545   6.299
10519SOL    HW232457   3.128   2.513   6.366
10520SOL     OW32458   2.258   2.809   6.626
10520SOL    HW132459   2.294   2.901   6.610
10520SOL    HW232460   2.180   2.793   6.566
10521SOL     OW32461   6.653   5.888   1.392
10521SOL    HW132462   6.636   5.861   1.486
10521SOL    HW232463   6.613   5.979   1.375
10522SOL     OW32464   6.307   0.361   0.659
10522SOL    HW132465   6.327   0.279   0.605
10522SOL    HW232466   6.210   0.385   0.647
10523SOL     OW32467   0.007   6.342   4.663
10523SOL    HW132468   0.094   6.384   4.689
10523SOL    HW232469   7.003   6.275   4.733
10524SOL     OW32470   1.643   1.598   4.973
10524SOL    HW132471   1.741   1.609   4.987
10524SOL    HW232472   1.607   1.678   4.925
10525SOL     OW32473   3.018   6.578   5.421
10525SOL    HW132474   3.033   6.526   5.337
10525SOL    HW232475   3.030   6.675   5.403
10526SOL     OW32476   0.424   0.639   2.959
10526SOL    HW132477   0.349   0.625   2.895
10526SOL    HW232478   0.480   0.556   2.964
10527SOL     OW32479   1.132   2.544   3.992
10527SOL    HW132480   1.133   2.632   4.039
10527SOL    HW232481   1.038   2.511   3.986
10528SOL     OW32482   1.138   4.052   5.404
10528SOL    HW132483   1.062   4.087   5.350
10528SOL    HW232484   1.223   4.061   5.353
10529SOL     OW32485   1.440   5.927   3.113
10529SOL    HW132486   1.519   5.887   3.067
10529SOL    HW232487   1.368   5.946   3.046
10530SOL     OW32488   1.789   1.084   5.901
10530SOL    HW132489   1.710   1.084   5.840
10530SOL    HW232490   1.774   1.019   5.975
10531SOL     OW32491   1.256   3.645   4.580
10531SOL    HW132492   1.165   3.631   4.618
10531SOL    HW232493   1.319   3.579   4.619
10532SOL     OW32494   2.238   3.228   0.813
10532SOL    HW132495   2.145   3.206   0.784
10532SOL    HW232496   2.235   3.297   0.885
10533SOL     OW32497   3.230   1.658   4.272
10533SOL    HW132498   3.153   1.630   4.329
10533SOL    HW232499   3.200   1.728   4.207
10534SOL     OW32500   7.002   5.720   0.738
10534SOL    HW132501   6.989   5.635   0.788
10534SOL    HW232502   0.061   5.715   0.682
10535SOL     OW32503   0.299   2.683   2.330
10535SOL    HW132504   0.343   2.768   2.358
10535SOL    HW232505   0.316   2.666   2.233
10536SOL     OW32506   3.751   0.584   2.986
10536SOL    HW132507   3.794   0.665   3.026
10536SOL    HW232508   3.653   0.584   3.008
10537SOL     OW32509   3.314   5.529   3.031
10537SOL    HW132510   3.247   5.566   3.095
10537SOL    HW232511   3.363   5.453   3.073
10538SOL     OW32512   4.871   2.849   6.441
10538SOL    HW132513   4.826   2.761   6.422
10538SOL    HW232514   4.898   2.892   6.355
10539SOL     OW32515   0.821   4.072   6.702
10539SOL    HW132516   0.872   4.154   6.675
10539SOL    HW232517   0.809   4.014   6.622
10540SOL     OW32518   1.576   1.070   5.501
10540SOL    HW132519   1.612   1.028   5.418
10540SOL    HW232520   1.530   1.156   5.478
10541SOL     OW32521   3.514   3.666   1.892
10541SOL    HW132522   3.606   3.705   1.889
10541SOL    HW232523   3.451   3.731   1.934
10542SOL     OW32524   6.763   1.599   0.278
10542SOL    HW132525   6.732   1.666   0.345
10542SOL    HW232526   6.809   1.523   0.324
10543SOL     OW32527   0.638   1.119   5.083
10543SOL    HW132528   0.618   1.024   5.107
10543SOL    HW232529   0.629   1.132   4.985
10544SOL     OW32530   2.221   0.674   2.900
10544SOL    HW132531   2.180   0.594   2.945
10544SOL    HW232532   2.165   0.700   2.822
10545SOL     OW32533   6.441   0.609   3.050
10545SOL    HW132534   6.454   0.615   2.951
10545SOL    HW232535   6.479   0.522   3.083
10546SOL     OW32536   0.776   0.424   5.919
10546SOL    HW132537   0.802   0.505   5.866
10546SOL    HW232538   0.712   0.368   5.867
10547SOL     OW32539   4.784   1.386   1.940
10547SOL    HW132540   4.785   1.486   1.939
10547SOL    HW232541   4.817   1.353   2.029
10548SOL     OW32542   5.126   3.911   5.040
10548SOL    HW132543   5.103   3.941   5.132
10548SOL    HW232544   5.131   3.990   4.979
10549SOL     OW32545   6.528   0.489   2.379
10549SOL    HW132546   6.535   0.507   2.281
10549SOL    HW232547   6.600   0.426   2.407
10550SOL     OW32548   4.313   6.540   4.279
10550SOL    HW132549   4.236   6.604   4.287
10550SOL    HW232550   4.284   6.458   4.231
10551SOL     OW32551   1.191   2.838   4.959
10551SOL    HW132552   1.222   2.757   4.910
10551SOL    HW232553   1.266   2.904   4.966
10552SOL     OW32554   3.777   2.043   5.448
10552SOL    HW132555   3.742   2.105   5.377
10552SOL    HW232556   3.868   2.073   5.476
10553SOL     OW32557   1.072   4.670   1.842
10553SOL    HW132558   1.014   4.748   1.824
10553SOL    HW232559   1.134   4.690   1.918
10554SOL     OW32560   5.503   5.066   6.679
10554SOL    HW132561   5.523   4.985   6.625
10554SOL    HW232562   5.526   5.048   6.775
10555SOL     OW32563   3.012   1.862   1.256
10555SOL    HW132564   2.919   1.896   1.268
10555SOL    HW232565   3.055   1.910   1.180
10556SOL     OW32566   1.426   3.095   5.393
10556SOL    HW132567   1.345   3.085   5.335
10556SOL    HW232568   1.483   3.013   5.385
10557SOL     OW32569   1.214   2.720   3.245
10557SOL    HW132570   1.164   2.806   3.255
10557SOL    HW232571   1.278   2.726   3.169
10558SOL     OW32572   3.814   0.033   5.113
10558SOL    HW132573   3.849   7.005   5.034
10558SOL    HW232574   3.846   0.128   5.109
10559SOL     OW32575   3.800   1.175   0.814
10559SOL    HW132576   3.804   1.271   0.787
10559SOL    HW232577   3.889   1.132   0.802
10560SOL     OW32578   2.454   5.807   4.550
10560SOL    HW132579   2.436   5.886   4.609
10560SOL    HW232580   2.367   5.762   4.528
10561SOL     OW32581   2.561   5.066   0.300
10561SOL    HW132582   2.553   4.977   0.347
10561SOL    HW232583   2.565   5.138   0.369
10562SOL     OW32584   4.981   6.561   0.222
10562SOL    HW132585   4.934   6.518   0.145
10562SOL    HW232586   5.047   6.628   0.188
10563SOL     OW32587   1.567   0.795   4.183
10563SOL    HW132588   1.586   0.719   4.246
10563SOL    HW232589   1.508   0.862   4.228
10564SOL     OW32590   6.023   6.974   2.077
10564SOL    HW132591   6.070   0.016   2.016
10564SOL    HW232592   6.091   6.924   2.130
10565SOL     OW32593   0.427   0.433   5.965
10565SOL    HW132594   0.453   0.464   5.874
10565SOL    HW232595   0.356   0.493   6.002
10566SOL     OW32596   4.511   3.333   6.696
10566SOL    HW132597   4.466   3.245   6.707
10566SOL    HW232598   4.470   3.400   6.758
10567SOL     OW32599   2.175   3.017   3.891
10567SOL    HW132600   2.155   2.986   3.798
10567SOL    HW232601   2.255   2.967   3.926
10568SOL     OW32602   5.578   1.198   1.374
10568SOL    HW132603   5.499   1.161   1.424
10568SOL    HW232604   5.636   1.123   1.343
10569SOL     OW32605   6.471   3.248   1.914
10569SOL    HW132606   6.466   3.180   1.987
10569SOL    HW232607   6.429   3.333   1.946
10570SOL     OW32608   1.856   5.101   2.632
10570SOL    HW132609   1.862   5.004   2.611
10570SOL    HW232610   1.788   5.115   2.704
10571SOL     OW32611   6.676   5.226   4.340
10571SOL    HW132612   6.762   5.262   4.375
10571SOL    HW232613   6.603   5.293   4.358
10572SOL     OW32614   5.939   3.441   3.276
10572SOL    HW132615   5.942   3.534   3.239
10572SOL    HW232616   6.029   3.399   3.266
10573SOL     OW32617   5.677   6.157   3.761
10573SOL    HW132618   5.625   6.208   3.830
10573SOL    HW232619   5.680   6.209   3.676
10574SOL     OW32620   1.712   2.116   4.205
10574SOL    HW132621   1.777   2.117   4.129
10574SOL    HW232622   1.642   2.048   4.188
10575SOL     OW32623   0.394   1.126   3.678
10575SOL    HW132624   0.475   1.084   3.719
10575SOL    HW232625   0.322   1.133   3.747
10576SOL     OW32626   0.681   6.593   5.332
10576SOL    HW132627   0.707   6.597   5.235
10576SOL    HW232628   0.601   6.535   5.342
10577SOL     OW32629   1.448   2.630   6.828
10577SOL    HW132630   1.510   2.559   6.862
10577SOL    HW232631   1.422   2.691   6.903
10578SOL     OW32632   6.523   0.178   3.761
10578SOL    HW132633   6.433   0.191   3.720
10578SOL    HW232634   6.541   0.253   3.825
10579SOL     OW32635   4.049   1.872   0.074
10579SOL    HW132636   3.962   1.856   0.027
10579SOL    HW232637   4.118   1.810   0.038
10580SOL     OW32638   6.770   0.081   0.473
10580SOL    HW132639   6.751   0.008   0.408
10580SOL    HW232640   6.822   0.153   0.427
10581SOL     OW32641   5.953   6.827   2.849
10581SOL    HW132642   5.867   6.872   2.825
10581SOL    HW232643   5.972   6.754   2.783
10582SOL     OW32644   3.774   4.849   6.531
10582SOL    HW132645   3.843   4.862   6.602
10582SOL    HW232646   3.683   4.864   6.569
10583SOL     OW32647   4.036   1.100   5.757
10583SOL    HW132648   4.016   1.018   5.810
10583SOL    HW232649   4.134   1.120   5.760
10584SOL     OW32650   5.796   6.674   1.073
10584SOL    HW132651   5.884   6.684   1.025
10584SOL    HW232652   5.813   6.653   1.169
10585SOL     OW32653   1.223   3.109   5.847
10585SOL    HW132654   1.184   3.063   5.927
10585SOL    HW232655   1.289   3.049   5.803
10586SOL     OW32656   1.481   5.789   5.714
10586SOL    HW132657   1.544   5.866   5.706
10586SOL    HW232658   1.522   5.708   5.672
10587SOL     OW32659   6.052   3.555   0.019
10587SOL    HW132660   5.968   3.602   0.048
10587SOL    HW232661   6.117   3.622   7.006
10588SOL     OW32662   0.762   4.167   2.128
10588SOL    HW132663   0.792   4.167   2.033
10588SOL    HW232664   0.726   4.257   2.152
10589SOL     OW32665   5.240   1.567   4.383
10589SOL    HW132666   5.242   1.469   4.406
10589SOL    HW232667   5.303   1.584   4.308
10590SOL     OW32668   1.482   0.383   1.908
10590SOL    HW132669   1.399   0.331   1.890
10590SOL    HW232670   1.559   0.341   1.859
10591SOL     OW32671   1.452   1.748   5.531
10591SOL    HW132672   1.451   1.738   5.630
10591SOL    HW232673   1.546   1.742   5.497
10592SOL     OW32674   5.095   2.535   0.673
10592SOL    HW132675   5.118   2.614   0.729
10592SOL    HW232676   4.996   2.530   0.661
10593SOL     OW32677   3.155   5.502   0.981
10593SOL    HW132678   3.190   5.480   0.890
10593SOL    HW232679   3.145   5.601   0.989
10594SOL     OW32680   5.801   1.642   3.504
10594SOL    HW132681   5.805   1.555   3.456
10594SOL    HW232682   5.718   1.691   3.476
10595SOL     OW32683   3.615   0.290   5.702
10595SOL    HW132684   3.618   0.231   5.783
10595SOL    HW232685   3.609   0.233   5.620
10596SOL     OW32686   4.553   7.016   1.847
10596SOL    HW132687   4.455   7.019   1.869
10596SOL    HW232688   4.595   6.939   1.894
10597SOL     OW32689   2.720   0.981   4.326
10597SOL    HW132690   2.777   1.018   4.400
10597SOL    HW232691   2.754   1.016   4.239
10598SOL     OW32692   2.857   2.294   6.977
10598SOL    HW132693   2.781   2.243   6.939
10598SOL    HW232694   2.943   2.261   6.937
10599SOL     OW32695   5.563   1.865   0.410
10599SOL    HW132696   5.584   1.892   0.504
10599SOL    HW232697   5.515   1.940   0.365
10600SOL     OW32698   2.118   3.027   0.155
10600SOL    HW132699   2.145   3.015   0.250
10600SOL    HW232700   2.117   2.938   0.109
10601SOL     OW32701   2.326   5.213   6.061
10601SOL    HW132702   2.412   5.220   6.010
10601SOL    HW232703   2.340   5.157   6.143
10602SOL     OW32704   5.130   1.559   2.531
10602SOL    HW132705   5.149   1.461   2.542
10602SOL    HW232706   5.196   1.598   2.468
10603SOL     OW32707   2.154   5.918   3.202
10603SOL    HW132708   2.227   5.968   3.154
10603SOL    HW232709   2.065   5.949   3.168
10604SOL     OW32710   5.437   4.456   4.109
10604SOL    HW132711   5.390   4.469   4.022
10604SOL    HW232712   5.376   4.483   4.184
10605SOL     OW32713   1.142   5.245   0.105
10605SOL    HW132714   1.085   5.270   0.027
10605SOL    HW232715   1.089   5.189   0.169
10606SOL     OW32716   6.103   0.617   1.697
10606SOL    HW132717   6.036   0.625   1.624
10606SOL    HW232718   6.101   0.699   1.754
10607SOL     OW32719   4.154   3.813   5.508
10607SOL    HW132720   4.087   3.753   5.464
10607SOL    HW232721   4.126   3.830   5.602
10608SOL     OW32722   5.710   1.884   5.044
10608SOL    HW132723   5.652   1.842   5.114
10608SOL    HW232724   5.686   1.980   5.035
10609SOL     OW32725   3.173   5.598   1.257
10609SOL    HW132726   3.138   5.692   1.255
10609SOL    HW232727   3.238   5.585   1.182
10610SOL     OW32728   0.739   4.277   0.076
10610SOL    HW132729   0.644   4.271   0.105
10610SOL    HW232730   0.761   4.372   0.052
10611SOL     OW32731   5.514   3.222   6.844
10611SOL    HW132732   5.502   3.230   6.745
10611SOL    HW232733   5.447   3.279   6.891
10612SOL     OW32734   2.327   6.502   5.789
10612SOL    HW132735   2.325   6.594   5.750
10612SOL    HW232736   2.413   6.488   5.838
10613SOL     OW32737   0.217   6.975   6.063
10613SOL    HW132738   0.128   7.017   6.081
10613SOL    HW232739   0.229   6.897   6.124
10614SOL     OW32740   0.047   1.192   4.125
10614SOL    HW132741   0.005   1.184   4.216
10614SOL    HW232742   0.036   1.285   4.091
10615SOL     OW32743   4.225   5.709   5.183
10615SOL    HW132744   4.219   5.787   5.246
10615SOL    HW232745   4.209   5.624   5.233
10616SOL     OW32746   3.493   6.493   0.163
10616SOL    HW132747   3.581   6.540   0.165
10616SOL    HW232748   3.508   6.395   0.151
10617SOL     OW32749   2.284   2.246   0.631
10617SOL    HW132750   2.282   2.211   0.537
10617SOL    HW232751   2.310   2.342   0.630
10618SOL     OW32752   5.744   3.057   0.185
10618SOL    HW132753   5.741   3.155   0.204
10618SOL    HW232754   5.783   3.009   0.264
10619SOL     OW32755   0.322   3.508   2.123
10619SOL    HW132756   0.400   3.527   2.064
10619SOL    HW232757   0.354   3.490   2.216
10620SOL     OW32758   0.759   5.427   5.368
10620SOL    HW132759   0.769   5.412   5.270
10620SOL    HW232760   0.727   5.520   5.385
10621SOL     OW32761   1.150   6.122   0.328
10621SOL    HW132762   1.240   6.119   0.372
10621SOL    HW232763   1.131   6.034   0.286
10622SOL     OW32764   4.531   1.001   1.561
10622SOL    HW132765   4.551   0.916   1.511
10622SOL    HW232766   4.448   0.988   1.615
10623SOL     OW32767   5.595   3.036   4.554
10623SOL    HW132768   5.634   3.036   4.646
10623SOL    HW232769   5.618   2.951   4.508
10624SOL     OW32770   0.964   1.112   5.106
10624SOL    HW132771   1.005   1.154   5.025
10624SOL    HW232772   0.864   1.121   5.101
10625SOL     OW32773   0.722   4.060   6.954
10625SOL    HW132774   0.760   4.139   7.003
10625SOL    HW232775   0.752   4.064   6.858
10626SOL     OW32776   1.014   2.502   1.261
10626SOL    HW132777   1.076   2.577   1.237
10626SOL    HW232778   0.929   2.511   1.209
10627SOL     OW32779   5.702   6.123   2.906
10627SOL    HW132780   5.619   6.066   2.908
10627SOL    HW232781   5.706   6.178   2.990
10628SOL     OW32782   5.257   5.259   5.477
10628SOL    HW132783   5.331   5.192   5.490
10628SOL    HW232784   5.239   5.270   5.379
10629SOL     OW32785   2.551   4.528   5.372
10629SOL    HW132786   2.568   4.531   5.274
10629SOL    HW232787   2.633   4.560   5.421
10630SOL     OW32788   6.527   0.753   3.393
10630SOL    HW132789   6.440   0.704   3.384
10630SOL    HW232790   6.514   0.849   3.368
10631SOL     OW32791   0.931   5.871   4.380
10631SOL    HW132792   0.928   5.775   4.353
10631SOL    HW232793   1.026   5.902   4.383
10632SOL     OW32794   5.873   2.227   4.297
10632SOL    HW132795   5.839   2.146   4.344
10632SOL    HW232796   5.797   2.274   4.253
10633SOL     OW32797   2.666   4.138   1.090
10633SOL    HW132798   2.614   4.087   1.159
10633SOL    HW232799   2.612   4.216   1.057
10634SOL     OW32800   3.321   5.672   0.259
10634SOL    HW132801   3.230   5.711   0.244
10634SOL    HW232802   3.387   5.746   0.271
10635SOL     OW32803   2.775   1.070   1.121
10635SOL    HW132804   2.803   1.043   1.213
10635SOL    HW232805   2.780   0.991   1.060
10636SOL     OW32806   1.348   1.817   2.160
10636SOL    HW132807   1.305   1.783   2.243
10636SOL    HW232808   1.433   1.767   2.144
10637SOL     OW32809   3.770   4.057   5.447
10637SOL    HW132810   3.713   3.978   5.424
10637SOL    HW232811   3.860   4.047   5.404
10638SOL     OW32812   0.288   6.084   2.853
10638SOL    HW132813   0.289   5.987   2.876
10638SOL    HW232814   0.194   6.117   2.850
10639SOL     OW32815   0.745   1.918   3.941
10639SOL    HW132816   0.827   1.926   3.885
10639SOL    HW232817   0.666   1.950   3.889
10640SOL     OW32818   4.483   0.259   6.882
10640SOL    HW132819   4.560   0.256   6.818
10640SOL    HW232820   4.419   0.185   6.861
10641SOL     OW32821   4.223   1.701   6.974
10641SOL    HW132822   4.210   1.615   6.926
10641SOL    HW232823   4.315   1.737   6.954
10642SOL     OW32824   0.667   2.935   1.613
10642SOL    HW132825   0.706   2.982   1.534
10642SOL    HW232826   0.607   2.861   1.583
10643SOL     OW32827   2.336   4.018   5.965
10643SOL    HW132828   2.315   4.116   5.967
10643SOL    HW232829   2.333   3.985   5.870
10644SOL     OW32830   4.737   1.751   3.842
10644SOL    HW132831   4.641   1.722   3.842
10644SOL    HW232832   4.748   1.829   3.903
10645SOL     OW32833   0.947   1.181   4.055
10645SOL    HW132834   0.868   1.242   4.046
10645SOL    HW232835   0.916   1.087   4.061
10646SOL     OW32836   0.518   2.031   5.632
10646SOL    HW132837   0.584   2.028   5.556
10646SOL    HW232838   0.568   2.033   5.719
10647SOL     OW32839   5.483   5.431   6.152
10647SOL    HW132840   5.455   5.503   6.089
10647SOL    HW232841   5.583   5.431   6.161
10648SOL     OW32842   5.501   3.582   6.589
10648SOL    HW132843   5.530   3.532   6.507
10648SOL    HW232844   5.403   3.598   6.586
10649SOL     OW32845   0.062   4.271   3.961
10649SOL    HW132846   0.081   4.178   3.927
10649SOL    HW232847   6.990   4.277   3.991
10650SOL     OW32848   1.278   6.670   3.598
10650SOL    HW132849   1.338   6.610   3.650
10650SOL    HW232850   1.212   6.714   3.660
10651SOL     OW32851   4.197   6.459   5.897
10651SOL    HW132852   4.279   6.462   5.954
10651SOL    HW232853   4.219   6.418   5.809
10652SOL     OW32854   3.516   0.066   6.656
10652SOL    HW132855   3.550   0.152   6.616
10652SOL    HW232856   3.428   0.083   6.700
10653SOL     OW32857   5.186   4.461   4.637
10653SOL    HW132858   5.213   4.374   4.595
10653SOL    HW232859   5.088   4.475   4.623
10654SOL     OW32860   3.280   0.102   1.678
10654SOL    HW132861   3.300   0.010   1.644
10654SOL    HW232862   3.191   0.101   1.726
10655SOL     OW32863   2.764   5.292   1.952
10655SOL    HW132864   2.746   5.315   2.047
10655SOL    HW232865   2.818   5.365   1.909
10656SOL     OW32866   6.391   2.035   0.024
10656SOL    HW132867   6.467   2.097   0.003
10656SOL    HW232868   6.311   2.061   6.993
10657SOL     OW32869   6.245   6.578   0.742
10657SOL    HW132870   6.235   6.481   0.720
10657SOL    HW232871   6.250   6.590   0.841
10658SOL     OW32872   0.448   4.500   4.946
10658SOL    HW132873   0.402   4.430   4.892
10658SOL    HW232874   0.383   4.573   4.968
10659SOL     OW32875   6.375   6.962   0.948
10659SOL    HW132876   6.395   6.998   1.040
10659SOL    HW232877   6.445   6.993   0.884
10660SOL     OW32878   5.108   3.904   6.154
10660SOL    HW132879   5.104   3.986   6.098
10660SOL    HW232880   5.091   3.824   6.097
10661SOL     OW32881   6.808   6.774   2.746
10661SOL    HW132882   6.804   6.674   2.752
10661SOL    HW232883   6.753   6.814   2.819
10662SOL     OW32884   6.130   0.917   1.678
10662SOL    HW132885   6.182   0.869   1.608
10662SOL    HW232886   6.087   0.998   1.639
10663SOL     OW32887   1.357   0.375   1.150
10663SOL    HW132888   1.260   0.365   1.129
10663SOL    HW232889   1.369   0.379   1.249
10664SOL     OW32890   2.089   4.022   6.400
10664SOL    HW132891   2.151   3.949   6.369
10664SOL    HW232892   1.995   3.992   6.390
10665SOL     OW32893   1.562   1.083   6.829
10665SOL    HW132894   1.468   1.114   6.819
10665SOL    HW232895   1.563   0.986   6.853
10666SOL     OW32896   4.343   4.482   0.278
10666SOL    HW132897   4.331   4.391   0.238
10666SOL    HW232898   4.256   4.530   0.278
10667SOL     OW32899   4.083   1.896   5.743
10667SOL    HW132900   4.116   1.810   5.781
10667SOL    HW232901   3.983   1.897   5.744
10668SOL     OW32902   1.205   2.199   6.188
10668SOL    HW132903   1.208   2.235   6.094
10668SOL    HW232904   1.264   2.119   6.194
10669SOL     OW32905   0.715   0.260   1.020
10669SOL    HW132906   0.670   0.329   0.963
10669SOL    HW232907   0.721   0.294   1.114
10670SOL     OW32908   5.202   4.391   5.970
10670SOL    HW132909   5.220   4.409   6.066
10670SOL    HW232910   5.192   4.478   5.921
10671SOL     OW32911   2.110   3.642   2.832
10671SOL    HW132912   2.071   3.611   2.746
10671SOL    HW232913   2.135   3.738   2.825
10672SOL     OW32914   6.960   3.063   0.588
10672SOL    HW132915   0.036   3.062   0.578
10672SOL    HW232916   6.919   2.996   0.525
10673SOL     OW32917   2.965   2.756   5.651
10673SOL    HW132918   2.934   2.673   5.605
10673SOL    HW232919   3.063   2.767   5.639
10674SOL     OW32920   3.814   3.709   0.765
10674SOL    HW132921   3.861   3.759   0.692
10674SOL    HW232922   3.843   3.613   0.763
10675SOL     OW32923   0.404   0.434   5.346
10675SOL    HW132924   0.369   0.496   5.416
10675SOL    HW232925   0.491   0.468   5.312
10676SOL     OW32926   5.827   0.140   6.091
10676SOL    HW132927   5.845   0.236   6.071
10676SOL    HW232928   5.903   0.102   6.143
10677SOL     OW32929   0.471   0.920   2.278
10677SOL    HW132930   0.407   0.906   2.203
10677SOL    HW232931   0.505   1.014   2.276
10678SOL     OW32932   3.313   5.833   2.615
10678SOL    HW132933   3.292   5.769   2.541
10678SOL    HW232934   3.376   5.790   2.680
10679SOL     OW32935   5.482   5.646   4.801
10679SOL    HW132936   5.391   5.627   4.765
10679SOL    HW232937   5.482   5.631   4.900
10680SOL     OW32938   1.780   3.414   2.743
10680SOL    HW132939   1.864   3.412   2.688
10680SOL    HW232940   1.796   3.471   2.824
10681SOL     OW32941   6.524   4.329   6.969
10681SOL    HW132942   6.447   4.349   6.909
10681SOL    HW232943   6.599   4.393   6.950
10682SOL     OW32944   1.674   1.711   3.193
10682SOL    HW132945   1.699   1.689   3.288
10682SOL    HW232946   1.756   1.717   3.137
10683SOL     OW32947   2.256   2.516   4.092
10683SOL    HW132948   2.297   2.432   4.056
10683SOL    HW232949   2.248   2.583   4.019
10684SOL     OW32950   5.373   4.010   0.774
10684SOL    HW132951   5.441   3.944   0.807
10684SOL    HW232952   5.349   4.073   0.848
10685SOL     OW32953   0.530   3.863   3.575
10685SOL    HW132954   0.621   3.878   3.613
10685SOL    HW232955   0.469   3.830   3.646
10686SOL     OW32956   4.239   6.070   0.079
10686SOL    HW132957   4.168   6.052   0.011
10686SOL    HW232958   4.314   6.006   0.067
10687SOL     OW32959   7.001   5.247   1.883
10687SOL    HW132960   6.951   5.162   1.869
10687SOL    HW232961   7.000   5.272   1.979
10688SOL     OW32962   6.322   4.155   2.378
10688SOL    HW132963   6.243   4.175   2.321
10688SOL    HW232964   6.296   4.090   2.450
10689SOL     OW32965   0.057   6.897   2.894
10689SOL    HW132966   7.001   6.847   2.858
10689SOL    HW232967   0.028   6.987   2.926
10690SOL     OW32968   4.528   5.638   2.941
10690SOL    HW132969   4.438   5.600   2.920
10690SOL    HW232970   4.520   5.736   2.959
10691SOL     OW32971   6.644   1.262   1.746
10691SOL    HW132972   6.624   1.339   1.686
10691SOL    HW232973   6.610   1.282   1.838
10692SOL     OW32974   3.210   5.999   3.654
10692SOL    HW132975   3.277   5.926   3.668
10692SOL    HW232976   3.219   6.067   3.726
10693SOL     OW32977   0.993   1.157   0.990
10693SOL    HW132978   1.015   1.178   1.085
10693SOL    HW232979   0.893   1.155   0.979
10694SOL     OW32980   3.609   6.296   1.093
10694SOL    HW132981   3.686   6.358   1.076
10694SOL    HW232982   3.526   6.349   1.107
10695SOL     OW32983   0.025   2.668   3.983
10695SOL    HW132984   0.016   2.709   4.074
10695SOL    HW232985   0.067   2.577   3.992
10696SOL     OW32986   6.800   6.110   1.893
10696SOL    HW132987   6.849   6.191   1.927
10696SOL    HW232988   6.764   6.058   1.971
10697SOL     OW32989   0.250   6.333   3.108
10697SOL    HW132990   0.170   6.323   3.167
10697SOL    HW232991   0.302   6.247   3.108
10698SOL     OW32992   2.624   0.015   3.457
10698SOL    HW132993   2.696   6.975   3.429
10698SOL    HW232994   2.658   0.076   3.529
10699SOL     OW32995   4.586   1.773   2.996
10699SOL    HW132996   4.531   1.854   2.976
10699SOL    HW232997   4.546   1.693   2.951
10700SOL     OW32998   0.734   6.843   0.781
10700SOL    HW132999   0.787   6.816   0.861
10700SOL    HW233000   0.657   6.779   0.769
10701SOL     OW33001   4.470   5.598   6.489
10701SOL    HW133002   4.440   5.521   6.433
10701SOL    HW233003   4.483   5.679   6.431
10702SOL     OW33004   5.408   2.557   0.921
10702SOL    HW133005   5.392   2.608   0.836
10702SOL    HW233006   5.482   2.491   0.906
10703SOL     OW33007   3.986   3.603   3.443
10703SOL    HW133008   4.009   3.653   3.360
10703SOL    HW233009   3.888   3.612   3.461
10704SOL     OW33010   4.987   6.567   1.820
10704SOL    HW133011   5.020   6.638   1.757
10704SOL    HW233012   4.979   6.480   1.771
10705SOL     OW33013   1.135   3.756   6.645
10705SOL    HW133014   1.118   3.779   6.549
10705SOL    HW233015   1.048   3.746   6.693
10706SOL     OW33016   4.391   0.512   2.137
10706SOL    HW133017   4.321   0.446   2.110
10706SOL    HW233018   4.417   0.495   2.232
10707SOL     OW33019   6.982   6.973   5.824
10707SOL    HW133020   6.962   6.950   5.919
10707SOL    HW233021   6.997   6.890   5.771
10708SOL     OW33022   4.869   0.968   1.304
10708SOL    HW133023   4.885   1.060   1.341
10708SOL    HW233024   4.949   0.911   1.320
10709SOL     OW33025   6.759   0.580   4.996
10709SOL    HW133026   6.806   0.597   4.910
10709SOL    HW233027   6.663   0.607   4.988
10710SOL     OW33028   6.433   5.688   4.071
10710SOL    HW133029   6.435   5.594   4.104
10710SOL    HW233030   6.381   5.693   3.986
10711SOL     OW33031   1.761   0.205   3.953
10711SOL    HW133032   1.809   0.272   3.897
10711SOL    HW233033   1.682   0.248   3.997
10712SOL     OW33034   3.898   1.408   5.014
10712SOL    HW133035   3.998   1.399   5.013
10712SOL    HW233036   3.863   1.394   4.921
10713SOL     OW33037   2.173   5.862   1.942
10713SOL    HW133038   2.139   5.780   1.895
10713SOL    HW233039   2.267   5.847   1.971
10714SOL     OW33040   0.266   4.705   5.086
10714SOL    HW133041   0.273   4.787   5.030
10714SOL    HW233042   0.175   4.700   5.127
10715SOL     OW33043   4.696   1.966   4.156
10715SOL    HW133044   4.787   1.979   4.119
10715SOL    HW233045   4.645   2.053   4.151
10716SOL     OW33046   6.268   1.088   4.649
10716SOL    HW133047   6.221   1.173   4.673
10716SOL    HW233048   6.229   1.050   4.565
10717SOL     OW33049   6.695   1.065   2.127
10717SOL    HW133050   6.689   1.159   2.160
10717SOL    HW233051   6.607   1.039   2.086
10718SOL     OW33052   6.651   5.430   0.098
10718SOL    HW133053   6.624   5.345   0.052
10718SOL    HW233054   6.569   5.481   0.123
10719SOL     OW33055   5.319   0.933   1.745
10719SOL    HW133056   5.359   0.843   1.728
10719SOL    HW233057   5.226   0.922   1.780
10720SOL     OW33058   6.952   3.898   6.066
10720SOL    HW133059   7.011   3.877   5.988
10720SOL    HW233060   6.879   3.958   6.037
10721SOL     OW33061   5.955   2.475   4.786
10721SOL    HW133062   5.978   2.378   4.788
10721SOL    HW233063   5.880   2.490   4.722
10722SOL     OW33064   6.396   3.873   0.461
10722SOL    HW133065   6.311   3.870   0.514
10722SOL    HW233066   6.383   3.826   0.374
10723SOL     OW33067   5.404   4.262   6.606
10723SOL    HW133068   5.325   4.321   6.592
10723SOL    HW233069   5.463   4.301   6.677
10724SOL     OW33070   4.350   6.587   6.262
10724SOL    HW133071   4.310   6.602   6.352
10724SOL    HW233072   4.415   6.661   6.242
10725SOL     OW33073   0.539   6.326   4.230
10725SOL    HW133074   0.578   6.270   4.157
10725SOL    HW233075   0.496   6.266   4.298
10726SOL     OW33076   5.899   0.564   4.634
10726SOL    HW133077   5.855   0.490   4.685
10726SOL    HW233078   5.928   0.636   4.698
10727SOL     OW33079   2.140   5.126   5.286
10727SOL    HW133080   2.138   5.195   5.358
10727SOL    HW233081   2.050   5.085   5.277
10728SOL     OW33082   4.801   6.972   3.073
10728SOL    HW133083   4.869   6.908   3.039
10728SOL    HW233084   4.783   0.019   3.003
10729SOL     OW33085   5.822   2.447   2.830
10729SOL    HW133086   5.823   2.476   2.926
10729SOL    HW233087   5.734   2.403   2.810
10730SOL     OW33088   2.217   6.232   2.142
10730SOL    HW133089   2.186   6.261   2.233
10730SOL    HW233090   2.165   6.151   2.114
10731SOL     OW33091   3.342   6.029   0.414
10731SOL    HW133092   3.419   6.006   0.354
10731SOL    HW233093   3.257   5.999   0.371
10732SOL     OW33094   5.057   6.170   2.602
10732SOL    HW133095   5.098   6.094   2.553
10732SOL    HW233096   4.960   6.151   2.618
10733SOL     OW33097   6.089   1.339   6.351
10733SOL    HW133098   6.128   1.260   6.305
10733SOL    HW233099   6.002   1.314   6.393
10734SOL     OW33100   1.432   0.227   6.534
10734SOL    HW133101   1.510   0.272   6.489
10734SOL    HW233102   1.414   0.273   6.621
10735SOL     OW33103   0.984   5.154   1.888
10735SOL    HW133104   0.932   5.093   1.829
10735SOL    HW233105   1.054   5.102   1.936
10736SOL     OW33106   6.863   1.114   3.904
10736SOL    HW133107   6.866   1.182   3.830
10736SOL    HW233108   6.954   1.103   3.943
10737SOL     OW33109   0.394   1.983   1.409
10737SOL    HW133110   0.343   1.899   1.398
10737SOL    HW233111   0.485   1.972   1.369
10738SOL     OW33112   2.801   0.650   2.720
10738SOL    HW133113   2.810   0.598   2.805
10738SOL    HW233114   2.711   0.692   2.716
10739SOL     OW33115   5.814   1.926   2.582
10739SOL    HW133116   5.900   1.976   2.587
10739SOL    HW233117   5.759   1.961   2.506
10740SOL     OW33118   1.572   6.856   6.021
10740SOL    HW133119   1.485   6.893   6.053
10740SOL    HW233120   1.555   6.787   5.950
10741SOL     OW33121   1.669   2.911   3.460
10741SOL    HW133122   1.573   2.936   3.448
10741SOL    HW233123   1.703   2.868   3.376
10742SOL     OW33124   6.449   5.178   2.367
10742SOL    HW133125   6.453   5.247   2.439
10742SOL    HW233126   6.521   5.110   2.382
10743SOL     OW33127   3.621   1.511   5.323
10743SOL    HW133128   3.681   1.542   5.249
10743SOL    HW233129   3.674   1.505   5.408
10744SOL     OW33130   3.360   0.217   1.439
10744SOL    HW133131   3.303   0.165   1.503
10744SOL    HW233132   3.307   0.291   1.400
10745SOL     OW33133   2.158   4.350   1.140
10745SOL    HW133134   2.102   4.308   1.068
10745SOL    HW233135   2.250   4.310   1.139
10746SOL     OW33136   2.384   6.293   0.371
10746SOL    HW133137   2.430   6.375   0.337
10746SOL    HW233138   2.371   6.301   0.470
10747SOL     OW33139   6.079   2.661   4.243
10747SOL    HW133140   6.084   2.760   4.257
10747SOL    HW233141   6.145   2.616   4.303
10748SOL     OW33142   4.188   5.171   0.862
10748SOL    HW133143   4.171   5.248   0.922
10748SOL    HW233144   4.242   5.201   0.784
10749SOL     OW33145   6.197   4.390   2.992
10749SOL    HW133146   6.133   4.436   2.930
10749SOL    HW233147   6.219   4.452   3.068
10750SOL     OW33148   5.011   3.599   3.973
10750SOL    HW133149   5.065   3.522   4.008
10750SOL    HW233150   4.986   3.659   4.049
10751SOL     OW33151   1.270   3.587   5.005
10751SOL    HW133152   1.365   3.568   4.983
10751SOL    HW233153   1.248   3.681   4.979
10752SOL     OW33154   6.045   5.222   7.001
10752SOL    HW133155   6.110   5.203   0.051
10752SOL    HW233156   5.990   5.140   6.982
10753SOL     OW33157   4.931   6.258   4.334
10753SOL    HW133158   4.878   6.343   4.339
10753SOL    HW233159   5.021   6.273   4.376
10754SOL     OW33160   0.719   3.323   1.748
10754SOL    HW133161   0.789   3.276   1.694
10754SOL    HW233162   0.760   3.400   1.796
10755SOL     OW33163   6.947   2.734   1.260
10755SOL    HW133164   6.962   2.644   1.218
10755SOL    HW233165   7.012   2.799   1.222
10756SOL     OW33166   6.358   2.038   0.727
10756SOL    HW133167   6.291   1.993   0.668
10756SOL    HW233168   6.316   2.056   0.816
10757SOL     OW33169   6.580   3.681   0.557
10757SOL    HW133170   6.497   3.736   0.548
10757SOL    HW233171   6.568   3.594   0.509
10758SOL     OW33172   0.863   6.037   6.313
10758SOL    HW133173   0.880   5.993   6.225
10758SOL    HW233174   0.937   6.013   6.376
10759SOL     OW33175   1.781   2.287   6.152
10759SOL    HW133176   1.701   2.231   6.133
10759SOL    HW233177   1.829   2.252   6.232
10760SOL     OW33178   0.977   6.380   0.306
10760SOL    HW133179   1.050   6.321   0.340
10760SOL    HW233180   0.913   6.326   0.251
10761SOL     OW33181   0.832   1.974   6.266
10761SOL    HW133182   0.855   2.055   6.320
10761SOL    HW233183   0.911   1.946   6.211
10762SOL     OW33184   3.929   0.665   5.709
10762SOL    HW133185   3.902   0.611   5.789
10762SOL    HW233186   3.855   0.663   5.642
10763SOL     OW33187   6.057   0.598   3.212
10763SOL    HW133188   6.005   0.670   3.166
10763SOL    HW233189   6.069   0.521   3.149
10764SOL     OW33190   4.415   1.097   4.819
10764SOL    HW133191   4.485   1.168   4.826
10764SOL    HW233192   4.399   1.075   4.723
10765SOL     OW33193   6.095   2.369   2.620
10765SOL    HW133194   6.045   2.397   2.538
10765SOL    HW233195   6.076   2.433   2.694
10766SOL     OW33196   1.301   5.067   0.685
10766SOL    HW133197   1.227   5.100   0.744
10766SOL    HW233198   1.384   5.056   0.740
10767SOL     OW33199   1.464   6.226   0.732
10767SOL    HW133200   1.472   6.310   0.785
10767SOL    HW233201   1.550   6.176   0.734
10768SOL     OW33202   5.795   5.084   0.672
10768SOL    HW133203   5.857   5.005   0.680
10768SOL    HW233204   5.817   5.135   0.589
10769SOL     OW33205   2.791   4.144   5.333
10769SOL    HW133206   2.814   4.048   5.315
10769SOL    HW233207   2.691   4.154   5.335
10770SOL     OW33208   5.458   6.437   4.876
10770SOL    HW133209   5.368   6.394   4.865
10770SOL    HW233210   5.477   6.495   4.796
10771SOL     OW33211   4.746   0.283   5.735
10771SOL    HW133212   4.769   0.319   5.645
10771SOL    HW233213   4.829   0.275   5.790
10772SOL     OW33214   5.240   6.114   3.884
10772SOL    HW133215   5.256   6.025   3.841
10772SOL    HW233216   5.149   6.147   3.859
10773SOL     OW33217   0.168   4.111   0.732
10773SOL    HW133218   0.097   4.170   0.772
10773SOL    HW233219   0.129   4.062   0.653
10774SOL     OW33220   1.832   2.463   0.908
10774SOL    HW133221   1.743   2.493   0.874
10774SOL    HW233222   1.868   2.531   0.971
10775SOL     OW33223   1.960   4.486   0.705
10775SOL    HW133224   1.974   4.398   0.660
10775SOL    HW233225   2.014   4.557   0.658
10776SOL     OW33226   0.056   0.591   3.038
10776SOL    HW133227   0.028   0.497   3.060
10776SOL    HW233228   0.097   0.593   2.947
10777SOL     OW33229   2.719   0.774   3.453
10777SOL    HW133230   2.713   0.874   3.447
10777SOL    HW233231   2.689   0.734   3.366
10778SOL     OW33232   6.613   6.242   4.333
10778SOL    HW133233   6.623   6.328   4.283
10778SOL    HW233234   6.527   6.199   4.308
10779SOL     OW33235   5.787   5.059   3.123
10779SOL    HW133236   5.881   5.035   3.149
10779SOL    HW233237   5.736   5.086   3.205
10780SOL     OW33238   0.681   5.962   4.548
10780SOL    HW133239   0.654   6.057   4.535
10780SOL    HW233240   0.775   5.949   4.519
10781SOL     OW33241   6.151   2.335   5.171
10781SOL    HW133242   6.190   2.260   5.117
10781SOL    HW233243   6.138   2.415   5.112
10782SOL     OW33244   0.514   3.414   5.367
10782SOL    HW133245   0.518   3.316   5.387
10782SOL    HW233246   0.432   3.433   5.313
10783SOL     OW33247   1.422   2.419   2.615
10783SOL    HW133248   1.463   2.377   2.534
10783SOL    HW233249   1.326   2.392   2.622
10784SOL     OW33250   3.028   5.971   2.568
10784SOL    HW133251   2.947   5.913   2.577
10784SOL    HW233252   3.108   5.921   2.602
10785SOL     OW33253   1.631   5.104   1.483
10785SOL    HW133254   1.701   5.044   1.444
10785SOL    HW233255   1.675   5.183   1.525
10786SOL     OW33256   4.296   2.001   1.987
10786SOL    HW133257   4.221   1.998   1.920
10786SOL    HW233258   4.322   1.907   2.011
10787SOL     OW33259   3.090   1.476   3.968
10787SOL    HW133260   3.051   1.453   4.057
10787SOL    HW233261   3.179   1.519   3.981
10788SOL     OW33262   0.187   4.321   0.057
10788SOL    HW133263   0.219   4.226   0.059
10788SOL    HW233264   0.211   4.363   6.992
10789SOL     OW33265   6.559   1.208   6.859
10789SOL    HW133266   6.629   1.276   6.880
10789SOL    HW233267   6.532   1.161   6.943
10790SOL     OW33268   0.591   2.876   4.901
10790SOL    HW133269   0.676   2.859   4.952
10790SOL    HW233270   0.565   2.972   4.912
10791SOL     OW33271   2.002   1.613   2.382
10791SOL    HW133272   2.083   1.654   2.425
10791SOL    HW233273   1.931   1.601   2.451
10792SOL     OW33274   3.688   2.277   1.289
10792SOL    HW133275   3.619   2.328   1.238
10792SOL    HW233276   3.662   2.274   1.385
10793SOL     OW33277   5.207   1.475   4.772
10793SOL    HW133278   5.260   1.398   4.736
10793SOL    HW233279   5.208   1.471   4.872
10794SOL     OW33280   4.422   2.914   1.711
10794SOL    HW133281   4.499   2.899   1.773
10794SOL    HW233282   4.381   3.003   1.729
10795SOL     OW33283   7.006   3.651   2.353
10795SOL    HW133284   6.931   3.659   2.287
10795SOL    HW233285   0.067   3.689   2.313
10796SOL     OW33286   6.562   6.653   0.022
10796SOL    HW133287   6.630   6.633   0.092
10796SOL    HW233288   6.608   6.661   6.955
10797SOL     OW33289   4.146   3.070   0.347
10797SOL    HW133290   4.160   2.979   0.308
10797SOL    HW233291   4.070   3.068   0.411
10798SOL     OW33292   2.716   6.731   6.305
10798SOL    HW133293   2.744   6.635   6.301
10798SOL    HW233294   2.695   6.755   6.400
10799SOL     OW33295   3.371   1.417   2.505
10799SOL    HW133296   3.281   1.446   2.473
10799SOL    HW233297   3.363   1.378   2.597
10800SOL     OW33298   1.106   6.893   6.907
10800SOL    HW133299   1.038   6.959   6.873
10800SOL    HW233300   1.144   6.842   6.831
10801SOL     OW33301   2.019   5.746   6.042
10801SOL    HW133302   1.963   5.758   5.960
10801SOL    HW233303   2.076   5.827   6.055
10802SOL     OW33304   1.749   4.000   4.010
10802SOL    HW133305   1.684   3.933   4.045
10802SOL    HW233306   1.763   3.985   3.912
10803SOL     OW33307   6.031   4.786   5.210
10803SOL    HW133308   6.122   4.756   5.238
10803SOL    HW233309   5.968   4.708   5.216
10804SOL     OW33310   6.082   4.033   1.804
10804SOL    HW133311   6.099   4.101   1.733
10804SOL    HW233312   6.137   4.054   1.884
10805SOL     OW33313   4.009   6.421   0.743
10805SOL    HW133314   3.913   6.446   0.731
10805SOL    HW233315   4.019   6.367   0.826
10806SOL     OW33316   5.646   3.776   0.663
10806SOL    HW133317   5.581   3.703   0.640
10806SOL    HW233318   5.661   3.777   0.762
10807SOL     OW33319   3.668   5.618   3.274
10807SOL    HW133320   3.704   5.525   3.271
10807SOL    HW233321   3.744   5.683   3.270
10808SOL     OW33322   0.382   2.776   6.055
10808SOL    HW133323   0.327   2.827   6.122
10808SOL    HW233324   0.479   2.781   6.081
10809SOL     OW33325   2.961   0.867   4.008
10809SOL    HW133326   2.989   0.962   4.025
10809SOL    HW233327   2.867   0.855   4.039
10810SOL     OW33328   6.963   1.765   5.203
10810SOL    HW133329   6.876   1.813   5.188
10810SOL    HW233330   7.009   1.753   5.115
10811SOL     OW33331   3.988   5.380   5.161
10811SOL    HW133332   4.074   5.385   5.212
10811SOL    HW233333   4.008   5.378   5.063
10812SOL     OW33334   6.495   2.949   3.025
10812SOL    HW133335   6.572   3.010   3.046
10812SOL    HW233336   6.423   3.001   2.978
10813SOL     OW33337   3.046   6.121   2.157
10813SOL    HW133338   3.029   6.034   2.111
10813SOL    HW233339   3.059   6.193   2.089
10814SOL     OW33340   1.756   0.174   4.914
10814SOL    HW133341   1.841   0.168   4.966
10814SOL    HW233342   1.771   0.228   4.832
10815SOL     OW33343   5.577   4.051   2.960
10815SOL    HW133344   5.559   4.139   3.005
10815SOL    HW233345   5.661   4.058   2.906
10816SOL     OW33346   1.736   0.886   2.276
10816SOL    HW133347   1.781   0.972   2.299
10816SOL    HW233348   1.646   0.883   2.319
10817SOL     OW33349   4.833   0.256   2.581
10817SOL    HW133350   4.908   0.189   2.579
10817SOL    HW233351   4.805   0.272   2.676
10818SOL     OW33352   5.382   2.982   6.814
10818SOL    HW133353   5.404   2.902   6.870
10818SOL    HW233354   5.433   3.061   6.847
10819SOL     OW33355   0.602   4.748   6.367
10819SOL    HW133356   0.558   4.696   6.440
10819SOL    HW233357   0.560   4.839   6.362
10820SOL     OW33358   0.114   6.505   3.512
10820SOL    HW133359   0.172   6.558   3.573
10820SOL    HW233360   0.093   6.416   3.554
10821SOL     OW33361   6.851   0.592   1.661
10821SOL    HW133362   6.753   0.611   1.660
10821SOL    HW233363   6.896   0.646   1.590
10822SOL     OW33364   1.039   3.720   2.387
10822SOL    HW133365   0.953   3.676   2.416
10822SOL    HW233366   1.069   3.680   2.301
10823SOL     OW33367   2.441   6.150   1.230
10823SOL    HW133368   2.397   6.237   1.209
10823SOL    HW233369   2.441   6.091   1.149
10824SOL     OW33370   4.644   0.831   2.446
10824SOL    HW133371   4.699   0.782   2.378
10824SOL    HW233372   4.671   0.928   2.446
10825SOL     OW33373   3.231   1.031   1.021
10825SOL    HW133374   3.299   0.994   0.958
10825SOL    HW233375   3.213   1.127   0.998
10826SOL     OW33376   0.197   3.753   2.052
10826SOL    HW133377   0.240   3.664   2.065
10826SOL    HW233378   0.118   3.743   1.992
10827SOL     OW33379   6.831   3.611   4.393
10827SOL    HW133380   6.800   3.609   4.298
10827SOL    HW233381   6.774   3.674   4.446
10828SOL     OW33382   1.063   5.847   0.263
10828SOL    HW133383   0.979   5.838   0.317
10828SOL    HW233384   1.078   5.763   0.211
10829SOL     OW33385   3.069   4.058   2.024
10829SOL    HW133386   3.036   4.095   1.937
10829SOL    HW233387   3.021   3.973   2.045
10830SOL     OW33388   5.520   3.136   5.130
10830SOL    HW133389   5.512   3.175   5.039
10830SOL    HW233390   5.488   3.202   5.198
10831SOL     OW33391   5.526   0.986   2.955
10831SOL    HW133392   5.576   1.070   2.935
10831SOL    HW233393   5.563   0.911   2.899
10832SOL     OW33394   0.910   1.912   0.347
10832SOL    HW133395   0.892   1.934   0.252
10832SOL    HW233396   0.824   1.888   0.393
10833SOL     OW33397   2.432   0.958   4.220
10833SOL    HW133398   2.439   1.046   4.266
10833SOL    HW233399   2.484   0.889   4.272
10834SOL     OW33400   0.648   1.701   5.483
10834SOL    HW133401   0.728   1.712   5.425
10834SOL    HW233402   0.674   1.712   5.579
10835SOL     OW33403   5.770   2.029   2.193
10835SOL    HW133404   5.697   1.984   2.243
10835SOL    HW233405   5.749   2.127   2.185
10836SOL     OW33406   0.748   1.681   5.751
10836SOL    HW133407   0.822   1.628   5.793
10836SOL    HW233408   0.673   1.690   5.817
10837SOL     OW33409   7.002   4.726   0.335
10837SOL    HW133410   0.031   4.643   0.313
10837SOL    HW233411   0.040   4.805   0.333
10838SOL     OW33412   5.611   6.718   6.524
10838SOL    HW133413   5.523   6.685   6.558
10838SOL    HW233414   5.684   6.658   6.558
10839SOL     OW33415   2.405   1.789   7.016
10839SOL    HW133416   2.428   1.812   6.921
10839SOL    HW233417   2.489   1.774   0.046
10840SOL     OW33418   3.386   5.691   1.427
10840SOL    HW133419   3.322   5.659   1.357
10840SOL    HW233420   3.480   5.677   1.396
10841SOL     OW33421   4.303   5.820   5.975
10841SOL    HW133422   4.226   5.879   5.951
10841SOL    HW233423   4.269   5.728   5.998
10842SOL     OW33424   6.389   3.062   0.800
10842SOL    HW133425   6.370   3.159   0.792
10842SOL    HW233426   6.485   3.048   0.822
10843SOL     OW33427   1.123   1.672   1.887
10843SOL    HW133428   1.157   1.661   1.794
10843SOL    HW233429   1.026   1.649   1.890
10844SOL     OW33430   5.537   6.862   3.199
10844SOL    HW133431   5.592   6.933   3.242
10844SOL    HW233432   5.494   6.805   3.269
10845SOL     OW33433   1.271   1.328   1.471
10845SOL    HW133434   1.243   1.260   1.538
10845SOL    HW233435   1.364   1.308   1.439
10846SOL     OW33436   4.029   2.159   0.992
10846SOL    HW133437   4.028   2.091   0.919
10846SOL    HW233438   3.947   2.150   1.047
10847SOL     OW33439   3.755   2.214   6.082
10847SOL    HW133440   3.760   2.242   6.178
10847SOL    HW233441   3.671   2.250   6.041
10848SOL     OW33442   1.995   0.871   7.012
10848SOL    HW133443   2.036   0.792   6.967
10848SOL    HW233444   1.906   0.846   0.026
10849SOL     OW33445   2.900   4.982   4.500
10849SOL    HW133446   2.955   5.065   4.504
10849SOL    HW233447   2.913   4.929   4.584
10850SOL     OW33448   5.464   6.721   6.945
10850SOL    HW133449   5.451   6.817   6.922
10850SOL    HW233450   5.465   6.710   0.021
10851SOL     OW33451   2.456   2.406   6.184
10851SOL    HW133452   2.506   2.485   6.147
10851SOL    HW233453   2.358   2.424   6.180
10852SOL     OW33454   0.295   0.743   6.780
10852SOL    HW133455   0.298   0.706   6.687
10852SOL    HW233456   0.215   0.707   6.828
10853SOL     OW33457   2.650   1.486   4.519
10853SOL    HW133458   2.626   1.392   4.544
10853SOL    HW233459   2.705   1.527   4.591
10854SOL     OW33460   6.615   6.982   0.289
10854SOL    HW133461   6.518   6.985   0.266
10854SOL    HW233462   6.669   7.002   0.207
10855SOL     OW33463   1.596   6.338   2.309
10855SOL    HW133464   1.503   6.307   2.329
10855SOL    HW233465   1.660   6.263   2.324
10856SOL     OW33466   6.060   6.404   6.979
10856SOL    HW133467   6.103   6.417   0.045
10856SOL    HW233468   6.031   6.308   6.970
10857SOL     OW33469   6.165   1.717   3.480
10857SOL    HW133470   6.160   1.617   3.479
10857SOL    HW233471   6.097   1.754   3.416
10858SOL     OW33472   1.359   3.232   0.225
10858SOL    HW133473   1.353   3.262   0.321
10858SOL    HW233474   1.328   3.138   0.217
10859SOL     OW33475   0.892   4.686   3.305
10859SOL    HW133476   0.846   4.741   3.235
10859SOL    HW233477   0.853   4.705   3.395
10860SOL     OW33478   6.297   1.361   0.069
10860SOL    HW133479   6.309   1.262   0.079
10860SOL    HW233480   6.292   1.385   6.995
10861SOL     OW33481   2.930   2.562   1.682
10861SOL    HW133482   3.019   2.561   1.637
10861SOL    HW233483   2.935   2.513   1.768
10862SOL     OW33484   3.428   2.344   5.956
10862SOL    HW133485   3.363   2.308   6.023
10862SOL    HW233486   3.421   2.292   5.871
10863SOL     OW33487   2.434   0.671   3.441
10863SOL    HW133488   2.448   0.707   3.349
10863SOL    HW233489   2.493   0.592   3.456
10864SOL     OW33490   2.217   4.310   2.058
10864SOL    HW133491   2.289   4.251   2.022
10864SOL    HW233492   2.257   4.394   2.094
10865SOL     OW33493   4.765   2.822   3.290
10865SOL    HW133494   4.771   2.889   3.364
10865SOL    HW233495   4.784   2.867   3.203
10866SOL     OW33496   6.645   3.845   1.906
10866SOL    HW133497   6.668   3.903   1.984
10866SOL    HW233498   6.716   3.852   1.836
10867SOL     OW33499   3.298   2.285   0.271
10867SOL    HW133500   3.350   2.200   0.270
10867SOL    HW233501   3.320   2.339   0.190
10868SOL     OW33502   0.778   2.421   3.741
10868SOL    HW133503   0.706   2.372   3.694
10868SOL    HW233504   0.825   2.482   3.676
10869NA      NA33505   0.119   1.879   5.818
10870NA      NA33506   4.480   4.561   5.216
10871NA      NA33507   1.638   5.392   2.632
10872NA      NA33508   5.196   4.322   3.455
10873NA      NA33509   4.403   2.440   5.162
10874NA      NA33510   2.560   5.275   1.076
10875NA      NA33511   1.278   5.449   0.471
10876NA      NA33512   3.411   3.919   1.285
10877NA      NA33513   4.268   4.710   1.028
10878NA      NA33514   3.334   0.900   6.494
10879NA      NA33515   5.737   5.813   1.867
10880NA      NA33516   1.209   6.799   5.254
10881NA      NA33517   4.549   5.147   1.894
10882NA      NA33518   2.945   3.119   6.856
   7.02275   7.02275   7.02275
